  64  64   0   0
  0.2047586E+02  0.1108943E-08  0.1087201E-08  0.1087147E-08  0.5000000E-15
  1.000000000000000E-004
  CAR 
 Si64                                    
     10.94086242     -8.26952918  301      5.86914921      1.00000000
     -8.270  0.0000E+00  0.0000E+00
     -8.205  0.0000E+00  0.0000E+00
     -8.141  0.0000E+00  0.0000E+00
     -8.077  0.0000E+00  0.0000E+00
     -8.013  0.0000E+00  0.0000E+00
     -7.949  0.0000E+00  0.0000E+00
     -7.885 -0.6682E-29 -0.4279E-30
     -7.821 -0.1016E-26 -0.6546E-28
     -7.757 -0.1262E-24 -0.8145E-26
     -7.693 -0.1274E-22 -0.8240E-24
     -7.629 -0.1045E-20 -0.6777E-22
     -7.565 -0.6969E-19 -0.4531E-20
     -7.501 -0.3773E-17 -0.2461E-18
     -7.437 -0.1622E-15 -0.1063E-16
     -7.373 -0.5720E-14 -0.3769E-15
     -7.309 -0.1647E-12 -0.1092E-13
     -7.245 -0.3838E-11 -0.2567E-12
     -7.181 -0.7231E-10 -0.4887E-11
     -7.117 -0.1100E-08 -0.7532E-10
     -7.053 -0.1348E-07 -0.9384E-09
     -6.989 -0.1327E-06 -0.9436E-08
     -6.925 -0.1046E-05 -0.7640E-07
     -6.861 -0.6559E-05 -0.4964E-06
     -6.797 -0.3247E-04 -0.2576E-05
     -6.733 -0.1252E-03 -0.1059E-04
     -6.669 -0.3670E-03 -0.3409E-04
     -6.605 -0.7776E-03 -0.8389E-04
     -6.541 -0.1033E-02 -0.1500E-03
     -6.477 -0.2704E-03 -0.1674E-03
     -6.413  0.2312E-02 -0.1927E-04
     -6.348  0.6211E-02  0.3784E-03
     -6.284  0.1011E-01  0.1026E-02
     -6.220  0.1560E-01  0.2025E-02
     -6.156  0.2883E-01  0.3871E-02
     -6.092  0.5317E-01  0.7275E-02
     -6.028  0.8056E-01  0.1243E-01
     -5.964  0.9960E-01  0.1881E-01
     -5.900  0.1145E+00  0.2615E-01
     -5.836  0.1419E+00  0.3523E-01
     -5.772  0.1806E+00  0.4680E-01
     -5.708  0.2038E+00  0.5985E-01
     -5.644  0.1935E+00  0.7224E-01
     -5.580  0.1658E+00  0.8285E-01
     -5.516  0.1449E+00  0.9214E-01
     -5.452  0.1306E+00  0.1005E+00
     -5.388  0.1098E+00  0.1075E+00
     -5.324  0.8548E-01  0.1130E+00
     -5.260  0.7373E-01  0.1177E+00
     -5.196  0.8627E-01  0.1232E+00
     -5.132  0.1325E+00  0.1317E+00
     -5.068  0.2204E+00  0.1458E+00
     -5.004  0.3337E+00  0.1672E+00
     -4.940  0.4280E+00  0.1946E+00
     -4.876  0.4741E+00  0.2250E+00
     -4.812  0.4831E+00  0.2559E+00
     -4.748  0.4659E+00  0.2857E+00
     -4.684  0.4011E+00  0.3114E+00
     -4.620  0.2745E+00  0.3290E+00
     -4.556  0.1241E+00  0.3370E+00
     -4.491  0.1625E-01  0.3380E+00
     -4.427 -0.5378E-02  0.3377E+00
     -4.363  0.6564E-01  0.3419E+00
     -4.299  0.2078E+00  0.3552E+00
     -4.235  0.3739E+00  0.3791E+00
     -4.171  0.4978E+00  0.4110E+00
     -4.107  0.5252E+00  0.4446E+00
     -4.043  0.4526E+00  0.4736E+00
     -3.979  0.3338E+00  0.4950E+00
     -3.915  0.2467E+00  0.5108E+00
     -3.851  0.2496E+00  0.5267E+00
     -3.787  0.3540E+00  0.5494E+00
     -3.723  0.5191E+00  0.5827E+00
     -3.659  0.6723E+00  0.6257E+00
     -3.595  0.7510E+00  0.6738E+00
     -3.531  0.7359E+00  0.7209E+00
     -3.467  0.6492E+00  0.7625E+00
     -3.403  0.5370E+00  0.7969E+00
     -3.339  0.4509E+00  0.8258E+00
     -3.275  0.4182E+00  0.8525E+00
     -3.211  0.4133E+00  0.8790E+00
     -3.147  0.3755E+00  0.9030E+00
     -3.083  0.2736E+00  0.9206E+00
     -3.019  0.1399E+00  0.9295E+00
     -2.955  0.3190E-01  0.9316E+00
     -2.891 -0.1967E-01  0.9303E+00
     -2.827 -0.1773E-01  0.9292E+00
     -2.763  0.2527E-01  0.9308E+00
     -2.699  0.9439E-01  0.9368E+00
     -2.634  0.1607E+00  0.9471E+00
     -2.570  0.1862E+00  0.9590E+00
     -2.506  0.1531E+00  0.9688E+00
     -2.442  0.8636E-01  0.9744E+00
     -2.378  0.4143E-01  0.9770E+00
     -2.314  0.7097E-01  0.9816E+00
     -2.250  0.1942E+00  0.9940E+00
     -2.186  0.3780E+00  0.1018E+01
     -2.122  0.5406E+00  0.1053E+01
     -2.058  0.5942E+00  0.1091E+01
     -1.994  0.5065E+00  0.1123E+01
     -1.930  0.3279E+00  0.1144E+01
     -1.866  0.1532E+00  0.1154E+01
     -1.802  0.5622E-01  0.1158E+01
     -1.738  0.5240E-01  0.1161E+01
     -1.674  0.1054E+00  0.1168E+01
     -1.610  0.1580E+00  0.1178E+01
     -1.546  0.1683E+00  0.1189E+01
     -1.482  0.1354E+00  0.1197E+01
     -1.418  0.9802E-01  0.1204E+01
     -1.354  0.1067E+00  0.1211E+01
     -1.290  0.1869E+00  0.1222E+01
     -1.226  0.3139E+00  0.1243E+01
     -1.162  0.4257E+00  0.1270E+01
     -1.098  0.4770E+00  0.1300E+01
     -1.034  0.4871E+00  0.1332E+01
     -0.970  0.5227E+00  0.1365E+01
     -0.906  0.6322E+00  0.1406E+01
     -0.842  0.7887E+00  0.1456E+01
     -0.777  0.8861E+00  0.1513E+01
     -0.713  0.8146E+00  0.1565E+01
     -0.649  0.5739E+00  0.1602E+01
     -0.585  0.3007E+00  0.1621E+01
     -0.521  0.1551E+00  0.1631E+01
     -0.457  0.1851E+00  0.1643E+01
     -0.393  0.3043E+00  0.1662E+01
     -0.329  0.3829E+00  0.1687E+01
     -0.265  0.3552E+00  0.1709E+01
     -0.201  0.2516E+00  0.1726E+01
     -0.137  0.1469E+00  0.1735E+01
     -0.073  0.9294E-01  0.1741E+01
     -0.009  0.9916E-01  0.1747E+01
      0.055  0.1513E+00  0.1757E+01
      0.119  0.2305E+00  0.1772E+01
      0.183  0.3195E+00  0.1792E+01
      0.247  0.3972E+00  0.1818E+01
      0.311  0.4307E+00  0.1845E+01
      0.375  0.3885E+00  0.1870E+01
      0.439  0.2750E+00  0.1888E+01
      0.503  0.1390E+00  0.1897E+01
      0.567  0.3672E-01  0.1899E+01
      0.631 -0.1073E-01  0.1898E+01
      0.695 -0.1890E-01  0.1897E+01
      0.759 -0.1315E-01  0.1896E+01
      0.823 -0.9824E-02  0.1896E+01
      0.887 -0.1579E-01  0.1895E+01
      0.951 -0.3163E-01  0.1893E+01
      1.015 -0.4395E-01  0.1890E+01
      1.080 -0.1099E-01  0.1889E+01
      1.144  0.1285E+00  0.1897E+01
      1.208  0.3974E+00  0.1923E+01
      1.272  0.7133E+00  0.1968E+01
      1.336  0.9111E+00  0.2027E+01
      1.400  0.8723E+00  0.2083E+01
      1.464  0.6357E+00  0.2123E+01
      1.528  0.3638E+00  0.2147E+01
      1.592  0.2064E+00  0.2160E+01
      1.656  0.2027E+00  0.2173E+01
      1.720  0.2844E+00  0.2191E+01
      1.784  0.3550E+00  0.2214E+01
      1.848  0.3794E+00  0.2238E+01
      1.912  0.4195E+00  0.2265E+01
      1.976  0.5739E+00  0.2302E+01
      2.040  0.8649E+00  0.2357E+01
      2.104  0.1181E+01  0.2433E+01
      2.168  0.1347E+01  0.2519E+01
      2.232  0.1254E+01  0.2599E+01
      2.296  0.9402E+00  0.2659E+01
      2.360  0.5447E+00  0.2694E+01
      2.424  0.2101E+00  0.2708E+01
      2.488  0.4822E-02  0.2708E+01
      2.552 -0.7517E-01  0.2703E+01
      2.616 -0.4394E-01  0.2700E+01
      2.680  0.1224E+00  0.2708E+01
      2.744  0.4508E+00  0.2737E+01
      2.808  0.8814E+00  0.2794E+01
      2.872  0.1250E+01  0.2874E+01
      2.937  0.1407E+01  0.2964E+01
      3.001  0.1337E+01  0.3049E+01
      3.065  0.1145E+01  0.3123E+01
      3.129  0.9376E+00  0.3183E+01
      3.193  0.7641E+00  0.3232E+01
      3.257  0.6520E+00  0.3273E+01
      3.321  0.6233E+00  0.3313E+01
      3.385  0.6617E+00  0.3356E+01
      3.449  0.6993E+00  0.3400E+01
      3.513  0.6733E+00  0.3444E+01
      3.577  0.5924E+00  0.3482E+01
      3.641  0.5226E+00  0.3515E+01
      3.705  0.5057E+00  0.3547E+01
      3.769  0.5202E+00  0.3581E+01
      3.833  0.5282E+00  0.3614E+01
      3.897  0.5343E+00  0.3649E+01
      3.961  0.5802E+00  0.3686E+01
      4.025  0.6922E+00  0.3730E+01
      4.089  0.8426E+00  0.3784E+01
      4.153  0.9609E+00  0.3846E+01
      4.217  0.9824E+00  0.3909E+01
      4.281  0.8925E+00  0.3966E+01
      4.345  0.7272E+00  0.4012E+01
      4.409  0.5366E+00  0.4047E+01
      4.473  0.3596E+00  0.4070E+01
      4.537  0.2275E+00  0.4084E+01
      4.601  0.1658E+00  0.4095E+01
      4.665  0.1811E+00  0.4106E+01
      4.730  0.2495E+00  0.4122E+01
      4.794  0.3226E+00  0.4143E+01
      4.858  0.3486E+00  0.4165E+01
      4.922  0.3014E+00  0.4185E+01
      4.986  0.2025E+00  0.4198E+01
      5.050  0.1082E+00  0.4205E+01
      5.114  0.6712E-01  0.4209E+01
      5.178  0.8670E-01  0.4214E+01
      5.242  0.1352E+00  0.4223E+01
      5.306  0.1701E+00  0.4234E+01
      5.370  0.1663E+00  0.4245E+01
      5.434  0.1282E+00  0.4253E+01
      5.498  0.8080E-01  0.4258E+01
      5.562  0.4694E-01  0.4261E+01
      5.626  0.3121E-01  0.4263E+01
      5.690  0.2318E-01  0.4265E+01
      5.754  0.1415E-01  0.4265E+01
      5.818  0.7928E-02  0.4266E+01
      5.882  0.1575E-01  0.4267E+01
      5.946  0.4283E-01  0.4270E+01
      6.010  0.8046E-01  0.4275E+01
      6.074  0.1120E+00  0.4282E+01
      6.138  0.1264E+00  0.4290E+01
      6.202  0.1235E+00  0.4298E+01
      6.266  0.1080E+00  0.4305E+01
      6.330  0.8663E-01  0.4311E+01
      6.394  0.7176E-01  0.4315E+01
      6.458  0.7809E-01  0.4320E+01
      6.522  0.1089E+00  0.4327E+01
      6.587  0.1510E+00  0.4337E+01
      6.651  0.1900E+00  0.4349E+01
      6.715  0.2237E+00  0.4363E+01
      6.779  0.2583E+00  0.4380E+01
      6.843  0.2978E+00  0.4399E+01
      6.907  0.3438E+00  0.4421E+01
      6.971  0.3917E+00  0.4446E+01
      7.035  0.4225E+00  0.4473E+01
      7.099  0.4147E+00  0.4500E+01
      7.163  0.3792E+00  0.4524E+01
      7.227  0.3635E+00  0.4547E+01
      7.291  0.4042E+00  0.4573E+01
      7.355  0.4883E+00  0.4604E+01
      7.419  0.5816E+00  0.4642E+01
      7.483  0.6723E+00  0.4685E+01
      7.547  0.7584E+00  0.4733E+01
      7.611  0.8187E+00  0.4786E+01
      7.675  0.8380E+00  0.4839E+01
      7.739  0.8399E+00  0.4893E+01
      7.803  0.8525E+00  0.4948E+01
      7.867  0.8617E+00  0.5003E+01
      7.931  0.8389E+00  0.5056E+01
      7.995  0.7921E+00  0.5107E+01
      8.059  0.7526E+00  0.5155E+01
      8.123  0.7238E+00  0.5202E+01
      8.187  0.6760E+00  0.5245E+01
      8.251  0.5885E+00  0.5283E+01
      8.315  0.4745E+00  0.5313E+01
      8.379  0.3645E+00  0.5336E+01
      8.444  0.2784E+00  0.5354E+01
      8.508  0.2165E+00  0.5368E+01
      8.572  0.1669E+00  0.5379E+01
      8.636  0.1177E+00  0.5386E+01
      8.700  0.6858E-01  0.5391E+01
      8.764  0.3112E-01  0.5393E+01
      8.828  0.1603E-01  0.5394E+01
      8.892  0.2000E-01  0.5395E+01
      8.956  0.2808E-01  0.5397E+01
      9.020  0.2778E-01  0.5399E+01
      9.084  0.1838E-01  0.5400E+01
      9.148  0.7188E-02  0.5400E+01
      9.212  0.2534E-03  0.5400E+01
      9.276 -0.1820E-02  0.5400E+01
      9.340 -0.1448E-02  0.5400E+01
      9.404 -0.6823E-03  0.5400E+01
      9.468 -0.2301E-03  0.5400E+01
      9.532 -0.5888E-04  0.5400E+01
      9.596 -0.1173E-04  0.5400E+01
      9.660 -0.1846E-05  0.5400E+01
      9.724 -0.2312E-06  0.5400E+01
      9.788 -0.2319E-07  0.5400E+01
      9.852 -0.1869E-08  0.5400E+01
      9.916 -0.1214E-09  0.5400E+01
      9.980 -0.6370E-11  0.5400E+01
     10.044 -0.2702E-12  0.5400E+01
     10.108 -0.9276E-14  0.5400E+01
     10.172 -0.2745E-15  0.5400E+01
     10.236  0.0000E+00  0.5400E+01
     10.301  0.0000E+00  0.5400E+01
     10.365  0.0000E+00  0.5400E+01
     10.429  0.0000E+00  0.5400E+01
     10.493  0.0000E+00  0.5400E+01
     10.557  0.0000E+00  0.5400E+01
     10.621  0.0000E+00  0.5400E+01
     10.685  0.0000E+00  0.5400E+01
     10.749  0.0000E+00  0.5400E+01
     10.813  0.0000E+00  0.5400E+01
     10.877  0.0000E+00  0.5400E+01
     10.941  0.0000E+00  0.5400E+01
