       N       E                     dE             d eps       ncg     rms          rms(c)
DAV:   1     0.553107497446E+03    0.55311E+03   -0.83261E+04  2592   0.106E+03
DAV:   2    -0.309705774709E+03   -0.86281E+03   -0.81840E+03  3096   0.170E+02
DAV:   3    -0.372353152244E+03   -0.62647E+02   -0.61513E+02  3144   0.407E+01
DAV:   4    -0.373982160758E+03   -0.16290E+01   -0.16182E+01  3144   0.800E+00
DAV:   5    -0.374031012757E+03   -0.48852E-01   -0.48732E-01  3112   0.131E+00    0.273E+01
RMM:   6    -0.369349918117E+03    0.46811E+01   -0.22867E+00  2592   0.235E+00    0.164E+01
RMM:   7    -0.367168051412E+03    0.21819E+01   -0.59033E+00  2623   0.382E+00    0.875E-01
RMM:   8    -0.367215676130E+03   -0.47625E-01   -0.60326E-01  2634   0.147E+00    0.481E-01
RMM:   9    -0.367233989800E+03   -0.18314E-01   -0.16966E-01  2679   0.727E-01    0.563E-01
RMM:  10    -0.367237207528E+03   -0.32177E-02   -0.28817E-02  2737   0.337E-01    0.780E-01
RMM:  11    -0.367235620772E+03    0.15868E-02   -0.10366E-02  2592   0.205E-01    0.582E-01
RMM:  12    -0.367235768055E+03   -0.14728E-03   -0.16903E-03  2600   0.964E-02    0.550E-01
RMM:  13    -0.367235807543E+03   -0.39488E-04   -0.29726E-04  2781   0.386E-02    0.640E-01
RMM:  14    -0.367235859247E+03   -0.51704E-04   -0.82071E-05  2596   0.226E-02    0.280E-01
RMM:  15    -0.367235900873E+03   -0.41626E-04   -0.25290E-05  2652   0.113E-02    0.205E-01
RMM:  16    -0.367235921981E+03   -0.21108E-04   -0.15053E-05  2592   0.890E-03    0.103E-01
RMM:  17    -0.367235929350E+03   -0.73692E-05   -0.90491E-06  2596   0.680E-03    0.181E-02
RMM:  18    -0.367235929615E+03   -0.26495E-06   -0.32472E-06  1825   0.370E-03
   1 F= -.36723593E+03 E0= -.36724419E+03  d E =-.367236E+03
       N       E                     dE             d eps       ncg     rms          rms(c)
DAV:   1    -0.367265661842E+03   -0.29732E-01   -0.12541E+00  2952   0.213E+00    0.463E-01
RMM:   2    -0.367272062250E+03   -0.64004E-02   -0.67925E-02  2592   0.537E-01    0.189E-01
RMM:   3    -0.367273231361E+03   -0.11691E-02   -0.11460E-02  2645   0.247E-01    0.825E-02
RMM:   4    -0.367273265769E+03   -0.34408E-04   -0.15735E-03  2688   0.104E-01    0.287E-02
RMM:   5    -0.367273278439E+03   -0.12669E-04   -0.27195E-04  2701   0.413E-02    0.724E-03
RMM:   6    -0.367273284155E+03   -0.57165E-05   -0.56648E-05  2763   0.174E-02    0.114E-03
RMM:   7    -0.367273284925E+03   -0.76956E-06   -0.80005E-06  2147   0.654E-03    0.107E-03
RMM:   8    -0.367273285105E+03   -0.17992E-06   -0.18689E-06  1709   0.301E-03
   2 F= -.36727329E+03 E0= -.36728097E+03  d E =-.373555E-01
       N       E                     dE             d eps       ncg     rms          rms(c)
DAV:   1    -0.367275322399E+03   -0.20375E-02   -0.48267E-02  2942   0.418E-01    0.895E-02
RMM:   2    -0.367275565018E+03   -0.24262E-03   -0.25652E-03  2592   0.105E-01    0.367E-02
RMM:   3    -0.367275609803E+03   -0.44786E-04   -0.42396E-04  2641   0.481E-02    0.159E-02
RMM:   4    -0.367275611759E+03   -0.19550E-05   -0.58835E-05  2687   0.202E-02    0.546E-03
RMM:   5    -0.367275612362E+03   -0.60327E-06   -0.10038E-05  2469   0.803E-03    0.135E-03
RMM:   6    -0.367275612535E+03   -0.17364E-06   -0.19174E-06  1689   0.338E-03    0.225E-04
RMM:   7    -0.367275612575E+03   -0.40041E-07   -0.38658E-07  1478   0.143E-03    0.145E-04
RMM:   8    -0.367275612589E+03   -0.13682E-07   -0.99139E-08  1051   0.737E-04
   3 F= -.36727561E+03 E0= -.36728355E+03  d E =-.396830E-01
