<?xml version="1.0" encoding="ISO-8859-1"?>
<modeling>
 <generator>
  <i name="program" type="string">vasp </i>
  <i name="version" type="string">6.4.3  </i>
  <i name="subversion" type="string">19Mar24 (build Oct 21 2024 22:36:34) complex                          parallel </i>
  <i name="platform" type="string">LinuxIFC </i>
  <i name="date" type="string">2024 11 01 </i>
  <i name="time" type="string">22:45:07 </i>
 </generator>
 <incar>
  <i type="string" name="SYSTEM">Si64</i>
  <i type="int" name="ISTART">     0</i>
  <i type="string" name="PREC">Accurate</i>
  <i type="string" name="ALGO">Fast</i>
  <i type="logical" name="ADDGRID"> T  </i>
  <i type="int" name="ICHARG">     2</i>
  <i type="int" name="NELM">    60</i>
  <i type="int" name="NELMIN">     8</i>
  <i type="int" name="IBRION">     2</i>
  <i name="EDIFF">      0.00000100</i>
  <i name="EDIFFG">     -0.01000000</i>
  <i type="int" name="NSW">    60</i>
  <i type="int" name="ISIF">     2</i>
  <i name="ENCUT">    400.00000000</i>
  <i type="string" name="LREAL">Auto</i>
  <i type="int" name="ISMEAR">     1</i>
  <i name="SIGMA">      0.20000000</i>
  <i type="logical" name="LWAVE"> F  </i>
  <i type="logical" name="LCHARG"> F  </i>
  <i type="logical" name="GGA_COMPAT"> F  </i>
  <i type="string" name="GGA">PS</i>
 </incar>
 <primitive_cell>
  <structure name="primitive_cell" >
   <crystal>
    <varray name="basis" >
     <v>       0.02717875       2.71786690      -2.71786690 </v>
     <v>       0.02717875       2.71786690       2.71786690 </v>
     <v>       2.74504541      -2.69068815       0.00000000 </v>
    </varray>
    <i name="volume">     40.95171828 </i>
    <varray name="rec_basis" >
     <v>       0.17857449       0.18218205      -0.18396780 </v>
     <v>       0.17857449       0.18218205       0.18396780 </v>
     <v>       0.36075656      -0.00360758      -0.00000000 </v>
    </varray>
   </crystal>
   <varray name="positions" >
    <v>       0.00000000       0.00000000       0.00000000 </v>
    <v>       0.25000000       0.75000000       0.50000000 </v>
   </varray>
  </structure>
  <varray name="primitive_index" >
   <v type="int" >        1 </v>
   <v type="int" >       15 </v>
  </varray>
 </primitive_cell>
 <kpoints>
  <generation param="Gamma">
   <v type="int" name="divisions">       2        2        2 </v>
   <v name="usershift">      0.00000000       0.00000000       0.00000000 </v>
   <v name="genvec1">      0.50000000       0.00000000       0.00000000 </v>
   <v name="genvec2">      0.00000000       0.50000000       0.00000000 </v>
   <v name="genvec3">      0.00000000       0.00000000       0.50000000 </v>
   <v name="shift">      0.00000000       0.00000000       0.00000000 </v>
  </generation>
  <varray name="kpointlist" >
   <v>       0.00000000       0.00000000       0.00000000 </v>
   <v>       0.50000000      -0.00000000       0.00000000 </v>
   <v>       0.00000000       0.50000000       0.00000000 </v>
   <v>       0.50000000       0.50000000       0.00000000 </v>
   <v>       0.00000000       0.00000000       0.50000000 </v>
   <v>       0.50000000      -0.00000000       0.50000000 </v>
   <v>       0.00000000       0.50000000       0.50000000 </v>
   <v>       0.50000000       0.50000000       0.50000000 </v>
  </varray>
  <varray name="weights" >
   <v>       0.12500000 </v>
   <v>       0.12500000 </v>
   <v>       0.12500000 </v>
   <v>       0.12500000 </v>
   <v>       0.12500000 </v>
   <v>       0.12500000 </v>
   <v>       0.12500000 </v>
   <v>       0.12500000 </v>
  </varray>
 </kpoints>
 <parameters>
  <separator name="general" >
   <i type="string" name="SYSTEM">Si64</i>
   <i type="logical" name="LCOMPAT"> F  </i>
  </separator>
  <separator name="electronic" >
   <i type="string" name="PREC">accura</i>
   <i name="ENMAX">    400.00000000</i>
   <i name="ENAUG">    322.06900000</i>
   <i name="EDIFF">      0.00000100</i>
   <i type="int" name="IALGO">    68</i>
   <i type="int" name="IWAVPR">    11</i>
   <i type="int" name="NBANDS">   162</i>
   <i type="int" name="NBANDSLOW">    -1</i>
   <i type="int" name="NBANDSHIGH">    -1</i>
   <i name="NELECT">    256.00000000</i>
   <i type="int" name="TURBO">     0</i>
   <i type="int" name="IRESTART">     0</i>
   <i type="int" name="NREBOOT">     0</i>
   <i type="int" name="NMIN">     0</i>
   <i name="EREF">      0.00000000</i>
   <separator name="electronic smearing" >
    <i type="int" name="ISMEAR">     1</i>
    <i name="SIGMA">      0.20000000</i>
    <i name="KSPACING">      0.50000000</i>
    <i type="logical" name="KGAMMA"> T  </i>
    <i type="logical" name="KBLOWUP"> T  </i>
   </separator>
   <separator name="electronic projectors" >
    <i type="logical" name="LREAL"> T  </i>
    <v name="ROPT">     -0.00025000</v>
    <i type="int" name="LMAXPAW">  -100</i>
    <i type="int" name="LMAXMIX">     2</i>
    <i type="logical" name="NLSPLINE"> F  </i>
   </separator>
   <separator name="electronic startup" >
    <i type="int" name="ISTART">     0</i>
    <i type="int" name="ICHARG">     2</i>
    <i type="int" name="INIWAV">     1</i>
   </separator>
   <separator name="electronic spin" >
    <i type="int" name="ISPIN">     1</i>
    <i type="logical" name="LNONCOLLINEAR"> F  </i>
    <v name="MAGMOM">      1.00000000      1.00000000      1.00000000      1.00000000      1.00000000      1.00000000      1.00000000      1.00000000      1.00000000      1.00000000      1.00000000      1.00000000      1.00000000      1.00000000      1.00000000      1.00000000      1.00000000      1.00000000      1.00000000      1.00000000
      1.00000000      1.00000000      1.00000000      1.00000000      1.00000000      1.00000000      1.00000000      1.00000000      1.00000000      1.00000000      1.00000000      1.00000000      1.00000000      1.00000000      1.00000000      1.00000000      1.00000000      1.00000000      1.00000000      1.00000000
      1.00000000      1.00000000      1.00000000      1.00000000      1.00000000      1.00000000      1.00000000      1.00000000      1.00000000      1.00000000      1.00000000      1.00000000      1.00000000      1.00000000      1.00000000      1.00000000      1.00000000      1.00000000      1.00000000      1.00000000
      1.00000000      1.00000000      1.00000000      1.00000000</v>
    <i name="NUPDOWN">     -1.00000000</i>
    <i type="logical" name="LSORBIT"> F  </i>
    <v name="SAXIS">      0.00000000      0.00000000      1.00000000</v>
    <i type="logical" name="LSPIRAL"> F  </i>
    <v name="QSPIRAL">      0.00000000      0.00000000      0.00000000</v>
    <i type="logical" name="LZEROZ"> F  </i>
   </separator>
   <separator name="electronic exchange-correlation" >
    <i type="logical" name="LASPH"> F  </i>
   </separator>
   <separator name="electronic convergence" >
    <i type="int" name="NELM">    60</i>
    <i type="int" name="NELMDL">    -5</i>
    <i type="int" name="NELMIN">     8</i>
    <i name="ENINI">    400.00000000</i>
    <separator name="electronic convergence detail" >
     <i type="logical" name="LDIAG"> T  </i>
     <i type="logical" name="LSUBROT"> F  </i>
     <i name="WEIMIN">      0.00100000</i>
     <i name="EBREAK">      0.00000000</i>
     <i name="DEPER">      0.30000000</i>
     <i type="int" name="NRMM">     4</i>
     <i name="TIME">      0.40000000</i>
    </separator>
   </separator>
   <separator name="electronic mixer" >
    <i name="AMIX">      0.40000000</i>
    <i name="BMIX">      1.00000000</i>
    <i name="AMIN">      0.10000000</i>
    <i name="AMIX_MAG">      1.60000000</i>
    <i name="BMIX_MAG">      1.00000000</i>
    <separator name="electronic mixer details" >
     <i type="int" name="IMIX">     4</i>
     <i type="logical" name="MIXFIRST"> F  </i>
     <i type="int" name="MAXMIX">   -45</i>
     <i name="WC">    100.00000000</i>
     <i type="int" name="INIMIX">     1</i>
     <i type="int" name="MIXPRE">     1</i>
     <i type="int" name="MREMOVE">     5</i>
    </separator>
   </separator>
   <separator name="electronic dipolcorrection" >
    <i type="logical" name="LDIPOL"> F  </i>
    <i type="logical" name="LMONO"> F  </i>
    <i type="int" name="IDIPOL">     0</i>
    <i name="EPSILON">      1.00000000</i>
    <v name="DIPOL">   -100.00000000   -100.00000000   -100.00000000</v>
    <i name="EFIELD">      0.00000000</i>
    <i type="logical" name="LVACPOTAV"> F  </i>
   </separator>
  </separator>
  <separator name="grids" >
   <i type="int" name="NGX">    72</i>
   <i type="int" name="NGY">    72</i>
   <i type="int" name="NGZ">    72</i>
   <i type="int" name="NGXF">   144</i>
   <i type="int" name="NGYF">   144</i>
   <i type="int" name="NGZF">   144</i>
   <i type="logical" name="ADDGRID"> T  </i>
  </separator>
  <separator name="ionic" >
   <i type="int" name="NSW">    60</i>
   <i type="int" name="IBRION">     2</i>
   <i type="int" name="MDALGO">     0</i>
   <i type="int" name="ISIF">     2</i>
   <i name="PSTRESS">      0.00000000</i>
   <i name="EDIFFG">     -0.01000000</i>
   <i type="int" name="NFREE">     1</i>
   <i name="POTIM">      0.50000000</i>
   <i name="SMASS">     -3.00000000</i>
   <i name="SCALEE">      1.00000000</i>
  </separator>
  <separator name="ionic md" >
   <i name="TEBEG">      0.00010000</i>
   <i name="TEEND">      0.00010000</i>
   <i type="int" name="NBLOCK">     1</i>
   <i type="int" name="KBLOCK">    60</i>
   <i type="int" name="NPACO">   256</i>
   <i name="APACO">     10.00000000</i>
  </separator>
  <separator name="symmetry" >
   <i type="int" name="ISYM">     2</i>
   <i name="SYMPREC">      0.00001000</i>
  </separator>
  <separator name="dos" >
   <i type="int" name="LORBIT">     0</i>
   <v name="RWIGS">     -1.00000000</v>
   <i type="int" name="NEDOS">   301</i>
   <i name="EMIN">     10.00000000</i>
   <i name="EMAX">    -10.00000000</i>
   <i name="EFERMI">      0.00000000</i>
  </separator>
  <separator name="writing" >
   <i type="int" name="NWRITE">     2</i>
   <i type="logical" name="LWAVE"> F  </i>
   <i type="logical" name="LDOWNSAMPLE"> F  </i>
   <i type="logical" name="LCHARG"> F  </i>
   <i type="logical" name="LPARD"> F  </i>
   <i type="logical" name="LVTOT"> F  </i>
   <i type="logical" name="LVHAR"> F  </i>
   <i type="logical" name="LELF"> F  </i>
   <i type="logical" name="LOPTICS"> F  </i>
   <v name="STM">      0.00000000      0.00000000      0.00000000      0.00000000      0.00000000      0.00000000      0.00000000</v>
  </separator>
  <separator name="performance" >
   <i type="int" name="NPAR">     2</i>
   <i type="int" name="NSIM">     4</i>
   <i type="int" name="NBLK">    -1</i>
   <i type="logical" name="LPLANE"> T  </i>
   <i type="logical" name="LSCALAPACK"> T  </i>
   <i type="logical" name="LSCAAWARE"> F  </i>
   <i type="logical" name="LSCALU"> F  </i>
   <i type="logical" name="LASYNC"> F  </i>
   <i type="logical" name="LORBITALREAL"> F  </i>
  </separator>
  <separator name="miscellaneous" >
   <i type="int" name="IDIOT">     3</i>
   <i type="int" name="PHON_NSTRUCT">    -1</i>
   <i type="logical" name="LMUSIC"> F  </i>
   <v name="POMASS">     28.08500000</v>
   <v name="DARWINR">      0.00000000</v>
   <v name="DARWINV">      1.00000000</v>
   <i type="logical" name="LCORR"> T  </i>
  </separator>
  <i type="logical" name="GGA_COMPAT"> F  </i>
  <i type="logical" name="LBERRY"> F  </i>
  <i type="int" name="ICORELEVEL">     0</i>
  <i type="logical" name="LDAU"> F  </i>
  <i type="int" name="I_CONSTRAINED_M">     0</i>
  <separator name="electronic exchange-correlation" >
   <i type="string" name="GGA    ">PS</i>
   <i type="string" name="XC_C">1</i>
   <i type="int" name="VOSKOWN">     0</i>
   <i type="logical" name="LHFCALC"> F  </i>
   <i type="string" name="PRECFOCK"></i>
   <i type="logical" name="LSYMGRAD"> F  </i>
   <i type="logical" name="LHFONE"> F  </i>
   <i type="logical" name="LRHFCALC"> F  </i>
   <i type="logical" name="LTHOMAS"> F  </i>
   <i type="logical" name="LMODELHF"> F  </i>
   <i type="logical" name="LFOCKACE"> F  </i>
   <i name="ENCUT4O">     -1.00000000</i>
   <i type="int" name="EXXOEP">     0</i>
   <i type="int" name="FOURORBIT">     0</i>
   <i name="AEXX">      0.00000000</i>
   <i name="HFALPHA">      0.00000000</i>
   <i name="MCALPHA">      0.00000000</i>
   <i name="ALDAX">      1.00000000</i>
   <i name="AGGAX">      1.00000000</i>
   <i name="AMGGAX">      1.00000000</i>
   <i name="ALDAC">      1.00000000</i>
   <i name="AGGAC">      1.00000000</i>
   <i name="AMGGAC">      1.00000000</i>
   <i type="int" name="NKREDX">     1</i>
   <i type="int" name="NKREDY">     1</i>
   <i type="int" name="NKREDZ">     1</i>
   <i type="logical" name="SHIFTRED"> F  </i>
   <i type="logical" name="ODDONLY"> F  </i>
   <i type="logical" name="EVENONLY"> F  </i>
   <i type="int" name="LMAXFOCK">     0</i>
   <i type="int" name="NMAXFOCKAE">     0</i>
   <i type="logical" name="LFOCKAEDFT"> F  </i>
   <i name="HFSCREEN">      0.00000000</i>
   <i name="HFSCREENC">      0.00000000</i>
   <i type="int" name="NBANDSGWLOW">     0</i>
  </separator>
  <separator name="vdW DFT" >
   <i type="logical" name="LUSE_VDW"> F  </i>
   <i type="int" name="IVDW_NL">    -1</i>
   <i type="logical" name="LSPIN_VDW"> F  </i>
   <i name="ZAB_VDW">     -0.84910000</i>
   <i name="GAMMA_VDW">      1.39626340</i>
   <i name="ALPHA_VDW">      0.00000000</i>
   <i name="PARAM1">      0.12340000</i>
   <i name="PARAM2">      1.00000000</i>
   <i name="BPARAM">      6.30000000</i>
   <i name="CPARAM">      0.00930000</i>
  </separator>
  <separator name="model GW" >
   <i type="int" name="MODEL_GW">     0</i>
   <i name="MODEL_EPS0">     12.28551549</i>
   <i name="MODEL_ALPHA">      1.00000000</i>
  </separator>
  <separator name="linear response parameters" >
   <i type="logical" name="LEPSILON"> F  </i>
   <i type="logical" name="LRPA"> F  </i>
   <i type="logical" name="LNABLA"> F  </i>
   <i type="logical" name="LVEL"> F  </i>
   <i name="CSHIFT">      0.10000000</i>
   <i name="OMEGAMAX">     -1.00000000</i>
   <i name="DEG_THRESHOLD">      0.00200000</i>
   <i name="RTIME">     -0.10000000</i>
   <i name="WPLASMAI">      0.00000000</i>
   <v name="DFIELD">      0.00000000      0.00000000      0.00000000</v>
   <v name="WPLASMA">      0.00000000      0.00000000      0.00000000      0.00000000      0.00000000      0.00000000      0.00000000      0.00000000      0.00000000</v>
  </separator>
  <separator name="orbital magnetization" >
   <i type="logical" name="NUCIND"> F  </i>
   <v name="MAGPOS">      0.00000000      0.00000000      0.00000000</v>
   <i type="logical" name="LNICSALL"> T  </i>
   <i type="logical" name="ORBITALMAG"> F  </i>
   <i type="logical" name="LMAGBLOCH"> F  </i>
   <i type="logical" name="LCHIMAG"> F  </i>
   <i type="logical" name="LGAUGE"> T  </i>
   <i type="int" name="MAGATOM">     0</i>
   <v name="MAGDIPOL">      0.00000000      0.00000000      0.00000000</v>
   <v name="AVECCONST">      0.00000000      0.00000000      0.00000000</v>
  </separator>
  <separator name="response functions" >
   <i type="logical" name="LALL_IN_ONE"> F  </i>
   <i type="int" name="IALL_IN_ONE">    -1</i>
   <i type="int" name="NBANDS_WAVE">    -1</i>
   <i type="logical" name="LFINITE_TEMPERATURE"> F  </i>
   <i type="logical" name="LADDER"> F  </i>
   <i type="logical" name="LRPAFORCE"> F  </i>
   <i type="logical" name="LFXC"> F  </i>
   <i type="logical" name="LHARTREE"> T  </i>
   <i type="int" name="IBSE">     0</i>
   <v type="int" name="KPOINT">    -1     0     0     0</v>
   <i type="logical" name="LTCTC"> F  </i>
   <i type="logical" name="LTCTE"> F  </i>
   <i type="logical" name="LTETE"> F  </i>
   <i type="logical" name="LTRIPLET"> F  </i>
   <i type="logical" name="LFXCEPS"> F  </i>
   <i type="logical" name="LFXHEG"> F  </i>
   <i type="int" name="NATURALO">     2</i>
   <i type="logical" name="LHOLEGF"> F  </i>
   <i type="logical" name="L2ORDER"> F  </i>
   <i type="logical" name="LDMP1"> F  </i>
   <i type="logical" name="LMP2LT"> F  </i>
   <i type="logical" name="LSMP2LT"> F  </i>
   <i type="logical" name="LGWLF"> F  </i>
   <i name="ENCUTGW">     -1.60000002</i>
   <i name="ENCUTGWSOFT">     -1.60000002</i>
   <i name="ENCUTLF">     -1.00000000</i>
   <i type="logical" name="ESF_SPLINES"> F  </i>
   <i name="ESF_CONV">      0.01000000</i>
   <i type="int" name="ESF_NINTER">    15</i>
   <i type="int" name="LMAXMP2">    -1</i>
   <i name="SCISSOR">      0.00000000</i>
   <i type="int" name="NOMEGA">     0</i>
   <i type="int" name="NOMEGAR">     0</i>
   <i type="int" name="NBANDSGW">    -1</i>
   <i type="int" name="NBANDSO">    -1</i>
   <i type="int" name="NBANDSV">    -1</i>
   <i type="int" name="NELMGW">     1</i>
   <i type="int" name="NELMHF">     1</i>
   <i type="int" name="DIM">     3</i>
   <i type="int" name="IESPILON">     4</i>
   <i type="int" name="ANTIRES">     0</i>
   <i name="OMEGAMAX">    -30.00000000</i>
   <i name="OMEGAMIN">    -30.00000000</i>
   <i name="OMEGATL">   -200.00000000</i>
   <i type="int" name="OMEGAGRID">     0</i>
   <i name="CSHIFT">     -0.10000000</i>
   <i type="logical" name="LSELFENERGY"> F  </i>
   <i type="logical" name="LSPECTRAL"> F  </i>
   <i type="logical" name="LSPECTRALGW"> F  </i>
   <i type="logical" name="LSINGLES"> F  </i>
   <i type="logical" name="LFERMIGW"> F  </i>
   <i type="logical" name="ODDONLYGW"> F  </i>
   <i type="logical" name="EVENONLYGW"> F  </i>
   <i type="int" name="NKREDLFX">     1</i>
   <i type="int" name="NKREDLFY">     1</i>
   <i type="int" name="NKREDLFZ">     1</i>
   <i type="int" name="MAXMEM">  2800</i>
   <i type="int" name="TELESCOPE">     0</i>
   <i type="int" name="NTAUPAR">    -1</i>
   <i type="int" name="NOMEGAPAR">    -1</i>
   <i name="DAMP_NEWTON">      0.80000001</i>
   <i name="LAMBDA">      1.00000000</i>
  </separator>
  <separator name="External order field" >
   <i name="OFIELD_KAPPA">      0.00000000</i>
   <v name="OFIELD_K">      0.00000000      0.00000000      0.00000000</v>
   <i name="OFIELD_Q6_NEAR">      0.00000000</i>
   <i name="OFIELD_Q6_FAR">      0.00000000</i>
   <i name="OFIELD_A">      0.00000000</i>
  </separator>
  <separator name="optional k-points parameters" >
   <i type="int" name="KPOINTS_OPT_MODE">     1</i>
   <i type="logical" name="LKPOINTS_OPT"> F  </i>
  </separator>
 </parameters>
 <atominfo>
  <atoms>      64 </atoms>
  <types>       1 </types>
  <array name="atoms" >
   <dimension dim="1">ion</dimension>
   <field type="string">element</field>
   <field type="int">atomtype</field>
   <set>
    <rc><c>Si</c><c>   1</c></rc>
    <rc><c>Si</c><c>   1</c></rc>
    <rc><c>Si</c><c>   1</c></rc>
    <rc><c>Si</c><c>   1</c></rc>
    <rc><c>Si</c><c>   1</c></rc>
    <rc><c>Si</c><c>   1</c></rc>
    <rc><c>Si</c><c>   1</c></rc>
    <rc><c>Si</c><c>   1</c></rc>
    <rc><c>Si</c><c>   1</c></rc>
    <rc><c>Si</c><c>   1</c></rc>
    <rc><c>Si</c><c>   1</c></rc>
    <rc><c>Si</c><c>   1</c></rc>
    <rc><c>Si</c><c>   1</c></rc>
    <rc><c>Si</c><c>   1</c></rc>
    <rc><c>Si</c><c>   1</c></rc>
    <rc><c>Si</c><c>   1</c></rc>
    <rc><c>Si</c><c>   1</c></rc>
    <rc><c>Si</c><c>   1</c></rc>
    <rc><c>Si</c><c>   1</c></rc>
    <rc><c>Si</c><c>   1</c></rc>
    <rc><c>Si</c><c>   1</c></rc>
    <rc><c>Si</c><c>   1</c></rc>
    <rc><c>Si</c><c>   1</c></rc>
    <rc><c>Si</c><c>   1</c></rc>
    <rc><c>Si</c><c>   1</c></rc>
    <rc><c>Si</c><c>   1</c></rc>
    <rc><c>Si</c><c>   1</c></rc>
    <rc><c>Si</c><c>   1</c></rc>
    <rc><c>Si</c><c>   1</c></rc>
    <rc><c>Si</c><c>   1</c></rc>
    <rc><c>Si</c><c>   1</c></rc>
    <rc><c>Si</c><c>   1</c></rc>
    <rc><c>Si</c><c>   1</c></rc>
    <rc><c>Si</c><c>   1</c></rc>
    <rc><c>Si</c><c>   1</c></rc>
    <rc><c>Si</c><c>   1</c></rc>
    <rc><c>Si</c><c>   1</c></rc>
    <rc><c>Si</c><c>   1</c></rc>
    <rc><c>Si</c><c>   1</c></rc>
    <rc><c>Si</c><c>   1</c></rc>
    <rc><c>Si</c><c>   1</c></rc>
    <rc><c>Si</c><c>   1</c></rc>
    <rc><c>Si</c><c>   1</c></rc>
    <rc><c>Si</c><c>   1</c></rc>
    <rc><c>Si</c><c>   1</c></rc>
    <rc><c>Si</c><c>   1</c></rc>
    <rc><c>Si</c><c>   1</c></rc>
    <rc><c>Si</c><c>   1</c></rc>
    <rc><c>Si</c><c>   1</c></rc>
    <rc><c>Si</c><c>   1</c></rc>
    <rc><c>Si</c><c>   1</c></rc>
    <rc><c>Si</c><c>   1</c></rc>
    <rc><c>Si</c><c>   1</c></rc>
    <rc><c>Si</c><c>   1</c></rc>
    <rc><c>Si</c><c>   1</c></rc>
    <rc><c>Si</c><c>   1</c></rc>
    <rc><c>Si</c><c>   1</c></rc>
    <rc><c>Si</c><c>   1</c></rc>
    <rc><c>Si</c><c>   1</c></rc>
    <rc><c>Si</c><c>   1</c></rc>
    <rc><c>Si</c><c>   1</c></rc>
    <rc><c>Si</c><c>   1</c></rc>
    <rc><c>Si</c><c>   1</c></rc>
    <rc><c>Si</c><c>   1</c></rc>
   </set>
  </array>
  <array name="atomtypes" >
   <dimension dim="1">type</dimension>
   <field type="int">atomspertype</field>
   <field type="string">element</field>
   <field>mass</field>
   <field>valence</field>
   <field type="string">pseudopotential</field>
   <set>
    <rc><c>  64</c><c>Si</c><c>     28.08500000</c><c>      4.00000000</c><c>  PAW_PBE Si 05Jan2001                  </c></rc>
   </set>
  </array>
 </atominfo>
 <structure name="initialpos" >
  <crystal>
   <varray name="basis" >
    <v>      11.08889664       0.10871502       0.00000000 </v>
    <v>       0.10871502      10.87146761       0.00000000 </v>
    <v>       0.00000000       0.00000000      10.87146761 </v>
   </varray>
   <i name="volume">   1310.45498512 </i>
   <varray name="rec_basis" >
    <v>       0.09018914      -0.00090189       0.00000000 </v>
    <v>      -0.00090189       0.09199292       0.00000000 </v>
    <v>       0.00000000       0.00000000       0.09198390 </v>
   </varray>
  </crystal>
  <varray name="positions" >
   <v>       0.00000000       0.00000000       0.00000000 </v>
   <v>       0.00000000       0.00000000       0.50000000 </v>
   <v>       0.00000000       0.50000000       0.00000000 </v>
   <v>       0.00000000       0.50000000       0.50000000 </v>
   <v>       0.50000000       0.00000000       0.00000000 </v>
   <v>       0.50000000       0.00000000       0.50000000 </v>
   <v>       0.50000000       0.50000000       0.00000000 </v>
   <v>       0.50000000       0.50000000       0.50000000 </v>
   <v>       0.37500000       0.37500000       0.12500000 </v>
   <v>       0.37500000       0.37500000       0.62500000 </v>
   <v>       0.37500000       0.87500000       0.12500000 </v>
   <v>       0.37500000       0.87500000       0.62500000 </v>
   <v>       0.87500000       0.37500000       0.12500000 </v>
   <v>       0.87500000       0.37500000       0.62500000 </v>
   <v>       0.87500000       0.87500000       0.12500000 </v>
   <v>       0.87500000       0.87500000       0.62500000 </v>
   <v>       0.00000000       0.25000000       0.25000000 </v>
   <v>       0.00000000       0.25000000       0.75000000 </v>
   <v>       0.00000000       0.75000000       0.25000000 </v>
   <v>       0.00000000       0.75000000       0.75000000 </v>
   <v>       0.50000000       0.25000000       0.25000000 </v>
   <v>       0.50000000       0.25000000       0.75000000 </v>
   <v>       0.50000000       0.75000000       0.25000000 </v>
   <v>       0.50000000       0.75000000       0.75000000 </v>
   <v>       0.37500000       0.12500000       0.37500000 </v>
   <v>       0.37500000       0.12500000       0.87500000 </v>
   <v>       0.37500000       0.62500000       0.37500000 </v>
   <v>       0.37500000       0.62500000       0.87500000 </v>
   <v>       0.87500000       0.12500000       0.37500000 </v>
   <v>       0.87500000       0.12500000       0.87500000 </v>
   <v>       0.87500000       0.62500000       0.37500000 </v>
   <v>       0.87500000       0.62500000       0.87500000 </v>
   <v>       0.25000000       0.00000000       0.25000000 </v>
   <v>       0.25000000       0.00000000       0.75000000 </v>
   <v>       0.25000000       0.50000000       0.25000000 </v>
   <v>       0.25000000       0.50000000       0.75000000 </v>
   <v>       0.75000000       0.00000000       0.25000000 </v>
   <v>       0.75000000       0.00000000       0.75000000 </v>
   <v>       0.75000000       0.50000000       0.25000000 </v>
   <v>       0.75000000       0.50000000       0.75000000 </v>
   <v>       0.12500000       0.37500000       0.37500000 </v>
   <v>       0.12500000       0.37500000       0.87500000 </v>
   <v>       0.12500000       0.87500000       0.37500000 </v>
   <v>       0.12500000       0.87500000       0.87500000 </v>
   <v>       0.62500000       0.37500000       0.37500000 </v>
   <v>       0.62500000       0.37500000       0.87500000 </v>
   <v>       0.62500000       0.87500000       0.37500000 </v>
   <v>       0.62500000       0.87500000       0.87500000 </v>
   <v>       0.25000000       0.25000000       0.00000000 </v>
   <v>       0.25000000       0.25000000       0.50000000 </v>
   <v>       0.25000000       0.75000000       0.00000000 </v>
   <v>       0.25000000       0.75000000       0.50000000 </v>
   <v>       0.75000000       0.25000000       0.00000000 </v>
   <v>       0.75000000       0.25000000       0.50000000 </v>
   <v>       0.75000000       0.75000000       0.00000000 </v>
   <v>       0.75000000       0.75000000       0.50000000 </v>
   <v>       0.12500000       0.12500000       0.12500000 </v>
   <v>       0.12500000       0.12500000       0.62500000 </v>
   <v>       0.12500000       0.62500000       0.12500000 </v>
   <v>       0.12500000       0.62500000       0.62500000 </v>
   <v>       0.62500000       0.12500000       0.12500000 </v>
   <v>       0.62500000       0.12500000       0.62500000 </v>
   <v>       0.62500000       0.62500000       0.12500000 </v>
   <v>       0.62500000       0.62500000       0.62500000 </v>
  </varray>
 </structure>
 <calculation>
  <scstep>
   <time name="dav">    1.32    1.39</time>
   <time name="total">    1.51    1.60</time>
   <energy>
    <i name="alphaZ">    105.21855792 </i>
    <i name="ewald">  -7258.38793528 </i>
    <i name="hartreedc">   -363.15697648 </i>
    <i name="XCdc">   -561.22010569 </i>
    <i name="pawpsdc">   5598.62625415 </i>
    <i name="pawaedc">  -4492.17844134 </i>
    <i name="eentropy">     -0.00987170 </i>
    <i name="bandstr">    959.42015487 </i>
    <i name="atom">   6564.79586099 </i>
    <i name="e_fr_energy">    553.10749745 </i>
    <i name="e_wo_entrp">    553.11736914 </i>
    <i name="e_0_energy">    553.11078801 </i>
   </energy>
  </scstep>
  <scstep>
   <time name="dav">    1.36    1.37</time>
   <time name="total">    1.36    1.38</time>
   <energy>
    <i name="e_fr_energy">   -309.70577471 </i>
    <i name="e_wo_entrp">   -309.72513831 </i>
    <i name="e_0_energy">   -309.71222924 </i>
   </energy>
  </scstep>
  <scstep>
   <time name="dav">    1.38    1.40</time>
   <time name="total">    1.38    1.40</time>
   <energy>
    <i name="e_fr_energy">   -372.35315224 </i>
    <i name="e_wo_entrp">   -372.36017740 </i>
    <i name="e_0_energy">   -372.35549396 </i>
   </energy>
  </scstep>
  <scstep>
   <time name="dav">    1.36    1.37</time>
   <time name="total">    1.36    1.37</time>
   <energy>
    <i name="e_fr_energy">   -373.98216076 </i>
    <i name="e_wo_entrp">   -373.98985268 </i>
    <i name="e_0_energy">   -373.98472473 </i>
   </energy>
  </scstep>
  <scstep>
   <time name="dav">    1.36    1.38</time>
   <time name="total">    1.63    1.65</time>
   <energy>
    <i name="e_fr_energy">   -374.03101276 </i>
    <i name="e_wo_entrp">   -374.03870879 </i>
    <i name="e_0_energy">   -374.03357810 </i>
   </energy>
  </scstep>
  <scstep>
   <time name="diag">    0.14    0.14</time>
   <time name="diis">    0.72    0.74</time>
   <time name="orth">    0.02    0.02</time>
   <time name="total">    1.30    1.33</time>
   <energy>
    <i name="e_fr_energy">   -369.34991812 </i>
    <i name="e_wo_entrp">   -369.35908719 </i>
    <i name="e_0_energy">   -369.35297448 </i>
   </energy>
  </scstep>
  <scstep>
   <time name="diag">    0.13    0.13</time>
   <time name="diis">    0.72    0.72</time>
   <time name="orth">    0.02    0.02</time>
   <time name="total">    1.29    1.31</time>
   <energy>
    <i name="e_fr_energy">   -367.16805141 </i>
    <i name="e_wo_entrp">   -367.19412333 </i>
    <i name="e_0_energy">   -367.17674205 </i>
   </energy>
  </scstep>
  <scstep>
   <time name="diag">    0.13    0.13</time>
   <time name="diis">    0.73    0.73</time>
   <time name="orth">    0.02    0.02</time>
   <time name="total">    1.29    1.31</time>
   <energy>
    <i name="e_fr_energy">   -367.21567613 </i>
    <i name="e_wo_entrp">   -367.24074031 </i>
    <i name="e_0_energy">   -367.22403086 </i>
   </energy>
  </scstep>
  <scstep>
   <time name="diag">    0.13    0.13</time>
   <time name="diis">    0.77    0.77</time>
   <time name="orth">    0.02    0.02</time>
   <time name="total">    1.33    1.35</time>
   <energy>
    <i name="e_fr_energy">   -367.23398980 </i>
    <i name="e_wo_entrp">   -367.25936299 </i>
    <i name="e_0_energy">   -367.24244753 </i>
   </energy>
  </scstep>
  <scstep>
   <time name="diag">    0.13    0.13</time>
   <time name="diis">    0.76    0.76</time>
   <time name="orth">    0.02    0.02</time>
   <time name="total">    1.33    1.34</time>
   <energy>
    <i name="e_fr_energy">   -367.23720753 </i>
    <i name="e_wo_entrp">   -367.26262041 </i>
    <i name="e_0_energy">   -367.24567849 </i>
   </energy>
  </scstep>
  <scstep>
   <time name="diag">    0.14    0.14</time>
   <time name="diis">    0.72    0.72</time>
   <time name="orth">    0.02    0.02</time>
   <time name="total">    1.29    1.31</time>
   <energy>
    <i name="e_fr_energy">   -367.23562077 </i>
    <i name="e_wo_entrp">   -367.26047996 </i>
    <i name="e_0_energy">   -367.24390717 </i>
   </energy>
  </scstep>
  <scstep>
   <time name="diag">    0.13    0.13</time>
   <time name="diis">    0.71    0.71</time>
   <time name="orth">    0.02    0.02</time>
   <time name="total">    1.27    1.29</time>
   <energy>
    <i name="e_fr_energy">   -367.23576806 </i>
    <i name="e_wo_entrp">   -367.26058600 </i>
    <i name="e_0_energy">   -367.24404070 </i>
   </energy>
  </scstep>
  <scstep>
   <time name="diag">    0.13    0.13</time>
   <time name="diis">    0.77    0.77</time>
   <time name="orth">    0.02    0.02</time>
   <time name="total">    1.34    1.35</time>
   <energy>
    <i name="e_fr_energy">   -367.23580754 </i>
    <i name="e_wo_entrp">   -367.26063244 </i>
    <i name="e_0_energy">   -367.24408251 </i>
   </energy>
  </scstep>
  <scstep>
   <time name="diag">    0.13    0.13</time>
   <time name="diis">    0.72    0.72</time>
   <time name="orth">    0.02    0.02</time>
   <time name="total">    1.28    1.30</time>
   <energy>
    <i name="e_fr_energy">   -367.23585925 </i>
    <i name="e_wo_entrp">   -367.26065441 </i>
    <i name="e_0_energy">   -367.24412430 </i>
   </energy>
  </scstep>
  <scstep>
   <time name="diag">    0.13    0.13</time>
   <time name="diis">    0.74    0.74</time>
   <time name="orth">    0.02    0.02</time>
   <time name="total">    1.30    1.32</time>
   <energy>
    <i name="e_fr_energy">   -367.23590087 </i>
    <i name="e_wo_entrp">   -367.26067732 </i>
    <i name="e_0_energy">   -367.24415969 </i>
   </energy>
  </scstep>
  <scstep>
   <time name="diag">    0.13    0.14</time>
   <time name="diis">    0.71    0.71</time>
   <time name="orth">    0.02    0.02</time>
   <time name="total">    1.28    1.30</time>
   <energy>
    <i name="e_fr_energy">   -367.23592198 </i>
    <i name="e_wo_entrp">   -367.26069771 </i>
    <i name="e_0_energy">   -367.24418056 </i>
   </energy>
  </scstep>
  <scstep>
   <time name="diag">    0.14    0.14</time>
   <time name="diis">    0.72    0.72</time>
   <time name="orth">    0.02    0.02</time>
   <time name="total">    1.29    1.31</time>
   <energy>
    <i name="e_fr_energy">   -367.23592935 </i>
    <i name="e_wo_entrp">   -367.26070372 </i>
    <i name="e_0_energy">   -367.24418747 </i>
   </energy>
  </scstep>
  <scstep>
   <time name="diag">    0.13    0.13</time>
   <time name="diis">    0.53    0.54</time>
   <time name="orth">    0.02    0.02</time>
   <time name="total">    0.84    0.86</time>
   <energy>
    <i name="alphaZ">    105.21855792 </i>
    <i name="ewald">  -7258.38793528 </i>
    <i name="hartreedc">   -476.56096625 </i>
    <i name="XCdc">   -542.16993377 </i>
    <i name="pawpsdc">  26446.28813368 </i>
    <i name="pawaedc"> -25346.18553275 </i>
    <i name="eentropy">      0.02477695 </i>
    <i name="bandstr">    139.74110890 </i>
    <i name="atom">   6564.79586099 </i>
    <i name="e_fr_energy">   -367.23592962 </i>
    <i name="e_wo_entrp">   -367.26070656 </i>
    <i name="e_0_energy">   -367.24418860 </i>
   </energy>
  </scstep>
  <structure>
   <crystal>
    <varray name="basis" >
     <v>      11.08889664       0.10871502       0.00000000 </v>
     <v>       0.10871502      10.87146761       0.00000000 </v>
     <v>       0.00000000       0.00000000      10.87146761 </v>
    </varray>
    <i name="volume">   1310.45498512 </i>
    <varray name="rec_basis" >
     <v>       0.09018914      -0.00090189       0.00000000 </v>
     <v>      -0.00090189       0.09199292       0.00000000 </v>
     <v>       0.00000000       0.00000000       0.09198390 </v>
    </varray>
   </crystal>
   <varray name="positions" >
    <v>       0.00000000       0.00000000       0.00000000 </v>
    <v>       0.00000000       0.00000000       0.50000000 </v>
    <v>       0.00000000       0.50000000       0.00000000 </v>
    <v>       0.00000000       0.50000000       0.50000000 </v>
    <v>       0.50000000       0.00000000       0.00000000 </v>
    <v>       0.50000000       0.00000000       0.50000000 </v>
    <v>       0.50000000       0.50000000       0.00000000 </v>
    <v>       0.50000000       0.50000000       0.50000000 </v>
    <v>       0.37500000       0.37500000       0.12500000 </v>
    <v>       0.37500000       0.37500000       0.62500000 </v>
    <v>       0.37500000       0.87500000       0.12500000 </v>
    <v>       0.37500000       0.87500000       0.62500000 </v>
    <v>       0.87500000       0.37500000       0.12500000 </v>
    <v>       0.87500000       0.37500000       0.62500000 </v>
    <v>       0.87500000       0.87500000       0.12500000 </v>
    <v>       0.87500000       0.87500000       0.62500000 </v>
    <v>       0.00000000       0.25000000       0.25000000 </v>
    <v>       0.00000000       0.25000000       0.75000000 </v>
    <v>       0.00000000       0.75000000       0.25000000 </v>
    <v>       0.00000000       0.75000000       0.75000000 </v>
    <v>       0.50000000       0.25000000       0.25000000 </v>
    <v>       0.50000000       0.25000000       0.75000000 </v>
    <v>       0.50000000       0.75000000       0.25000000 </v>
    <v>       0.50000000       0.75000000       0.75000000 </v>
    <v>       0.37500000       0.12500000       0.37500000 </v>
    <v>       0.37500000       0.12500000       0.87500000 </v>
    <v>       0.37500000       0.62500000       0.37500000 </v>
    <v>       0.37500000       0.62500000       0.87500000 </v>
    <v>       0.87500000       0.12500000       0.37500000 </v>
    <v>       0.87500000       0.12500000       0.87500000 </v>
    <v>       0.87500000       0.62500000       0.37500000 </v>
    <v>       0.87500000       0.62500000       0.87500000 </v>
    <v>       0.25000000       0.00000000       0.25000000 </v>
    <v>       0.25000000       0.00000000       0.75000000 </v>
    <v>       0.25000000       0.50000000       0.25000000 </v>
    <v>       0.25000000       0.50000000       0.75000000 </v>
    <v>       0.75000000       0.00000000       0.25000000 </v>
    <v>       0.75000000       0.00000000       0.75000000 </v>
    <v>       0.75000000       0.50000000       0.25000000 </v>
    <v>       0.75000000       0.50000000       0.75000000 </v>
    <v>       0.12500000       0.37500000       0.37500000 </v>
    <v>       0.12500000       0.37500000       0.87500000 </v>
    <v>       0.12500000       0.87500000       0.37500000 </v>
    <v>       0.12500000       0.87500000       0.87500000 </v>
    <v>       0.62500000       0.37500000       0.37500000 </v>
    <v>       0.62500000       0.37500000       0.87500000 </v>
    <v>       0.62500000       0.87500000       0.37500000 </v>
    <v>       0.62500000       0.87500000       0.87500000 </v>
    <v>       0.25000000       0.25000000       0.00000000 </v>
    <v>       0.25000000       0.25000000       0.50000000 </v>
    <v>       0.25000000       0.75000000       0.00000000 </v>
    <v>       0.25000000       0.75000000       0.50000000 </v>
    <v>       0.75000000       0.25000000       0.00000000 </v>
    <v>       0.75000000       0.25000000       0.50000000 </v>
    <v>       0.75000000       0.75000000       0.00000000 </v>
    <v>       0.75000000       0.75000000       0.50000000 </v>
    <v>       0.12500000       0.12500000       0.12500000 </v>
    <v>       0.12500000       0.12500000       0.62500000 </v>
    <v>       0.12500000       0.62500000       0.12500000 </v>
    <v>       0.12500000       0.62500000       0.62500000 </v>
    <v>       0.62500000       0.12500000       0.12500000 </v>
    <v>       0.62500000       0.12500000       0.62500000 </v>
    <v>       0.62500000       0.62500000       0.12500000 </v>
    <v>       0.62500000       0.62500000       0.62500000 </v>
   </varray>
  </structure>
  <varray name="forces" >
   <v>      -0.00000000      -0.00000000       0.17939063 </v>
   <v>      -0.00000000      -0.00000000       0.17939063 </v>
   <v>      -0.00000000       0.00000000       0.17939063 </v>
   <v>      -0.00000000      -0.00000000       0.17939063 </v>
   <v>      -0.00000000       0.00000000       0.17939063 </v>
   <v>       0.00000000      -0.00000000       0.17939063 </v>
   <v>      -0.00000000       0.00000000       0.17939063 </v>
   <v>      -0.00000000      -0.00000000       0.17939063 </v>
   <v>       0.00000000       0.00000000      -0.17939063 </v>
   <v>       0.00000000       0.00000000      -0.17939063 </v>
   <v>       0.00000000      -0.00000000      -0.17939063 </v>
   <v>       0.00000000       0.00000000      -0.17939063 </v>
   <v>       0.00000000       0.00000000      -0.17939063 </v>
   <v>       0.00000000      -0.00000000      -0.17939063 </v>
   <v>       0.00000000       0.00000000      -0.17939063 </v>
   <v>       0.00000000      -0.00000000      -0.17939063 </v>
   <v>      -0.00000000      -0.00000000       0.17939063 </v>
   <v>      -0.00000000      -0.00000000       0.17939063 </v>
   <v>      -0.00000000      -0.00000000       0.17939063 </v>
   <v>      -0.00000000       0.00000000       0.17939063 </v>
   <v>      -0.00000000       0.00000000       0.17939063 </v>
   <v>      -0.00000000       0.00000000       0.17939063 </v>
   <v>       0.00000000       0.00000000       0.17939063 </v>
   <v>       0.00000000      -0.00000000       0.17939063 </v>
   <v>       0.00000000       0.00000000      -0.17939063 </v>
   <v>       0.00000000      -0.00000000      -0.17939063 </v>
   <v>      -0.00000000       0.00000000      -0.17939063 </v>
   <v>       0.00000000      -0.00000000      -0.17939063 </v>
   <v>       0.00000000       0.00000000      -0.17939063 </v>
   <v>       0.00000000       0.00000000      -0.17939063 </v>
   <v>       0.00000000       0.00000000      -0.17939063 </v>
   <v>      -0.00000000      -0.00000000      -0.17939063 </v>
   <v>       0.00000000       0.00000000       0.17939063 </v>
   <v>      -0.00000000      -0.00000000       0.17939063 </v>
   <v>       0.00000000       0.00000000       0.17939063 </v>
   <v>       0.00000000      -0.00000000       0.17939063 </v>
   <v>       0.00000000      -0.00000000       0.17939063 </v>
   <v>       0.00000000       0.00000000       0.17939063 </v>
   <v>      -0.00000000      -0.00000000       0.17939063 </v>
   <v>      -0.00000000       0.00000000       0.17939063 </v>
   <v>       0.00000000       0.00000000      -0.17939063 </v>
   <v>       0.00000000      -0.00000000      -0.17939063 </v>
   <v>      -0.00000000       0.00000000      -0.17939063 </v>
   <v>       0.00000000       0.00000000      -0.17939063 </v>
   <v>      -0.00000000      -0.00000000      -0.17939063 </v>
   <v>      -0.00000000      -0.00000000      -0.17939063 </v>
   <v>      -0.00000000      -0.00000000      -0.17939063 </v>
   <v>      -0.00000000      -0.00000000      -0.17939063 </v>
   <v>       0.00000000      -0.00000000       0.17939063 </v>
   <v>       0.00000000      -0.00000000       0.17939063 </v>
   <v>       0.00000000      -0.00000000       0.17939063 </v>
   <v>       0.00000000      -0.00000000       0.17939063 </v>
   <v>       0.00000000       0.00000000       0.17939063 </v>
   <v>       0.00000000       0.00000000       0.17939063 </v>
   <v>      -0.00000000      -0.00000000       0.17939063 </v>
   <v>       0.00000000       0.00000000       0.17939063 </v>
   <v>       0.00000000       0.00000000      -0.17939063 </v>
   <v>       0.00000000       0.00000000      -0.17939063 </v>
   <v>       0.00000000      -0.00000000      -0.17939063 </v>
   <v>      -0.00000000       0.00000000      -0.17939063 </v>
   <v>      -0.00000000      -0.00000000      -0.17939063 </v>
   <v>      -0.00000000      -0.00000000      -0.17939063 </v>
   <v>      -0.00000000      -0.00000000      -0.17939063 </v>
   <v>      -0.00000000      -0.00000000      -0.17939063 </v>
  </varray>
  <varray name="stress" >
   <v>     -30.09643903     -19.08946323       0.00000000 </v>
   <v>     -19.08946317     -10.90880417       0.00000000 </v>
   <v>       0.00000000       0.00000000     -11.27579723 </v>
  </varray>
  <energy>
   <i name="e_fr_energy">   -367.23592962 </i>
   <i name="e_wo_entrp">   -367.26070656 </i>
   <i name="e_0_energy">   -367.24418860 </i>
  </energy>
  <time name="totalsc">   27.37   27.83</time>
 </calculation>
 <calculation>
  <scstep>
   <time name="dav">    1.33    1.34</time>
   <time name="total">    1.73    1.74</time>
   <energy>
    <i name="alphaZ">    105.21855792 </i>
    <i name="ewald">  -7259.12649665 </i>
    <i name="hartreedc">   -476.19044787 </i>
    <i name="XCdc">   -542.18342386 </i>
    <i name="pawpsdc">  26448.56737577 </i>
    <i name="pawaedc"> -25348.46501674 </i>
    <i name="eentropy">      0.02289958 </i>
    <i name="bandstr">    140.09502901 </i>
    <i name="atom">   6564.79586099 </i>
    <i name="e_fr_energy">   -367.26566184 </i>
    <i name="e_wo_entrp">   -367.28856143 </i>
    <i name="e_0_energy">   -367.27329504 </i>
   </energy>
  </scstep>
  <scstep>
   <time name="diag">    0.13    0.13</time>
   <time name="diis">    0.72    0.72</time>
   <time name="orth">    0.02    0.02</time>
   <time name="total">    1.28    1.30</time>
   <energy>
    <i name="e_fr_energy">   -367.27206225 </i>
    <i name="e_wo_entrp">   -367.29488085 </i>
    <i name="e_0_energy">   -367.27966845 </i>
   </energy>
  </scstep>
  <scstep>
   <time name="diag">    0.13    0.13</time>
   <time name="diis">    0.74    0.74</time>
   <time name="orth">    0.02    0.02</time>
   <time name="total">    1.30    1.32</time>
   <energy>
    <i name="e_fr_energy">   -367.27323136 </i>
    <i name="e_wo_entrp">   -367.29613379 </i>
    <i name="e_0_energy">   -367.28086550 </i>
   </energy>
  </scstep>
  <scstep>
   <time name="diag">    0.13    0.13</time>
   <time name="diis">    0.74    0.74</time>
   <time name="orth">    0.02    0.02</time>
   <time name="total">    1.29    1.31</time>
   <energy>
    <i name="e_fr_energy">   -367.27326577 </i>
    <i name="e_wo_entrp">   -367.29627226 </i>
    <i name="e_0_energy">   -367.28093460 </i>
   </energy>
  </scstep>
  <scstep>
   <time name="diag">    0.13    0.13</time>
   <time name="diis">    0.74    0.74</time>
   <time name="orth">    0.02    0.02</time>
   <time name="total">    1.30    1.32</time>
   <energy>
    <i name="e_fr_energy">   -367.27327844 </i>
    <i name="e_wo_entrp">   -367.29632634 </i>
    <i name="e_0_energy">   -367.28096107 </i>
   </energy>
  </scstep>
  <scstep>
   <time name="diag">    0.13    0.13</time>
   <time name="diis">    0.77    0.77</time>
   <time name="orth">    0.02    0.02</time>
   <time name="total">    1.33    1.35</time>
   <energy>
    <i name="e_fr_energy">   -367.27328416 </i>
    <i name="e_wo_entrp">   -367.29633251 </i>
    <i name="e_0_energy">   -367.28096694 </i>
   </energy>
  </scstep>
  <scstep>
   <time name="diag">    0.13    0.13</time>
   <time name="diis">    0.62    0.62</time>
   <time name="orth">    0.02    0.02</time>
   <time name="total">    1.18    1.20</time>
   <energy>
    <i name="e_fr_energy">   -367.27328492 </i>
    <i name="e_wo_entrp">   -367.29633285 </i>
    <i name="e_0_energy">   -367.28096757 </i>
   </energy>
  </scstep>
  <scstep>
   <time name="diag">    0.13    0.13</time>
   <time name="diis">    0.51    0.51</time>
   <time name="orth">    0.02    0.02</time>
   <time name="total">    0.82    0.84</time>
   <energy>
    <i name="alphaZ">    105.21855792 </i>
    <i name="ewald">  -7259.12649665 </i>
    <i name="hartreedc">   -476.14875641 </i>
    <i name="XCdc">   -542.19585847 </i>
    <i name="pawpsdc">  26429.44861362 </i>
    <i name="pawaedc"> -25329.33354999 </i>
    <i name="eentropy">      0.02304798 </i>
    <i name="bandstr">    140.04529590 </i>
    <i name="atom">   6564.79586099 </i>
    <i name="e_fr_energy">   -367.27328510 </i>
    <i name="e_wo_entrp">   -367.29633309 </i>
    <i name="e_0_energy">   -367.28096777 </i>
   </energy>
  </scstep>
  <structure>
   <crystal>
    <varray name="basis" >
     <v>      11.08889664       0.10871502       0.00000000 </v>
     <v>       0.10871502      10.87146761       0.00000000 </v>
     <v>       0.00000000       0.00000000      10.87146761 </v>
    </varray>
    <i name="volume">   1310.45498512 </i>
    <varray name="rec_basis" >
     <v>       0.09018914      -0.00090189       0.00000000 </v>
     <v>      -0.00090189       0.09199292       0.00000000 </v>
     <v>       0.00000000       0.00000000       0.09198390 </v>
    </varray>
   </crystal>
   <varray name="positions" >
    <v>       1.00000000       1.00000000       0.00079605 </v>
    <v>       1.00000000       1.00000000       0.50079605 </v>
    <v>       1.00000000       0.50000000       0.00079605 </v>
    <v>       1.00000000       0.50000000       0.50079605 </v>
    <v>       0.50000000       0.00000000       0.00079605 </v>
    <v>       0.50000000       1.00000000       0.50079605 </v>
    <v>       0.50000000       0.50000000       0.00079605 </v>
    <v>       0.50000000       0.50000000       0.50079605 </v>
    <v>       0.37500000       0.37500000       0.12420395 </v>
    <v>       0.37500000       0.37500000       0.62420395 </v>
    <v>       0.37500000       0.87500000       0.12420395 </v>
    <v>       0.37500000       0.87500000       0.62420395 </v>
    <v>       0.87500000       0.37500000       0.12420395 </v>
    <v>       0.87500000       0.37500000       0.62420395 </v>
    <v>       0.87500000       0.87500000       0.12420395 </v>
    <v>       0.87500000       0.87500000       0.62420395 </v>
    <v>       1.00000000       0.25000000       0.25079605 </v>
    <v>       1.00000000       0.25000000       0.75079605 </v>
    <v>       1.00000000       0.75000000       0.25079605 </v>
    <v>       1.00000000       0.75000000       0.75079605 </v>
    <v>       0.50000000       0.25000000       0.25079605 </v>
    <v>       0.50000000       0.25000000       0.75079605 </v>
    <v>       0.50000000       0.75000000       0.25079605 </v>
    <v>       0.50000000       0.75000000       0.75079605 </v>
    <v>       0.37500000       0.12500000       0.37420395 </v>
    <v>       0.37500000       0.12500000       0.87420395 </v>
    <v>       0.37500000       0.62500000       0.37420395 </v>
    <v>       0.37500000       0.62500000       0.87420395 </v>
    <v>       0.87500000       0.12500000       0.37420395 </v>
    <v>       0.87500000       0.12500000       0.87420395 </v>
    <v>       0.87500000       0.62500000       0.37420395 </v>
    <v>       0.87500000       0.62500000       0.87420395 </v>
    <v>       0.25000000       0.00000000       0.25079605 </v>
    <v>       0.25000000       1.00000000       0.75079605 </v>
    <v>       0.25000000       0.50000000       0.25079605 </v>
    <v>       0.25000000       0.50000000       0.75079605 </v>
    <v>       0.75000000       1.00000000       0.25079605 </v>
    <v>       0.75000000       0.00000000       0.75079605 </v>
    <v>       0.75000000       0.50000000       0.25079605 </v>
    <v>       0.75000000       0.50000000       0.75079605 </v>
    <v>       0.12500000       0.37500000       0.37420395 </v>
    <v>       0.12500000       0.37500000       0.87420395 </v>
    <v>       0.12500000       0.87500000       0.37420395 </v>
    <v>       0.12500000       0.87500000       0.87420395 </v>
    <v>       0.62500000       0.37500000       0.37420395 </v>
    <v>       0.62500000       0.37500000       0.87420395 </v>
    <v>       0.62500000       0.87500000       0.37420395 </v>
    <v>       0.62500000       0.87500000       0.87420395 </v>
    <v>       0.25000000       0.25000000       0.00079605 </v>
    <v>       0.25000000       0.25000000       0.50079605 </v>
    <v>       0.25000000       0.75000000       0.00079605 </v>
    <v>       0.25000000       0.75000000       0.50079605 </v>
    <v>       0.75000000       0.25000000       0.00079605 </v>
    <v>       0.75000000       0.25000000       0.50079605 </v>
    <v>       0.75000000       0.75000000       0.00079605 </v>
    <v>       0.75000000       0.75000000       0.50079605 </v>
    <v>       0.12500000       0.12500000       0.12420395 </v>
    <v>       0.12500000       0.12500000       0.62420395 </v>
    <v>       0.12500000       0.62500000       0.12420395 </v>
    <v>       0.12500000       0.62500000       0.62420395 </v>
    <v>       0.62500000       0.12500000       0.12420395 </v>
    <v>       0.62500000       0.12500000       0.62420395 </v>
    <v>       0.62500000       0.62500000       0.12420395 </v>
    <v>       0.62500000       0.62500000       0.62420395 </v>
   </varray>
  </structure>
  <varray name="forces" >
   <v>       0.00000000      -0.00000000      -0.04289021 </v>
   <v>      -0.00000000      -0.00000000      -0.04289021 </v>
   <v>       0.00000000      -0.00000000      -0.04289021 </v>
   <v>       0.00000000      -0.00000000      -0.04289021 </v>
   <v>      -0.00000000       0.00000000      -0.04289021 </v>
   <v>      -0.00000000       0.00000000      -0.04289021 </v>
   <v>      -0.00000000       0.00000000      -0.04289021 </v>
   <v>      -0.00000000       0.00000000      -0.04289021 </v>
   <v>       0.00000000      -0.00000000       0.04289021 </v>
   <v>       0.00000000       0.00000000       0.04289021 </v>
   <v>       0.00000000      -0.00000000       0.04289021 </v>
   <v>       0.00000000      -0.00000000       0.04289021 </v>
   <v>      -0.00000000       0.00000000       0.04289021 </v>
   <v>      -0.00000000       0.00000000       0.04289021 </v>
   <v>       0.00000000       0.00000000       0.04289021 </v>
   <v>       0.00000000       0.00000000       0.04289021 </v>
   <v>       0.00000000      -0.00000000      -0.04289021 </v>
   <v>      -0.00000000      -0.00000000      -0.04289021 </v>
   <v>       0.00000000      -0.00000000      -0.04289021 </v>
   <v>       0.00000000      -0.00000000      -0.04289021 </v>
   <v>      -0.00000000       0.00000000      -0.04289021 </v>
   <v>      -0.00000000       0.00000000      -0.04289021 </v>
   <v>       0.00000000       0.00000000      -0.04289021 </v>
   <v>       0.00000000       0.00000000      -0.04289021 </v>
   <v>       0.00000000      -0.00000000       0.04289021 </v>
   <v>       0.00000000       0.00000000       0.04289021 </v>
   <v>       0.00000000      -0.00000000       0.04289021 </v>
   <v>       0.00000000      -0.00000000       0.04289021 </v>
   <v>      -0.00000000       0.00000000       0.04289021 </v>
   <v>      -0.00000000       0.00000000       0.04289021 </v>
   <v>      -0.00000000       0.00000000       0.04289021 </v>
   <v>      -0.00000000       0.00000000       0.04289021 </v>
   <v>      -0.00000000      -0.00000000      -0.04289021 </v>
   <v>      -0.00000000      -0.00000000      -0.04289021 </v>
   <v>       0.00000000      -0.00000000      -0.04289021 </v>
   <v>       0.00000000      -0.00000000      -0.04289021 </v>
   <v>       0.00000000       0.00000000      -0.04289021 </v>
   <v>      -0.00000000       0.00000000      -0.04289021 </v>
   <v>      -0.00000000       0.00000000      -0.04289021 </v>
   <v>      -0.00000000       0.00000000      -0.04289021 </v>
   <v>      -0.00000000      -0.00000000       0.04289021 </v>
   <v>      -0.00000000      -0.00000000       0.04289021 </v>
   <v>      -0.00000000      -0.00000000       0.04289021 </v>
   <v>      -0.00000000      -0.00000000       0.04289021 </v>
   <v>       0.00000000      -0.00000000       0.04289021 </v>
   <v>       0.00000000       0.00000000       0.04289021 </v>
   <v>       0.00000000      -0.00000000       0.04289021 </v>
   <v>      -0.00000000       0.00000000       0.04289021 </v>
   <v>       0.00000000      -0.00000000      -0.04289021 </v>
   <v>      -0.00000000      -0.00000000      -0.04289021 </v>
   <v>       0.00000000      -0.00000000      -0.04289021 </v>
   <v>       0.00000000       0.00000000      -0.04289021 </v>
   <v>       0.00000000       0.00000000      -0.04289021 </v>
   <v>      -0.00000000       0.00000000      -0.04289021 </v>
   <v>       0.00000000       0.00000000      -0.04289021 </v>
   <v>       0.00000000       0.00000000      -0.04289021 </v>
   <v>      -0.00000000      -0.00000000       0.04289021 </v>
   <v>      -0.00000000      -0.00000000       0.04289021 </v>
   <v>      -0.00000000      -0.00000000       0.04289021 </v>
   <v>      -0.00000000      -0.00000000       0.04289021 </v>
   <v>       0.00000000       0.00000000       0.04289021 </v>
   <v>       0.00000000       0.00000000       0.04289021 </v>
   <v>       0.00000000      -0.00000000       0.04289021 </v>
   <v>       0.00000000      -0.00000000       0.04289021 </v>
  </varray>
  <varray name="stress" >
   <v>     -30.54912649     -12.90147747       0.00000000 </v>
   <v>     -12.90147739     -11.18176012       0.00000000 </v>
   <v>       0.00000000       0.00000000     -11.87230293 </v>
  </varray>
  <energy>
   <i name="e_fr_energy">   -367.27328510 </i>
   <i name="e_wo_entrp">   -367.29633309 </i>
   <i name="e_0_energy">   -367.28096777 </i>
  </energy>
  <time name="totalsc">   13.89   14.06</time>
 </calculation>
 <calculation>
  <scstep>
   <time name="dav">    1.36    1.36</time>
   <time name="total">    1.76    1.77</time>
   <energy>
    <i name="alphaZ">    105.21855792 </i>
    <i name="ewald">  -7258.99879831 </i>
    <i name="hartreedc">   -476.22347575 </i>
    <i name="XCdc">   -542.19251676 </i>
    <i name="pawpsdc">  26429.59021080 </i>
    <i name="pawaedc"> -25329.47514617 </i>
    <i name="eentropy">      0.02382319 </i>
    <i name="bandstr">    139.98616168 </i>
    <i name="atom">   6564.79586099 </i>
    <i name="e_fr_energy">   -367.27532240 </i>
    <i name="e_wo_entrp">   -367.29914559 </i>
    <i name="e_0_energy">   -367.28326346 </i>
   </energy>
  </scstep>
  <scstep>
   <time name="diag">    0.14    0.14</time>
   <time name="diis">    0.72    0.73</time>
   <time name="orth">    0.02    0.02</time>
   <time name="total">    1.29    1.30</time>
   <energy>
    <i name="e_fr_energy">   -367.27556502 </i>
    <i name="e_wo_entrp">   -367.29939872 </i>
    <i name="e_0_energy">   -367.28350958 </i>
   </energy>
  </scstep>
  <scstep>
   <time name="diag">    0.13    0.13</time>
   <time name="diis">    0.74    0.74</time>
   <time name="orth">    0.02    0.02</time>
   <time name="total">    1.30    1.31</time>
   <energy>
    <i name="e_fr_energy">   -367.27560980 </i>
    <i name="e_wo_entrp">   -367.29943340 </i>
    <i name="e_0_energy">   -367.28355100 </i>
   </energy>
  </scstep>
  <scstep>
   <time name="diag">    0.13    0.13</time>
   <time name="diis">    0.74    0.74</time>
   <time name="orth">    0.02    0.02</time>
   <time name="total">    1.31    1.32</time>
   <energy>
    <i name="e_fr_energy">   -367.27561176 </i>
    <i name="e_wo_entrp">   -367.29942201 </i>
    <i name="e_0_energy">   -367.28354851 </i>
   </energy>
  </scstep>
  <scstep>
   <time name="diag">    0.13    0.13</time>
   <time name="diis">    0.71    0.71</time>
   <time name="orth">    0.02    0.02</time>
   <time name="total">    1.27    1.29</time>
   <energy>
    <i name="e_fr_energy">   -367.27561236 </i>
    <i name="e_wo_entrp">   -367.29941717 </i>
    <i name="e_0_energy">   -367.28354730 </i>
   </energy>
  </scstep>
  <scstep>
   <time name="diag">    0.13    0.13</time>
   <time name="diis">    0.50    0.50</time>
   <time name="orth">    0.02    0.02</time>
   <time name="total">    1.06    1.08</time>
   <energy>
    <i name="e_fr_energy">   -367.27561254 </i>
    <i name="e_wo_entrp">   -367.29941716 </i>
    <i name="e_0_energy">   -367.28354741 </i>
   </energy>
  </scstep>
  <scstep>
   <time name="diag">    0.15    0.15</time>
   <time name="diis">    0.45    0.47</time>
   <time name="orth">    0.02    0.02</time>
   <time name="total">    1.01    1.08</time>
   <energy>
    <i name="e_fr_energy">   -367.27561258 </i>
    <i name="e_wo_entrp">   -367.29941726 </i>
    <i name="e_0_energy">   -367.28354747 </i>
   </energy>
  </scstep>
  <scstep>
   <time name="diag">    0.13    0.13</time>
   <time name="diis">    0.40    0.40</time>
   <time name="orth">    0.02    0.02</time>
   <time name="total">    0.70    0.72</time>
   <energy>
    <i name="alphaZ">    105.21855792 </i>
    <i name="ewald">  -7258.99879831 </i>
    <i name="hartreedc">   -476.23745800 </i>
    <i name="XCdc">   -542.18952004 </i>
    <i name="pawpsdc">  26433.88516684 </i>
    <i name="pawaedc"> -25333.77232395 </i>
    <i name="eentropy">      0.02380465 </i>
    <i name="bandstr">    139.99909730 </i>
    <i name="atom">   6564.79586099 </i>
    <i name="e_fr_energy">   -367.27561259 </i>
    <i name="e_wo_entrp">   -367.29941724 </i>
    <i name="e_0_energy">   -367.28354747 </i>
   </energy>
  </scstep>
  <structure>
   <crystal>
    <varray name="basis" >
     <v>      11.08889664       0.10871502       0.00000000 </v>
     <v>       0.10871502      10.87146761       0.00000000 </v>
     <v>       0.00000000       0.00000000      10.87146761 </v>
    </varray>
    <i name="volume">   1310.45498512 </i>
    <varray name="rec_basis" >
     <v>       0.09018914      -0.00090189       0.00000000 </v>
     <v>      -0.00090189       0.09199292       0.00000000 </v>
     <v>       0.00000000       0.00000000       0.09198390 </v>
    </varray>
   </crystal>
   <varray name="positions" >
    <v>       0.00000000       0.00000000       0.00063972 </v>
    <v>       0.00000000       0.00000000       0.50063972 </v>
    <v>       0.00000000       0.50000000       0.00063972 </v>
    <v>       0.00000000       0.50000000       0.50063972 </v>
    <v>       0.50000000       0.00000000       0.00063972 </v>
    <v>       0.50000000       0.00000000       0.50063972 </v>
    <v>       0.50000000       0.50000000       0.00063972 </v>
    <v>       0.50000000       0.50000000       0.50063972 </v>
    <v>       0.37500000       0.37500000       0.12436028 </v>
    <v>       0.37500000       0.37500000       0.62436028 </v>
    <v>       0.37500000       0.87500000       0.12436028 </v>
    <v>       0.37500000       0.87500000       0.62436028 </v>
    <v>       0.87500000       0.37500000       0.12436028 </v>
    <v>       0.87500000       0.37500000       0.62436028 </v>
    <v>       0.87500000       0.87500000       0.12436028 </v>
    <v>       0.87500000       0.87500000       0.62436028 </v>
    <v>       0.00000000       0.25000000       0.25063972 </v>
    <v>       0.00000000       0.25000000       0.75063972 </v>
    <v>       0.00000000       0.75000000       0.25063972 </v>
    <v>       0.00000000       0.75000000       0.75063972 </v>
    <v>       0.50000000       0.25000000       0.25063972 </v>
    <v>       0.50000000       0.25000000       0.75063972 </v>
    <v>       0.50000000       0.75000000       0.25063972 </v>
    <v>       0.50000000       0.75000000       0.75063972 </v>
    <v>       0.37500000       0.12500000       0.37436028 </v>
    <v>       0.37500000       0.12500000       0.87436028 </v>
    <v>       0.37500000       0.62500000       0.37436028 </v>
    <v>       0.37500000       0.62500000       0.87436028 </v>
    <v>       0.87500000       0.12500000       0.37436028 </v>
    <v>       0.87500000       0.12500000       0.87436028 </v>
    <v>       0.87500000       0.62500000       0.37436028 </v>
    <v>       0.87500000       0.62500000       0.87436028 </v>
    <v>       0.25000000       0.00000000       0.25063972 </v>
    <v>       0.25000000       0.00000000       0.75063972 </v>
    <v>       0.25000000       0.50000000       0.25063972 </v>
    <v>       0.25000000       0.50000000       0.75063972 </v>
    <v>       0.75000000       0.00000000       0.25063972 </v>
    <v>       0.75000000       0.00000000       0.75063972 </v>
    <v>       0.75000000       0.50000000       0.25063972 </v>
    <v>       0.75000000       0.50000000       0.75063972 </v>
    <v>       0.12500000       0.37500000       0.37436028 </v>
    <v>       0.12500000       0.37500000       0.87436028 </v>
    <v>       0.12500000       0.87500000       0.37436028 </v>
    <v>       0.12500000       0.87500000       0.87436028 </v>
    <v>       0.62500000       0.37500000       0.37436028 </v>
    <v>       0.62500000       0.37500000       0.87436028 </v>
    <v>       0.62500000       0.87500000       0.37436028 </v>
    <v>       0.62500000       0.87500000       0.87436028 </v>
    <v>       0.25000000       0.25000000       0.00063972 </v>
    <v>       0.25000000       0.25000000       0.50063972 </v>
    <v>       0.25000000       0.75000000       0.00063972 </v>
    <v>       0.25000000       0.75000000       0.50063972 </v>
    <v>       0.75000000       0.25000000       0.00063972 </v>
    <v>       0.75000000       0.25000000       0.50063972 </v>
    <v>       0.75000000       0.75000000       0.00063972 </v>
    <v>       0.75000000       0.75000000       0.50063972 </v>
    <v>       0.12500000       0.12500000       0.12436028 </v>
    <v>       0.12500000       0.12500000       0.62436028 </v>
    <v>       0.12500000       0.62500000       0.12436028 </v>
    <v>       0.12500000       0.62500000       0.62436028 </v>
    <v>       0.62500000       0.12500000       0.12436028 </v>
    <v>       0.62500000       0.12500000       0.62436028 </v>
    <v>       0.62500000       0.62500000       0.12436028 </v>
    <v>       0.62500000       0.62500000       0.62436028 </v>
   </varray>
  </structure>
  <varray name="forces" >
   <v>      -0.00000000       0.00000000       0.00032283 </v>
   <v>      -0.00000000       0.00000000       0.00032283 </v>
   <v>      -0.00000000      -0.00000000       0.00032283 </v>
   <v>      -0.00000000      -0.00000000       0.00032283 </v>
   <v>      -0.00000000       0.00000000       0.00032283 </v>
   <v>       0.00000000       0.00000000       0.00032283 </v>
   <v>       0.00000000       0.00000000       0.00032283 </v>
   <v>       0.00000000       0.00000000       0.00032283 </v>
   <v>      -0.00000000      -0.00000000      -0.00032283 </v>
   <v>      -0.00000000      -0.00000000      -0.00032283 </v>
   <v>      -0.00000000       0.00000000      -0.00032283 </v>
   <v>      -0.00000000       0.00000000      -0.00032283 </v>
   <v>       0.00000000      -0.00000000      -0.00032283 </v>
   <v>       0.00000000      -0.00000000      -0.00032283 </v>
   <v>       0.00000000       0.00000000      -0.00032283 </v>
   <v>       0.00000000       0.00000000      -0.00032283 </v>
   <v>      -0.00000000       0.00000000       0.00032283 </v>
   <v>       0.00000000       0.00000000       0.00032283 </v>
   <v>      -0.00000000      -0.00000000       0.00032283 </v>
   <v>      -0.00000000      -0.00000000       0.00032283 </v>
   <v>      -0.00000000      -0.00000000       0.00032283 </v>
   <v>       0.00000000       0.00000000       0.00032283 </v>
   <v>       0.00000000       0.00000000       0.00032283 </v>
   <v>       0.00000000       0.00000000       0.00032283 </v>
   <v>      -0.00000000      -0.00000000      -0.00032283 </v>
   <v>       0.00000000       0.00000000      -0.00032283 </v>
   <v>      -0.00000000      -0.00000000      -0.00032283 </v>
   <v>      -0.00000000      -0.00000000      -0.00032283 </v>
   <v>       0.00000000       0.00000000      -0.00032283 </v>
   <v>       0.00000000       0.00000000      -0.00032283 </v>
   <v>       0.00000000       0.00000000      -0.00032283 </v>
   <v>       0.00000000       0.00000000      -0.00032283 </v>
   <v>      -0.00000000      -0.00000000       0.00032283 </v>
   <v>      -0.00000000      -0.00000000       0.00032283 </v>
   <v>       0.00000000      -0.00000000       0.00032283 </v>
   <v>       0.00000000       0.00000000       0.00032283 </v>
   <v>       0.00000000       0.00000000       0.00032283 </v>
   <v>       0.00000000       0.00000000       0.00032283 </v>
   <v>       0.00000000       0.00000000       0.00032283 </v>
   <v>       0.00000000      -0.00000000       0.00032283 </v>
   <v>       0.00000000       0.00000000      -0.00032283 </v>
   <v>       0.00000000       0.00000000      -0.00032283 </v>
   <v>       0.00000000       0.00000000      -0.00032283 </v>
   <v>       0.00000000       0.00000000      -0.00032283 </v>
   <v>      -0.00000000      -0.00000000      -0.00032283 </v>
   <v>      -0.00000000      -0.00000000      -0.00032283 </v>
   <v>       0.00000000      -0.00000000      -0.00032283 </v>
   <v>      -0.00000000      -0.00000000      -0.00032283 </v>
   <v>      -0.00000000      -0.00000000       0.00032283 </v>
   <v>      -0.00000000      -0.00000000       0.00032283 </v>
   <v>      -0.00000000       0.00000000       0.00032283 </v>
   <v>      -0.00000000      -0.00000000       0.00032283 </v>
   <v>       0.00000000      -0.00000000       0.00032283 </v>
   <v>       0.00000000      -0.00000000       0.00032283 </v>
   <v>       0.00000000       0.00000000       0.00032283 </v>
   <v>      -0.00000000       0.00000000       0.00032283 </v>
   <v>      -0.00000000       0.00000000      -0.00032283 </v>
   <v>      -0.00000000       0.00000000      -0.00032283 </v>
   <v>       0.00000000      -0.00000000      -0.00032283 </v>
   <v>       0.00000000      -0.00000000      -0.00032283 </v>
   <v>      -0.00000000      -0.00000000      -0.00032283 </v>
   <v>      -0.00000000      -0.00000000      -0.00032283 </v>
   <v>      -0.00000000      -0.00000000      -0.00032283 </v>
   <v>      -0.00000000      -0.00000000      -0.00032283 </v>
  </varray>
  <varray name="stress" >
   <v>     -30.50463186     -14.11663479       0.00000000 </v>
   <v>     -14.11663474     -11.14164707       0.00000000 </v>
   <v>       0.00000000       0.00000000     -11.75964560 </v>
  </varray>
  <energy>
   <i name="e_fr_energy">   -367.27561259 </i>
   <i name="e_wo_entrp">   -367.29941724 </i>
   <i name="e_0_energy">   -367.28354747 </i>
  </energy>
  <time name="totalsc">   13.23   13.42</time>
  <eigenvalues>
   <array>
    <dimension dim="1">band</dimension>
    <dimension dim="2">kpoint</dimension>
    <dimension dim="3">spin</dimension>
    <field>eigene</field>
    <field>occ</field>
    <set>
     <set comment="spin 1">
      <set comment="kpoint 1">
       <r>   -6.2695    1.0000 </r>
       <r>   -5.2272    1.0000 </r>
       <r>   -5.2272    1.0000 </r>
       <r>   -5.1924    1.0000 </r>
       <r>   -5.1924    1.0000 </r>
       <r>   -5.1918    1.0000 </r>
       <r>   -5.1918    1.0000 </r>
       <r>   -4.3117    1.0000 </r>
       <r>   -4.3117    1.0000 </r>
       <r>   -4.2653    1.0000 </r>
       <r>   -4.2653    1.0000 </r>
       <r>   -4.2653    1.0000 </r>
       <r>   -4.2653    1.0000 </r>
       <r>   -4.2411    1.0000 </r>
       <r>   -4.2411    1.0000 </r>
       <r>   -4.2411    1.0000 </r>
       <r>   -4.2411    1.0000 </r>
       <r>   -4.2178    1.0000 </r>
       <r>   -4.2178    1.0000 </r>
       <r>   -4.0241    1.0000 </r>
       <r>   -4.0241    1.0000 </r>
       <r>   -3.9254    1.0000 </r>
       <r>   -3.9254    1.0000 </r>
       <r>   -2.2645    1.0000 </r>
       <r>   -2.2645    1.0000 </r>
       <r>   -2.1920    1.0000 </r>
       <r>   -2.1498    1.0000 </r>
       <r>   -2.1498    1.0000 </r>
       <r>   -2.1118    1.0000 </r>
       <r>   -2.1004    1.0000 </r>
       <r>   -2.1004    1.0000 </r>
       <r>   -2.0573    1.0000 </r>
       <r>   -2.0573    1.0000 </r>
       <r>   -2.0424    1.0000 </r>
       <r>   -2.0424    1.0000 </r>
       <r>   -2.0424    1.0000 </r>
       <r>   -2.0424    1.0000 </r>
       <r>   -1.9859    1.0000 </r>
       <r>   -1.9859    1.0000 </r>
       <r>   -1.9463    1.0000 </r>
       <r>   -1.9463    1.0000 </r>
       <r>   -1.3588    1.0000 </r>
       <r>   -1.3588    1.0000 </r>
       <r>   -1.3266    1.0000 </r>
       <r>   -1.3266    1.0000 </r>
       <r>    0.0705    1.0000 </r>
       <r>    0.0705    1.0000 </r>
       <r>    0.0705    1.0000 </r>
       <r>    0.0705    1.0000 </r>
       <r>    0.1333    1.0000 </r>
       <r>    0.1333    1.0000 </r>
       <r>    0.1369    1.0000 </r>
       <r>    0.1369    1.0000 </r>
       <r>    0.1369    1.0000 </r>
       <r>    0.1369    1.0000 </r>
       <r>    0.1408    1.0000 </r>
       <r>    0.1408    1.0000 </r>
       <r>    1.7345    1.0000 </r>
       <r>    1.7345    1.0000 </r>
       <r>    1.7395    1.0000 </r>
       <r>    1.7395    1.0000 </r>
       <r>    1.7534    1.0000 </r>
       <r>    1.7534    1.0000 </r>
       <r>    1.7534    1.0000 </r>
       <r>    1.7534    1.0000 </r>
       <r>    1.7724    1.0000 </r>
       <r>    1.7724    1.0000 </r>
       <r>    1.7802    1.0000 </r>
       <r>    1.7802    1.0000 </r>
       <r>    1.7802    1.0000 </r>
       <r>    1.7802    1.0000 </r>
       <r>    1.7812    1.0000 </r>
       <r>    1.7812    1.0000 </r>
       <r>    1.8666    1.0000 </r>
       <r>    1.8666    1.0000 </r>
       <r>    1.8867    1.0000 </r>
       <r>    1.8867    1.0000 </r>
       <r>    1.8867    1.0000 </r>
       <r>    1.8867    1.0000 </r>
       <r>    1.9011    1.0000 </r>
       <r>    1.9011    1.0000 </r>
       <r>    1.9524    1.0000 </r>
       <r>    1.9524    1.0000 </r>
       <r>    2.0857    1.0000 </r>
       <r>    2.0857    1.0000 </r>
       <r>    2.0904    1.0000 </r>
       <r>    2.0904    1.0000 </r>
       <r>    2.5818    1.0000 </r>
       <r>    2.7043    1.0000 </r>
       <r>    2.7043    1.0000 </r>
       <r>    2.8309    1.0000 </r>
       <r>    2.8524    1.0000 </r>
       <r>    2.8524    1.0000 </r>
       <r>    3.5475    1.0000 </r>
       <r>    3.5475    1.0000 </r>
       <r>    3.6422    1.0000 </r>
       <r>    3.6422    1.0000 </r>
       <r>    3.6859    1.0000 </r>
       <r>    3.6859    1.0000 </r>
       <r>    3.7790    1.0000 </r>
       <r>    3.7790    1.0000 </r>
       <r>    3.7798    1.0000 </r>
       <r>    3.7798    1.0000 </r>
       <r>    3.7847    1.0000 </r>
       <r>    3.7847    1.0000 </r>
       <r>    4.1229    1.0000 </r>
       <r>    4.1229    1.0000 </r>
       <r>    4.2041    1.0000 </r>
       <r>    4.2041    1.0000 </r>
       <r>    4.2041    1.0000 </r>
       <r>    4.2041    1.0000 </r>
       <r>    4.2204    1.0000 </r>
       <r>    4.2204    1.0000 </r>
       <r>    4.2913    1.0000 </r>
       <r>    4.2913    1.0000 </r>
       <r>    4.3585    1.0000 </r>
       <r>    4.3585    1.0000 </r>
       <r>    4.3603    1.0000 </r>
       <r>    4.3603    1.0000 </r>
       <r>    4.3603    1.0000 </r>
       <r>    4.3603    1.0000 </r>
       <r>    4.4426    1.0000 </r>
       <r>    4.4426    1.0000 </r>
       <r>    4.5209    1.0000 </r>
       <r>    4.5209    1.0000 </r>
       <r>    5.4369    1.0046 </r>
       <r>    5.6125    1.0350 </r>
       <r>    5.6574    1.0302 </r>
       <r>    6.0069    0.0441 </r>
       <r>    6.1484   -0.0319 </r>
       <r>    6.1484   -0.0319 </r>
       <r>    6.2926   -0.0054 </r>
       <r>    6.3035   -0.0044 </r>
       <r>    6.3035   -0.0044 </r>
       <r>    6.5676   -0.0000 </r>
       <r>    6.5676   -0.0000 </r>
       <r>    6.5719   -0.0000 </r>
       <r>    6.5719   -0.0000 </r>
       <r>    6.7278   -0.0000 </r>
       <r>    6.7278   -0.0000 </r>
       <r>    6.8325   -0.0000 </r>
       <r>    6.8325   -0.0000 </r>
       <r>    7.0447   -0.0000 </r>
       <r>    7.0447   -0.0000 </r>
       <r>    7.7536   -0.0000 </r>
       <r>    7.7536   -0.0000 </r>
       <r>    7.8560   -0.0000 </r>
       <r>    7.8560   -0.0000 </r>
       <r>    7.8560   -0.0000 </r>
       <r>    7.8560   -0.0000 </r>
       <r>    7.9645   -0.0000 </r>
       <r>    7.9645   -0.0000 </r>
       <r>    7.9756   -0.0000 </r>
       <r>    7.9936   -0.0000 </r>
       <r>    8.0389   -0.0000 </r>
       <r>    8.0389   -0.0000 </r>
       <r>    8.0389   -0.0000 </r>
       <r>    8.0389   -0.0000 </r>
       <r>    8.2055   -0.0000 </r>
       <r>    8.5873   -0.0000 </r>
       <r>    8.6039   -0.0000 </r>
       <r>    8.6102   -0.0000 </r>
      </set>
      <set comment="kpoint 2">
       <r>   -6.0068    1.0000 </r>
       <r>   -6.0068    1.0000 </r>
       <r>   -4.9781    1.0000 </r>
       <r>   -4.9781    1.0000 </r>
       <r>   -4.9543    1.0000 </r>
       <r>   -4.9543    1.0000 </r>
       <r>   -4.9543    1.0000 </r>
       <r>   -4.9543    1.0000 </r>
       <r>   -4.9293    1.0000 </r>
       <r>   -4.9293    1.0000 </r>
       <r>   -4.1514    1.0000 </r>
       <r>   -4.1514    1.0000 </r>
       <r>   -4.1514    1.0000 </r>
       <r>   -4.1514    1.0000 </r>
       <r>   -4.0896    1.0000 </r>
       <r>   -4.0896    1.0000 </r>
       <r>   -4.0896    1.0000 </r>
       <r>   -4.0896    1.0000 </r>
       <r>   -3.9602    1.0000 </r>
       <r>   -3.9602    1.0000 </r>
       <r>   -3.2846    1.0000 </r>
       <r>   -3.2846    1.0000 </r>
       <r>   -3.2224    1.0000 </r>
       <r>   -3.2224    1.0000 </r>
       <r>   -3.2224    1.0000 </r>
       <r>   -3.2224    1.0000 </r>
       <r>   -3.1594    1.0000 </r>
       <r>   -3.1594    1.0000 </r>
       <r>   -2.1270    1.0000 </r>
       <r>   -2.1270    1.0000 </r>
       <r>   -2.1178    1.0000 </r>
       <r>   -2.1178    1.0000 </r>
       <r>   -2.0398    1.0000 </r>
       <r>   -2.0398    1.0000 </r>
       <r>   -2.0342    1.0000 </r>
       <r>   -2.0342    1.0000 </r>
       <r>   -0.9753    1.0000 </r>
       <r>   -0.9753    1.0000 </r>
       <r>   -0.9471    1.0000 </r>
       <r>   -0.9471    1.0000 </r>
       <r>   -0.9471    1.0000 </r>
       <r>   -0.9471    1.0000 </r>
       <r>   -0.9228    1.0000 </r>
       <r>   -0.9228    1.0000 </r>
       <r>   -0.8096    1.0000 </r>
       <r>   -0.8096    1.0000 </r>
       <r>   -0.8096    1.0000 </r>
       <r>   -0.8096    1.0000 </r>
       <r>   -0.7513    1.0000 </r>
       <r>   -0.7513    1.0000 </r>
       <r>   -0.7513    1.0000 </r>
       <r>   -0.7513    1.0000 </r>
       <r>   -0.2430    1.0000 </r>
       <r>   -0.2430    1.0000 </r>
       <r>    1.2958    1.0000 </r>
       <r>    1.2958    1.0000 </r>
       <r>    1.3092    1.0000 </r>
       <r>    1.3092    1.0000 </r>
       <r>    1.3092    1.0000 </r>
       <r>    1.3092    1.0000 </r>
       <r>    1.3312    1.0000 </r>
       <r>    1.3312    1.0000 </r>
       <r>    1.4110    1.0000 </r>
       <r>    1.4110    1.0000 </r>
       <r>    1.4192    1.0000 </r>
       <r>    1.4192    1.0000 </r>
       <r>    1.4192    1.0000 </r>
       <r>    1.4192    1.0000 </r>
       <r>    1.4262    1.0000 </r>
       <r>    1.4262    1.0000 </r>
       <r>    2.0910    1.0000 </r>
       <r>    2.0910    1.0000 </r>
       <r>    2.1618    1.0000 </r>
       <r>    2.1618    1.0000 </r>
       <r>    2.1806    1.0000 </r>
       <r>    2.1806    1.0000 </r>
       <r>    2.2545    1.0000 </r>
       <r>    2.2545    1.0000 </r>
       <r>    2.8602    1.0000 </r>
       <r>    2.8602    1.0000 </r>
       <r>    2.8917    1.0000 </r>
       <r>    2.8917    1.0000 </r>
       <r>    2.8928    1.0000 </r>
       <r>    2.8928    1.0000 </r>
       <r>    2.8928    1.0000 </r>
       <r>    2.8928    1.0000 </r>
       <r>    2.9165    1.0000 </r>
       <r>    2.9165    1.0000 </r>
       <r>    2.9489    1.0000 </r>
       <r>    2.9489    1.0000 </r>
       <r>    2.9489    1.0000 </r>
       <r>    2.9489    1.0000 </r>
       <r>    2.9659    1.0000 </r>
       <r>    2.9659    1.0000 </r>
       <r>    2.9659    1.0000 </r>
       <r>    2.9659    1.0000 </r>
       <r>    3.0081    1.0000 </r>
       <r>    3.0081    1.0000 </r>
       <r>    3.0884    1.0000 </r>
       <r>    3.0884    1.0000 </r>
       <r>    3.0891    1.0000 </r>
       <r>    3.0891    1.0000 </r>
       <r>    3.1000    1.0000 </r>
       <r>    3.1000    1.0000 </r>
       <r>    3.1000    1.0000 </r>
       <r>    3.1000    1.0000 </r>
       <r>    4.0881    1.0000 </r>
       <r>    4.0881    1.0000 </r>
       <r>    4.1190    1.0000 </r>
       <r>    4.1190    1.0000 </r>
       <r>    4.1306    1.0000 </r>
       <r>    4.1306    1.0000 </r>
       <r>    4.1306    1.0000 </r>
       <r>    4.1306    1.0000 </r>
       <r>    4.1780    1.0000 </r>
       <r>    4.1780    1.0000 </r>
       <r>    4.3914    1.0000 </r>
       <r>    4.3914    1.0000 </r>
       <r>    4.3914    1.0000 </r>
       <r>    4.3914    1.0000 </r>
       <r>    4.4432    1.0000 </r>
       <r>    4.4432    1.0000 </r>
       <r>    4.4432    1.0000 </r>
       <r>    4.4432    1.0000 </r>
       <r>    4.8252    1.0000 </r>
       <r>    4.8252    1.0000 </r>
       <r>    4.8353    1.0000 </r>
       <r>    4.8353    1.0000 </r>
       <r>    6.2241   -0.0154 </r>
       <r>    6.2241   -0.0154 </r>
       <r>    7.0802   -0.0000 </r>
       <r>    7.0802   -0.0000 </r>
       <r>    7.1834   -0.0000 </r>
       <r>    7.1834   -0.0000 </r>
       <r>    7.3384   -0.0000 </r>
       <r>    7.3384   -0.0000 </r>
       <r>    7.3791   -0.0000 </r>
       <r>    7.3791   -0.0000 </r>
       <r>    7.5368   -0.0000 </r>
       <r>    7.5368   -0.0000 </r>
       <r>    7.5846   -0.0000 </r>
       <r>    7.5846   -0.0000 </r>
       <r>    7.7934   -0.0000 </r>
       <r>    7.7934   -0.0000 </r>
       <r>    7.8272   -0.0000 </r>
       <r>    7.8272   -0.0000 </r>
       <r>    7.8272   -0.0000 </r>
       <r>    7.8272   -0.0000 </r>
       <r>    7.8395   -0.0000 </r>
       <r>    7.8395   -0.0000 </r>
       <r>    7.8396   -0.0000 </r>
       <r>    7.8396   -0.0000 </r>
       <r>    7.9133   -0.0000 </r>
       <r>    7.9133   -0.0000 </r>
       <r>    7.9599   -0.0000 </r>
       <r>    7.9599   -0.0000 </r>
       <r>    7.9600   -0.0000 </r>
       <r>    7.9600   -0.0000 </r>
       <r>    8.1967   -0.0000 </r>
       <r>    8.2046   -0.0000 </r>
       <r>    8.3475   -0.0000 </r>
       <r>    8.3573   -0.0000 </r>
      </set>
      <set comment="kpoint 3">
       <r>   -5.9976    1.0000 </r>
       <r>   -5.9976    1.0000 </r>
[...]
      </set>
     </set>
    </set>
   </array>
  </eigenvalues>
  <separator name="orbital magnetization" >
   <v name="MAGDIPOLOUT">      0.00000000      0.00000000      0.00000000</v>
  </separator>
  <dos>
   <i name="efermi">      5.86914921 </i>
   <total>
    <array>
     <dimension dim="1">gridpoints</dimension>
     <dimension dim="2">spin</dimension>
     <field>energy</field>
     <field>total</field>
     <field>integrated</field>
     <set>
      <set comment="spin 1">
       <r>    -8.2695     0.0000     0.0000 </r>
       <r>    -8.2055     0.0000     0.0000 </r>
       <r>    -8.1415     0.0000     0.0000 </r>
       <r>    -8.0774     0.0000     0.0000 </r>
       <r>    -8.0134     0.0000     0.0000 </r>
       <r>    -7.9494     0.0000     0.0000 </r>
       <r>    -7.8853    -0.0000    -0.0000 </r>
       <r>    -7.8213    -0.0000    -0.0000 </r>
       <r>    -7.7573    -0.0000    -0.0000 </r>
       <r>    -7.6932    -0.0000    -0.0000 </r>
       <r>    -7.6292    -0.0000    -0.0000 </r>
       <r>    -7.5651    -0.0000    -0.0000 </r>
       <r>    -7.5011    -0.0000    -0.0000 </r>
       <r>    -7.4371    -0.0000    -0.0000 </r>
       <r>    -7.3730    -0.0000    -0.0000 </r>
       <r>    -7.3090    -0.0000    -0.0000 </r>
       <r>    -7.2450    -0.0000    -0.0000 </r>
       <r>    -7.1809    -0.0000    -0.0000 </r>
       <r>    -7.1169    -0.0000    -0.0000 </r>
       <r>    -7.0529    -0.0000    -0.0000 </r>
       <r>    -6.9888    -0.0000    -0.0000 </r>
       <r>    -6.9248    -0.0001    -0.0000 </r>
       <r>    -6.8608    -0.0004    -0.0000 </r>
       <r>    -6.7967    -0.0019    -0.0002 </r>
       <r>    -6.7327    -0.0075    -0.0006 </r>
       <r>    -6.6687    -0.0220    -0.0020 </r>
       <r>    -6.6046    -0.0467    -0.0050 </r>
       <r>    -6.5406    -0.0620    -0.0090 </r>
       <r>    -6.4766    -0.0162    -0.0100 </r>
       <r>    -6.4125     0.1387    -0.0012 </r>
       <r>    -6.3485     0.3726     0.0227 </r>
       <r>    -6.2845     0.6065     0.0615 </r>
       <r>    -6.2204     0.9359     0.1215 </r>
       <r>    -6.1564     1.7297     0.2322 </r>
       <r>    -6.0924     3.1901     0.4365 </r>
       <r>    -6.0283     4.8336     0.7460 </r>
       <r>    -5.9643     5.9763     1.1287 </r>
       <r>    -5.9002     6.8727     1.5688 </r>
       <r>    -5.8362     8.5121     2.1139 </r>
       <r>    -5.7722    10.8353     2.8077 </r>
       <r>    -5.7081    12.2285     3.5908 </r>
       <r>    -5.6441    11.6107     4.3343 </r>
       <r>    -5.5801     9.9476     4.9712 </r>
       <r>    -5.5160     8.6969     5.5281 </r>
       <r>    -5.4520     7.8362     6.0299 </r>
       <r>    -5.3880     6.5874     6.4518 </r>
       <r>    -5.3239     5.1287     6.7802 </r>
       <r>    -5.2599     4.4236     7.0634 </r>
       <r>    -5.1959     5.1765     7.3949 </r>
       <r>    -5.1318     7.9514     7.9041 </r>
       <r>    -5.0678    13.2238     8.7509 </r>
       <r>    -5.0038    20.0201    10.0328 </r>
       <r>    -4.9397    25.6790    11.6772 </r>
       <r>    -4.8757    28.4446    13.4986 </r>
       <r>    -4.8117    28.9836    15.3546 </r>
       <r>    -4.7476    27.9553    17.1447 </r>
       <r>    -4.6836    24.0669    18.6858 </r>
       <r>    -4.6196    16.4704    19.7405 </r>
       <r>    -4.5555     7.4472    20.2174 </r>
       <r>    -4.4915     0.9750    20.2798 </r>
       <r>    -4.4275    -0.3227    20.2591 </r>
       <r>    -4.3634     3.9382    20.5113 </r>
       <r>    -4.2994    12.4677    21.3097 </r>
       <r>    -4.2353    22.4367    22.7464 </r>
       <r>    -4.1713    29.8682    24.6590 </r>
       <r>    -4.1073    31.5138    26.6770 </r>
       <r>    -4.0432    27.1560    28.4159 </r>
       <r>    -3.9792    20.0256    29.6982 </r>
       <r>    -3.9152    14.7996    30.6459 </r>
       <r>    -3.8511    14.9746    31.6048 </r>
       <r>    -3.7871    21.2393    32.9649 </r>
       <r>    -3.7231    31.1476    34.9594 </r>
       <r>    -3.6590    40.3354    37.5423 </r>
       <r>    -3.5950    45.0601    40.4277 </r>
       <r>    -3.5310    44.1537    43.2550 </r>
       <r>    -3.4669    38.9537    45.7494 </r>
       <r>    -3.4029    32.2225    47.8128 </r>
       <r>    -3.3389    27.0513    49.5450 </r>
       <r>    -3.2748    25.0905    51.1517 </r>
       <r>    -3.2108    24.7969    52.7395 </r>
       <r>    -3.1468    22.5306    54.1823 </r>
       <r>    -3.0827    16.4185    55.2336 </r>
       <r>    -3.0187     8.3910    55.7709 </r>
       <r>    -2.9547     1.9141    55.8935 </r>
       <r>    -2.8906    -1.1799    55.8180 </r>
       <r>    -2.8266    -1.0639    55.7498 </r>
       <r>    -2.7626     1.5164    55.8469 </r>
       <r>    -2.6985     5.6631    56.2096 </r>
       <r>    -2.6345     9.6439    56.8271 </r>
       <r>    -2.5704    11.1704    57.5424 </r>
       <r>    -2.5064     9.1847    58.1305 </r>
       <r>    -2.4424     5.1813    58.4623 </r>
       <r>    -2.3783     2.4858    58.6215 </r>
       <r>    -2.3143     4.2585    58.8942 </r>
       <r>    -2.2503    11.6531    59.6404 </r>
       <r>    -2.1862    22.6784    61.0926 </r>
       <r>    -2.1222    32.4363    63.1696 </r>
       <r>    -2.0582    35.6509    65.4525 </r>
       <r>    -1.9941    30.3921    67.3987 </r>
       <r>    -1.9301    19.6762    68.6586 </r>
       <r>    -1.8661     9.1937    69.2474 </r>
       <r>    -1.8020     3.3731    69.4634 </r>
       <r>    -1.7380     3.1439    69.6647 </r>
       <r>    -1.6740     6.3228    70.0695 </r>
       <r>    -1.6099     9.4782    70.6765 </r>
       <r>    -1.5459    10.1004    71.3233 </r>
       <r>    -1.4819     8.1266    71.8436 </r>
       <r>    -1.4178     5.8810    72.2202 </r>
       <r>    -1.3538     6.4036    72.6303 </r>
       <r>    -1.2898    11.2141    73.3484 </r>
       <r>    -1.2257    18.8365    74.5546 </r>
       <r>    -1.1617    25.5410    76.1901 </r>
       <r>    -1.0976    28.6178    78.0226 </r>
       <r>    -1.0336    29.2237    79.8939 </r>
       <r>    -0.9696    31.3646    81.9024 </r>
       <r>    -0.9055    37.9337    84.3314 </r>
       <r>    -0.8415    47.3203    87.3616 </r>
       <r>    -0.7775    53.1689    90.7662 </r>
       <r>    -0.7134    48.8768    93.8960 </r>
       <r>    -0.6494    34.4339    96.1010 </r>
       <r>    -0.5854    18.0413    97.2562 </r>
       <r>    -0.5213     9.3072    97.8522 </r>
       <r>    -0.4573    11.1080    98.5635 </r>
       <r>    -0.3933    18.2554    99.7325 </r>
       <r>    -0.3292    22.9755   101.2037 </r>
       <r>    -0.2652    21.3143   102.5686 </r>
       <r>    -0.2012    15.0961   103.5353 </r>
       <r>    -0.1371     8.8114   104.0995 </r>
       <r>    -0.0731     5.5761   104.4566 </r>
       <r>    -0.0091     5.9494   104.8375 </r>
       <r>     0.0550     9.0753   105.4186 </r>
       <r>     0.1190    13.8279   106.3041 </r>
       <r>     0.1830    19.1696   107.5316 </r>
       <r>     0.2471    23.8306   109.0576 </r>
       <r>     0.3111    25.8391   110.7122 </r>
       <r>     0.3751    23.3128   112.2050 </r>
       <r>     0.4392    16.4979   113.2615 </r>
       <r>     0.5032     8.3384   113.7954 </r>
       <r>     0.5673     2.2029   113.9365 </r>
       <r>     0.6313    -0.6436   113.8953 </r>
       <r>     0.6953    -1.1338   113.8227 </r>
       <r>     0.7594    -0.7890   113.7722 </r>
       <r>     0.8234    -0.5895   113.7344 </r>
       <r>     0.8874    -0.9471   113.6738 </r>
       <r>     0.9515    -1.8978   113.5522 </r>
       <r>     1.0155    -2.6373   113.3834 </r>
       <r>     1.0795    -0.6595   113.3411 </r>
       <r>     1.1436     7.7109   113.8349 </r>
       <r>     1.2076    23.8419   115.3616 </r>
       <r>     1.2716    42.8002   118.1023 </r>
       <r>     1.3357    54.6650   121.6027 </r>
       <r>     1.3997    52.3354   124.9540 </r>
       <r>     1.4637    38.1448   127.3966 </r>
       <r>     1.5278    21.8253   128.7942 </r>
       <r>     1.5918    12.3869   129.5874 </r>
       <r>     1.6558    12.1636   130.3663 </r>
       <r>     1.7199    17.0661   131.4591 </r>
       <r>     1.7839    21.2977   132.8229 </r>
       <r>     1.8479    22.7632   134.2805 </r>
       <r>     1.9120    25.1684   135.8921 </r>
       <r>     1.9760    34.4336   138.0971 </r>
       <r>     2.0400    51.8941   141.4201 </r>
       <r>     2.1041    70.8830   145.9591 </r>
       <r>     2.1681    80.8187   151.1343 </r>
       <r>     2.2322    75.2628   155.9537 </r>
       <r>     2.2962    56.4105   159.5659 </r>
       <r>     2.3602    32.6833   161.6588 </r>
       <r>     2.4243    12.6089   162.4662 </r>
       <r>     2.4883     0.2893   162.4847 </r>
       <r>     2.5523    -4.5102   162.1959 </r>
       <r>     2.6164    -2.6364   162.0271 </r>
       <r>     2.6804     7.3459   162.4975 </r>
       <r>     2.7444    27.0500   164.2296 </r>
       <r>     2.8085    52.8864   167.6162 </r>
       <r>     2.8725    75.0258   172.4204 </r>
       <r>     2.9365    84.4020   177.8251 </r>
       <r>     3.0006    80.2075   182.9611 </r>
       <r>     3.0646    68.7186   187.3615 </r>
       <r>     3.1286    56.2580   190.9640 </r>
       <r>     3.1927    45.8467   193.8998 </r>
       <r>     3.2567    39.1174   196.4046 </r>
       <r>     3.3207    37.3952   198.7992 </r>
       <r>     3.3848    39.7006   201.3414 </r>
       <r>     3.4488    41.9597   204.0283 </r>
       <r>     3.5128    40.3987   206.6152 </r>
       <r>     3.5769    35.5450   208.8913 </r>
       <r>     3.6409    31.3541   210.8991 </r>
       <r>     3.7049    30.3397   212.8419 </r>
       <r>     3.7690    31.2098   214.8404 </r>
       <r>     3.8330    31.6939   216.8699 </r>
       <r>     3.8971    32.0602   218.9228 </r>
       <r>     3.9611    34.8132   221.1521 </r>
       <r>     4.0251    41.5303   223.8115 </r>
       <r>     4.0892    50.5577   227.0489 </r>
       <r>     4.1532    57.6561   230.7409 </r>
       <r>     4.2172    58.9424   234.5153 </r>
       <r>     4.2813    53.5521   237.9444 </r>
       <r>     4.3453    43.6350   240.7386 </r>
       <r>     4.4093    32.1951   242.8002 </r>
       <r>     4.4734    21.5784   244.1820 </r>
       <r>     4.5374    13.6489   245.0560 </r>
       <r>     4.6014     9.9462   245.6929 </r>
       <r>     4.6655    10.8637   246.3885 </r>
       <r>     4.7295    14.9680   247.3470 </r>
       <r>     4.7935    19.3583   248.5866 </r>
       <r>     4.8576    20.9158   249.9259 </r>
       <r>     4.9216    18.0852   251.0840 </r>
       <r>     4.9856    12.1518   251.8621 </r>
       <r>     5.0497     6.4915   252.2778 </r>
       <r>     5.1137     4.0269   252.5357 </r>
       <r>     5.1777     5.2020   252.8688 </r>
       <r>     5.2418     8.1135   253.3883 </r>
       <r>     5.3058    10.2048   254.0418 </r>
       <r>     5.3698     9.9760   254.6806 </r>
       <r>     5.4339     7.6942   255.1733 </r>
       <r>     5.4979     4.8481   255.4837 </r>
       <r>     5.5620     2.8162   255.6641 </r>
       <r>     5.6260     1.8727   255.7840 </r>
       <r>     5.6900     1.3907   255.8731 </r>
       <r>     5.7541     0.8492   255.9274 </r>
       <r>     5.8181     0.4757   255.9579 </r>
       <r>     5.8821     0.9451   256.0184 </r>
       <r>     5.9462     2.5701   256.1830 </r>
       <r>     6.0102     4.8273   256.4921 </r>
       <r>     6.0742     6.7196   256.9224 </r>
       <r>     6.1383     7.5840   257.4080 </r>
       <r>     6.2023     7.4074   257.8824 </r>
       <r>     6.2663     6.4784   258.2972 </r>
       <r>     6.3304     5.1977   258.6300 </r>
       <r>     6.3944     4.3058   258.9058 </r>
       <r>     6.4584     4.6855   259.2058 </r>
       <r>     6.5225     6.5311   259.6240 </r>
       <r>     6.5865     9.0616   260.2043 </r>
       <r>     6.6505    11.4008   260.9343 </r>
       <r>     6.7146    13.4246   261.7940 </r>
       <r>     6.7786    15.4966   262.7863 </r>
       <r>     6.8426    17.8699   263.9306 </r>
       <r>     6.9067    20.6308   265.2516 </r>
       <r>     6.9707    23.5047   266.7568 </r>
       <r>     7.0347    25.3473   268.3799 </r>
       <r>     7.0988    24.8827   269.9732 </r>
       <r>     7.1628    22.7525   271.4302 </r>
       <r>     7.2269    21.8110   272.8268 </r>
       <r>     7.2909    24.2504   274.3797 </r>
       <r>     7.3549    29.2962   276.2557 </r>
       <r>     7.4190    34.8933   278.4901 </r>
       <r>     7.4830    40.3369   281.0730 </r>
       <r>     7.5470    45.5065   283.9870 </r>
       <r>     7.6111    49.1223   287.1325 </r>
       <r>     7.6751    50.2779   290.3521 </r>
       <r>     7.7391    50.3955   293.5791 </r>
       <r>     7.8032    51.1496   296.8545 </r>
       <r>     7.8672    51.7047   300.1654 </r>
       <r>     7.9312    50.3370   303.3887 </r>
       <r>     7.9953    47.5273   306.4321 </r>
       <r>     8.0593    45.1544   309.3235 </r>
       <r>     8.1233    43.4259   312.1043 </r>
       <r>     8.1874    40.5627   314.7017 </r>
       <r>     8.2514    35.3118   316.9629 </r>
       <r>     8.3154    28.4697   318.7859 </r>
       <r>     8.3795    21.8689   320.1863 </r>
       <r>     8.4435    16.7042   321.2559 </r>
       <r>     8.5075    12.9902   322.0878 </r>
       <r>     8.5716    10.0112   322.7288 </r>
       <r>     8.6356     7.0625   323.1811 </r>
       <r>     8.6997     4.1148   323.4446 </r>
       <r>     8.7637     1.8673   323.5641 </r>
       <r>     8.8277     0.9619   323.6257 </r>
       <r>     8.8918     1.1998   323.7025 </r>
       <r>     8.9558     1.6845   323.8104 </r>
       <r>     9.0198     1.6667   323.9171 </r>
       <r>     9.0839     1.1026   323.9877 </r>
       <r>     9.1479     0.4313   324.0154 </r>
       <r>     9.2119     0.0152   324.0163 </r>
       <r>     9.2760    -0.1092   324.0093 </r>
       <r>     9.3400    -0.0869   324.0038 </r>
       <r>     9.4040    -0.0409   324.0012 </r>
       <r>     9.4681    -0.0138   324.0003 </r>
       <r>     9.5321    -0.0035   324.0001 </r>
       <r>     9.5961    -0.0007   324.0000 </r>
       <r>     9.6602    -0.0001   324.0000 </r>
       <r>     9.7242    -0.0000   324.0000 </r>
       <r>     9.7882    -0.0000   324.0000 </r>
       <r>     9.8523    -0.0000   324.0000 </r>
       <r>     9.9163    -0.0000   324.0000 </r>
       <r>     9.9803    -0.0000   324.0000 </r>
       <r>    10.0444    -0.0000   324.0000 </r>
       <r>    10.1084    -0.0000   324.0000 </r>
       <r>    10.1724    -0.0000   324.0000 </r>
       <r>    10.2365     0.0000   324.0000 </r>
       <r>    10.3005     0.0000   324.0000 </r>
       <r>    10.3646     0.0000   324.0000 </r>
       <r>    10.4286     0.0000   324.0000 </r>
       <r>    10.4926     0.0000   324.0000 </r>
       <r>    10.5567     0.0000   324.0000 </r>
       <r>    10.6207     0.0000   324.0000 </r>
       <r>    10.6847     0.0000   324.0000 </r>
       <r>    10.7488     0.0000   324.0000 </r>
       <r>    10.8128     0.0000   324.0000 </r>
       <r>    10.8768     0.0000   324.0000 </r>
       <r>    10.9409     0.0000   324.0000 </r>
      </set>
     </set>
    </array>
   </total>
  </dos>
 </calculation>
 <structure name="finalpos" >
  <crystal>
   <varray name="basis" >
    <v>      11.08889664       0.10871502       0.00000000 </v>
    <v>       0.10871502      10.87146761       0.00000000 </v>
    <v>       0.00000000       0.00000000      10.87146761 </v>
   </varray>
   <i name="volume">   1310.45498512 </i>
   <varray name="rec_basis" >
    <v>       0.09018914      -0.00090189       0.00000000 </v>
    <v>      -0.00090189       0.09199292       0.00000000 </v>
    <v>       0.00000000       0.00000000       0.09198390 </v>
   </varray>
  </crystal>
  <varray name="positions" >
   <v>       0.00000000       0.00000000       0.00063972 </v>
   <v>       0.00000000       0.00000000       0.50063972 </v>
   <v>       0.00000000       0.50000000       0.00063972 </v>
   <v>       0.00000000       0.50000000       0.50063972 </v>
   <v>       0.50000000       0.00000000       0.00063972 </v>
   <v>       0.50000000       0.00000000       0.50063972 </v>
   <v>       0.50000000       0.50000000       0.00063972 </v>
   <v>       0.50000000       0.50000000       0.50063972 </v>
   <v>       0.37500000       0.37500000       0.12436028 </v>
   <v>       0.37500000       0.37500000       0.62436028 </v>
   <v>       0.37500000       0.87500000       0.12436028 </v>
   <v>       0.37500000       0.87500000       0.62436028 </v>
   <v>       0.87500000       0.37500000       0.12436028 </v>
   <v>       0.87500000       0.37500000       0.62436028 </v>
   <v>       0.87500000       0.87500000       0.12436028 </v>
   <v>       0.87500000       0.87500000       0.62436028 </v>
   <v>       0.00000000       0.25000000       0.25063972 </v>
   <v>       0.00000000       0.25000000       0.75063972 </v>
   <v>       0.00000000       0.75000000       0.25063972 </v>
   <v>       0.00000000       0.75000000       0.75063972 </v>
   <v>       0.50000000       0.25000000       0.25063972 </v>
   <v>       0.50000000       0.25000000       0.75063972 </v>
   <v>       0.50000000       0.75000000       0.25063972 </v>
   <v>       0.50000000       0.75000000       0.75063972 </v>
   <v>       0.37500000       0.12500000       0.37436028 </v>
   <v>       0.37500000       0.12500000       0.87436028 </v>
   <v>       0.37500000       0.62500000       0.37436028 </v>
   <v>       0.37500000       0.62500000       0.87436028 </v>
   <v>       0.87500000       0.12500000       0.37436028 </v>
   <v>       0.87500000       0.12500000       0.87436028 </v>
   <v>       0.87500000       0.62500000       0.37436028 </v>
   <v>       0.87500000       0.62500000       0.87436028 </v>
   <v>       0.25000000       0.00000000       0.25063972 </v>
   <v>       0.25000000       0.00000000       0.75063972 </v>
   <v>       0.25000000       0.50000000       0.25063972 </v>
   <v>       0.25000000       0.50000000       0.75063972 </v>
   <v>       0.75000000       0.00000000       0.25063972 </v>
   <v>       0.75000000       0.00000000       0.75063972 </v>
   <v>       0.75000000       0.50000000       0.25063972 </v>
   <v>       0.75000000       0.50000000       0.75063972 </v>
   <v>       0.12500000       0.37500000       0.37436028 </v>
   <v>       0.12500000       0.37500000       0.87436028 </v>
   <v>       0.12500000       0.87500000       0.37436028 </v>
   <v>       0.12500000       0.87500000       0.87436028 </v>
   <v>       0.62500000       0.37500000       0.37436028 </v>
   <v>       0.62500000       0.37500000       0.87436028 </v>
   <v>       0.62500000       0.87500000       0.37436028 </v>
   <v>       0.62500000       0.87500000       0.87436028 </v>
   <v>       0.25000000       0.25000000       0.00063972 </v>
   <v>       0.25000000       0.25000000       0.50063972 </v>
   <v>       0.25000000       0.75000000       0.00063972 </v>
   <v>       0.25000000       0.75000000       0.50063972 </v>
   <v>       0.75000000       0.25000000       0.00063972 </v>
   <v>       0.75000000       0.25000000       0.50063972 </v>
   <v>       0.75000000       0.75000000       0.00063972 </v>
   <v>       0.75000000       0.75000000       0.50063972 </v>
   <v>       0.12500000       0.12500000       0.12436028 </v>
   <v>       0.12500000       0.12500000       0.62436028 </v>
   <v>       0.12500000       0.62500000       0.12436028 </v>
   <v>       0.12500000       0.62500000       0.62436028 </v>
   <v>       0.62500000       0.12500000       0.12436028 </v>
   <v>       0.62500000       0.12500000       0.62436028 </v>
   <v>       0.62500000       0.62500000       0.12436028 </v>
   <v>       0.62500000       0.62500000       0.62436028 </v>
  </varray>
 </structure>
</modeling>
