Si64                                    
           1
    11.088897    0.108715    0.000000
     0.108715   10.871468    0.000000
     0.000000    0.000000   10.871468
   Si
    64
Direct configuration=     1
   0.00000000  0.00000000  0.00000000
   0.00000000  0.00000000  0.50000000
   0.00000000  0.50000000  0.00000000
   0.00000000  0.50000000  0.50000000
   0.50000000  0.00000000  0.00000000
   0.50000000  0.00000000  0.50000000
   0.50000000  0.50000000  0.00000000
   0.50000000  0.50000000  0.50000000
   0.37500000  0.37500000  0.12500000
   0.37500000  0.37500000  0.62500000
   0.37500000  0.87500000  0.12500000
   0.37500000  0.87500000  0.62500000
   0.87500000  0.37500000  0.12500000
   0.87500000  0.37500000  0.62500000
   0.87500000  0.87500000  0.12500000
   0.87500000  0.87500000  0.62500000
   0.00000000  0.25000000  0.25000000
   0.00000000  0.25000000  0.75000000
   0.00000000  0.75000000  0.25000000
   0.00000000  0.75000000  0.75000000
   0.50000000  0.25000000  0.25000000
   0.50000000  0.25000000  0.75000000
   0.50000000  0.75000000  0.25000000
   0.50000000  0.75000000  0.75000000
   0.37500000  0.12500000  0.37500000
   0.37500000  0.12500000  0.87500000
   0.37500000  0.62500000  0.37500000
   0.37500000  0.62500000  0.87500000
   0.87500000  0.12500000  0.37500000
   0.87500000  0.12500000  0.87500000
   0.87500000  0.62500000  0.37500000
   0.87500000  0.62500000  0.87500000
   0.25000000  0.00000000  0.25000000
   0.25000000  0.00000000  0.75000000
   0.25000000  0.50000000  0.25000000
   0.25000000  0.50000000  0.75000000
   0.75000000  0.00000000  0.25000000
   0.75000000  0.00000000  0.75000000
   0.75000000  0.50000000  0.25000000
   0.75000000  0.50000000  0.75000000
   0.12500000  0.37500000  0.37500000
   0.12500000  0.37500000  0.87500000
   0.12500000  0.87500000  0.37500000
   0.12500000  0.87500000  0.87500000
   0.62500000  0.37500000  0.37500000
   0.62500000  0.37500000  0.87500000
   0.62500000  0.87500000  0.37500000
   0.62500000  0.87500000  0.87500000
   0.25000000  0.25000000  0.00000000
   0.25000000  0.25000000  0.50000000
   0.25000000  0.75000000  0.00000000
   0.25000000  0.75000000  0.50000000
   0.75000000  0.25000000  0.00000000
   0.75000000  0.25000000  0.50000000
   0.75000000  0.75000000  0.00000000
   0.75000000  0.75000000  0.50000000
   0.12500000  0.12500000  0.12500000
   0.12500000  0.12500000  0.62500000
   0.12500000  0.62500000  0.12500000
   0.12500000  0.62500000  0.62500000
   0.62500000  0.12500000  0.12500000
   0.62500000  0.12500000  0.62500000
   0.62500000  0.62500000  0.12500000
   0.62500000  0.62500000  0.62500000
Direct configuration=     2
   1.00000000  1.00000000  0.00079605
   1.00000000  1.00000000  0.50079605
   1.00000000  0.50000000  0.00079605
   1.00000000  0.50000000  0.50079605
   0.50000000  0.00000000  0.00079605
   0.50000000  1.00000000  0.50079605
   0.50000000  0.50000000  0.00079605
   0.50000000  0.50000000  0.50079605
   0.37500000  0.37500000  0.12420395
   0.37500000  0.37500000  0.62420395
   0.37500000  0.87500000  0.12420395
   0.37500000  0.87500000  0.62420395
   0.87500000  0.37500000  0.12420395
   0.87500000  0.37500000  0.62420395
   0.87500000  0.87500000  0.12420395
   0.87500000  0.87500000  0.62420395
   1.00000000  0.25000000  0.25079605
   1.00000000  0.25000000  0.75079605
   1.00000000  0.75000000  0.25079605
   1.00000000  0.75000000  0.75079605
   0.50000000  0.25000000  0.25079605
   0.50000000  0.25000000  0.75079605
   0.50000000  0.75000000  0.25079605
   0.50000000  0.75000000  0.75079605
   0.37500000  0.12500000  0.37420395
   0.37500000  0.12500000  0.87420395
   0.37500000  0.62500000  0.37420395
   0.37500000  0.62500000  0.87420395
   0.87500000  0.12500000  0.37420395
   0.87500000  0.12500000  0.87420395
   0.87500000  0.62500000  0.37420395
   0.87500000  0.62500000  0.87420395
   0.25000000  0.00000000  0.25079605
   0.25000000  1.00000000  0.75079605
   0.25000000  0.50000000  0.25079605
   0.25000000  0.50000000  0.75079605
   0.75000000  1.00000000  0.25079605
   0.75000000  0.00000000  0.75079605
   0.75000000  0.50000000  0.25079605
   0.75000000  0.50000000  0.75079605
   0.12500000  0.37500000  0.37420395
   0.12500000  0.37500000  0.87420395
   0.12500000  0.87500000  0.37420395
   0.12500000  0.87500000  0.87420395
   0.62500000  0.37500000  0.37420395
   0.62500000  0.37500000  0.87420395
   0.62500000  0.87500000  0.37420395
   0.62500000  0.87500000  0.87420395
   0.25000000  0.25000000  0.00079605
   0.25000000  0.25000000  0.50079605
   0.25000000  0.75000000  0.00079605
   0.25000000  0.75000000  0.50079605
   0.75000000  0.25000000  0.00079605
   0.75000000  0.25000000  0.50079605
   0.75000000  0.75000000  0.00079605
   0.75000000  0.75000000  0.50079605
   0.12500000  0.12500000  0.12420395
   0.12500000  0.12500000  0.62420395
   0.12500000  0.62500000  0.12420395
   0.12500000  0.62500000  0.62420395
   0.62500000  0.12500000  0.12420395
   0.62500000  0.12500000  0.62420395
   0.62500000  0.62500000  0.12420395
   0.62500000  0.62500000  0.62420395
Direct configuration=     3
   0.00000000  0.00000000  0.00063972
   0.00000000  0.00000000  0.50063972
   0.00000000  0.50000000  0.00063972
   0.00000000  0.50000000  0.50063972
   0.50000000  0.00000000  0.00063972
   0.50000000  0.00000000  0.50063972
   0.50000000  0.50000000  0.00063972
   0.50000000  0.50000000  0.50063972
   0.37500000  0.37500000  0.12436028
   0.37500000  0.37500000  0.62436028
   0.37500000  0.87500000  0.12436028
   0.37500000  0.87500000  0.62436028
   0.87500000  0.37500000  0.12436028
   0.87500000  0.37500000  0.62436028
   0.87500000  0.87500000  0.12436028
   0.87500000  0.87500000  0.62436028
   0.00000000  0.25000000  0.25063972
   0.00000000  0.25000000  0.75063972
   0.00000000  0.75000000  0.25063972
   0.00000000  0.75000000  0.75063972
   0.50000000  0.25000000  0.25063972
   0.50000000  0.25000000  0.75063972
   0.50000000  0.75000000  0.25063972
   0.50000000  0.75000000  0.75063972
   0.37500000  0.12500000  0.37436028
   0.37500000  0.12500000  0.87436028
   0.37500000  0.62500000  0.37436028
   0.37500000  0.62500000  0.87436028
   0.87500000  0.12500000  0.37436028
   0.87500000  0.12500000  0.87436028
   0.87500000  0.62500000  0.37436028
   0.87500000  0.62500000  0.87436028
   0.25000000  0.00000000  0.25063972
   0.25000000  0.00000000  0.75063972
   0.25000000  0.50000000  0.25063972
   0.25000000  0.50000000  0.75063972
   0.75000000  0.00000000  0.25063972
   0.75000000  0.00000000  0.75063972
   0.75000000  0.50000000  0.25063972
   0.75000000  0.50000000  0.75063972
   0.12500000  0.37500000  0.37436028
   0.12500000  0.37500000  0.87436028
   0.12500000  0.87500000  0.37436028
   0.12500000  0.87500000  0.87436028
   0.62500000  0.37500000  0.37436028
   0.62500000  0.37500000  0.87436028
   0.62500000  0.87500000  0.37436028
   0.62500000  0.87500000  0.87436028
   0.25000000  0.25000000  0.00063972
   0.25000000  0.25000000  0.50063972
   0.25000000  0.75000000  0.00063972
   0.25000000  0.75000000  0.50063972
   0.75000000  0.25000000  0.00063972
   0.75000000  0.25000000  0.50063972
   0.75000000  0.75000000  0.00063972
   0.75000000  0.75000000  0.50063972
   0.12500000  0.12500000  0.12436028
   0.12500000  0.12500000  0.62436028
   0.12500000  0.62500000  0.12436028
   0.12500000  0.62500000  0.62436028
   0.62500000  0.12500000  0.12436028
   0.62500000  0.12500000  0.62436028
   0.62500000  0.62500000  0.12436028
   0.62500000  0.62500000  0.62436028
