  64  64   0   0
  0.1801412E+02  0.1034632E-08  0.1055745E-08  0.1055692E-08  0.5000000E-15
  1.000000000000000E-004
  CAR 
 Si64                                    
     12.40237183     -7.83993574  301      7.04225377      1.00000000
     -7.840  0.0000E+00  0.0000E+00
     -7.772  0.0000E+00  0.0000E+00
     -7.705  0.0000E+00  0.0000E+00
     -7.638  0.0000E+00  0.0000E+00
     -7.570  0.0000E+00  0.0000E+00
     -7.503 -0.1404E-30 -0.9475E-32
     -7.435 -0.3268E-28 -0.2214E-29
     -7.368 -0.6064E-26 -0.4114E-27
     -7.300 -0.8942E-24 -0.6075E-25
     -7.233 -0.1047E-21 -0.7129E-23
     -7.165 -0.9745E-20 -0.6647E-21
     -7.098 -0.7198E-18 -0.4923E-19
     -7.030 -0.4219E-16 -0.2896E-17
     -6.963 -0.1899E-14 -0.1310E-15
     -6.895 -0.6968E-13 -0.4833E-14
     -6.828 -0.2023E-11 -0.1413E-12
     -6.760 -0.4639E-10 -0.3271E-11
     -6.693 -0.8393E-09 -0.5990E-10
     -6.625 -0.1195E-07 -0.8662E-09
     -6.558 -0.1335E-06 -0.9873E-08
     -6.490 -0.1165E-05 -0.8846E-07
     -6.423 -0.7884E-05 -0.6204E-06
     -6.355 -0.4098E-04 -0.3386E-05
     -6.288 -0.1607E-03 -0.1423E-04
     -6.221 -0.4589E-03 -0.4519E-04
     -6.153 -0.8770E-03 -0.1044E-03
     -6.086 -0.7910E-03 -0.1577E-03
     -6.018  0.1034E-02 -0.8795E-04
     -5.951  0.5087E-02  0.2553E-03
     -5.883  0.9406E-02  0.8900E-03
     -5.816  0.1175E-01  0.1683E-02
     -5.748  0.1592E-01  0.2757E-02
     -5.681  0.3165E-01  0.4893E-02
     -5.613  0.6061E-01  0.8983E-02
     -5.546  0.8657E-01  0.1482E-01
     -5.478  0.9443E-01  0.2120E-01
     -5.411  0.9800E-01  0.2781E-01
     -5.343  0.1258E+00  0.3630E-01
     -5.276  0.1730E+00  0.4797E-01
     -5.208  0.1968E+00  0.6124E-01
     -5.141  0.1750E+00  0.7305E-01
     -5.073  0.1385E+00  0.8239E-01
     -5.006  0.1242E+00  0.9077E-01
     -4.939  0.1243E+00  0.9916E-01
     -4.871  0.1102E+00  0.1066E+00
     -4.804  0.8274E-01  0.1122E+00
     -4.736  0.6611E-01  0.1166E+00
     -4.669  0.6926E-01  0.1213E+00
     -4.601  0.8832E-01  0.1273E+00
     -4.534  0.1379E+00  0.1366E+00
     -4.466  0.2350E+00  0.1524E+00
     -4.399  0.3469E+00  0.1758E+00
     -4.331  0.4090E+00  0.2034E+00
     -4.264  0.4112E+00  0.2312E+00
     -4.196  0.4068E+00  0.2586E+00
     -4.129  0.4146E+00  0.2866E+00
     -4.061  0.3806E+00  0.3123E+00
     -3.994  0.2670E+00  0.3303E+00
     -3.926  0.1182E+00  0.3383E+00
     -3.859  0.8993E-02  0.3389E+00
     -3.791 -0.2544E-01  0.3372E+00
     -3.724  0.1044E-01  0.3379E+00
     -3.657  0.1023E+00  0.3448E+00
     -3.589  0.2314E+00  0.3604E+00
     -3.522  0.3651E+00  0.3850E+00
     -3.454  0.4591E+00  0.4160E+00
     -3.387  0.4751E+00  0.4481E+00
     -3.319  0.4095E+00  0.4757E+00
     -3.252  0.3058E+00  0.4963E+00
     -3.184  0.2315E+00  0.5119E+00
     -3.117  0.2370E+00  0.5279E+00
     -3.049  0.3273E+00  0.5500E+00
     -2.982  0.4582E+00  0.5809E+00
     -2.914  0.5642E+00  0.6190E+00
     -2.847  0.6037E+00  0.6597E+00
     -2.779  0.5823E+00  0.6990E+00
     -2.712  0.5339E+00  0.7350E+00
     -2.644  0.4838E+00  0.7677E+00
     -2.577  0.4401E+00  0.7974E+00
     -2.509  0.4129E+00  0.8252E+00
     -2.442  0.4123E+00  0.8531E+00
     -2.375  0.4138E+00  0.8810E+00
     -2.307  0.3652E+00  0.9056E+00
     -2.240  0.2505E+00  0.9225E+00
     -2.172  0.1166E+00  0.9304E+00
     -2.105  0.2093E-01  0.9318E+00
     -2.037 -0.2037E-01  0.9304E+00
     -1.970 -0.2497E-01  0.9288E+00
     -1.902 -0.7079E-02  0.9283E+00
     -1.835  0.3601E-01  0.9307E+00
     -1.767  0.1036E+00  0.9377E+00
     -1.700  0.1682E+00  0.9490E+00
     -1.632  0.1865E+00  0.9616E+00
     -1.565  0.1426E+00  0.9713E+00
     -1.497  0.7403E-01  0.9763E+00
     -1.430  0.4547E-01  0.9793E+00
     -1.362  0.1011E+00  0.9861E+00
     -1.295  0.2365E+00  0.1002E+01
     -1.227  0.3996E+00  0.1029E+01
     -1.160  0.5154E+00  0.1064E+01
     -1.092  0.5258E+00  0.1099E+01
     -1.025  0.4244E+00  0.1128E+01
     -0.958  0.2626E+00  0.1146E+01
     -0.890  0.1220E+00  0.1154E+01
     -0.823  0.6721E-01  0.1158E+01
     -0.755  0.1040E+00  0.1165E+01
     -0.688  0.1762E+00  0.1177E+01
     -0.620  0.2158E+00  0.1192E+01
     -0.553  0.2098E+00  0.1206E+01
     -0.485  0.2134E+00  0.1220E+01
     -0.418  0.2755E+00  0.1239E+01
     -0.350  0.3580E+00  0.1263E+01
     -0.283  0.3630E+00  0.1288E+01
     -0.215  0.2600E+00  0.1305E+01
     -0.148  0.1547E+00  0.1316E+01
     -0.080  0.2027E+00  0.1329E+01
     -0.013  0.4544E+00  0.1360E+01
      0.055  0.7901E+00  0.1413E+01
      0.122  0.1005E+01  0.1481E+01
      0.190  0.9650E+00  0.1546E+01
      0.257  0.7026E+00  0.1594E+01
      0.324  0.3669E+00  0.1618E+01
      0.392  0.1036E+00  0.1625E+01
      0.459 -0.2751E-01  0.1624E+01
      0.527 -0.3781E-01  0.1621E+01
      0.594  0.4506E-01  0.1624E+01
      0.662  0.1893E+00  0.1637E+01
      0.729  0.3327E+00  0.1659E+01
      0.797  0.3952E+00  0.1686E+01
      0.864  0.3434E+00  0.1709E+01
      0.932  0.2266E+00  0.1724E+01
      0.999  0.1376E+00  0.1734E+01
      1.067  0.1472E+00  0.1744E+01
      1.134  0.2620E+00  0.1761E+01
      1.202  0.4165E+00  0.1789E+01
      1.269  0.5125E+00  0.1824E+01
      1.337  0.4876E+00  0.1857E+01
      1.404  0.3580E+00  0.1881E+01
      1.472  0.1945E+00  0.1894E+01
      1.539  0.6511E-01  0.1899E+01
      1.606 -0.4544E-02  0.1898E+01
      1.674 -0.2932E-01  0.1896E+01
      1.741 -0.3421E-01  0.1894E+01
      1.809 -0.2302E-01  0.1892E+01
      1.876  0.3037E-01  0.1894E+01
      1.944  0.1551E+00  0.1905E+01
      2.011  0.3334E+00  0.1927E+01
      2.079  0.4816E+00  0.1960E+01
      2.146  0.5060E+00  0.1994E+01
      2.214  0.3940E+00  0.2021E+01
      2.281  0.2442E+00  0.2037E+01
      2.349  0.1961E+00  0.2050E+01
      2.416  0.3140E+00  0.2071E+01
      2.484  0.5215E+00  0.2107E+01
      2.551  0.6607E+00  0.2151E+01
      2.619  0.6322E+00  0.2194E+01
      2.686  0.4751E+00  0.2226E+01
      2.754  0.3192E+00  0.2247E+01
      2.821  0.2884E+00  0.2267E+01
      2.888  0.4399E+00  0.2297E+01
      2.956  0.7377E+00  0.2346E+01
      3.023  0.1056E+01  0.2418E+01
      3.091  0.1237E+01  0.2501E+01
      3.158  0.1177E+01  0.2581E+01
      3.226  0.9019E+00  0.2641E+01
      3.293  0.5422E+00  0.2678E+01
      3.361  0.2420E+00  0.2694E+01
      3.428  0.6650E-01  0.2699E+01
      3.496 -0.2549E-02  0.2699E+01
      3.563  0.3814E-02  0.2699E+01
      3.631  0.9884E-01  0.2706E+01
      3.698  0.3170E+00  0.2727E+01
      3.766  0.6310E+00  0.2770E+01
      3.833  0.9173E+00  0.2831E+01
      3.901  0.1049E+01  0.2902E+01
      3.968  0.1017E+01  0.2971E+01
      4.036  0.9260E+00  0.3033E+01
      4.103  0.8646E+00  0.3092E+01
      4.171  0.8283E+00  0.3147E+01
      4.238  0.7805E+00  0.3200E+01
      4.305  0.7329E+00  0.3250E+01
      4.373  0.7221E+00  0.3298E+01
      4.440  0.7352E+00  0.3348E+01
      4.508  0.7075E+00  0.3396E+01
      4.575  0.5996E+00  0.3436E+01
      4.643  0.4489E+00  0.3466E+01
      4.710  0.3365E+00  0.3489E+01
      4.778  0.3164E+00  0.3510E+01
      4.845  0.3829E+00  0.3536E+01
      4.913  0.4874E+00  0.3569E+01
      4.980  0.5758E+00  0.3608E+01
      5.048  0.6148E+00  0.3650E+01
      5.115  0.6069E+00  0.3690E+01
      5.183  0.5928E+00  0.3730E+01
      5.250  0.6217E+00  0.3772E+01
      5.318  0.6979E+00  0.3820E+01
      5.385  0.7678E+00  0.3871E+01
      5.453  0.7735E+00  0.3924E+01
      5.520  0.7060E+00  0.3971E+01
      5.587  0.5933E+00  0.4011E+01
      5.655  0.4619E+00  0.4042E+01
      5.722  0.3326E+00  0.4065E+01
      5.790  0.2390E+00  0.4081E+01
      5.857  0.2140E+00  0.4095E+01
      5.925  0.2519E+00  0.4112E+01
      5.992  0.3017E+00  0.4133E+01
      6.060  0.3112E+00  0.4154E+01
      6.127  0.2692E+00  0.4172E+01
      6.195  0.2010E+00  0.4185E+01
      6.262  0.1348E+00  0.4195E+01
      6.330  0.8605E-01  0.4200E+01
      6.397  0.6555E-01  0.4205E+01
      6.465  0.7960E-01  0.4210E+01
      6.532  0.1164E+00  0.4218E+01
      6.600  0.1479E+00  0.4228E+01
      6.667  0.1536E+00  0.4238E+01
      6.735  0.1341E+00  0.4247E+01
      6.802  0.1010E+00  0.4254E+01
      6.869  0.6581E-01  0.4259E+01
      6.937  0.4164E-01  0.4261E+01
      7.004  0.4235E-01  0.4264E+01
      7.072  0.7076E-01  0.4269E+01
      7.139  0.1117E+00  0.4277E+01
      7.207  0.1425E+00  0.4286E+01
      7.274  0.1476E+00  0.4296E+01
      7.342  0.1245E+00  0.4305E+01
      7.409  0.8330E-01  0.4310E+01
      7.477  0.4481E-01  0.4313E+01
      7.544  0.3186E-01  0.4315E+01
      7.612  0.5542E-01  0.4319E+01
      7.679  0.1047E+00  0.4326E+01
      7.747  0.1534E+00  0.4337E+01
      7.814  0.1820E+00  0.4349E+01
      7.882  0.1968E+00  0.4362E+01
      7.949  0.2239E+00  0.4377E+01
      8.017  0.2816E+00  0.4396E+01
      8.084  0.3516E+00  0.4420E+01
      8.151  0.3862E+00  0.4446E+01
      8.219  0.3529E+00  0.4470E+01
      8.286  0.2710E+00  0.4488E+01
      8.354  0.2001E+00  0.4502E+01
      8.421  0.1949E+00  0.4515E+01
      8.489  0.2650E+00  0.4533E+01
      8.556  0.3691E+00  0.4558E+01
      8.624  0.4579E+00  0.4588E+01
      8.691  0.5143E+00  0.4623E+01
      8.759  0.5369E+00  0.4659E+01
      8.826  0.5110E+00  0.4694E+01
      8.894  0.4389E+00  0.4723E+01
      8.961  0.3785E+00  0.4749E+01
      9.029  0.4055E+00  0.4776E+01
      9.096  0.5421E+00  0.4813E+01
      9.164  0.7445E+00  0.4863E+01
      9.231  0.9473E+00  0.4927E+01
      9.299  0.1096E+01  0.5001E+01
      9.366  0.1152E+01  0.5079E+01
      9.434  0.1092E+01  0.5152E+01
      9.501  0.9262E+00  0.5215E+01
      9.568  0.6971E+00  0.5262E+01
      9.636  0.4739E+00  0.5294E+01
      9.703  0.3262E+00  0.5316E+01
      9.771  0.2736E+00  0.5334E+01
      9.838  0.2688E+00  0.5353E+01
      9.906  0.2469E+00  0.5369E+01
      9.973  0.1851E+00  0.5382E+01
     10.041  0.1070E+00  0.5389E+01
     10.108  0.4391E-01  0.5392E+01
     10.176  0.9668E-02  0.5393E+01
     10.243  0.2398E-02  0.5393E+01
     10.311  0.1272E-01  0.5394E+01
     10.378  0.2698E-01  0.5395E+01
     10.446  0.3239E-01  0.5398E+01
     10.513  0.2524E-01  0.5399E+01
     10.581  0.1234E-01  0.5400E+01
     10.648  0.2440E-02  0.5400E+01
     10.716 -0.1489E-02  0.5400E+01
     10.783 -0.1643E-02  0.5400E+01
     10.850 -0.8364E-03  0.5400E+01
     10.918 -0.2852E-03  0.5400E+01
     10.985 -0.7099E-04  0.5400E+01
     11.053 -0.1336E-04  0.5400E+01
     11.120 -0.1932E-05  0.5400E+01
     11.188 -0.2172E-06  0.5400E+01
     11.255 -0.1908E-07  0.5400E+01
     11.323 -0.1316E-08  0.5400E+01
     11.390 -0.7152E-10  0.5400E+01
     11.458 -0.3068E-11  0.5400E+01
     11.525 -0.1040E-12  0.5400E+01
     11.593 -0.2811E-14  0.5400E+01
     11.660 -0.5485E-16  0.5400E+01
     11.728  0.0000E+00  0.5400E+01
     11.795  0.0000E+00  0.5400E+01
     11.863  0.0000E+00  0.5400E+01
     11.930  0.0000E+00  0.5400E+01
     11.998  0.0000E+00  0.5400E+01
     12.065  0.0000E+00  0.5400E+01
     12.132  0.0000E+00  0.5400E+01
     12.200  0.0000E+00  0.5400E+01
     12.267  0.0000E+00  0.5400E+01
     12.335  0.0000E+00  0.5400E+01
     12.402  0.0000E+00  0.5400E+01
