 vasp.6.4.3 19Mar24 (build Oct 21 2024 22:36:34) complex                        
  
 executed on             LinuxIFC date 2024.11.01  22:57:52
 running   96 mpi-ranks, on    1 nodes
 distrk:  each k-point on   24 cores,    4 groups
 distr:  one band on NCORE=  12 cores,    2 groups


--------------------------------------------------------------------------------------------------------


 INCAR:
   SYSTEM = Si64
   ISTART = 0
   ICHARG = 2
   LREAL = Auto
   PREC = Accurate
   LWAVE = .False.
   LCHARG = .False.
   ADDGRID = .True.
   ENCUT = 400
   GGA = PS
   GGA_COMPAT = .FALSE.
   ISMEAR = 1
   SIGMA = 0.2
   NELM = 60
   NELMIN = 8
   EDIFF = 1e-06
   EDIFFG = -0.01
   NSW = 60
   IBRION = 2
   ISIF = 2
   KPAR = 4
   NPAR = 2
   ALGO = Fast

 POTCAR:    PAW_PBE Si 05Jan2001                  
 POTCAR:    PAW_PBE Si 05Jan2001                  
   VRHFIN =Si: s2p2                                                                                 
   LEXCH  = PE                                                                                      
   EATOM  =   103.0669 eV,    7.5752 Ry                                                             
                                                                                                    
   TITEL  = PAW_PBE Si 05Jan2001                                                                    
   LULTRA =        F    use ultrasoft PP ?                                                          
   IUNSCR =        1    unscreen: 0-lin 1-nonlin 2-no                                               
   RPACOR =    1.500    partial core radius                                                         
   POMASS =   28.085; ZVAL   =    4.000    mass and valenz                                          
   RCORE  =    1.900    outmost cutoff radius                                                       
   RWIGS  =    2.480; RWIGS  =    1.312    wigner-seitz radius (au A)                               
   ENMAX  =  245.345; ENMIN  =  184.009 eV                                                          
   ICORE  =        2    local potential                                                             
   LCOR   =        T    correct aug charges                                                         
   LPAW   =        T    paw PP                                                                      
   EAUG   =  322.069                                                                                
   DEXC   =    0.000                                                                                
   RMAX   =    1.950    core radius for proj-oper                                                   
   RAUG   =    1.300    factor for augmentation sphere                                              
   RDEP   =    1.993    radius for radial grids                                                     
   RDEPT  =    1.837    core radius for aug-charge                                                  
                                                                                                    
   Atomic configuration                                                                             
    6 entries                                                                                       
     n  l   j            E        occ.                                                              
     1  0  0.50     -1785.8828   2.0000                                                             
     2  0  0.50      -139.4969   2.0000                                                             
     2  1  1.50       -95.5546   6.0000                                                             
     3  0  0.50       -10.8127   2.0000                                                             
     3  1  0.50        -4.0811   2.0000                                                             
     3  2  1.50        -4.0817   0.0000                                                             
   Description                                                                                      
     l       E           TYP  RCUT    TYP  RCUT                                                     
     0    -10.8127223     23  1.900                                                                 
     0     -7.6451159     23  1.900                                                                 
     1     -4.0811372     23  1.900                                                                 
     1      2.4879257     23  1.900                                                                 
     2     -4.0817478      7  1.900                                                                 
  local pseudopotential read in
  partial core-charges read in
  partial kinetic energy density read in
  atomic valenz-charges read in
  non local Contribution for L=           0  read in
    real space projection operators read in
  non local Contribution for L=           0  read in
    real space projection operators read in
  non local Contribution for L=           1  read in
    real space projection operators read in
  non local Contribution for L=           1  read in
    real space projection operators read in
    PAW grid and wavefunctions read in
 
   number of l-projection  operators is LMAX  =           4
   number of lm-projection operators is LMMAX =           8
 
 Optimization of the real space projectors (new method)

 maximal supplied QI-value         = 19.84
 optimisation between [QCUT,QGAM] = [ 10.12, 20.44] = [ 28.68,116.96] Ry 
 Optimized for a Real-space Cutoff    1.38 Angstroem

   l    n(q)    QCUT    max X(q) W(low)/X(q) W(high)/X(q)  e(spline) 
   0      8    10.119   159.560    0.58E-04    0.11E-03    0.54E-07
   0      8    10.119   115.863    0.56E-04    0.11E-03    0.54E-07
   1      8    10.119    88.339    0.22E-03    0.17E-03    0.19E-06
   1      8    10.119    48.592    0.22E-03    0.17E-03    0.18E-06
 -----------------------------------------------------------------------------
|                                                                             |
|               ----> ADVICE to this user running VASP <----                  |
|                                                                             |
|     You enforced a specific xc type in the INCAR file but a different       |
|     type was found in the POTCAR file.                                      |
|     I HOPE YOU KNOW WHAT YOU ARE DOING!                                     |
|                                                                             |
 -----------------------------------------------------------------------------

  PAW_PBE Si 05Jan2001                  :
 energy of atom  1       EATOM= -103.0669
 kinetic energy error for atom=    0.0012 (will be added to EATOM!!)
 
 
 POSCAR: Si8
  positions in direct lattice
  velocities in cartesian coordinates


 exchange-correlation table for PS
   RHO(1)=    0.500       N(1)  =     2000
   RHO(2)=  100.500       N(2)  =     4000
 


--------------------------------------------------------------------------------------------------------


 ion  position               nearest neighbor table
   1  0.000  0.000  0.000-  15 2.26  57 2.26  44 2.29  30 2.29
   2  0.000  0.000  0.500-  16 2.26  58 2.26  43 2.29  29 2.29
   3  0.000  0.500  0.000-  13 2.26  59 2.26  42 2.29  32 2.29
   4  0.000  0.500  0.500-  14 2.26  60 2.26  41 2.29  31 2.29
   5  0.500  0.000  0.000-  11 2.26  61 2.26  48 2.29  26 2.29
   6  0.500  0.000  0.500-  12 2.26  62 2.26  47 2.29  25 2.29
   7  0.500  0.500  0.000-   9 2.26  63 2.26  46 2.29  28 2.29
   8  0.500  0.500  0.500-  10 2.26  64 2.26  45 2.29  27 2.29
   9  0.375  0.375  0.125-   7 2.26  49 2.26  35 2.29  21 2.29
  10  0.375  0.375  0.625-   8 2.26  50 2.26  36 2.29  22 2.29
  11  0.375  0.875  0.125-   5 2.26  51 2.26  33 2.29  23 2.29
  12  0.375  0.875  0.625-   6 2.26  52 2.26  34 2.29  24 2.29
  13  0.875  0.375  0.125-   3 2.26  53 2.26  39 2.29  17 2.29
  14  0.875  0.375  0.625-   4 2.26  54 2.26  40 2.29  18 2.29
  15  0.875  0.875  0.125-   1 2.26  55 2.26  37 2.29  19 2.29
  16  0.875  0.875  0.625-   2 2.26  56 2.26  38 2.29  20 2.29
  17  0.000  0.250  0.250-  29 2.26  41 2.26  13 2.29  57 2.29
  18  0.000  0.250  0.750-  30 2.26  42 2.26  14 2.29  58 2.29
  19  0.000  0.750  0.250-  31 2.26  43 2.26  15 2.29  59 2.29
  20  0.000  0.750  0.750-  32 2.26  44 2.26  16 2.29  60 2.29
  21  0.500  0.250  0.250-  25 2.26  45 2.26   9 2.29  61 2.29
  22  0.500  0.250  0.750-  26 2.26  46 2.26  10 2.29  62 2.29
  23  0.500  0.750  0.250-  27 2.26  47 2.26  11 2.29  63 2.29
  24  0.500  0.750  0.750-  28 2.26  48 2.26  12 2.29  64 2.29
  25  0.375  0.125  0.375-  21 2.26  33 2.26   6 2.29  50 2.29
  26  0.375  0.125  0.875-  22 2.26  34 2.26   5 2.29  49 2.29
  27  0.375  0.625  0.375-  23 2.26  35 2.26   8 2.29  52 2.29
  28  0.375  0.625  0.875-  24 2.26  36 2.26   7 2.29  51 2.29
  29  0.875  0.125  0.375-  17 2.26  37 2.26   2 2.29  54 2.29
  30  0.875  0.125  0.875-  18 2.26  38 2.26   1 2.29  53 2.29
  31  0.875  0.625  0.375-  19 2.26  39 2.26   4 2.29  56 2.29
  32  0.875  0.625  0.875-  20 2.26  40 2.26   3 2.29  55 2.29
  33  0.250  0.000  0.250-  25 2.26  43 2.26  11 2.29  57 2.29
  34  0.250  0.000  0.750-  26 2.26  44 2.26  12 2.29  58 2.29
  35  0.250  0.500  0.250-  27 2.26  41 2.26   9 2.29  59 2.29
  36  0.250  0.500  0.750-  28 2.26  42 2.26  10 2.29  60 2.29
  37  0.750  0.000  0.250-  29 2.26  47 2.26  15 2.29  61 2.29
  38  0.750  0.000  0.750-  30 2.26  48 2.26  16 2.29  62 2.29
  39  0.750  0.500  0.250-  31 2.26  45 2.26  13 2.29  63 2.29
  40  0.750  0.500  0.750-  32 2.26  46 2.26  14 2.29  64 2.29
  41  0.125  0.375  0.375-  17 2.26  35 2.26   4 2.29  50 2.29
  42  0.125  0.375  0.875-  18 2.26  36 2.26   3 2.29  49 2.29
  43  0.125  0.875  0.375-  19 2.26  33 2.26   2 2.29  52 2.29
  44  0.125  0.875  0.875-  20 2.26  34 2.26   1 2.29  51 2.29
  45  0.625  0.375  0.375-  21 2.26  39 2.26   8 2.29  54 2.29
  46  0.625  0.375  0.875-  22 2.26  40 2.26   7 2.29  53 2.29
  47  0.625  0.875  0.375-  23 2.26  37 2.26   6 2.29  56 2.29
  48  0.625  0.875  0.875-  24 2.26  38 2.26   5 2.29  55 2.29
  49  0.250  0.250  0.000-   9 2.26  57 2.26  42 2.29  26 2.29
  50  0.250  0.250  0.500-  10 2.26  58 2.26  41 2.29  25 2.29
  51  0.250  0.750  0.000-  11 2.26  59 2.26  44 2.29  28 2.29
  52  0.250  0.750  0.500-  12 2.26  60 2.26  43 2.29  27 2.29
  53  0.750  0.250  0.000-  13 2.26  61 2.26  46 2.29  30 2.29
  54  0.750  0.250  0.500-  14 2.26  62 2.26  45 2.29  29 2.29
  55  0.750  0.750  0.000-  15 2.26  63 2.26  48 2.29  32 2.29
  56  0.750  0.750  0.500-  16 2.26  64 2.26  47 2.29  31 2.29
  57  0.125  0.125  0.125-   1 2.26  49 2.26  33 2.29  17 2.29
  58  0.125  0.125  0.625-   2 2.26  50 2.26  34 2.29  18 2.29
  59  0.125  0.625  0.125-   3 2.26  51 2.26  35 2.29  19 2.29
  60  0.125  0.625  0.625-   4 2.26  52 2.26  36 2.29  20 2.29
  61  0.625  0.125  0.125-   5 2.26  53 2.26  37 2.29  21 2.29
  62  0.625  0.125  0.625-   6 2.26  54 2.26  38 2.29  22 2.29
  63  0.625  0.625  0.125-   7 2.26  55 2.26  39 2.29  23 2.29
  64  0.625  0.625  0.625-   8 2.26  56 2.26  40 2.29  24 2.29
 
  LATTYP: Found a simple monoclinic cell.
 ALAT       =    10.3463171305
 B/A-ratio  =     1.0203551105
 C/A-ratio  =     1.0204061268
 COS(beta)  =    -0.0202019898
  
  Lattice vectors:
  
 A1 = (  10.3457785279,  -0.1055690156,   0.0000000000)
 A2 = (   0.0000000000,   0.0000000000, -10.5569175591)
 A3 = (  -0.1055690156,  10.5569175591,   0.0000000000)


Analysis of symmetry for initial positions (statically):
=====================================================================
 Subroutine PRICEL returns following result:
 
  LATTYP: Found a base centered monoclinic cell.
 ALAT       =     5.1731585652
 B/A-ratio  =     1.0203551105
 C/A-ratio  =     0.7071068157
 COS(beta)  =    -0.6925302826
  
  Lattice vectors:
  
 A1 = (  -2.5864446320,   0.0263922539,  -2.6392293898)
 A2 = (  -2.5864446320,   0.0263922539,   2.6392293898)
 A3 = (   2.5600523781,   2.6128371359,  -0.0000000000)
 
  32 primitive cells build up your supercell.
 

 Routine SETGRP: Setting up the symmetry group for a 
 simple monoclinic supercell.


 Subroutine GETGRP returns: Found  4 space group operations
 (whereof  2 operations were pure point group operations)
 out of a pool of  4 trial point group operations.


The static configuration has the point symmetry C_2 .
 The point group associated with its full space group is C_2h.


Analysis of symmetry for dynamics (positions and initial velocities):
=====================================================================
 Subroutine PRICEL returns following result:
 
  LATTYP: Found a base centered monoclinic cell.
 ALAT       =     5.1731585652
 B/A-ratio  =     1.0203551105
 C/A-ratio  =     0.7071068157
 COS(beta)  =    -0.6925302826
  
  Lattice vectors:
  
 A1 = (  -2.5864446320,   0.0263922539,  -2.6392293898)
 A2 = (  -2.5864446320,   0.0263922539,   2.6392293898)
 A3 = (   2.5600523781,   2.6128371359,  -0.0000000000)
 
  32 primitive cells build up your supercell.
 

 Routine SETGRP: Setting up the symmetry group for a 
 simple monoclinic supercell.


 Subroutine GETGRP returns: Found  4 space group operations
 (whereof  2 operations were pure point group operations)
 out of a pool of  4 trial point group operations.


The dynamic configuration has the point symmetry C_2 .
 The point group associated with its full space group is C_2h.


 Subroutine INISYM returns: Found  4 space group operations
 (whereof  2 operations are pure point group operations),
 and found    32 'primitive' translations


----------------------------------------------------------------------------------------

                                     Primitive cell                                     

  volume of cell :      36.0282

  direct lattice vectors                    reciprocal lattice vectors
    -2.586444632  0.026392254 -2.639229390    -0.191401941  0.187535223 -0.189449239
    -2.586444632  0.026392254  2.639229390    -0.191401941  0.187535223  0.189449239
     2.560052378  2.612837136 -0.000000000     0.003866700  0.378937145  0.000000000

  length of vectors
     3.695392287  3.695392287  3.657975680     0.328169433  0.328169433  0.378956873

  position of ions in fractional coordinates (direct lattice)
     0.000000000  0.000000000  0.000000000
     0.750000000  0.250000000  0.500000000

  ion indices of the primitive-cell ions
   primitive index   ion index
                 1           1
                 2          15

----------------------------------------------------------------------------------------

 
 
 KPOINTS: Automatic mesh                          

Automatic generation of k-mesh.
 Grid dimensions read from file:
 generate k-points for:    2    2    2

 Generating k-lattice:

  Cartesian coordinates                     Fractional coordinates (reciprocal lattice)
     0.048333823  0.000483337  0.000000000     0.500000000  0.000000000  0.000000000
     0.000483337  0.047367143  0.000000000     0.000000000  0.500000000  0.000000000
     0.000000000  0.000000000  0.047362310     0.000000000  0.000000000  0.500000000

  Length of vectors
     0.048336239  0.047369609  0.047362310

  Shift w.r.t. Gamma in fractional coordinates (k-lattice)
     0.000000000  0.000000000  0.000000000

 
 Subroutine IBZKPT returns following result:
 ===========================================
 
 Found      8 irreducible k-points:
 
 Following reciprocal coordinates:
            Coordinates               Weight
  0.000000  0.000000  0.000000      1.000000
  0.500000  0.000000  0.000000      1.000000
  0.000000  0.500000  0.000000      1.000000
  0.500000  0.500000  0.000000      1.000000
  0.000000  0.000000  0.500000      1.000000
  0.500000  0.000000  0.500000      1.000000
  0.000000  0.500000  0.500000      1.000000
  0.500000  0.500000  0.500000      1.000000
 
 Following cartesian coordinates:
            Coordinates               Weight
  0.000000  0.000000  0.000000      1.000000
  0.048334  0.000483  0.000000      1.000000
  0.000483  0.047367  0.000000      1.000000
  0.048817  0.047850  0.000000      1.000000
  0.000000  0.000000  0.047362      1.000000
  0.048334  0.000483  0.047362      1.000000
  0.000483  0.047367  0.047362      1.000000
  0.048817  0.047850  0.047362      1.000000
 


--------------------------------------------------------------------------------------------------------




 Dimension of arrays:
   k-points           NKPTS =      8   k-points in BZ     NKDIM =      8   number of bands    NBANDS=    162
   number of dos      NEDOS =    301   number of ions     NIONS =     64
   non local maximal  LDIM  =      4   non local SUM 2l+1 LMDIM =      8
   total plane-waves  NPLWV = 343000
   max r-space proj   IRMAX =   3328   max aug-charges    IRDMAX=  79768
   dimension x,y,z NGX =    70 NGY =   70 NGZ =   70
   dimension x,y,z NGXF=   140 NGYF=  140 NGZF=  140
   support grid    NGXF=   280 NGYF=  280 NGZF=  280
   ions per type =              64
   NGX,Y,Z   is equivalent  to a cutoff of  11.25, 11.02, 11.02 a.u.
   NGXF,Y,Z  is equivalent  to a cutoff of  22.50, 22.05, 22.05 a.u.

 SYSTEM =  Si64                                    
 POSCAR =  Si8                                     

 Startparameter for this run:
   NWRITE =      2    write-flag & timer
   PREC   = accura    normal or accurate (medium, high low for compatibility)
   ISTART =      0    job   : 0-new  1-cont  2-samecut
   ICHARG =      2    charge: 1-file 2-atom 10-const
   ISPIN  =      1    spin polarized calculation?
   LNONCOLLINEAR =      F non collinear calculations
   LSORBIT =      F    spin-orbit coupling
   INIWAV =      1    electr: 0-lowe 1-rand  2-diag
   LASPH  =      F    aspherical Exc in radial PAW
 Electronic Relaxation 1
   ENCUT  =  400.0 eV  29.40 Ry    5.42 a.u.  16.87 17.22 17.22*2*pi/ulx,y,z
   ENINI  =  400.0     initial cutoff
   ENAUG  =  322.1 eV  augmentation charge cutoff
   NELM   =     60;   NELMIN=  8; NELMDL= -5     # of ELM steps 
   EDIFF  = 0.1E-05   stopping-criterion for ELM
   LREAL  =      T    real-space projection
   NLSPLINE    = F    spline interpolate recip. space projectors
   LCOMPAT=      F    compatible to vasp.4.4
   GGA_COMPAT  = F    GGA compatible to vasp.4.4-vasp.4.6
   LMAXPAW     = -100 max onsite density
   LMAXMIX     =    2 max onsite mixed and CHGCAR
   VOSKOWN=      0    Vosko Wilk Nusair interpolation
   ROPT   =   -0.00025
 Ionic relaxation
   EDIFFG = -.1E-01   stopping-criterion for IOM
   NSW    =     60    number of steps for IOM
   NBLOCK =      1;   KBLOCK =     60    inner block; outer block 
   IBRION =      2    ionic relax: 0-MD 1-quasi-New 2-CG
   NFREE  =      1    steps in history (QN), initial steepest desc. (CG)
   ISIF   =      2    stress and relaxation
   IWAVPR =     11    prediction:  0-non 1-charg 2-wave 3-comb
   ISYM   =      2    0-nonsym 1-usesym 2-fastsym
   LCORR  =      T    Harris-Foulkes like correction to forces

   POTIM  = 0.5000    time-step for ionic-motion
   TEIN   =    0.0    initial temperature
   TEBEG  =    0.0;   TEEND  =   0.0 temperature during run
   SMASS  =  -3.00    Nose mass-parameter (am)
   estimated Nose-frequenzy (Omega)   =  0.10E-29 period in steps = 0.13E+47 mass=  -0.245E-26a.u.
   SCALEE = 1.0000    scale energy and forces
   NPACO  =    256;   APACO  = 10.0  distance and # of slots for P.C.
   PSTRESS=    0.0 pullay stress

  Mass of Ions in am
   POMASS =  28.09
  Ionic Valenz
   ZVAL   =   4.00
  Atomic Wigner-Seitz radii
   RWIGS  =  -1.00
  virtual crystal weights 
   VCA    =   1.00
   NELECT =     256.0000    total number of electrons
   NUPDOWN=      -1.0000    fix difference up-down

 DOS related values:
   EMIN   =  10.00;   EMAX   =-10.00  energy-range for DOS
   EFERMI =   0.00;   METHOD = LEGACY      
   ISMEAR =     1;   SIGMA  =   0.20  broadening in eV -4-tet -1-fermi 0-gaus

 Electronic relaxation 2 (details)
   IALGO  =     68    algorithm
   LDIAG  =      T    sub-space diagonalisation (order eigenvalues)
   LSUBROT=      F    optimize rotation matrix (better conditioning)
   TURBO    =      0    0=normal 1=particle mesh
   IRESTART =      0    0=no restart 2=restart with 2 vectors
   NREBOOT  =      0    no. of reboots
   NMIN     =      0    reboot dimension
   EREF     =   0.00    reference energy to select bands
   IMIX   =      4    mixing-type and parameters
     AMIX     =   0.40;   BMIX     =  1.00
     AMIX_MAG =   1.60;   BMIX_MAG =  1.00
     AMIN     =   0.10
     WC   =   100.;   INIMIX=   1;  MIXPRE=   1;  MAXMIX= -45

 Intra band minimization:
   WEIMIN = 0.0010     energy-eigenvalue tresh-hold
   EBREAK =  0.15E-08  absolut break condition
   DEPER  =   0.30     relativ break condition  

   TIME   =   0.40     timestep for ELM

  volume/ion in A,a.u.               =      18.01       121.57
  Fermi-wavevector in a.u.,A,eV,Ry     =   0.991343  1.873366 13.371264  0.982760
  Thomas-Fermi vector in A             =   2.123077
 
 Write flags
   LWAVE        =      F    write WAVECAR
   LDOWNSAMPLE  =      F    k-point downsampling of WAVECAR
   LCHARG       =      F    write CHGCAR
   LVTOT        =      F    write LOCPOT, total local potential
   LVHAR        =      F    write LOCPOT, Hartree potential only
   WRT_POTENTIAL= false  ! write potential to hdf5 file
   LELF         =      F    write electronic localiz. function (ELF)
   LORBIT       =      0    0 simple, 1 ext, 2 COOP (PROOUT), +10 PAW based schemes


 Dipole corrections
   LMONO      =      F    monopole corrections only (constant potential shift)
   LDIPOL     =      F    correct potential (dipole corrections)
   IDIPOL     =      0    1-x, 2-y, 3-z, 4-all directions 
   EPSILON    =  1.0000000 bulk dielectric constant
   LVACPOTAV  =      F  vacuum potentials using an averaging scheme for the charge density
   VACPOTFLAT =  0.1000000 required flatness to determine vacuum potential
 Exchange correlation treatment:
   GGA     = PS    functional components
   XC_C    = 1    coefficients multiplying the functional components
   LIBXC   =     F    Libxc                    
   VOSKOWN =     0    Vosko Wilk Nusair interpolation
   LHFCALC =     F    Hartree Fock is set to
   LHFONE  =     F    Hartree Fock one center treatment
   AEXX    =    0.0000 exact exchange contribution

 Parameters of functionals:
   PS:
     No parameter
 
 Van der Waals corrections
   IVDW    =     0    specifies the selected vdW correction

 Linear response parameters
   LEPSILON=     F    determine dielectric tensor
   LRPA    =     F    only Hartree local field effects (RPA)
   LNABLA  =     F    use nabla operator in PAW spheres
   LVEL    =     F    velocity operator in full k-point grid
   CSHIFT  =0.1000    complex shift for real part using Kramers Kronig
   OMEGAMAX=  -1.0    maximum frequency
   DEG_THRESHOLD= 0.2000000E-02 threshold for treating states as degnerate
   RTIME   =   -0.100 relaxation time in fs
  (WPLASMAI=    0.000 imaginary part of plasma frequency in eV, 0.658/RTIME)
   DFIELD  = 0.0000000 0.0000000 0.0000000 field for delta impulse in time
 
  Optional k-point grid parameters
   LKPOINTS_OPT  =     F    use optional k-point grid
   KPOINTS_OPT_MODE=     1    mode for optional k-point grid
 
 Orbital magnetization related:
   ORBITALMAG=     F  switch on orbital magnetization
   LCHIMAG   =     F  perturbation theory with respect to B field
   DQ        =  0.001000  dq finite difference perturbation B field
   LLRAUG    =     F  two centre corrections for induced B field
   LBONE     =     F  B-component reconstruction in AE one-centre
   LVGVCALC  =     T  calculate vGv susceptibility
   LVGVAPPL  =     F  apply vGv susceptibility instead of pGv for G=0

 Random number generation:
   RANDOM_GENERATOR = DEFAULT
   PCG_SEED         = not used


--------------------------------------------------------------------------------------------------------


 conjugate gradient relaxation of ions
 charge density and potential will be updated during run
 non-spin polarized calculation
 RMM-DIIS sequential band-by-band and
  variant of blocked Davidson during initial phase
 perform sub-space diagonalisation
    before iterative eigenvector-optimisation
 modified Broyden-mixing scheme, WC =      100.0
 initial mixing is a Kerker type mixing with AMIX =  0.4000 and BMIX =      1.0000
 Hartree-type preconditioning will be used
 using additional bands           34
 real space projection scheme for non local part
 use partial core corrections
 calculate Harris-corrections to forces 
   (improved forces if not selfconsistent)
 use gradient corrections 
 use of overlap-Matrix (Vanderbilt PP)
 Methfessel and Paxton  Order N= 1 SIGMA  =   0.20


--------------------------------------------------------------------------------------------------------


  energy-cutoff  :      400.00
  volume of cell :     1152.90
      direct lattice vectors                 reciprocal lattice vectors
    10.345778528 -0.105569016  0.000000000     0.096667645  0.000966675  0.000000000
    -0.105569016 10.556917559  0.000000000     0.000966675  0.094734286  0.000000000
     0.000000000  0.000000000 10.556917559     0.000000000  0.000000000  0.094724620

  length of vectors
    10.346317130 10.557445390 10.556917559     0.096672479  0.094739218  0.094724620


 
 k-points in units of 2pi/SCALE and weight: Automatic mesh                          
   0.00000000  0.00000000  0.00000000       0.125
   0.04833383  0.00048334  0.00000000       0.125
   0.00048334  0.04736715  0.00000000       0.125
   0.04881717  0.04785049  0.00000000       0.125
   0.00000000  0.00000000  0.04736232       0.125
   0.04833383  0.00048334  0.04736232       0.125
   0.00048334  0.04736715  0.04736232       0.125
   0.04881717  0.04785049  0.04736232       0.125
 
 k-points in reciprocal lattice and weights: Automatic mesh                          
   0.00000000  0.00000000  0.00000000       0.125
   0.50000000  0.00000000  0.00000000       0.125
   0.00000000  0.50000000  0.00000000       0.125
   0.50000000  0.50000000  0.00000000       0.125
   0.00000000  0.00000000  0.50000000       0.125
   0.50000000  0.00000000  0.50000000       0.125
   0.00000000  0.50000000  0.50000000       0.125
   0.50000000  0.50000000  0.50000000       0.125
 
 position of ions in fractional coordinates (direct lattice) 
   0.00000000  0.00000000  0.00000000
   0.00000000  0.00000000  0.50000000
   0.00000000  0.50000000  0.00000000
   0.00000000  0.50000000  0.50000000
   0.50000000  0.00000000  0.00000000
   0.50000000  0.00000000  0.50000000
   0.50000000  0.50000000  0.00000000
   0.50000000  0.50000000  0.50000000
   0.37500000  0.37500000  0.12500000
   0.37500000  0.37500000  0.62500000
   0.37500000  0.87500000  0.12500000
   0.37500000  0.87500000  0.62500000
   0.87500000  0.37500000  0.12500000
   0.87500000  0.37500000  0.62500000
   0.87500000  0.87500000  0.12500000
   0.87500000  0.87500000  0.62500000
   0.00000000  0.25000000  0.25000000
   0.00000000  0.25000000  0.75000000
   0.00000000  0.75000000  0.25000000
   0.00000000  0.75000000  0.75000000
   0.50000000  0.25000000  0.25000000
   0.50000000  0.25000000  0.75000000
   0.50000000  0.75000000  0.25000000
   0.50000000  0.75000000  0.75000000
   0.37500000  0.12500000  0.37500000
   0.37500000  0.12500000  0.87500000
   0.37500000  0.62500000  0.37500000
   0.37500000  0.62500000  0.87500000
   0.87500000  0.12500000  0.37500000
   0.87500000  0.12500000  0.87500000
   0.87500000  0.62500000  0.37500000
   0.87500000  0.62500000  0.87500000
   0.25000000  0.00000000  0.25000000
   0.25000000  0.00000000  0.75000000
   0.25000000  0.50000000  0.25000000
   0.25000000  0.50000000  0.75000000
   0.75000000  0.00000000  0.25000000
   0.75000000  0.00000000  0.75000000
   0.75000000  0.50000000  0.25000000
   0.75000000  0.50000000  0.75000000
   0.12500000  0.37500000  0.37500000
   0.12500000  0.37500000  0.87500000
   0.12500000  0.87500000  0.37500000
   0.12500000  0.87500000  0.87500000
   0.62500000  0.37500000  0.37500000
   0.62500000  0.37500000  0.87500000
   0.62500000  0.87500000  0.37500000
   0.62500000  0.87500000  0.87500000
   0.25000000  0.25000000  0.00000000
   0.25000000  0.25000000  0.50000000
   0.25000000  0.75000000  0.00000000
   0.25000000  0.75000000  0.50000000
   0.75000000  0.25000000  0.00000000
   0.75000000  0.25000000  0.50000000
   0.75000000  0.75000000  0.00000000
   0.75000000  0.75000000  0.50000000
   0.12500000  0.12500000  0.12500000
   0.12500000  0.12500000  0.62500000
   0.12500000  0.62500000  0.12500000
   0.12500000  0.62500000  0.62500000
   0.62500000  0.12500000  0.12500000
   0.62500000  0.12500000  0.62500000
   0.62500000  0.62500000  0.12500000
   0.62500000  0.62500000  0.62500000
 
 position of ions in cartesian coordinates  (Angst):
   0.00000000  0.00000000  0.00000000
   0.00000000  0.00000000  5.27845878
  -0.05278451  5.27845878  0.00000000
  -0.05278451  5.27845878  5.27845878
   5.17288926 -0.05278451  0.00000000
   5.17288926 -0.05278451  5.27845878
   5.12010476  5.22567427  0.00000000
   5.12010476  5.22567427  5.27845878
   3.84007857  3.91925570  1.31961469
   3.84007857  3.91925570  6.59807347
   3.78729406  9.19771448  1.31961469
   3.78729406  9.19771448  6.59807347
   9.01296783  3.86647120  1.31961469
   9.01296783  3.86647120  6.59807347
   8.96018332  9.14492998  1.31961469
   8.96018332  9.14492998  6.59807347
  -0.02639225  2.63922939  2.63922939
  -0.02639225  2.63922939  7.91768817
  -0.07917676  7.91768817  2.63922939
  -0.07917676  7.91768817  7.91768817
   5.14649701  2.58644488  2.63922939
   5.14649701  2.58644488  7.91768817
   5.09371250  7.86490366  2.63922939
   5.09371250  7.86490366  7.91768817
   3.86647082  1.28002631  3.95884408
   3.86647082  1.28002631  9.23730286
   3.81368631  6.55848509  3.95884408
   3.81368631  6.55848509  9.23730286
   9.03936008  1.22724181  3.95884408
   9.03936008  1.22724181  9.23730286
   8.98657558  6.50570059  3.95884408
   8.98657558  6.50570059  9.23730286
   2.58644463 -0.02639225  2.63922939
   2.58644463 -0.02639225  7.91768817
   2.53366012  5.25206653  2.63922939
   2.53366012  5.25206653  7.91768817
   7.75933390 -0.07917676  2.63922939
   7.75933390 -0.07917676  7.91768817
   7.70654939  5.19928202  2.63922939
   7.70654939  5.19928202  7.91768817
   1.25363394  3.94564796  3.95884408
   1.25363394  3.94564796  9.23730286
   1.20084943  9.22410674  3.95884408
   1.20084943  9.22410674  9.23730286
   6.42652320  3.89286345  3.95884408
   6.42652320  3.89286345  9.23730286
   6.37373869  9.17132223  3.95884408
   6.37373869  9.17132223  9.23730286
   2.56005238  2.61283714  0.00000000
   2.56005238  2.61283714  5.27845878
   2.50726787  7.89129592  0.00000000
   2.50726787  7.89129592  5.27845878
   7.73294164  2.56005263  0.00000000
   7.73294164  2.56005263  5.27845878
   7.68015713  7.83851141  0.00000000
   7.68015713  7.83851141  5.27845878
   1.28002619  1.30641857  1.31961469
   1.28002619  1.30641857  6.59807347
   1.22724168  6.58487735  1.31961469
   1.22724168  6.58487735  6.59807347
   6.45291545  1.25363406  1.31961469
   6.45291545  1.25363406  6.59807347
   6.40013095  6.53209284  1.31961469
   6.40013095  6.53209284  6.59807347
 


--------------------------------------------------------------------------------------------------------


 k-point     1 :   0.0000 0.0000 0.0000  plane waves:   20933
 k-point     2 :   0.5000 0.0000 0.0000  plane waves:   20956
 k-point     3 :   0.0000 0.5000 0.0000  plane waves:   20926
 k-point     4 :   0.5000 0.5000 0.0000  plane waves:   20940
 k-point     5 :   0.0000 0.0000 0.5000  plane waves:   20926
 k-point     6 :   0.5000 0.0000 0.5000  plane waves:   20956
 k-point     7 :   0.0000 0.5000 0.5000  plane waves:   20976
 k-point     8 :   0.5000 0.5000 0.5000  plane waves:   20960

 maximum and minimum number of plane-waves per node :      1768     1717

 maximum number of plane-waves:     20976
 maximum index in each direction: 
   IXMAX=   16   IYMAX=   17   IZMAX=   17
   IXMIN=  -17   IYMIN=  -17   IZMIN=  -17


 real space projection operators:
  total allocation   :      12733.50 KBytes
  max/ min on nodes  :       1103.75        918.75


 parallel 3D FFT for wavefunctions:
    minimum data exchange during FFTs selected (reduces bandwidth)
 parallel 3D FFT for charge:
    minimum data exchange during FFTs selected (reduces bandwidth)


 total amount of memory used by VASP MPI-rank0    78633. kBytes
=======================================================================

   base      :      30000. kBytes
   nonlr-proj:       4915. kBytes
   fftplans  :      17991. kBytes
   grid      :       6881. kBytes
   one-center:         18. kBytes
   wavefun   :      18828. kBytes
 
     INWAV:  cpu time      0.0000: real time      0.0000
 Broyden mixing: mesh for mixing (old mesh)
   NGX = 33   NGY = 35   NGZ = 35
  (NGX  =140   NGY  =140   NGZ  =140)
  gives a total of  40425 points

 initial charge density was supplied:
 charge density of overlapping atoms calculated
 number of electron     256.0000000 magnetization 
 keeping initial charge density in first step


--------------------------------------------------------------------------------------------------------


 Maximum index for non-local projection operator          296
 Maximum index for augmentation-charges         3973 (set IRDMAX)


--------------------------------------------------------------------------------------------------------


 First call to EWALD:  gamma=   0.169
 Maximum number of real-space cells 3x 3x 3
 Maximum number of reciprocal cells 3x 3x 3

    FEWALD:  cpu time      0.0032: real time      0.0032


--------------------------------------- Ionic step        1  -------------------------------------------




--------------------------------------- Iteration      1(   1)  ---------------------------------------


    POTLOK:  cpu time      0.0914: real time      0.0986
    SETDIJ:  cpu time      0.0909: real time      0.0915
     EDDAV:  cpu time      1.2644: real time      1.3286
       DOS:  cpu time      0.0110: real time      0.0136
    --------------------------------------------
      LOOP:  cpu time      1.4577: real time      1.5323

 eigenvalue-minimisations  :  2592
 total energy-change (2. order) : 0.5848686E+03  (-0.8572170E+04)
 number of electron     256.0000000 magnetization 
 augmentation part      256.0000000 magnetization 

 Free energy of the ion-electron system (eV)
  ---------------------------------------------------
  alpha Z        PSCENC =       119.59728838
  Ewald energy   TEWEN  =     -7575.00580549
  -Hartree energ DENC   =      -303.41124397
  -exchange      EXHF   =         0.00000000
  -V(xc)+E(xc)   XCENC  =      -545.88009259
  PAW double counting   =      5598.62625415    -4492.17844134
  entropy T*S    EENTRO =        -0.00784224
  eigenvalues    EBANDS =      1218.33263827
  atomic energy  EATOM  =      6564.79586099
  Solvation  Ediel_sol  =         0.00000000
  ---------------------------------------------------
  free energy    TOTEN  =       584.86861617 eV

  energy without entropy =      584.87645841  energy(sigma->0) =      584.87123025


--------------------------------------------------------------------------------------------------------




--------------------------------------- Iteration      1(   2)  ---------------------------------------


     EDDAV:  cpu time      1.3140: real time      1.3346
       DOS:  cpu time      0.0012: real time      0.0012
    --------------------------------------------
      LOOP:  cpu time      1.3152: real time      1.3358

 eigenvalue-minimisations  :  3072
 total energy-change (2. order) :-0.8914836E+03  (-0.8456319E+03)
 number of electron     256.0000000 magnetization 
 augmentation part      256.0000000 magnetization 

 Free energy of the ion-electron system (eV)
  ---------------------------------------------------
  alpha Z        PSCENC =       119.59728838
  Ewald energy   TEWEN  =     -7575.00580549
  -Hartree energ DENC   =      -303.41124397
  -exchange      EXHF   =         0.00000000
  -V(xc)+E(xc)   XCENC  =      -545.88009259
  PAW double counting   =      5598.62625415    -4492.17844134
  entropy T*S    EENTRO =         0.00469396
  eigenvalues    EBANDS =       326.83647933
  atomic energy  EATOM  =      6564.79586099
  Solvation  Ediel_sol  =         0.00000000
  ---------------------------------------------------
  free energy    TOTEN  =      -306.61500657 eV

  energy without entropy =     -306.61970054  energy(sigma->0) =     -306.61657123


--------------------------------------------------------------------------------------------------------




--------------------------------------- Iteration      1(   3)  ---------------------------------------


     EDDAV:  cpu time      1.3362: real time      1.3528
       DOS:  cpu time      0.0013: real time      0.0015
    --------------------------------------------
      LOOP:  cpu time      1.3376: real time      1.3543

 eigenvalue-minimisations  :  3152
 total energy-change (2. order) :-0.6377217E+02  (-0.6237645E+02)
 number of electron     256.0000000 magnetization 
 augmentation part      256.0000000 magnetization 

 Free energy of the ion-electron system (eV)
  ---------------------------------------------------
  alpha Z        PSCENC =       119.59728838
  Ewald energy   TEWEN  =     -7575.00580549
  -Hartree energ DENC   =      -303.41124397
  -exchange      EXHF   =         0.00000000
  -V(xc)+E(xc)   XCENC  =      -545.88009259
  PAW double counting   =      5598.62625415    -4492.17844134
  entropy T*S    EENTRO =         0.01826981
  eigenvalues    EBANDS =       263.05073025
  atomic energy  EATOM  =      6564.79586099
  Solvation  Ediel_sol  =         0.00000000
  ---------------------------------------------------
  free energy    TOTEN  =      -370.38717980 eV

  energy without entropy =     -370.40544961  energy(sigma->0) =     -370.39326974


--------------------------------------------------------------------------------------------------------




--------------------------------------- Iteration      1(   4)  ---------------------------------------


     EDDAV:  cpu time      1.3574: real time      1.4032
       DOS:  cpu time      0.0021: real time      0.0021
    --------------------------------------------
      LOOP:  cpu time      1.3595: real time      1.4053

 eigenvalue-minimisations  :  3104
 total energy-change (2. order) :-0.1636098E+01  (-0.1618674E+01)
 number of electron     256.0000000 magnetization 
 augmentation part      256.0000000 magnetization 

 Free energy of the ion-electron system (eV)
  ---------------------------------------------------
  alpha Z        PSCENC =       119.59728838
  Ewald energy   TEWEN  =     -7575.00580549
  -Hartree energ DENC   =      -303.41124397
  -exchange      EXHF   =         0.00000000
  -V(xc)+E(xc)   XCENC  =      -545.88009259
  PAW double counting   =      5598.62625415    -4492.17844134
  entropy T*S    EENTRO =         0.00996624
  eigenvalues    EBANDS =       261.42293568
  atomic energy  EATOM  =      6564.79586099
  Solvation  Ediel_sol  =         0.00000000
  ---------------------------------------------------
  free energy    TOTEN  =      -372.02327795 eV

  energy without entropy =     -372.03324419  energy(sigma->0) =     -372.02660003


--------------------------------------------------------------------------------------------------------




--------------------------------------- Iteration      1(   5)  ---------------------------------------


     EDDAV:  cpu time      1.3087: real time      1.3539
       DOS:  cpu time      0.0012: real time      0.0012
    CHARGE:  cpu time      0.2576: real time      0.2616
    MIXING:  cpu time      0.0060: real time      0.0062
    --------------------------------------------
      LOOP:  cpu time      1.5736: real time      1.6229

 eigenvalue-minimisations  :  3134
 total energy-change (2. order) :-0.5485389E-01  (-0.5472290E-01)
 number of electron     255.9999998 magnetization 
 augmentation part      -15.2368982 magnetization 

 Broyden mixing:
  rms(total) = 0.32247E+01    rms(broyden)= 0.32247E+01
  rms(prec ) = 0.35450E+01
  weight for this iteration     100.00

 Free energy of the ion-electron system (eV)
  ---------------------------------------------------
  alpha Z        PSCENC =       119.59728838
  Ewald energy   TEWEN  =     -7575.00580549
  -Hartree energ DENC   =      -303.41124397
  -exchange      EXHF   =         0.00000000
  -V(xc)+E(xc)   XCENC  =      -545.88009259
  PAW double counting   =      5598.62625415    -4492.17844134
  entropy T*S    EENTRO =         0.00996191
  eigenvalues    EBANDS =       261.36808611
  atomic energy  EATOM  =      6564.79586099
  Solvation  Ediel_sol  =         0.00000000
  ---------------------------------------------------
  free energy    TOTEN  =      -372.07813184 eV

  energy without entropy =     -372.08809375  energy(sigma->0) =     -372.08145247


--------------------------------------------------------------------------------------------------------




--------------------------------------- Iteration      1(   6)  ---------------------------------------


    POTLOK:  cpu time      0.0748: real time      0.0879
    SETDIJ:  cpu time      0.0739: real time      0.0741
    EDDIAG:  cpu time      0.1363: real time      0.1389
  RMM-DIIS:  cpu time      0.7023: real time      0.7076
    ORTHCH:  cpu time      0.0195: real time      0.0196
       DOS:  cpu time      0.0013: real time      0.0013
    CHARGE:  cpu time      0.2429: real time      0.2435
    MIXING:  cpu time      0.0047: real time      0.0047
    --------------------------------------------
      LOOP:  cpu time      1.2558: real time      1.2776

 eigenvalue-minimisations  :  2592
 total energy-change (2. order) : 0.6754871E+01  (-0.3672286E+00)
 number of electron     255.9999998 magnetization 
 augmentation part      -15.0325966 magnetization 

 Broyden mixing:
  rms(total) = 0.19504E+01    rms(broyden)= 0.19504E+01
  rms(prec ) = 0.21270E+01
  weight for this iteration     100.00

 eigenvalues of (default mixing * dielectric matrix)
  average eigenvalue GAMMA=   2.5229
  2.5229

 Free energy of the ion-electron system (eV)
  ---------------------------------------------------
  alpha Z        PSCENC =       119.59728838
  Ewald energy   TEWEN  =     -7575.00580549
  -Hartree energ DENC   =      -354.84407969
  -exchange      EXHF   =         0.00000000
  -V(xc)+E(xc)   XCENC  =      -537.71204064
  PAW double counting   =     13931.04859203   -12829.09091969
  entropy T*S    EENTRO =         0.02478927
  eigenvalues    EBANDS =       315.86305372
  atomic energy  EATOM  =      6564.79586099
  Solvation  Ediel_sol  =         0.00000000
  ---------------------------------------------------
  free energy    TOTEN  =      -365.32326112 eV

  energy without entropy =     -365.34805039  energy(sigma->0) =     -365.33152421


--------------------------------------------------------------------------------------------------------




--------------------------------------- Iteration      1(   7)  ---------------------------------------


    POTLOK:  cpu time      0.0728: real time      0.0887
    SETDIJ:  cpu time      0.0801: real time      0.0803
    EDDIAG:  cpu time      0.1372: real time      0.1380
  RMM-DIIS:  cpu time      0.7049: real time      0.7072
    ORTHCH:  cpu time      0.0195: real time      0.0195
       DOS:  cpu time      0.0015: real time      0.0015
    CHARGE:  cpu time      0.2427: real time      0.2433
    MIXING:  cpu time      0.0062: real time      0.0063
    --------------------------------------------
      LOOP:  cpu time      1.2650: real time      1.2848

 eigenvalue-minimisations  :  2646
 total energy-change (2. order) : 0.2834267E+01  (-0.9139203E+00)
 number of electron     255.9999998 magnetization 
 augmentation part      -14.7453530 magnetization 

 Broyden mixing:
  rms(total) = 0.13721E+00    rms(broyden)= 0.13721E+00
  rms(prec ) = 0.17253E+00
  weight for this iteration     100.00

 eigenvalues of (default mixing * dielectric matrix)
  average eigenvalue GAMMA=   2.3427
  2.3427  2.3427

 Free energy of the ion-electron system (eV)
  ---------------------------------------------------
  alpha Z        PSCENC =       119.59728838
  Ewald energy   TEWEN  =     -7575.00580549
  -Hartree energ DENC   =      -439.27273591
  -exchange      EXHF   =         0.00000000
  -V(xc)+E(xc)   XCENC  =      -523.70273261
  PAW double counting   =     35061.37061287   -33965.78792613
  entropy T*S    EENTRO =         0.01337872
  eigenvalues    EBANDS =       395.50306466
  atomic energy  EATOM  =      6564.79586099
  Solvation  Ediel_sol  =         0.00000000
  ---------------------------------------------------
  free energy    TOTEN  =      -362.48899452 eV

  energy without entropy =     -362.50237324  energy(sigma->0) =     -362.49345410


--------------------------------------------------------------------------------------------------------




--------------------------------------- Iteration      1(   8)  ---------------------------------------


    POTLOK:  cpu time      0.0728: real time      0.0874
    SETDIJ:  cpu time      0.0774: real time      0.0776
    EDDIAG:  cpu time      0.1356: real time      0.1366
  RMM-DIIS:  cpu time      0.7052: real time      0.7069
    ORTHCH:  cpu time      0.0206: real time      0.0207
       DOS:  cpu time      0.0012: real time      0.0012
    CHARGE:  cpu time      0.2460: real time      0.2466
    MIXING:  cpu time      0.0047: real time      0.0047
    --------------------------------------------
      LOOP:  cpu time      1.2635: real time      1.2817

 eigenvalue-minimisations  :  2619
 total energy-change (2. order) :-0.2293189E-01  (-0.8717932E-01)
 number of electron     255.9999998 magnetization 
 augmentation part      -14.8129544 magnetization 

 Broyden mixing:
  rms(total) = 0.61100E-01    rms(broyden)= 0.61100E-01
  rms(prec ) = 0.66648E-01
  weight for this iteration     100.00

 eigenvalues of (default mixing * dielectric matrix)
  average eigenvalue GAMMA=   2.0434
  2.5676  1.7814  1.7814

 Free energy of the ion-electron system (eV)
  ---------------------------------------------------
  alpha Z        PSCENC =       119.59728838
  Ewald energy   TEWEN  =     -7575.00580549
  -Hartree energ DENC   =      -427.72057389
  -exchange      EXHF   =         0.00000000
  -V(xc)+E(xc)   XCENC  =      -524.72247437
  PAW double counting   =     34869.94436519   -33773.06513355
  entropy T*S    EENTRO =         0.01570395
  eigenvalues    EBANDS =       383.64884238
  atomic energy  EATOM  =      6564.79586099
  Solvation  Ediel_sol  =         0.00000000
  ---------------------------------------------------
  free energy    TOTEN  =      -362.51192641 eV

  energy without entropy =     -362.52763036  energy(sigma->0) =     -362.51716106


--------------------------------------------------------------------------------------------------------




--------------------------------------- Iteration      1(   9)  ---------------------------------------


    POTLOK:  cpu time      0.0728: real time      0.0882
    SETDIJ:  cpu time      0.0787: real time      0.0789
    EDDIAG:  cpu time      0.1302: real time      0.1306
  RMM-DIIS:  cpu time      0.7153: real time      0.7175
    ORTHCH:  cpu time      0.0196: real time      0.0196
       DOS:  cpu time      0.0014: real time      0.0014
    CHARGE:  cpu time      0.2432: real time      0.2439
    MIXING:  cpu time      0.0051: real time      0.0051
    --------------------------------------------
      LOOP:  cpu time      1.2662: real time      1.2853

 eigenvalue-minimisations  :  2676
 total energy-change (2. order) :-0.2516665E-01  (-0.2620865E-01)
 number of electron     255.9999998 magnetization 
 augmentation part      -14.7934182 magnetization 

 Broyden mixing:
  rms(total) = 0.65558E-01    rms(broyden)= 0.65558E-01
  rms(prec ) = 0.75318E-01
  weight for this iteration     100.00

 eigenvalues of (default mixing * dielectric matrix)
  average eigenvalue GAMMA=   1.6425
  2.5651  1.9111  1.9111  0.1828

 Free energy of the ion-electron system (eV)
  ---------------------------------------------------
  alpha Z        PSCENC =       119.59728838
  Ewald energy   TEWEN  =     -7575.00580549
  -Hartree energ DENC   =      -432.29827130
  -exchange      EXHF   =         0.00000000
  -V(xc)+E(xc)   XCENC  =      -524.12357924
  PAW double counting   =     35459.42068626   -34362.95952300
  entropy T*S    EENTRO =         0.01484838
  eigenvalues    EBANDS =       388.02140196
  atomic energy  EATOM  =      6564.79586099
  Solvation  Ediel_sol  =         0.00000000
  ---------------------------------------------------
  free energy    TOTEN  =      -362.53709306 eV

  energy without entropy =     -362.55194144  energy(sigma->0) =     -362.54204252


--------------------------------------------------------------------------------------------------------




--------------------------------------- Iteration      1(  10)  ---------------------------------------


    POTLOK:  cpu time      0.0720: real time      0.0886
    SETDIJ:  cpu time      0.0797: real time      0.0799
    EDDIAG:  cpu time      0.1314: real time      0.1318
  RMM-DIIS:  cpu time      0.7078: real time      0.7103
    ORTHCH:  cpu time      0.0195: real time      0.0195
       DOS:  cpu time      0.0012: real time      0.0012
    CHARGE:  cpu time      0.2424: real time      0.2431
    MIXING:  cpu time      0.0050: real time      0.0050
    --------------------------------------------
      LOOP:  cpu time      1.2589: real time      1.2795

 eigenvalue-minimisations  :  2692
 total energy-change (2. order) :-0.6312687E-02  (-0.4875195E-02)
 number of electron     255.9999998 magnetization 
 augmentation part      -14.7984502 magnetization 

 Broyden mixing:
  rms(total) = 0.10579E+00    rms(broyden)= 0.10579E+00
  rms(prec ) = 0.11495E+00
  weight for this iteration     100.00

 eigenvalues of (default mixing * dielectric matrix)
  average eigenvalue GAMMA=   1.6971
  2.6849  2.4048  1.7807  0.8076  0.8076

 Free energy of the ion-electron system (eV)
  ---------------------------------------------------
  alpha Z        PSCENC =       119.59728838
  Ewald energy   TEWEN  =     -7575.00580549
  -Hartree energ DENC   =      -432.70666075
  -exchange      EXHF   =         0.00000000
  -V(xc)+E(xc)   XCENC  =      -524.08039868
  PAW double counting   =     35570.94221708   -34474.49333607
  entropy T*S    EENTRO =         0.01474237
  eigenvalues    EBANDS =       388.39268642
  atomic energy  EATOM  =      6564.79586099
  Solvation  Ediel_sol  =         0.00000000
  ---------------------------------------------------
  free energy    TOTEN  =      -362.54340575 eV

  energy without entropy =     -362.55814812  energy(sigma->0) =     -362.54831987


--------------------------------------------------------------------------------------------------------




--------------------------------------- Iteration      1(  11)  ---------------------------------------


    POTLOK:  cpu time      0.0907: real time      0.0915
    SETDIJ:  cpu time      0.0789: real time      0.0791
    EDDIAG:  cpu time      0.1306: real time      0.1310
  RMM-DIIS:  cpu time      0.6932: real time      0.6953
    ORTHCH:  cpu time      0.0193: real time      0.0194
       DOS:  cpu time      0.0016: real time      0.0016
    CHARGE:  cpu time      0.2427: real time      0.2434
    MIXING:  cpu time      0.0055: real time      0.0056
    --------------------------------------------
      LOOP:  cpu time      1.2625: real time      1.2668

 eigenvalue-minimisations  :  2592
 total energy-change (2. order) : 0.7270748E-02  (-0.1950986E-02)
 number of electron     255.9999998 magnetization 
 augmentation part      -14.8156502 magnetization 

 Broyden mixing:
  rms(total) = 0.50222E-01    rms(broyden)= 0.50222E-01
  rms(prec ) = 0.50612E-01
  weight for this iteration     100.00

 eigenvalues of (default mixing * dielectric matrix)
  average eigenvalue GAMMA=   1.5451
  2.6250  2.6250  1.7038  1.2119  0.7826  0.3220

 Free energy of the ion-electron system (eV)
  ---------------------------------------------------
  alpha Z        PSCENC =       119.59728838
  Ewald energy   TEWEN  =     -7575.00580549
  -Hartree energ DENC   =      -429.31191093
  -exchange      EXHF   =         0.00000000
  -V(xc)+E(xc)   XCENC  =      -524.36447625
  PAW double counting   =     35357.73785202   -34260.99791563
  entropy T*S    EENTRO =         0.01560407
  eigenvalues    EBANDS =       384.99736784
  atomic energy  EATOM  =      6564.79586099
  Solvation  Ediel_sol  =         0.00000000
  ---------------------------------------------------
  free energy    TOTEN  =      -362.53613500 eV

  energy without entropy =     -362.55173907  energy(sigma->0) =     -362.54133635


--------------------------------------------------------------------------------------------------------




--------------------------------------- Iteration      1(  12)  ---------------------------------------


    POTLOK:  cpu time      0.0763: real time      0.0914
    SETDIJ:  cpu time      0.0739: real time      0.0741
    EDDIAG:  cpu time      0.1312: real time      0.1315
  RMM-DIIS:  cpu time      0.6968: real time      0.6989
    ORTHCH:  cpu time      0.0203: real time      0.0203
       DOS:  cpu time      0.0013: real time      0.0013
    CHARGE:  cpu time      0.2427: real time      0.2434
    MIXING:  cpu time      0.0055: real time      0.0056
    --------------------------------------------
      LOOP:  cpu time      1.2479: real time      1.2665

 eigenvalue-minimisations  :  2613
 total energy-change (2. order) :-0.2301171E-03  (-0.1973810E-03)
 number of electron     255.9999998 magnetization 
 augmentation part      -14.8181446 magnetization 

 Broyden mixing:
  rms(total) = 0.46288E-01    rms(broyden)= 0.46288E-01
  rms(prec ) = 0.46508E-01
  weight for this iteration     100.00

 eigenvalues of (default mixing * dielectric matrix)
  average eigenvalue GAMMA=   1.4729
  2.6226  2.6226  2.0322  1.0488  0.8762  0.4773  0.6304

 Free energy of the ion-electron system (eV)
  ---------------------------------------------------
  alpha Z        PSCENC =       119.59728838
  Ewald energy   TEWEN  =     -7575.00580549
  -Hartree energ DENC   =      -429.26221285
  -exchange      EXHF   =         0.00000000
  -V(xc)+E(xc)   XCENC  =      -524.37846185
  PAW double counting   =     35278.73093102   -34182.00320878
  entropy T*S    EENTRO =         0.01561363
  eigenvalues    EBANDS =       384.97362983
  atomic energy  EATOM  =      6564.79586099
  Solvation  Ediel_sol  =         0.00000000
  ---------------------------------------------------
  free energy    TOTEN  =      -362.53636512 eV

  energy without entropy =     -362.55197874  energy(sigma->0) =     -362.54156966


--------------------------------------------------------------------------------------------------------




--------------------------------------- Iteration      1(  13)  ---------------------------------------


    POTLOK:  cpu time      0.0799: real time      0.0958
    SETDIJ:  cpu time      0.0726: real time      0.0729
    EDDIAG:  cpu time      0.1314: real time      0.1317
  RMM-DIIS:  cpu time      0.7275: real time      0.7298
    ORTHCH:  cpu time      0.0194: real time      0.0194
       DOS:  cpu time      0.0012: real time      0.0012
    CHARGE:  cpu time      0.2432: real time      0.2439
    MIXING:  cpu time      0.0054: real time      0.0054
    --------------------------------------------
      LOOP:  cpu time      1.2806: real time      1.3002

 eigenvalue-minimisations  :  2703
 total energy-change (2. order) :-0.7071149E-04  (-0.3769196E-04)
 number of electron     255.9999998 magnetization 
 augmentation part      -14.8188539 magnetization 

 Broyden mixing:
  rms(total) = 0.52944E-01    rms(broyden)= 0.52944E-01
  rms(prec ) = 0.53136E-01
  weight for this iteration     100.00

 eigenvalues of (default mixing * dielectric matrix)
  average eigenvalue GAMMA=   1.5674
  2.4146  2.4146  2.0445  2.0445  1.0759  1.0759  0.9416  0.5274

 Free energy of the ion-electron system (eV)
  ---------------------------------------------------
  alpha Z        PSCENC =       119.59728838
  Ewald energy   TEWEN  =     -7575.00580549
  -Hartree energ DENC   =      -429.32040216
  -exchange      EXHF   =         0.00000000
  -V(xc)+E(xc)   XCENC  =      -524.36263329
  PAW double counting   =     35344.63013949   -34247.90702359
  entropy T*S    EENTRO =         0.01561305
  eigenvalues    EBANDS =       385.02052679
  atomic energy  EATOM  =      6564.79586099
  Solvation  Ediel_sol  =         0.00000000
  ---------------------------------------------------
  free energy    TOTEN  =      -362.53643583 eV

  energy without entropy =     -362.55204888  energy(sigma->0) =     -362.54164018


--------------------------------------------------------------------------------------------------------




--------------------------------------- Iteration      1(  14)  ---------------------------------------


    POTLOK:  cpu time      0.0771: real time      0.0923
    SETDIJ:  cpu time      0.0732: real time      0.0734
    EDDIAG:  cpu time      0.1315: real time      0.1319
  RMM-DIIS:  cpu time      0.7148: real time      0.7169
    ORTHCH:  cpu time      0.0196: real time      0.0197
       DOS:  cpu time      0.0013: real time      0.0013
    CHARGE:  cpu time      0.2432: real time      0.2439
    MIXING:  cpu time      0.0062: real time      0.0062
    --------------------------------------------
      LOOP:  cpu time      1.2669: real time      1.2857

 eigenvalue-minimisations  :  2658
 total energy-change (2. order) : 0.1218571E-04  (-0.9932849E-05)
 number of electron     255.9999998 magnetization 
 augmentation part      -14.8187929 magnetization 

 Broyden mixing:
  rms(total) = 0.25530E-01    rms(broyden)= 0.25530E-01
  rms(prec ) = 0.25747E-01
  weight for this iteration     100.00

 eigenvalues of (default mixing * dielectric matrix)
  average eigenvalue GAMMA=   1.5699
  2.7709  2.7709  2.5215  2.1346  1.0046  0.9088  0.9088  0.5543  0.5543

 Free energy of the ion-electron system (eV)
  ---------------------------------------------------
  alpha Z        PSCENC =       119.59728838
  Ewald energy   TEWEN  =     -7575.00580549
  -Hartree energ DENC   =      -429.21379503
  -exchange      EXHF   =         0.00000000
  -V(xc)+E(xc)   XCENC  =      -524.39758233
  PAW double counting   =     35075.78473887   -33979.07366396
  entropy T*S    EENTRO =         0.01561570
  eigenvalues    EBANDS =       384.96091923
  atomic energy  EATOM  =      6564.79586099
  Solvation  Ediel_sol  =         0.00000000
  ---------------------------------------------------
  free energy    TOTEN  =      -362.53642364 eV

  energy without entropy =     -362.55203934  energy(sigma->0) =     -362.54162887


--------------------------------------------------------------------------------------------------------




--------------------------------------- Iteration      1(  15)  ---------------------------------------


    POTLOK:  cpu time      0.0760: real time      0.0926
    SETDIJ:  cpu time      0.0735: real time      0.0737
    EDDIAG:  cpu time      0.1308: real time      0.1312
  RMM-DIIS:  cpu time      0.7277: real time      0.7324
    ORTHCH:  cpu time      0.0196: real time      0.0197
       DOS:  cpu time      0.0012: real time      0.0012
    CHARGE:  cpu time      0.2436: real time      0.2443
    MIXING:  cpu time      0.0051: real time      0.0051
    --------------------------------------------
      LOOP:  cpu time      1.2775: real time      1.3002

 eigenvalue-minimisations  :  2623
 total energy-change (2. order) :-0.2697912E-04  (-0.4214581E-05)
 number of electron     255.9999998 magnetization 
 augmentation part      -14.8190991 magnetization 

 Broyden mixing:
  rms(total) = 0.84681E-02    rms(broyden)= 0.84681E-02
  rms(prec ) = 0.86738E-02
  weight for this iteration     100.00

 eigenvalues of (default mixing * dielectric matrix)
  average eigenvalue GAMMA=   1.5164
  2.8022  2.8022  2.2369  2.2369  0.8354  0.8354  0.9989  0.9989  0.8720  0.5454

 Free energy of the ion-electron system (eV)
  ---------------------------------------------------
  alpha Z        PSCENC =       119.59728838
  Ewald energy   TEWEN  =     -7575.00580549
  -Hartree energ DENC   =      -429.13091459
  -exchange      EXHF   =         0.00000000
  -V(xc)+E(xc)   XCENC  =      -524.41125424
  PAW double counting   =     34948.15680527   -33851.44850048
  entropy T*S    EENTRO =         0.01564090
  eigenvalues    EBANDS =       384.89442863
  atomic energy  EATOM  =      6564.79586099
  Solvation  Ediel_sol  =         0.00000000
  ---------------------------------------------------
  free energy    TOTEN  =      -362.53645062 eV

  energy without entropy =     -362.55209152  energy(sigma->0) =     -362.54166425


--------------------------------------------------------------------------------------------------------




--------------------------------------- Iteration      1(  16)  ---------------------------------------


    POTLOK:  cpu time      0.0756: real time      0.0905
    SETDIJ:  cpu time      0.0737: real time      0.0739
    EDDIAG:  cpu time      0.1447: real time      0.1458
  RMM-DIIS:  cpu time      0.6560: real time      0.6580
    ORTHCH:  cpu time      0.0195: real time      0.0196
       DOS:  cpu time      0.0019: real time      0.0019
    CHARGE:  cpu time      0.2458: real time      0.2465
    MIXING:  cpu time      0.0064: real time      0.0065
    --------------------------------------------
      LOOP:  cpu time      1.2236: real time      1.2426

 eigenvalue-minimisations  :  2369
 total energy-change (2. order) :-0.1241252E-04  (-0.1206311E-05)
 number of electron     255.9999998 magnetization 
 augmentation part      -14.8190942 magnetization 

 Broyden mixing:
  rms(total) = 0.57951E-02    rms(broyden)= 0.57951E-02
  rms(prec ) = 0.59422E-02
  weight for this iteration     100.00

 eigenvalues of (default mixing * dielectric matrix)
  average eigenvalue GAMMA=   1.4356
  2.7813  2.7813  2.2802  2.1115  0.8537  0.8537  1.0260  1.0260  0.8731  0.5500
  0.6545

 Free energy of the ion-electron system (eV)
  ---------------------------------------------------
  alpha Z        PSCENC =       119.59728838
  Ewald energy   TEWEN  =     -7575.00580549
  -Hartree energ DENC   =      -429.14920452
  -exchange      EXHF   =         0.00000000
  -V(xc)+E(xc)   XCENC  =      -524.40837466
  PAW double counting   =     34945.85409633   -33849.14545065
  entropy T*S    EENTRO =         0.01564579
  eigenvalues    EBANDS =       384.90948080
  atomic energy  EATOM  =      6564.79586099
  Solvation  Ediel_sol  =         0.00000000
  ---------------------------------------------------
  free energy    TOTEN  =      -362.53646303 eV

  energy without entropy =     -362.55210882  energy(sigma->0) =     -362.54167830


--------------------------------------------------------------------------------------------------------




--------------------------------------- Iteration      1(  17)  ---------------------------------------


    POTLOK:  cpu time      0.0793: real time      0.0928
    SETDIJ:  cpu time      0.0719: real time      0.0721
    EDDIAG:  cpu time      0.1303: real time      0.1311
  RMM-DIIS:  cpu time      0.6950: real time      0.6972
    ORTHCH:  cpu time      0.0203: real time      0.0204
       DOS:  cpu time      0.0013: real time      0.0013
    CHARGE:  cpu time      0.2458: real time      0.2465
    MIXING:  cpu time      0.0050: real time      0.0050
    --------------------------------------------
      LOOP:  cpu time      1.2489: real time      1.2665

 eigenvalue-minimisations  :  2592
 total energy-change (2. order) :-0.1071866E-04  (-0.1272742E-05)
 number of electron     255.9999998 magnetization 
 augmentation part      -14.8188351 magnetization 

 Broyden mixing:
  rms(total) = 0.78193E-03    rms(broyden)= 0.78185E-03
  rms(prec ) = 0.84352E-03
  weight for this iteration     100.00

 eigenvalues of (default mixing * dielectric matrix)
  average eigenvalue GAMMA=   1.6161
  3.0412  3.0412  2.3889  2.3889  1.7763  1.7763  0.9182  0.9182  0.8965  0.8965
  0.7952  0.5562

 Free energy of the ion-electron system (eV)
  ---------------------------------------------------
  alpha Z        PSCENC =       119.59728838
  Ewald energy   TEWEN  =     -7575.00580549
  -Hartree energ DENC   =      -429.24478901
  -exchange      EXHF   =         0.00000000
  -V(xc)+E(xc)   XCENC  =      -524.39678981
  PAW double counting   =     34952.58446886   -33855.87491964
  entropy T*S    EENTRO =         0.01564552
  eigenvalues    EBANDS =       384.99256642
  atomic energy  EATOM  =      6564.79586099
  Solvation  Ediel_sol  =         0.00000000
  ---------------------------------------------------
  free energy    TOTEN  =      -362.53647375 eV

  energy without entropy =     -362.55211927  energy(sigma->0) =     -362.54168893


--------------------------------------------------------------------------------------------------------




--------------------------------------- Iteration      1(  18)  ---------------------------------------


    POTLOK:  cpu time      0.0739: real time      0.0891
    SETDIJ:  cpu time      0.0738: real time      0.0740
    EDDIAG:  cpu time      0.1307: real time      0.1310
  RMM-DIIS:  cpu time      0.4727: real time      0.4741
    ORTHCH:  cpu time      0.0195: real time      0.0195
       DOS:  cpu time      0.0015: real time      0.0016
    CHARGE:  cpu time      0.2437: real time      0.2444
    MIXING:  cpu time      0.0065: real time      0.0065
    --------------------------------------------
      LOOP:  cpu time      1.0222: real time      1.0401

 eigenvalue-minimisations  :  1668
 total energy-change (2. order) : 0.2381388E-05  (-0.2386240E-06)
 number of electron     255.9999998 magnetization 
 augmentation part      -14.8189083 magnetization 

 Broyden mixing:
  rms(total) = 0.62462E-03    rms(broyden)= 0.62452E-03
  rms(prec ) = 0.62650E-03
  weight for this iteration     100.00

 eigenvalues of (default mixing * dielectric matrix)
  average eigenvalue GAMMA=   1.5650
  2.9738  2.9738  2.0384  2.0384  2.3239  2.3239  0.9181  0.9181  0.9180  0.8952
  0.8952  0.5640  0.5640

 Free energy of the ion-electron system (eV)
  ---------------------------------------------------
  alpha Z        PSCENC =       119.59728838
  Ewald energy   TEWEN  =     -7575.00580549
  -Hartree energ DENC   =      -429.22705822
  -exchange      EXHF   =         0.00000000
  -V(xc)+E(xc)   XCENC  =      -524.39947773
  PAW double counting   =     34946.02233447   -33849.31081410
  entropy T*S    EENTRO =         0.01565074
  eigenvalues    EBANDS =       384.97554957
  atomic energy  EATOM  =      6564.79586099
  Solvation  Ediel_sol  =         0.00000000
  ---------------------------------------------------
  free energy    TOTEN  =      -362.53647137 eV

  energy without entropy =     -362.55212211  energy(sigma->0) =     -362.54168829


--------------------------------------------------------------------------------------------------------




--------------------------------------- Iteration      1(  19)  ---------------------------------------


    POTLOK:  cpu time      0.0739: real time      0.0895
    SETDIJ:  cpu time      0.0788: real time      0.0796
    EDDIAG:  cpu time      0.1299: real time      0.1311
  RMM-DIIS:  cpu time      0.4432: real time      0.4475
    ORTHCH:  cpu time      0.0198: real time      0.0199
       DOS:  cpu time      0.0012: real time      0.0012
    --------------------------------------------
      LOOP:  cpu time      0.7467: real time      0.7688

 eigenvalue-minimisations  :  1556
 total energy-change (2. order) :-0.8775896E-07  (-0.4189639E-07)
 number of electron     255.9999998 magnetization 
 augmentation part      -14.8189083 magnetization 

 Free energy of the ion-electron system (eV)
  ---------------------------------------------------
  alpha Z        PSCENC =       119.59728838
  Ewald energy   TEWEN  =     -7575.00580549
  -Hartree energ DENC   =      -429.22437012
  -exchange      EXHF   =         0.00000000
  -V(xc)+E(xc)   XCENC  =      -524.39959902
  PAW double counting   =     34950.99323310   -33854.28172116
  entropy T*S    EENTRO =         0.01565063
  eigenvalues    EBANDS =       384.97299123
  atomic energy  EATOM  =      6564.79586099
  Solvation  Ediel_sol  =         0.00000000
  ---------------------------------------------------
  free energy    TOTEN  =      -362.53647146 eV

  energy without entropy =     -362.55212209  energy(sigma->0) =     -362.54168833


--------------------------------------------------------------------------------------------------------




 average (electrostatic) potential at core
  the test charge radii are     0.9892
  (the norm of the test charge is              1.0000)
       1 -81.8138       2 -81.8138       3 -81.8138       4 -81.8138       5 -81.8138
       6 -81.8138       7 -81.8138       8 -81.8138       9 -81.8138      10 -81.8138
      11 -81.8138      12 -81.8138      13 -81.8138      14 -81.8138      15 -81.8138
      16 -81.8138      17 -81.8138      18 -81.8138      19 -81.8138      20 -81.8138
      21 -81.8138      22 -81.8138      23 -81.8138      24 -81.8138      25 -81.8138
      26 -81.8138      27 -81.8138      28 -81.8138      29 -81.8138      30 -81.8138
      31 -81.8138      32 -81.8138      33 -81.8138      34 -81.8138      35 -81.8138
      36 -81.8138      37 -81.8138      38 -81.8138      39 -81.8138      40 -81.8138
      41 -81.8138      42 -81.8138      43 -81.8138      44 -81.8138      45 -81.8138
      46 -81.8138      47 -81.8138      48 -81.8138      49 -81.8138      50 -81.8138
      51 -81.8138      52 -81.8138      53 -81.8138      54 -81.8138      55 -81.8138
      56 -81.8138      57 -81.8138      58 -81.8138      59 -81.8138      60 -81.8138
      61 -81.8138      62 -81.8138      63 -81.8138      64 -81.8138
 
 
 
 E-fermi :   7.0321     XC(G=0):  -9.9638     alpha+bet :-13.3143

 val. band max:        7.0229847815   @ k =   0.0000   0.0000   0.0000
 cond. band min:       7.1031973478   @ k =   0.5000   0.0000   0.0000
 fundamental gap:      0.0802125664
 Fermi energy:         7.0320720866

 k-point     1 :       0.0000    0.0000    0.0000
  band No.  band energies     occupation 
      1      -5.8407      2.00000
      2      -4.6672      2.00000
      3      -4.6672      2.00000
      4      -4.6664      2.00000
      5      -4.6664      2.00000
      6      -4.6241      2.00000
      7      -4.6241      2.00000
      8      -3.6302      2.00000
      9      -3.6302      2.00000
     10      -3.5989      2.00000
     11      -3.5989      2.00000
     12      -3.5989      2.00000
     13      -3.5989      2.00000
     14      -3.5674      2.00000
     15      -3.5674      2.00000
     16      -3.5674      2.00000
     17      -3.5674      2.00000
     18      -3.5025      2.00000
     19      -3.5025      2.00000
     20      -3.2810      2.00000
     21      -3.2810      2.00000
     22      -3.1329      2.00000
     23      -3.1329      2.00000
     24      -1.4090      2.00000
     25      -1.3266      2.00000
     26      -1.3266      2.00000
     27      -1.2485      2.00000
     28      -1.1876      2.00000
     29      -1.1876      2.00000
     30      -1.1834      2.00000
     31      -1.1834      2.00000
     32      -1.1377      2.00000
     33      -1.1377      2.00000
     34      -1.0413      2.00000
     35      -1.0413      2.00000
     36      -1.0413      2.00000
     37      -1.0413      2.00000
     38      -0.9876      2.00000
     39      -0.9876      2.00000
     40      -0.9450      2.00000
     41      -0.9450      2.00000
     42      -0.6488      2.00000
     43      -0.6488      2.00000
     44      -0.6284      2.00000
     45      -0.6284      2.00000
     46       1.1438      2.00000
     47       1.1438      2.00000
     48       1.1776      2.00000
     49       1.1776      2.00000
     50       1.1776      2.00000
     51       1.1776      2.00000
     52       1.2088      2.00000
     53       1.2088      2.00000
     54       1.2634      2.00000
     55       1.2634      2.00000
     56       1.2634      2.00000
     57       1.2634      2.00000
     58       2.5195      2.00000
     59       2.5195      2.00000
     60       2.5248      2.00000
     61       2.5248      2.00000
     62       2.5359      2.00000
     63       2.5359      2.00000
     64       2.5411      2.00000
     65       2.5411      2.00000
     66       2.5411      2.00000
     67       2.5411      2.00000
     68       2.5437      2.00000
     69       2.5437      2.00000
     70       2.6182      2.00000
     71       2.6182      2.00000
     72       2.6461      2.00000
     73       2.6462      2.00000
     74       2.6462      2.00000
     75       2.6462      2.00000
     76       2.6705      2.00000
     77       2.6705      2.00000
     78       2.7706      2.00000
     79       2.7706      2.00000
     80       2.7707      2.00000
     81       2.7707      2.00000
     82       3.3436      2.00000
     83       3.3436      2.00000
     84       3.3505      2.00000
     85       3.3505      2.00000
     86       3.5105      2.00000
     87       3.5105      2.00000
     88       3.6400      2.00000
     89       3.6400      2.00000
     90       3.6865      2.00000
     91       3.8112      2.00000
     92       3.8112      2.00000
     93       3.9379      2.00000
     94       4.7119      2.00000
     95       4.7119      2.00000
     96       4.7119      2.00000
     97       4.7119      2.00000
     98       4.7331      2.00000
     99       4.7331      2.00000
    100       4.8218      2.00000
    101       4.8218      2.00000
    102       4.8662      2.00000
    103       4.8662      2.00000
    104       4.9605      2.00000
    105       4.9605      2.00000
    106       5.3377      2.00000
    107       5.3377      2.00000
    108       5.3377      2.00000
    109       5.3377      2.00000
    110       5.4526      2.00000
    111       5.4526      2.00000
    112       5.4573      2.00000
    113       5.4573      2.00000
    114       5.5125      2.00000
    115       5.5125      2.00000
    116       5.5125      2.00000
    117       5.5125      2.00000
    118       5.5693      2.00000
    119       5.5693      2.00000
    120       5.5772      2.00000
    121       5.5772      2.00000
    122       5.6721      2.00000
    123       5.6721      2.00000
    124       5.7785      2.00000
    125       5.7785      2.00000
    126       6.8588      2.01027
    127       6.8634      2.00058
    128       7.0230      1.07682
    129       7.1605      0.12375
    130       7.1605      0.12375
    131       7.2054     -0.01034
    132       7.3330     -0.05490
    133       7.3330     -0.05490
    134       7.4644     -0.00917
    135       7.7289     -0.00001
    136       7.7289     -0.00001
    137       7.8953     -0.00000
    138       7.8953     -0.00000
    139       7.8967     -0.00000
    140       7.8967     -0.00000
    141       8.6362     -0.00000
    142       8.6362     -0.00000
    143       8.8236     -0.00000
    144       8.8237     -0.00000
    145       9.1731     -0.00000
    146       9.1734     -0.00000
    147       9.1737     -0.00000
    148       9.1746     -0.00000
    149       9.2850     -0.00000
    150       9.3084     -0.00000
    151       9.3095     -0.00000
    152       9.3737     -0.00000
    153       9.3742     -0.00000
    154       9.3754     -0.00000
    155       9.3801     -0.00000
    156       9.4484     -0.00000
    157       9.4532     -0.00000
    158       9.4714     -0.00000
    159       9.6409     -0.00000
    160       9.8580     -0.00000
    161       9.9242     -0.00000
    162       9.9625     -0.00000

 k-point     2 :       0.5000    0.0000    0.0000
  band No.  band energies     occupation 
      1      -5.5339      2.00000
      2      -5.5339      2.00000
      3      -4.4155      2.00000
      4      -4.4155      2.00000
      5      -4.3845      2.00000
      6      -4.3845      2.00000
      7      -4.3845      2.00000
      8      -4.3845      2.00000
      9      -4.3518      2.00000
     10      -4.3518      2.00000
     11      -3.4711      2.00000
     12      -3.4711      2.00000
     13      -3.4711      2.00000
     14      -3.4711      2.00000
     15      -3.3843      2.00000
     16      -3.3843      2.00000
     17      -3.3843      2.00000
     18      -3.3843      2.00000
     19      -3.1488      2.00000
     20      -3.1488      2.00000
     21      -2.4354      2.00000
     22      -2.4354      2.00000
     23      -2.3442      2.00000
     24      -2.3442      2.00000
     25      -2.3442      2.00000
     26      -2.3442      2.00000
     27      -2.2504      2.00000
     28      -2.2504      2.00000
     29      -1.3046      2.00000
     30      -1.3046      2.00000
     31      -1.2764      2.00000
     32      -1.2764      2.00000
     33      -1.1517      2.00000
     34      -1.1517      2.00000
     35      -1.1272      2.00000
     36      -1.1272      2.00000
     37      -0.0108      2.00000
     38      -0.0108      2.00000
     39       0.0549      2.00000
     40       0.0549      2.00000
     41       0.0549      2.00000
     42       0.0549      2.00000
     43       0.0817      2.00000
     44       0.0817      2.00000
     45       0.0817      2.00000
     46       0.0817      2.00000
     47       0.1120      2.00000
     48       0.1120      2.00000
     49       0.1120      2.00000
     50       0.1120      2.00000
     51       0.1143      2.00000
     52       0.1143      2.00000
     53       1.1089      2.00000
     54       1.1089      2.00000
     55       2.0836      2.00000
     56       2.0836      2.00000
     57       2.0868      2.00000
     58       2.0868      2.00000
     59       2.0868      2.00000
     60       2.0868      2.00000
     61       2.0902      2.00000
     62       2.0902      2.00000
     63       2.4527      2.00000
     64       2.4527      2.00000
     65       2.4689      2.00000
     66       2.4689      2.00000
     67       2.4690      2.00000
     68       2.4690      2.00000
     69       2.4955      2.00000
     70       2.4955      2.00000
     71       3.0052      2.00000
     72       3.0052      2.00000
     73       3.0575      2.00000
     74       3.0575      2.00000
     75       3.0945      2.00000
     76       3.0945      2.00000
     77       3.1493      2.00000
     78       3.1493      2.00000
     79       3.8022      2.00000
     80       3.8022      2.00000
     81       3.8526      2.00000
     82       3.8526      2.00000
     83       3.8526      2.00000
     84       3.8526      2.00000
     85       3.8901      2.00000
     86       3.8901      2.00000
     87       3.9127      2.00000
     88       3.9127      2.00000
     89       3.9134      2.00000
     90       3.9134      2.00000
     91       4.0411      2.00000
     92       4.0411      2.00000
     93       4.0856      2.00000
     94       4.0856      2.00000
     95       4.0856      2.00000
     96       4.0856      2.00000
     97       4.1288      2.00000
     98       4.1288      2.00000
     99       4.2756      2.00000
    100       4.2756      2.00000
    101       4.2756      2.00000
    102       4.2756      2.00000
    103       4.3930      2.00000
    104       4.3930      2.00000
[...]
  0.000   0.000   4.164   0.000   0.000   7.757   0.000   0.000
 -0.001  -0.002   0.000   4.164   0.000   0.000   7.757   0.000
  0.000   0.000   0.000   0.000   4.164   0.000   0.000   7.757
  0.000   0.000   7.757   0.000   0.000  14.459   0.000   0.000
 -0.002  -0.003   0.000   7.757   0.000   0.000  14.459   0.000
  0.000   0.000   0.000   0.000   7.757   0.000   0.000  14.459
 total augmentation occupancy for first ion, spin component:           1
  6.876  -2.808   0.000   0.051  -0.000  -0.000  -0.020   0.000
 -2.808   1.254   0.000  -0.027   0.000  -0.000   0.010  -0.000
  0.000   0.000   3.358   0.000  -0.005  -0.784   0.000   0.005
  0.051  -0.027   0.000   3.360  -0.000   0.000  -0.785   0.000
 -0.000   0.000  -0.005   0.000   3.313   0.005   0.000  -0.767
 -0.000  -0.000  -0.784  -0.000   0.005   0.193   0.000  -0.002
 -0.020   0.010   0.000  -0.785   0.000   0.000   0.193  -0.000
  0.000  -0.000   0.005  -0.000  -0.767  -0.002  -0.000   0.188


------------------------ aborting loop because EDIFF is reached ----------------------------------------


    CHARGE:  cpu time      0.2592: real time      0.2598
    FORLOC:  cpu time      0.0222: real time      0.0222
    FORNL :  cpu time      0.7059: real time      0.7077
    STRESS:  cpu time      2.1849: real time      2.2023
    FORCOR:  cpu time      0.0855: real time      0.0857
    FORHAR:  cpu time      0.0342: real time      0.0343
    MIXING:  cpu time      0.0241: real time      0.0242
    OFIELD:  cpu time      0.0000: real time      0.0000

  FORCE on cell =-STRESS in cart. coord.  units (eV):
  Direction    XX          YY          ZZ          XY          YZ          ZX
  --------------------------------------------------------------------------------------
  Alpha Z   119.59729   119.59729   119.59729
  Ewald   -2572.07461 -2501.94230 -2501.94158     4.13536    -0.00000     0.00000
  Hartree   136.01700   146.37705   146.14480     7.71613    -0.00000    -0.00000
  E(xc)    -838.50108  -839.20277  -839.24049     0.11502    -0.00000    -0.00000
  Local    -830.07959  -912.46778  -912.64794   -13.17798    -0.00000    -0.00000
  n-local  2550.34318  2561.75394  2562.37613    -2.57638    -0.00001    -0.00001
  augment  -371.12976  -371.21540  -371.28085    -0.49106     0.00000     0.00000
  Kinetic  1903.91456  1885.09478  1884.73790    14.38674    -0.00000    -0.00001
  Fock        0.00000     0.00000     0.00000     0.00000     0.00000     0.00000
  -------------------------------------------------------------------------------------
  Total      98.08699    87.99481    87.74525    10.10784     0.00000     0.00000
  in kB     136.31036   122.28538   121.93856    14.04674     0.00000     0.00000
  external pressure =      126.84 kB  Pullay stress =        0.00 kB


 VOLUME and BASIS-vectors are now :
 -----------------------------------------------------------------------------
  energy-cutoff  :      400.00
  volume of cell :     1152.90
      direct lattice vectors                 reciprocal lattice vectors
    10.345778528 -0.105569016  0.000000000     0.096667645  0.000966675  0.000000000
    -0.105569016 10.556917559  0.000000000     0.000966675  0.094734286  0.000000000
     0.000000000  0.000000000 10.556917559     0.000000000  0.000000000  0.094724620

  length of vectors
    10.346317130 10.557445390 10.556917559     0.096672479  0.094739218  0.094724620


 FORCES acting on ions
    electron-ion (+dipol)            ewald-force                    non-local-force                 convergence-correction
 -----------------------------------------------------------------------------------------------
   -.208E-08 -.122E-08 0.163E+01   0.275E-13 0.189E-13 -.116E+01   -.572E-20 0.144E-19 -.472E+00   -.268E-13 -.265E-13 -.229E-04
   -.208E-08 -.122E-08 0.163E+01   0.280E-13 0.209E-13 -.116E+01   -.424E-20 0.300E-20 -.472E+00   0.783E-13 0.428E-13 -.229E-04
   -.208E-08 -.122E-08 0.163E+01   0.306E-13 0.182E-13 -.116E+01   -.850E-21 0.404E-20 -.472E+00   -.162E-14 0.225E-13 -.229E-04
   -.208E-08 -.122E-08 0.163E+01   0.293E-13 0.200E-13 -.116E+01   -.328E-20 -.292E-20 -.472E+00   0.460E-13 -.392E-13 -.229E-04
   -.208E-08 -.122E-08 0.163E+01   0.169E-13 0.209E-13 -.116E+01   -.106E-20 -.361E-20 -.472E+00   0.505E-13 -.297E-13 -.229E-04
   -.208E-08 -.122E-08 0.163E+01   0.258E-13 0.169E-13 -.116E+01   -.418E-20 -.945E-20 -.472E+00   -.893E-13 -.293E-13 -.229E-04
   -.208E-08 -.122E-08 0.163E+01   0.306E-13 0.235E-13 -.116E+01   -.616E-20 0.144E-19 -.472E+00   0.305E-14 0.301E-13 -.229E-04
   -.208E-08 -.122E-08 0.163E+01   0.391E-13 0.178E-13 -.116E+01   -.496E-20 0.127E-20 -.472E+00   -.328E-13 0.337E-13 -.229E-04
   0.380E-08 0.267E-08 -.163E+01   0.382E-13 0.133E-13 0.116E+01   0.741E-20 -.511E-20 0.472E+00   -.223E-13 0.983E-13 0.229E-04
   0.380E-08 0.267E-08 -.163E+01   0.249E-13 0.711E-14 0.116E+01   0.763E-20 -.638E-20 0.472E+00   -.455E-13 -.700E-13 0.229E-04
   0.380E-08 0.267E-08 -.163E+01   0.213E-13 0.178E-14 0.116E+01   0.424E-20 0.528E-20 0.472E+00   0.390E-13 -.939E-13 0.229E-04
   0.380E-08 0.267E-08 -.163E+01   0.284E-13 0.124E-13 0.116E+01   0.101E-19 -.472E-21 0.472E+00   -.665E-13 0.703E-13 0.229E-04
   0.380E-08 0.267E-08 -.163E+01   0.231E-13 0.711E-14 0.116E+01   0.784E-20 0.699E-20 0.472E+00   0.138E-13 0.922E-13 0.229E-04
   0.380E-08 0.267E-08 -.163E+01   0.338E-13 0.888E-14 0.116E+01   0.927E-20 0.691E-20 0.472E+00   0.379E-13 -.916E-13 0.229E-04
   0.380E-08 0.267E-08 -.163E+01   0.200E-13 0.400E-14 0.116E+01   0.954E-20 -.425E-20 0.472E+00   -.528E-13 -.907E-13 0.229E-04
   0.380E-08 0.267E-08 -.163E+01   0.338E-13 0.711E-14 0.116E+01   0.496E-20 -.380E-20 0.472E+00   0.585E-13 0.845E-13 0.229E-04
   -.208E-08 -.122E-08 0.163E+01   0.113E-13 -.777E-14 -.116E+01   -.249E-21 0.168E-19 -.472E+00   0.692E-13 -.201E-14 -.229E-04
   -.208E-08 -.122E-08 0.163E+01   0.182E-13 -.355E-14 -.116E+01   0.321E-21 -.901E-20 -.472E+00   -.131E-13 0.114E-13 -.229E-04
   -.208E-08 -.122E-08 0.163E+01   0.338E-13 -.822E-14 -.116E+01   0.134E-20 0.971E-20 -.472E+00   -.102E-14 0.159E-13 -.229E-04
   -.208E-08 -.122E-08 0.163E+01   0.888E-14 -.755E-14 -.116E+01   -.226E-20 -.325E-21 -.472E+00   0.335E-13 -.140E-13 -.229E-04
   -.208E-08 -.122E-08 0.163E+01   0.164E-13 -.400E-14 -.116E+01   -.153E-20 0.180E-20 -.472E+00   -.663E-13 0.476E-14 -.229E-04
   -.208E-08 -.122E-08 0.163E+01   0.311E-14 -.711E-14 -.116E+01   -.342E-20 -.286E-20 -.472E+00   0.169E-13 0.711E-14 -.229E-04
   -.208E-08 -.122E-08 0.163E+01   0.240E-13 -.799E-14 -.116E+01   -.231E-20 0.137E-19 -.472E+00   0.168E-14 -.338E-16 -.229E-04
   -.208E-08 -.122E-08 0.163E+01   0.213E-13 -.711E-14 -.116E+01   0.101E-20 -.743E-20 -.472E+00   -.217E-13 -.129E-14 -.229E-04
   0.380E-08 0.267E-08 -.163E+01   0.107E-13 -.268E-13 0.116E+01   -.710E-20 0.351E-20 0.472E+00   -.118E-12 -.690E-13 0.229E-04
   0.380E-08 0.267E-08 -.163E+01   0.178E-13 -.197E-13 0.116E+01   -.314E-20 -.219E-19 0.472E+00   0.494E-13 0.497E-13 0.229E-04
   0.380E-08 0.267E-08 -.163E+01   0.711E-14 -.186E-13 0.116E+01   0.225E-20 0.499E-20 0.472E+00   -.129E-13 0.793E-13 0.229E-04
   0.380E-08 0.267E-08 -.163E+01   0.142E-13 -.150E-13 0.116E+01   0.204E-20 -.422E-20 0.472E+00   0.838E-14 -.472E-13 0.229E-04
   0.380E-08 0.267E-08 -.163E+01   0.244E-13 -.290E-13 0.116E+01   0.342E-20 0.117E-20 0.472E+00   0.109E-12 -.778E-13 0.229E-04
   0.380E-08 0.267E-08 -.163E+01   0.102E-13 -.183E-13 0.116E+01   0.491E-20 -.307E-20 0.472E+00   -.651E-13 0.760E-13 0.229E-04
   0.380E-08 0.267E-08 -.163E+01   0.000E+00 -.207E-13 0.116E+01   -.271E-20 0.870E-20 0.472E+00   0.306E-14 0.900E-13 0.229E-04
   0.380E-08 0.267E-08 -.163E+01   0.711E-14 -.239E-13 0.116E+01   0.612E-21 -.116E-19 0.472E+00   -.263E-13 -.801E-13 0.229E-04
   -.208E-08 -.122E-08 0.163E+01   -.162E-13 0.193E-13 -.116E+01   -.307E-20 -.175E-19 -.472E+00   -.128E-13 -.114E-12 -.229E-04
   -.208E-08 -.122E-08 0.163E+01   -.209E-13 0.191E-13 -.116E+01   0.301E-20 0.547E-20 -.472E+00   0.503E-14 0.103E-12 -.229E-04
   -.208E-08 -.122E-08 0.163E+01   -.133E-13 0.173E-13 -.116E+01   -.148E-21 -.819E-21 -.472E+00   0.652E-14 0.109E-12 -.229E-04
   -.208E-08 -.122E-08 0.163E+01   -.115E-13 0.200E-13 -.116E+01   0.303E-20 0.127E-20 -.472E+00   -.945E-14 -.984E-13 -.229E-04
   -.208E-08 -.122E-08 0.163E+01   -.777E-14 0.169E-13 -.116E+01   -.875E-21 -.509E-20 -.472E+00   0.112E-13 -.182E-12 -.229E-04
   -.208E-08 -.122E-08 0.163E+01   -.222E-14 0.204E-13 -.116E+01   0.683E-20 0.120E-19 -.472E+00   -.192E-14 0.145E-12 -.229E-04
   -.208E-08 -.122E-08 0.163E+01   -.200E-13 0.218E-13 -.116E+01   -.380E-20 -.613E-20 -.472E+00   0.610E-14 0.176E-12 -.229E-04
   -.208E-08 -.122E-08 0.163E+01   -.711E-14 0.249E-13 -.116E+01   0.503E-20 0.489E-20 -.472E+00   0.713E-15 -.139E-12 -.229E-04
   0.380E-08 0.267E-08 -.163E+01   -.134E-13 0.400E-14 0.116E+01   -.300E-20 -.802E-20 0.472E+00   0.252E-13 -.278E-15 0.229E-04
   0.380E-08 0.267E-08 -.163E+01   -.169E-13 0.400E-14 0.116E+01   -.370E-20 0.201E-19 0.472E+00   -.537E-14 -.183E-13 0.229E-04
   0.380E-08 0.267E-08 -.163E+01   -.315E-14 0.666E-14 0.116E+01   -.303E-20 -.845E-20 0.472E+00   0.109E-13 -.247E-14 0.229E-04
   0.380E-08 0.267E-08 -.163E+01   -.174E-13 0.666E-14 0.116E+01   -.323E-20 0.886E-20 0.472E+00   0.299E-13 0.213E-13 0.229E-04
   0.380E-08 0.267E-08 -.163E+01   -.137E-13 0.711E-14 0.116E+01   -.176E-20 -.100E-20 0.472E+00   -.260E-13 0.101E-12 0.229E-04
   0.380E-08 0.267E-08 -.163E+01   -.375E-15 0.711E-14 0.116E+01   -.591E-20 0.763E-20 0.472E+00   0.184E-14 -.540E-13 0.229E-04
   0.380E-08 0.267E-08 -.163E+01   -.662E-14 0.107E-13 0.116E+01   -.333E-20 -.617E-20 0.472E+00   -.218E-13 -.109E-12 0.229E-04
   0.380E-08 0.267E-08 -.163E+01   -.217E-13 0.711E-14 0.116E+01   -.468E-20 0.133E-19 0.472E+00   -.231E-13 0.647E-13 0.229E-04
   -.208E-08 -.122E-08 0.163E+01   -.202E-13 -.600E-14 -.116E+01   0.236E-20 -.127E-19 -.472E+00   0.394E-13 0.389E-13 -.229E-04
   -.208E-08 -.122E-08 0.163E+01   -.333E-13 -.888E-14 -.116E+01   0.965E-20 -.898E-20 -.472E+00   -.700E-13 -.433E-13 -.229E-04
   -.208E-08 -.122E-08 0.163E+01   -.258E-13 -.666E-14 -.116E+01   0.112E-19 -.392E-20 -.472E+00   0.471E-13 -.316E-13 -.229E-04
   -.208E-08 -.122E-08 0.163E+01   -.311E-13 -.844E-14 -.116E+01   0.593E-20 0.269E-20 -.472E+00   -.914E-15 0.439E-13 -.229E-04
   -.208E-08 -.122E-08 0.163E+01   -.191E-13 0.577E-14 -.116E+01   0.591E-20 0.556E-20 -.472E+00   -.489E-13 0.365E-14 -.229E-04
   -.208E-08 -.122E-08 0.163E+01   -.209E-13 -.888E-14 -.116E+01   0.453E-20 -.284E-20 -.472E+00   0.802E-13 -.151E-14 -.229E-04
   -.208E-08 -.122E-08 0.163E+01   -.342E-13 -.577E-14 -.116E+01   0.278E-20 -.121E-19 -.472E+00   -.529E-13 0.300E-14 -.229E-04
   -.208E-08 -.122E-08 0.163E+01   -.284E-13 -.355E-14 -.116E+01   0.130E-19 -.858E-20 -.472E+00   0.235E-14 -.177E-14 -.229E-04
   0.380E-08 0.267E-08 -.163E+01   -.409E-13 -.220E-13 0.116E+01   -.744E-20 0.110E-19 0.472E+00   0.187E-13 -.400E-13 0.229E-04
   0.380E-08 0.267E-08 -.163E+01   -.243E-13 -.191E-13 0.116E+01   -.626E-20 0.140E-19 0.472E+00   -.206E-14 0.607E-13 0.229E-04
   0.380E-08 0.267E-08 -.163E+01   -.247E-13 -.219E-13 0.116E+01   -.610E-20 -.286E-20 0.472E+00   0.275E-13 0.450E-13 0.229E-04
   0.380E-08 0.267E-08 -.163E+01   -.301E-13 -.130E-13 0.116E+01   0.423E-20 -.184E-20 0.472E+00   0.151E-13 -.493E-13 0.229E-04
   0.380E-08 0.267E-08 -.163E+01   -.228E-13 -.270E-13 0.116E+01   -.929E-20 0.292E-20 0.472E+00   -.275E-13 -.103E-12 0.229E-04
   0.380E-08 0.267E-08 -.163E+01   -.424E-13 -.230E-13 0.116E+01   0.558E-21 -.902E-20 0.472E+00   -.140E-14 0.782E-13 0.229E-04
   0.380E-08 0.267E-08 -.163E+01   -.290E-13 -.160E-13 0.116E+01   -.957E-20 0.113E-19 0.472E+00   -.272E-13 0.108E-12 0.229E-04
   0.380E-08 0.267E-08 -.163E+01   -.348E-13 -.217E-13 0.116E+01   -.796E-20 0.179E-20 0.472E+00   -.198E-13 -.736E-13 0.229E-04
 -----------------------------------------------------------------------------------------------
   0.550E-07 0.464E-07 0.279E-04   0.254E-13 0.240E-15 -.133E-14   0.186E-19 0.271E-19 -.466E-14   -.678E-13 0.867E-13 -.174E-09
 
 
 POSITION                                       TOTAL-FORCE (eV/Angst)
 -----------------------------------------------------------------------------------
      0.00000      0.00000     10.54702         0.000000     -0.000000      0.000220
      0.00000     -0.00000      5.26856        -0.000000      0.000000      0.000220
     -0.05278      5.27846     10.54702         0.000000     -0.000000      0.000220
     -0.05278      5.27846      5.26856         0.000000     -0.000000      0.000220
      5.17289     -0.05278     10.54702         0.000000     -0.000000      0.000220
      5.17289     -0.05278      5.26856        -0.000000     -0.000000      0.000220
      5.12010      5.22567     10.54702         0.000000     -0.000000      0.000220
      5.12010      5.22567      5.26856         0.000000     -0.000000      0.000220
      3.84008      3.91926      1.32951         0.000000      0.000000     -0.000220
      3.84008      3.91926      6.60797         0.000000      0.000000     -0.000220
      3.78729      9.19771      1.32951         0.000000      0.000000     -0.000220
      3.78729      9.19771      6.60797        -0.000000      0.000000     -0.000220
      9.01297      3.86647      1.32951        -0.000000      0.000000     -0.000220
      9.01297      3.86647      6.60797        -0.000000      0.000000     -0.000220
      8.96018      9.14493      1.32951        -0.000000      0.000000     -0.000220
      8.96018      9.14493      6.60797        -0.000000     -0.000000     -0.000220
     -0.02639      2.63923      2.62933        -0.000000      0.000000      0.000220
     -0.02639      2.63923      7.90779        -0.000000     -0.000000      0.000220
     -0.07918      7.91769      2.62933        -0.000000      0.000000      0.000220
     -0.07918      7.91769      7.90779        -0.000000      0.000000      0.000220
      5.14650      2.58644      2.62933         0.000000      0.000000      0.000220
      5.14650      2.58644      7.90779         0.000000      0.000000      0.000220
      5.09371      7.86490      2.62933         0.000000      0.000000      0.000220
      5.09371      7.86490      7.90779         0.000000     -0.000000      0.000220
      3.86647      1.28003      3.96874         0.000000      0.000000     -0.000220
      3.86647      1.28003      9.24720         0.000000      0.000000     -0.000220
      3.81369      6.55849      3.96874         0.000000     -0.000000     -0.000220
      3.81369      6.55849      9.24720         0.000000     -0.000000     -0.000220
      9.03936      1.22724      3.96874        -0.000000      0.000000     -0.000220
      9.03936      1.22724      9.24720        -0.000000      0.000000     -0.000220
      8.98658      6.50570      3.96874         0.000000     -0.000000     -0.000220
      8.98658      6.50570      9.24720         0.000000     -0.000000     -0.000220
      2.58644     -0.02639      2.62933        -0.000000     -0.000000      0.000220
      2.58644     -0.02639      7.90779        -0.000000     -0.000000      0.000220
      2.53366      5.25207      2.62933         0.000000     -0.000000      0.000220
      2.53366      5.25207      7.90779         0.000000     -0.000000      0.000220
      7.75933     -0.07918      2.62933        -0.000000     -0.000000      0.000220
      7.75933     -0.07918      7.90779        -0.000000     -0.000000      0.000220
      7.70655      5.19928      2.62933         0.000000     -0.000000      0.000220
      7.70655      5.19928      7.90779         0.000000     -0.000000      0.000220
      1.25363      3.94565      3.96874         0.000000      0.000000     -0.000220
      1.25363      3.94565      9.24720        -0.000000      0.000000     -0.000220
      1.20085      9.22411      3.96874        -0.000000      0.000000     -0.000220
      1.20085      9.22411      9.24720        -0.000000      0.000000     -0.000220
      6.42652      3.89286      3.96874         0.000000      0.000000     -0.000220
      6.42652      3.89286      9.24720         0.000000      0.000000     -0.000220
      6.37374      9.17132      3.96874        -0.000000      0.000000     -0.000220
      6.37374      9.17132      9.24720        -0.000000      0.000000     -0.000220
      2.56005      2.61284     10.54702        -0.000000      0.000000      0.000220
      2.56005      2.61284      5.26856        -0.000000      0.000000      0.000220
      2.50727      7.89130     10.54702        -0.000000      0.000000      0.000220
      2.50727      7.89130      5.26856        -0.000000      0.000000      0.000220
      7.73294      2.56005     10.54702        -0.000000      0.000000      0.000220
      7.73294      2.56005      5.26856        -0.000000     -0.000000      0.000220
      7.68016      7.83851     10.54702        -0.000000      0.000000      0.000220
      7.68016      7.83851      5.26856         0.000000      0.000000      0.000220
      1.28003      1.30642      1.32951        -0.000000      0.000000     -0.000220
      1.28003      1.30642      6.60797        -0.000000      0.000000     -0.000220
      1.22724      6.58488      1.32951         0.000000     -0.000000     -0.000220
      1.22724      6.58488      6.60797         0.000000     -0.000000     -0.000220
      6.45292      1.25363      1.32951         0.000000      0.000000     -0.000220
      6.45292      1.25363      6.60797         0.000000      0.000000     -0.000220
      6.40013      6.53209      1.32951         0.000000     -0.000000     -0.000220
      6.40013      6.53209      6.60797         0.000000     -0.000000     -0.000220
 -----------------------------------------------------------------------------------
    total drift:                                0.000000      0.000000      0.000028


--------------------------------------------------------------------------------------------------------



  FREE ENERGIE OF THE ION-ELECTRON SYSTEM (eV)
  ---------------------------------------------------
  free  energy   TOTEN  =      -362.63560524 eV

  energy  without entropy=     -362.64942334  energy(sigma->0) =     -362.64021127
 
 d Force = 0.2733571E-01[ 0.729E-04, 0.546E-01]  d Energy = 0.2728136E-01 0.543E-04
 d Force =-0.3356476E+00[-0.383E+00,-0.288E+00]  d Ewald  =-0.3356408E+00-0.684E-05


--------------------------------------------------------------------------------------------------------


    POTLOK:  cpu time      0.1479: real time      0.1483


--------------------------------------------------------------------------------------------------------




--------------------------------------------------------------------------------------------------------


  
 reached required accuracy - stopping structural energy minimisation
     LOOP+:  cpu time     13.2591: real time     13.4042
    4ORBIT:  cpu time      0.0000: real time      0.0000

 total amount of memory used by VASP MPI-rank0    78633. kBytes
=======================================================================

   base      :      30000. kBytes
   nonlr-proj:       4915. kBytes
   fftplans  :      17991. kBytes
   grid      :       6881. kBytes
   one-center:         18. kBytes
   wavefun   :      18828. kBytes
 
  
  
 General timing and accounting informations for this job:
 ========================================================
  
                  Total CPU time used (sec):       60.520
                            User time (sec):       57.032
                          System time (sec):        3.488
                         Elapsed time (sec):       63.930
  
                   Maximum memory used (kb):      405240.
                   Average memory used (kb):          N/A
  
                          Minor page faults:        92566
                          Major page faults:            0
                 Voluntary context switches:         9226
