WARNING: $PATH does not agree with $PATH_modshare counter. The following directories' usage counters were adjusted to match. Note that this may mean that module unloading may not work correctly.
 /public1/home/sc80607/atat/bin/
 running   96 mpi-ranks, on    1 nodes
 distrk:  each k-point on   24 cores,    4 groups
 distr:  one band on   12 cores,    2 groups
 vasp.6.4.3 19Mar24 (build Oct 21 2024 22:36:34) complex                        
  
 POSCAR found type information on POSCAR Si
 POSCAR found :  1 types and      64 ions
 scaLAPACK will be used
 -----------------------------------------------------------------------------
|                                                                             |
|               ----> ADVICE to this user running VASP <----                  |
|                                                                             |
|     You enforced a specific xc type in the INCAR file but a different       |
|     type was found in the POTCAR file.                                      |
|     I HOPE YOU KNOW WHAT YOU ARE DOING!                                     |
|                                                                             |
 -----------------------------------------------------------------------------

 LDA part: xc-table for (Slater+PW92), standard interpolation
 POSCAR, INCAR and KPOINTS ok, starting setup
 FFT: planning ... GRIDC
 FFT: planning ... GRID_SOFT
 FFT: planning ... GRID
 WAVECAR not read
 entering main loop
       N       E                     dE             d eps       ncg     rms          rms(c)
DAV:   1     0.584868616169E+03    0.58487E+03   -0.85722E+04  2592   0.107E+03
DAV:   2    -0.306615006572E+03   -0.89148E+03   -0.84563E+03  3072   0.177E+02
DAV:   3    -0.370387179801E+03   -0.63772E+02   -0.62376E+02  3152   0.418E+01
DAV:   4    -0.372023277946E+03   -0.16361E+01   -0.16187E+01  3104   0.807E+00
DAV:   5    -0.372078131836E+03   -0.54854E-01   -0.54723E-01  3134   0.134E+00    0.322E+01
RMM:   6    -0.365323261121E+03    0.67549E+01   -0.36723E+00  2592   0.303E+00    0.195E+01
RMM:   7    -0.362488994522E+03    0.28343E+01   -0.91392E+00  2646   0.475E+00    0.137E+00
RMM:   8    -0.362511926411E+03   -0.22932E-01   -0.87179E-01  2619   0.182E+00    0.611E-01
RMM:   9    -0.362537093060E+03   -0.25167E-01   -0.26209E-01  2676   0.887E-01    0.656E-01
RMM:  10    -0.362543405747E+03   -0.63127E-02   -0.48752E-02  2692   0.421E-01    0.106E+00
RMM:  11    -0.362536134999E+03    0.72707E-02   -0.19510E-02  2592   0.268E-01    0.502E-01
RMM:  12    -0.362536365116E+03   -0.23012E-03   -0.19738E-03  2613   0.108E-01    0.463E-01
RMM:  13    -0.362536435828E+03   -0.70711E-04   -0.37692E-04  2703   0.442E-02    0.529E-01
RMM:  14    -0.362536423642E+03    0.12186E-04   -0.99328E-05  2658   0.228E-02    0.255E-01
RMM:  15    -0.362536450621E+03   -0.26979E-04   -0.42146E-05  2623   0.136E-02    0.847E-02
RMM:  16    -0.362536463033E+03   -0.12413E-04   -0.12063E-05  2369   0.723E-03    0.580E-02
RMM:  17    -0.362536473752E+03   -0.10719E-04   -0.12727E-05  2592   0.749E-03    0.782E-03
RMM:  18    -0.362536471371E+03    0.23814E-05   -0.23862E-06  1668   0.312E-03    0.625E-03
RMM:  19    -0.362536471458E+03   -0.87759E-07   -0.41896E-07  1556   0.147E-03
   1 F= -.36253647E+03 E0= -.36254169E+03  d E =-.362536E+03
 curvature:   0.00 expect dE= 0.000E+00 dE for cont linesearch  0.000E+00
 trial: gam= 0.00000 g(F)=  0.301E+00 g(S)=  0.000E+00 ort = 0.000E+00 (trialstep = 0.100E+01)
 search vector abs. value=  0.301E+00
 bond charge predicted
       N       E                     dE             d eps       ncg     rms          rms(c)
DAV:   1    -0.362589050642E+03   -0.52579E-01   -0.41959E+00  2944   0.394E+00    0.998E-01
RMM:   2    -0.362607285626E+03   -0.18235E-01   -0.19455E-01  2592   0.962E-01    0.409E-01
RMM:   3    -0.362608437283E+03   -0.11517E-02   -0.28526E-02  2624   0.414E-01    0.166E-01
RMM:   4    -0.362608272937E+03    0.16435E-03   -0.42319E-03  2631   0.172E-01    0.678E-02
RMM:   5    -0.362608304920E+03   -0.31983E-04   -0.72598E-04  2682   0.657E-02    0.105E-02
RMM:   6    -0.362608321018E+03   -0.16097E-04   -0.16723E-04  2779   0.296E-02    0.331E-03
RMM:   7    -0.362608323461E+03   -0.24432E-05   -0.24259E-05  2537   0.108E-02    0.300E-03
RMM:   8    -0.362608323879E+03   -0.41801E-06   -0.42385E-06  1864   0.438E-03
   2 F= -.36260832E+03 E0= -.36261233E+03  d E =-.718524E-01
 trial-energy change:   -0.071852  1 .order   -0.071041   -0.301146    0.159064
 step:   0.6568(harm=  0.6544)  dis= 0.00989  next Energy=  -362.635590 (dE=-0.991E-01)
 bond charge predicted
       N       E                     dE             d eps       ncg     rms          rms(c)
DAV:   1    -0.362633398485E+03   -0.25075E-01   -0.48739E-01  2912   0.135E+00    0.339E-01
RMM:   2    -0.362635486499E+03   -0.20880E-02   -0.22246E-02  2592   0.327E-01    0.139E-01
RMM:   3    -0.362635615366E+03   -0.12887E-03   -0.32071E-03  2627   0.141E-01    0.540E-02
RMM:   4    -0.362635599453E+03    0.15913E-04   -0.46524E-04  2622   0.580E-02    0.221E-02
RMM:   5    -0.362635603105E+03   -0.36516E-05   -0.81421E-05  2672   0.223E-02    0.365E-03
RMM:   6    -0.362635604876E+03   -0.17711E-05   -0.19106E-05  2511   0.101E-02    0.930E-04
RMM:   7    -0.362635605145E+03   -0.26863E-06   -0.26313E-06  1732   0.367E-03    0.796E-04
RMM:   8    -0.362635605241E+03   -0.96183E-07   -0.54432E-07  1478   0.162E-03
   3 F= -.36263561E+03 E0= -.36264021E+03  d E =-.991338E-01
 curvature:  -0.33 expect dE=-0.490E-07 dE for cont linesearch -0.490E-07
 trial: gam= 0.00000 g(F)=  0.150E-06 g(S)=  0.000E+00 ort =-0.212E-03 (trialstep = 0.931E+00)
 search vector abs. value=  0.150E-06
 reached required accuracy - stopping structural energy minimisation
