<?xml version="1.0" encoding="ISO-8859-1"?>
<modeling>
 <generator>
  <i name="program" type="string">vasp </i>
  <i name="version" type="string">6.4.3  </i>
  <i name="subversion" type="string">19Mar24 (build Oct 21 2024 22:36:34) complex                          parallel </i>
  <i name="platform" type="string">LinuxIFC </i>
  <i name="date" type="string">2024 11 01 </i>
  <i name="time" type="string">22:57:52 </i>
 </generator>
 <incar>
  <i type="string" name="SYSTEM">Si64</i>
  <i type="int" name="ISTART">     0</i>
  <i type="string" name="PREC">Accurate</i>
  <i type="string" name="ALGO">Fast</i>
  <i type="logical" name="ADDGRID"> T  </i>
  <i type="int" name="ICHARG">     2</i>
  <i type="int" name="NELM">    60</i>
  <i type="int" name="NELMIN">     8</i>
  <i type="int" name="IBRION">     2</i>
  <i name="EDIFF">      0.00000100</i>
  <i name="EDIFFG">     -0.01000000</i>
  <i type="int" name="NSW">    60</i>
  <i type="int" name="ISIF">     2</i>
  <i name="ENCUT">    400.00000000</i>
  <i type="string" name="LREAL">Auto</i>
  <i type="int" name="ISMEAR">     1</i>
  <i name="SIGMA">      0.20000000</i>
  <i type="logical" name="LWAVE"> F  </i>
  <i type="logical" name="LCHARG"> F  </i>
  <i type="logical" name="GGA_COMPAT"> F  </i>
  <i type="string" name="GGA">PS</i>
 </incar>
 <primitive_cell>
  <structure name="primitive_cell" >
   <crystal>
    <varray name="basis" >
     <v>      -2.58644463       0.02639225      -2.63922939 </v>
     <v>      -2.58644463       0.02639225       2.63922939 </v>
     <v>       2.56005238       2.61283714      -0.00000000 </v>
    </varray>
    <i name="volume">     36.02824780 </i>
    <varray name="rec_basis" >
     <v>      -0.19140194       0.18753522      -0.18944924 </v>
     <v>      -0.19140194       0.18753522       0.18944924 </v>
     <v>       0.00386670       0.37893715       0.00000000 </v>
    </varray>
   </crystal>
   <varray name="positions" >
    <v>       0.00000000       0.00000000       0.00000000 </v>
    <v>       0.75000000       0.25000000       0.50000000 </v>
   </varray>
  </structure>
  <varray name="primitive_index" >
   <v type="int" >        1 </v>
   <v type="int" >       15 </v>
  </varray>
 </primitive_cell>
 <kpoints>
  <generation param="Gamma">
   <v type="int" name="divisions">       2        2        2 </v>
   <v name="usershift">      0.00000000       0.00000000       0.00000000 </v>
   <v name="genvec1">      0.50000000       0.00000000       0.00000000 </v>
   <v name="genvec2">      0.00000000       0.50000000       0.00000000 </v>
   <v name="genvec3">      0.00000000       0.00000000       0.50000000 </v>
   <v name="shift">      0.00000000       0.00000000       0.00000000 </v>
  </generation>
  <varray name="kpointlist" >
   <v>       0.00000000       0.00000000       0.00000000 </v>
   <v>       0.50000000       0.00000000       0.00000000 </v>
   <v>       0.00000000       0.50000000       0.00000000 </v>
   <v>       0.50000000       0.50000000       0.00000000 </v>
   <v>       0.00000000       0.00000000       0.50000000 </v>
   <v>       0.50000000       0.00000000       0.50000000 </v>
   <v>       0.00000000       0.50000000       0.50000000 </v>
   <v>       0.50000000       0.50000000       0.50000000 </v>
  </varray>
  <varray name="weights" >
   <v>       0.12500000 </v>
   <v>       0.12500000 </v>
   <v>       0.12500000 </v>
   <v>       0.12500000 </v>
   <v>       0.12500000 </v>
   <v>       0.12500000 </v>
   <v>       0.12500000 </v>
   <v>       0.12500000 </v>
  </varray>
 </kpoints>
 <parameters>
  <separator name="general" >
   <i type="string" name="SYSTEM">Si64</i>
   <i type="logical" name="LCOMPAT"> F  </i>
  </separator>
  <separator name="electronic" >
   <i type="string" name="PREC">accura</i>
   <i name="ENMAX">    400.00000000</i>
   <i name="ENAUG">    322.06900000</i>
   <i name="EDIFF">      0.00000100</i>
   <i type="int" name="IALGO">    68</i>
   <i type="int" name="IWAVPR">    11</i>
   <i type="int" name="NBANDS">   162</i>
   <i type="int" name="NBANDSLOW">    -1</i>
   <i type="int" name="NBANDSHIGH">    -1</i>
   <i name="NELECT">    256.00000000</i>
   <i type="int" name="TURBO">     0</i>
   <i type="int" name="IRESTART">     0</i>
   <i type="int" name="NREBOOT">     0</i>
   <i type="int" name="NMIN">     0</i>
   <i name="EREF">      0.00000000</i>
   <separator name="electronic smearing" >
    <i type="int" name="ISMEAR">     1</i>
    <i name="SIGMA">      0.20000000</i>
    <i name="KSPACING">      0.50000000</i>
    <i type="logical" name="KGAMMA"> T  </i>
    <i type="logical" name="KBLOWUP"> T  </i>
   </separator>
   <separator name="electronic projectors" >
    <i type="logical" name="LREAL"> T  </i>
    <v name="ROPT">     -0.00025000</v>
    <i type="int" name="LMAXPAW">  -100</i>
    <i type="int" name="LMAXMIX">     2</i>
    <i type="logical" name="NLSPLINE"> F  </i>
   </separator>
   <separator name="electronic startup" >
    <i type="int" name="ISTART">     0</i>
    <i type="int" name="ICHARG">     2</i>
    <i type="int" name="INIWAV">     1</i>
   </separator>
   <separator name="electronic spin" >
    <i type="int" name="ISPIN">     1</i>
    <i type="logical" name="LNONCOLLINEAR"> F  </i>
    <v name="MAGMOM">      1.00000000      1.00000000      1.00000000      1.00000000      1.00000000      1.00000000      1.00000000      1.00000000      1.00000000      1.00000000      1.00000000      1.00000000      1.00000000      1.00000000      1.00000000      1.00000000      1.00000000      1.00000000      1.00000000      1.00000000
      1.00000000      1.00000000      1.00000000      1.00000000      1.00000000      1.00000000      1.00000000      1.00000000      1.00000000      1.00000000      1.00000000      1.00000000      1.00000000      1.00000000      1.00000000      1.00000000      1.00000000      1.00000000      1.00000000      1.00000000
      1.00000000      1.00000000      1.00000000      1.00000000      1.00000000      1.00000000      1.00000000      1.00000000      1.00000000      1.00000000      1.00000000      1.00000000      1.00000000      1.00000000      1.00000000      1.00000000      1.00000000      1.00000000      1.00000000      1.00000000
      1.00000000      1.00000000      1.00000000      1.00000000</v>
    <i name="NUPDOWN">     -1.00000000</i>
    <i type="logical" name="LSORBIT"> F  </i>
    <v name="SAXIS">      0.00000000      0.00000000      1.00000000</v>
    <i type="logical" name="LSPIRAL"> F  </i>
    <v name="QSPIRAL">      0.00000000      0.00000000      0.00000000</v>
    <i type="logical" name="LZEROZ"> F  </i>
   </separator>
   <separator name="electronic exchange-correlation" >
    <i type="logical" name="LASPH"> F  </i>
   </separator>
   <separator name="electronic convergence" >
    <i type="int" name="NELM">    60</i>
    <i type="int" name="NELMDL">    -5</i>
    <i type="int" name="NELMIN">     8</i>
    <i name="ENINI">    400.00000000</i>
    <separator name="electronic convergence detail" >
     <i type="logical" name="LDIAG"> T  </i>
     <i type="logical" name="LSUBROT"> F  </i>
     <i name="WEIMIN">      0.00100000</i>
     <i name="EBREAK">      0.00000000</i>
     <i name="DEPER">      0.30000000</i>
     <i type="int" name="NRMM">     4</i>
     <i name="TIME">      0.40000000</i>
    </separator>
   </separator>
   <separator name="electronic mixer" >
    <i name="AMIX">      0.40000000</i>
    <i name="BMIX">      1.00000000</i>
    <i name="AMIN">      0.10000000</i>
    <i name="AMIX_MAG">      1.60000000</i>
    <i name="BMIX_MAG">      1.00000000</i>
    <separator name="electronic mixer details" >
     <i type="int" name="IMIX">     4</i>
     <i type="logical" name="MIXFIRST"> F  </i>
     <i type="int" name="MAXMIX">   -45</i>
     <i name="WC">    100.00000000</i>
     <i type="int" name="INIMIX">     1</i>
     <i type="int" name="MIXPRE">     1</i>
     <i type="int" name="MREMOVE">     5</i>
    </separator>
   </separator>
   <separator name="electronic dipolcorrection" >
    <i type="logical" name="LDIPOL"> F  </i>
    <i type="logical" name="LMONO"> F  </i>
    <i type="int" name="IDIPOL">     0</i>
    <i name="EPSILON">      1.00000000</i>
    <v name="DIPOL">   -100.00000000   -100.00000000   -100.00000000</v>
    <i name="EFIELD">      0.00000000</i>
    <i type="logical" name="LVACPOTAV"> F  </i>
   </separator>
  </separator>
  <separator name="grids" >
   <i type="int" name="NGX">    70</i>
   <i type="int" name="NGY">    70</i>
   <i type="int" name="NGZ">    70</i>
   <i type="int" name="NGXF">   140</i>
   <i type="int" name="NGYF">   140</i>
   <i type="int" name="NGZF">   140</i>
   <i type="logical" name="ADDGRID"> T  </i>
  </separator>
  <separator name="ionic" >
   <i type="int" name="NSW">    60</i>
   <i type="int" name="IBRION">     2</i>
   <i type="int" name="MDALGO">     0</i>
   <i type="int" name="ISIF">     2</i>
   <i name="PSTRESS">      0.00000000</i>
   <i name="EDIFFG">     -0.01000000</i>
   <i type="int" name="NFREE">     1</i>
   <i name="POTIM">      0.50000000</i>
   <i name="SMASS">     -3.00000000</i>
   <i name="SCALEE">      1.00000000</i>
  </separator>
  <separator name="ionic md" >
   <i name="TEBEG">      0.00010000</i>
   <i name="TEEND">      0.00010000</i>
   <i type="int" name="NBLOCK">     1</i>
   <i type="int" name="KBLOCK">    60</i>
   <i type="int" name="NPACO">   256</i>
   <i name="APACO">     10.00000000</i>
  </separator>
  <separator name="symmetry" >
   <i type="int" name="ISYM">     2</i>
   <i name="SYMPREC">      0.00001000</i>
  </separator>
  <separator name="dos" >
   <i type="int" name="LORBIT">     0</i>
   <v name="RWIGS">     -1.00000000</v>
   <i type="int" name="NEDOS">   301</i>
   <i name="EMIN">     10.00000000</i>
   <i name="EMAX">    -10.00000000</i>
   <i name="EFERMI">      0.00000000</i>
  </separator>
  <separator name="writing" >
   <i type="int" name="NWRITE">     2</i>
   <i type="logical" name="LWAVE"> F  </i>
   <i type="logical" name="LDOWNSAMPLE"> F  </i>
   <i type="logical" name="LCHARG"> F  </i>
   <i type="logical" name="LPARD"> F  </i>
   <i type="logical" name="LVTOT"> F  </i>
   <i type="logical" name="LVHAR"> F  </i>
   <i type="logical" name="LELF"> F  </i>
   <i type="logical" name="LOPTICS"> F  </i>
   <v name="STM">      0.00000000      0.00000000      0.00000000      0.00000000      0.00000000      0.00000000      0.00000000</v>
  </separator>
  <separator name="performance" >
   <i type="int" name="NPAR">     2</i>
   <i type="int" name="NSIM">     4</i>
   <i type="int" name="NBLK">    -1</i>
   <i type="logical" name="LPLANE"> T  </i>
   <i type="logical" name="LSCALAPACK"> T  </i>
   <i type="logical" name="LSCAAWARE"> F  </i>
   <i type="logical" name="LSCALU"> F  </i>
   <i type="logical" name="LASYNC"> F  </i>
   <i type="logical" name="LORBITALREAL"> F  </i>
  </separator>
  <separator name="miscellaneous" >
   <i type="int" name="IDIOT">     3</i>
   <i type="int" name="PHON_NSTRUCT">    -1</i>
   <i type="logical" name="LMUSIC"> F  </i>
   <v name="POMASS">     28.08500000</v>
   <v name="DARWINR">      0.00000000</v>
   <v name="DARWINV">      1.00000000</v>
   <i type="logical" name="LCORR"> T  </i>
  </separator>
  <i type="logical" name="GGA_COMPAT"> F  </i>
  <i type="logical" name="LBERRY"> F  </i>
  <i type="int" name="ICORELEVEL">     0</i>
  <i type="logical" name="LDAU"> F  </i>
  <i type="int" name="I_CONSTRAINED_M">     0</i>
  <separator name="electronic exchange-correlation" >
   <i type="string" name="GGA    ">PS</i>
   <i type="string" name="XC_C">1</i>
   <i type="int" name="VOSKOWN">     0</i>
   <i type="logical" name="LHFCALC"> F  </i>
   <i type="string" name="PRECFOCK"></i>
   <i type="logical" name="LSYMGRAD"> F  </i>
   <i type="logical" name="LHFONE"> F  </i>
   <i type="logical" name="LRHFCALC"> F  </i>
   <i type="logical" name="LTHOMAS"> F  </i>
   <i type="logical" name="LMODELHF"> F  </i>
   <i type="logical" name="LFOCKACE"> F  </i>
   <i name="ENCUT4O">     -1.00000000</i>
   <i type="int" name="EXXOEP">     0</i>
   <i type="int" name="FOURORBIT">     0</i>
   <i name="AEXX">      0.00000000</i>
   <i name="HFALPHA">      0.00000000</i>
   <i name="MCALPHA">      0.00000000</i>
   <i name="ALDAX">      1.00000000</i>
   <i name="AGGAX">      1.00000000</i>
   <i name="AMGGAX">      1.00000000</i>
   <i name="ALDAC">      1.00000000</i>
   <i name="AGGAC">      1.00000000</i>
   <i name="AMGGAC">      1.00000000</i>
   <i type="int" name="NKREDX">     1</i>
   <i type="int" name="NKREDY">     1</i>
   <i type="int" name="NKREDZ">     1</i>
   <i type="logical" name="SHIFTRED"> F  </i>
   <i type="logical" name="ODDONLY"> F  </i>
   <i type="logical" name="EVENONLY"> F  </i>
   <i type="int" name="LMAXFOCK">     0</i>
   <i type="int" name="NMAXFOCKAE">     0</i>
   <i type="logical" name="LFOCKAEDFT"> F  </i>
   <i name="HFSCREEN">      0.00000000</i>
   <i name="HFSCREENC">      0.00000000</i>
   <i type="int" name="NBANDSGWLOW">     0</i>
  </separator>
  <separator name="vdW DFT" >
   <i type="logical" name="LUSE_VDW"> F  </i>
   <i type="int" name="IVDW_NL">    -1</i>
   <i type="logical" name="LSPIN_VDW"> F  </i>
   <i name="ZAB_VDW">     -0.84910000</i>
   <i name="GAMMA_VDW">      1.39626340</i>
   <i name="ALPHA_VDW">      0.00000000</i>
   <i name="PARAM1">      0.12340000</i>
   <i name="PARAM2">      1.00000000</i>
   <i name="BPARAM">      6.30000000</i>
   <i name="CPARAM">      0.00930000</i>
  </separator>
  <separator name="model GW" >
   <i type="int" name="MODEL_GW">     0</i>
   <i name="MODEL_EPS0">     10.80847434</i>
   <i name="MODEL_ALPHA">      1.00000000</i>
  </separator>
  <separator name="linear response parameters" >
   <i type="logical" name="LEPSILON"> F  </i>
   <i type="logical" name="LRPA"> F  </i>
   <i type="logical" name="LNABLA"> F  </i>
   <i type="logical" name="LVEL"> F  </i>
   <i name="CSHIFT">      0.10000000</i>
   <i name="OMEGAMAX">     -1.00000000</i>
   <i name="DEG_THRESHOLD">      0.00200000</i>
   <i name="RTIME">     -0.10000000</i>
   <i name="WPLASMAI">      0.00000000</i>
   <v name="DFIELD">      0.00000000      0.00000000      0.00000000</v>
   <v name="WPLASMA">      0.00000000      0.00000000      0.00000000      0.00000000      0.00000000      0.00000000      0.00000000      0.00000000      0.00000000</v>
  </separator>
  <separator name="orbital magnetization" >
   <i type="logical" name="NUCIND"> F  </i>
   <v name="MAGPOS">      0.00000000      0.00000000      0.00000000</v>
   <i type="logical" name="LNICSALL"> T  </i>
   <i type="logical" name="ORBITALMAG"> F  </i>
   <i type="logical" name="LMAGBLOCH"> F  </i>
   <i type="logical" name="LCHIMAG"> F  </i>
   <i type="logical" name="LGAUGE"> T  </i>
   <i type="int" name="MAGATOM">     0</i>
   <v name="MAGDIPOL">      0.00000000      0.00000000      0.00000000</v>
   <v name="AVECCONST">      0.00000000      0.00000000      0.00000000</v>
  </separator>
  <separator name="response functions" >
   <i type="logical" name="LALL_IN_ONE"> F  </i>
   <i type="int" name="IALL_IN_ONE">    -1</i>
   <i type="int" name="NBANDS_WAVE">    -1</i>
   <i type="logical" name="LFINITE_TEMPERATURE"> F  </i>
   <i type="logical" name="LADDER"> F  </i>
   <i type="logical" name="LRPAFORCE"> F  </i>
   <i type="logical" name="LFXC"> F  </i>
   <i type="logical" name="LHARTREE"> T  </i>
   <i type="int" name="IBSE">     0</i>
   <v type="int" name="KPOINT">    -1     0     0     0</v>
   <i type="logical" name="LTCTC"> F  </i>
   <i type="logical" name="LTCTE"> F  </i>
   <i type="logical" name="LTETE"> F  </i>
   <i type="logical" name="LTRIPLET"> F  </i>
   <i type="logical" name="LFXCEPS"> F  </i>
   <i type="logical" name="LFXHEG"> F  </i>
   <i type="int" name="NATURALO">     2</i>
   <i type="logical" name="LHOLEGF"> F  </i>
   <i type="logical" name="L2ORDER"> F  </i>
   <i type="logical" name="LDMP1"> F  </i>
   <i type="logical" name="LMP2LT"> F  </i>
   <i type="logical" name="LSMP2LT"> F  </i>
   <i type="logical" name="LGWLF"> F  </i>
   <i name="ENCUTGW">     -1.60000002</i>
   <i name="ENCUTGWSOFT">     -1.60000002</i>
   <i name="ENCUTLF">     -1.00000000</i>
   <i type="logical" name="ESF_SPLINES"> F  </i>
   <i name="ESF_CONV">      0.01000000</i>
   <i type="int" name="ESF_NINTER">    15</i>
   <i type="int" name="LMAXMP2">    -1</i>
   <i name="SCISSOR">      0.00000000</i>
   <i type="int" name="NOMEGA">     0</i>
   <i type="int" name="NOMEGAR">     0</i>
   <i type="int" name="NBANDSGW">    -1</i>
   <i type="int" name="NBANDSO">    -1</i>
   <i type="int" name="NBANDSV">    -1</i>
   <i type="int" name="NELMGW">     1</i>
   <i type="int" name="NELMHF">     1</i>
   <i type="int" name="DIM">     3</i>
   <i type="int" name="IESPILON">     4</i>
   <i type="int" name="ANTIRES">     0</i>
   <i name="OMEGAMAX">    -30.00000000</i>
   <i name="OMEGAMIN">    -30.00000000</i>
   <i name="OMEGATL">   -200.00000000</i>
   <i type="int" name="OMEGAGRID">     0</i>
   <i name="CSHIFT">     -0.10000000</i>
   <i type="logical" name="LSELFENERGY"> F  </i>
   <i type="logical" name="LSPECTRAL"> F  </i>
   <i type="logical" name="LSPECTRALGW"> F  </i>
   <i type="logical" name="LSINGLES"> F  </i>
   <i type="logical" name="LFERMIGW"> F  </i>
   <i type="logical" name="ODDONLYGW"> F  </i>
   <i type="logical" name="EVENONLYGW"> F  </i>
   <i type="int" name="NKREDLFX">     1</i>
   <i type="int" name="NKREDLFY">     1</i>
   <i type="int" name="NKREDLFZ">     1</i>
   <i type="int" name="MAXMEM">  2800</i>
   <i type="int" name="TELESCOPE">     0</i>
   <i type="int" name="NTAUPAR">    -1</i>
   <i type="int" name="NOMEGAPAR">    -1</i>
   <i name="DAMP_NEWTON">      0.80000001</i>
   <i name="LAMBDA">      1.00000000</i>
  </separator>
  <separator name="External order field" >
   <i name="OFIELD_KAPPA">      0.00000000</i>
   <v name="OFIELD_K">      0.00000000      0.00000000      0.00000000</v>
   <i name="OFIELD_Q6_NEAR">      0.00000000</i>
   <i name="OFIELD_Q6_FAR">      0.00000000</i>
   <i name="OFIELD_A">      0.00000000</i>
  </separator>
  <separator name="optional k-points parameters" >
   <i type="int" name="KPOINTS_OPT_MODE">     1</i>
   <i type="logical" name="LKPOINTS_OPT"> F  </i>
  </separator>
 </parameters>
 <atominfo>
  <atoms>      64 </atoms>
  <types>       1 </types>
  <array name="atoms" >
   <dimension dim="1">ion</dimension>
   <field type="string">element</field>
   <field type="int">atomtype</field>
   <set>
    <rc><c>Si</c><c>   1</c></rc>
    <rc><c>Si</c><c>   1</c></rc>
    <rc><c>Si</c><c>   1</c></rc>
    <rc><c>Si</c><c>   1</c></rc>
    <rc><c>Si</c><c>   1</c></rc>
    <rc><c>Si</c><c>   1</c></rc>
    <rc><c>Si</c><c>   1</c></rc>
    <rc><c>Si</c><c>   1</c></rc>
    <rc><c>Si</c><c>   1</c></rc>
    <rc><c>Si</c><c>   1</c></rc>
    <rc><c>Si</c><c>   1</c></rc>
    <rc><c>Si</c><c>   1</c></rc>
    <rc><c>Si</c><c>   1</c></rc>
    <rc><c>Si</c><c>   1</c></rc>
    <rc><c>Si</c><c>   1</c></rc>
    <rc><c>Si</c><c>   1</c></rc>
    <rc><c>Si</c><c>   1</c></rc>
    <rc><c>Si</c><c>   1</c></rc>
    <rc><c>Si</c><c>   1</c></rc>
    <rc><c>Si</c><c>   1</c></rc>
    <rc><c>Si</c><c>   1</c></rc>
    <rc><c>Si</c><c>   1</c></rc>
    <rc><c>Si</c><c>   1</c></rc>
    <rc><c>Si</c><c>   1</c></rc>
    <rc><c>Si</c><c>   1</c></rc>
    <rc><c>Si</c><c>   1</c></rc>
    <rc><c>Si</c><c>   1</c></rc>
    <rc><c>Si</c><c>   1</c></rc>
    <rc><c>Si</c><c>   1</c></rc>
    <rc><c>Si</c><c>   1</c></rc>
    <rc><c>Si</c><c>   1</c></rc>
    <rc><c>Si</c><c>   1</c></rc>
    <rc><c>Si</c><c>   1</c></rc>
    <rc><c>Si</c><c>   1</c></rc>
    <rc><c>Si</c><c>   1</c></rc>
    <rc><c>Si</c><c>   1</c></rc>
    <rc><c>Si</c><c>   1</c></rc>
    <rc><c>Si</c><c>   1</c></rc>
    <rc><c>Si</c><c>   1</c></rc>
    <rc><c>Si</c><c>   1</c></rc>
    <rc><c>Si</c><c>   1</c></rc>
    <rc><c>Si</c><c>   1</c></rc>
    <rc><c>Si</c><c>   1</c></rc>
    <rc><c>Si</c><c>   1</c></rc>
    <rc><c>Si</c><c>   1</c></rc>
    <rc><c>Si</c><c>   1</c></rc>
    <rc><c>Si</c><c>   1</c></rc>
    <rc><c>Si</c><c>   1</c></rc>
    <rc><c>Si</c><c>   1</c></rc>
    <rc><c>Si</c><c>   1</c></rc>
    <rc><c>Si</c><c>   1</c></rc>
    <rc><c>Si</c><c>   1</c></rc>
    <rc><c>Si</c><c>   1</c></rc>
    <rc><c>Si</c><c>   1</c></rc>
    <rc><c>Si</c><c>   1</c></rc>
    <rc><c>Si</c><c>   1</c></rc>
    <rc><c>Si</c><c>   1</c></rc>
    <rc><c>Si</c><c>   1</c></rc>
    <rc><c>Si</c><c>   1</c></rc>
    <rc><c>Si</c><c>   1</c></rc>
    <rc><c>Si</c><c>   1</c></rc>
    <rc><c>Si</c><c>   1</c></rc>
    <rc><c>Si</c><c>   1</c></rc>
    <rc><c>Si</c><c>   1</c></rc>
   </set>
  </array>
  <array name="atomtypes" >
   <dimension dim="1">type</dimension>
   <field type="int">atomspertype</field>
   <field type="string">element</field>
   <field>mass</field>
   <field>valence</field>
   <field type="string">pseudopotential</field>
   <set>
    <rc><c>  64</c><c>Si</c><c>     28.08500000</c><c>      4.00000000</c><c>  PAW_PBE Si 05Jan2001                  </c></rc>
   </set>
  </array>
 </atominfo>
 <structure name="initialpos" >
  <crystal>
   <varray name="basis" >
    <v>      10.34577853      -0.10556902       0.00000000 </v>
    <v>      -0.10556902      10.55691756       0.00000000 </v>
    <v>       0.00000000       0.00000000      10.55691756 </v>
   </varray>
   <i name="volume">   1152.90392972 </i>
   <varray name="rec_basis" >
    <v>       0.09666765       0.00096667       0.00000000 </v>
    <v>       0.00096667       0.09473429       0.00000000 </v>
    <v>       0.00000000       0.00000000       0.09472462 </v>
   </varray>
  </crystal>
  <varray name="positions" >
   <v>       0.00000000       0.00000000       0.00000000 </v>
   <v>       0.00000000       0.00000000       0.50000000 </v>
   <v>       0.00000000       0.50000000       0.00000000 </v>
   <v>       0.00000000       0.50000000       0.50000000 </v>
   <v>       0.50000000       0.00000000       0.00000000 </v>
   <v>       0.50000000       0.00000000       0.50000000 </v>
   <v>       0.50000000       0.50000000       0.00000000 </v>
   <v>       0.50000000       0.50000000       0.50000000 </v>
   <v>       0.37500000       0.37500000       0.12500000 </v>
   <v>       0.37500000       0.37500000       0.62500000 </v>
   <v>       0.37500000       0.87500000       0.12500000 </v>
   <v>       0.37500000       0.87500000       0.62500000 </v>
   <v>       0.87500000       0.37500000       0.12500000 </v>
   <v>       0.87500000       0.37500000       0.62500000 </v>
   <v>       0.87500000       0.87500000       0.12500000 </v>
   <v>       0.87500000       0.87500000       0.62500000 </v>
   <v>       0.00000000       0.25000000       0.25000000 </v>
   <v>       0.00000000       0.25000000       0.75000000 </v>
   <v>       0.00000000       0.75000000       0.25000000 </v>
   <v>       0.00000000       0.75000000       0.75000000 </v>
   <v>       0.50000000       0.25000000       0.25000000 </v>
   <v>       0.50000000       0.25000000       0.75000000 </v>
   <v>       0.50000000       0.75000000       0.25000000 </v>
   <v>       0.50000000       0.75000000       0.75000000 </v>
   <v>       0.37500000       0.12500000       0.37500000 </v>
   <v>       0.37500000       0.12500000       0.87500000 </v>
   <v>       0.37500000       0.62500000       0.37500000 </v>
   <v>       0.37500000       0.62500000       0.87500000 </v>
   <v>       0.87500000       0.12500000       0.37500000 </v>
   <v>       0.87500000       0.12500000       0.87500000 </v>
   <v>       0.87500000       0.62500000       0.37500000 </v>
   <v>       0.87500000       0.62500000       0.87500000 </v>
   <v>       0.25000000       0.00000000       0.25000000 </v>
   <v>       0.25000000       0.00000000       0.75000000 </v>
   <v>       0.25000000       0.50000000       0.25000000 </v>
   <v>       0.25000000       0.50000000       0.75000000 </v>
   <v>       0.75000000       0.00000000       0.25000000 </v>
   <v>       0.75000000       0.00000000       0.75000000 </v>
   <v>       0.75000000       0.50000000       0.25000000 </v>
   <v>       0.75000000       0.50000000       0.75000000 </v>
   <v>       0.12500000       0.37500000       0.37500000 </v>
   <v>       0.12500000       0.37500000       0.87500000 </v>
   <v>       0.12500000       0.87500000       0.37500000 </v>
   <v>       0.12500000       0.87500000       0.87500000 </v>
   <v>       0.62500000       0.37500000       0.37500000 </v>
   <v>       0.62500000       0.37500000       0.87500000 </v>
   <v>       0.62500000       0.87500000       0.37500000 </v>
   <v>       0.62500000       0.87500000       0.87500000 </v>
   <v>       0.25000000       0.25000000       0.00000000 </v>
   <v>       0.25000000       0.25000000       0.50000000 </v>
   <v>       0.25000000       0.75000000       0.00000000 </v>
   <v>       0.25000000       0.75000000       0.50000000 </v>
   <v>       0.75000000       0.25000000       0.00000000 </v>
   <v>       0.75000000       0.25000000       0.50000000 </v>
   <v>       0.75000000       0.75000000       0.00000000 </v>
   <v>       0.75000000       0.75000000       0.50000000 </v>
   <v>       0.12500000       0.12500000       0.12500000 </v>
   <v>       0.12500000       0.12500000       0.62500000 </v>
   <v>       0.12500000       0.62500000       0.12500000 </v>
   <v>       0.12500000       0.62500000       0.62500000 </v>
   <v>       0.62500000       0.12500000       0.12500000 </v>
   <v>       0.62500000       0.12500000       0.62500000 </v>
   <v>       0.62500000       0.62500000       0.12500000 </v>
   <v>       0.62500000       0.62500000       0.62500000 </v>
  </varray>
 </structure>
 <calculation>
  <scstep>
   <time name="dav">    1.26    1.33</time>
   <time name="total">    1.46    1.53</time>
   <energy>
    <i name="alphaZ">    119.59728838 </i>
    <i name="ewald">  -7575.00580549 </i>
    <i name="hartreedc">   -303.41124397 </i>
    <i name="XCdc">   -545.88009259 </i>
    <i name="pawpsdc">   5598.62625415 </i>
    <i name="pawaedc">  -4492.17844134 </i>
    <i name="eentropy">     -0.00784224 </i>
    <i name="bandstr">   1218.33263827 </i>
    <i name="atom">   6564.79586099 </i>
    <i name="e_fr_energy">    584.86861617 </i>
    <i name="e_wo_entrp">    584.87645841 </i>
    <i name="e_0_energy">    584.87123025 </i>
   </energy>
  </scstep>
  <scstep>
   <time name="dav">    1.31    1.33</time>
   <time name="total">    1.32    1.34</time>
   <energy>
    <i name="e_fr_energy">   -306.61500657 </i>
    <i name="e_wo_entrp">   -306.61970054 </i>
    <i name="e_0_energy">   -306.61657123 </i>
   </energy>
  </scstep>
  <scstep>
   <time name="dav">    1.34    1.35</time>
   <time name="total">    1.34    1.35</time>
   <energy>
    <i name="e_fr_energy">   -370.38717980 </i>
    <i name="e_wo_entrp">   -370.40544961 </i>
    <i name="e_0_energy">   -370.39326974 </i>
   </energy>
  </scstep>
  <scstep>
   <time name="dav">    1.36    1.40</time>
   <time name="total">    1.36    1.41</time>
   <energy>
    <i name="e_fr_energy">   -372.02327795 </i>
    <i name="e_wo_entrp">   -372.03324419 </i>
    <i name="e_0_energy">   -372.02660003 </i>
   </energy>
  </scstep>
  <scstep>
   <time name="dav">    1.31    1.35</time>
   <time name="total">    1.57    1.62</time>
   <energy>
    <i name="e_fr_energy">   -372.07813184 </i>
    <i name="e_wo_entrp">   -372.08809375 </i>
    <i name="e_0_energy">   -372.08145247 </i>
   </energy>
  </scstep>
  <scstep>
   <time name="diag">    0.14    0.14</time>
   <time name="diis">    0.70    0.71</time>
   <time name="orth">    0.02    0.02</time>
   <time name="total">    1.26    1.28</time>
   <energy>
    <i name="e_fr_energy">   -365.32326112 </i>
    <i name="e_wo_entrp">   -365.34805039 </i>
    <i name="e_0_energy">   -365.33152421 </i>
   </energy>
  </scstep>
  <scstep>
   <time name="diag">    0.14    0.14</time>
   <time name="diis">    0.70    0.71</time>
   <time name="orth">    0.02    0.02</time>
   <time name="total">    1.27    1.28</time>
   <energy>
    <i name="e_fr_energy">   -362.48899452 </i>
    <i name="e_wo_entrp">   -362.50237324 </i>
    <i name="e_0_energy">   -362.49345410 </i>
   </energy>
  </scstep>
  <scstep>
   <time name="diag">    0.14    0.14</time>
   <time name="diis">    0.71    0.71</time>
   <time name="orth">    0.02    0.02</time>
   <time name="total">    1.26    1.28</time>
   <energy>
    <i name="e_fr_energy">   -362.51192641 </i>
    <i name="e_wo_entrp">   -362.52763036 </i>
    <i name="e_0_energy">   -362.51716106 </i>
   </energy>
  </scstep>
  <scstep>
   <time name="diag">    0.13    0.13</time>
   <time name="diis">    0.72    0.72</time>
   <time name="orth">    0.02    0.02</time>
   <time name="total">    1.27    1.29</time>
   <energy>
    <i name="e_fr_energy">   -362.53709306 </i>
    <i name="e_wo_entrp">   -362.55194144 </i>
    <i name="e_0_energy">   -362.54204252 </i>
   </energy>
  </scstep>
  <scstep>
   <time name="diag">    0.13    0.13</time>
   <time name="diis">    0.71    0.71</time>
   <time name="orth">    0.02    0.02</time>
   <time name="total">    1.26    1.28</time>
   <energy>
    <i name="e_fr_energy">   -362.54340575 </i>
    <i name="e_wo_entrp">   -362.55814812 </i>
    <i name="e_0_energy">   -362.54831987 </i>
   </energy>
  </scstep>
  <scstep>
   <time name="diag">    0.13    0.13</time>
   <time name="diis">    0.69    0.70</time>
   <time name="orth">    0.02    0.02</time>
   <time name="total">    1.26    1.27</time>
   <energy>
    <i name="e_fr_energy">   -362.53613500 </i>
    <i name="e_wo_entrp">   -362.55173907 </i>
    <i name="e_0_energy">   -362.54133635 </i>
   </energy>
  </scstep>
  <scstep>
   <time name="diag">    0.13    0.13</time>
   <time name="diis">    0.70    0.70</time>
   <time name="orth">    0.02    0.02</time>
   <time name="total">    1.25    1.27</time>
   <energy>
    <i name="e_fr_energy">   -362.53636512 </i>
    <i name="e_wo_entrp">   -362.55197874 </i>
    <i name="e_0_energy">   -362.54156966 </i>
   </energy>
  </scstep>
  <scstep>
   <time name="diag">    0.13    0.13</time>
   <time name="diis">    0.73    0.73</time>
   <time name="orth">    0.02    0.02</time>
   <time name="total">    1.28    1.30</time>
   <energy>
    <i name="e_fr_energy">   -362.53643583 </i>
    <i name="e_wo_entrp">   -362.55204888 </i>
    <i name="e_0_energy">   -362.54164018 </i>
   </energy>
  </scstep>
  <scstep>
   <time name="diag">    0.13    0.13</time>
   <time name="diis">    0.71    0.72</time>
   <time name="orth">    0.02    0.02</time>
   <time name="total">    1.27    1.29</time>
   <energy>
    <i name="e_fr_energy">   -362.53642364 </i>
    <i name="e_wo_entrp">   -362.55203934 </i>
    <i name="e_0_energy">   -362.54162887 </i>
   </energy>
  </scstep>
  <scstep>
   <time name="diag">    0.13    0.13</time>
   <time name="diis">    0.73    0.73</time>
   <time name="orth">    0.02    0.02</time>
   <time name="total">    1.28    1.30</time>
   <energy>
    <i name="e_fr_energy">   -362.53645062 </i>
    <i name="e_wo_entrp">   -362.55209152 </i>
    <i name="e_0_energy">   -362.54166425 </i>
   </energy>
  </scstep>
  <scstep>
   <time name="diag">    0.14    0.15</time>
   <time name="diis">    0.66    0.66</time>
   <time name="orth">    0.02    0.02</time>
   <time name="total">    1.22    1.24</time>
   <energy>
    <i name="e_fr_energy">   -362.53646303 </i>
    <i name="e_wo_entrp">   -362.55210882 </i>
    <i name="e_0_energy">   -362.54167830 </i>
   </energy>
  </scstep>
  <scstep>
   <time name="diag">    0.13    0.13</time>
   <time name="diis">    0.69    0.70</time>
   <time name="orth">    0.02    0.02</time>
   <time name="total">    1.25    1.27</time>
   <energy>
    <i name="e_fr_energy">   -362.53647375 </i>
    <i name="e_wo_entrp">   -362.55211927 </i>
    <i name="e_0_energy">   -362.54168893 </i>
   </energy>
  </scstep>
  <scstep>
   <time name="diag">    0.13    0.13</time>
   <time name="diis">    0.47    0.47</time>
   <time name="orth">    0.02    0.02</time>
   <time name="total">    1.02    1.04</time>
   <energy>
    <i name="e_fr_energy">   -362.53647137 </i>
    <i name="e_wo_entrp">   -362.55212211 </i>
    <i name="e_0_energy">   -362.54168829 </i>
   </energy>
  </scstep>
  <scstep>
   <time name="diag">    0.13    0.13</time>
   <time name="diis">    0.44    0.45</time>
   <time name="orth">    0.02    0.02</time>
   <time name="total">    0.75    0.77</time>
   <energy>
    <i name="alphaZ">    119.59728838 </i>
    <i name="ewald">  -7575.00580549 </i>
    <i name="hartreedc">   -429.22437012 </i>
    <i name="XCdc">   -524.39959902 </i>
    <i name="pawpsdc">  34950.99323310 </i>
    <i name="pawaedc"> -33854.28172116 </i>
    <i name="eentropy">      0.01565063 </i>
    <i name="bandstr">    384.97299123 </i>
    <i name="atom">   6564.79586099 </i>
    <i name="e_fr_energy">   -362.53647146 </i>
    <i name="e_wo_entrp">   -362.55212209 </i>
    <i name="e_0_energy">   -362.54168833 </i>
   </energy>
  </scstep>
  <structure>
   <crystal>
    <varray name="basis" >
     <v>      10.34577853      -0.10556902       0.00000000 </v>
     <v>      -0.10556902      10.55691756       0.00000000 </v>
     <v>       0.00000000       0.00000000      10.55691756 </v>
    </varray>
    <i name="volume">   1152.90392972 </i>
    <varray name="rec_basis" >
     <v>       0.09666765       0.00096667       0.00000000 </v>
     <v>       0.00096667       0.09473429       0.00000000 </v>
     <v>       0.00000000       0.00000000       0.09472462 </v>
    </varray>
   </crystal>
   <varray name="positions" >
    <v>       0.00000000       0.00000000       0.00000000 </v>
    <v>       0.00000000       0.00000000       0.50000000 </v>
    <v>       0.00000000       0.50000000       0.00000000 </v>
    <v>       0.00000000       0.50000000       0.50000000 </v>
    <v>       0.50000000       0.00000000       0.00000000 </v>
    <v>       0.50000000       0.00000000       0.50000000 </v>
    <v>       0.50000000       0.50000000       0.00000000 </v>
    <v>       0.50000000       0.50000000       0.50000000 </v>
    <v>       0.37500000       0.37500000       0.12500000 </v>
    <v>       0.37500000       0.37500000       0.62500000 </v>
    <v>       0.37500000       0.87500000       0.12500000 </v>
    <v>       0.37500000       0.87500000       0.62500000 </v>
    <v>       0.87500000       0.37500000       0.12500000 </v>
    <v>       0.87500000       0.37500000       0.62500000 </v>
    <v>       0.87500000       0.87500000       0.12500000 </v>
    <v>       0.87500000       0.87500000       0.62500000 </v>
    <v>       0.00000000       0.25000000       0.25000000 </v>
    <v>       0.00000000       0.25000000       0.75000000 </v>
    <v>       0.00000000       0.75000000       0.25000000 </v>
    <v>       0.00000000       0.75000000       0.75000000 </v>
    <v>       0.50000000       0.25000000       0.25000000 </v>
    <v>       0.50000000       0.25000000       0.75000000 </v>
    <v>       0.50000000       0.75000000       0.25000000 </v>
    <v>       0.50000000       0.75000000       0.75000000 </v>
    <v>       0.37500000       0.12500000       0.37500000 </v>
    <v>       0.37500000       0.12500000       0.87500000 </v>
    <v>       0.37500000       0.62500000       0.37500000 </v>
    <v>       0.37500000       0.62500000       0.87500000 </v>
    <v>       0.87500000       0.12500000       0.37500000 </v>
    <v>       0.87500000       0.12500000       0.87500000 </v>
    <v>       0.87500000       0.62500000       0.37500000 </v>
    <v>       0.87500000       0.62500000       0.87500000 </v>
    <v>       0.25000000       0.00000000       0.25000000 </v>
    <v>       0.25000000       0.00000000       0.75000000 </v>
    <v>       0.25000000       0.50000000       0.25000000 </v>
    <v>       0.25000000       0.50000000       0.75000000 </v>
    <v>       0.75000000       0.00000000       0.25000000 </v>
    <v>       0.75000000       0.00000000       0.75000000 </v>
    <v>       0.75000000       0.50000000       0.25000000 </v>
    <v>       0.75000000       0.50000000       0.75000000 </v>
    <v>       0.12500000       0.37500000       0.37500000 </v>
    <v>       0.12500000       0.37500000       0.87500000 </v>
    <v>       0.12500000       0.87500000       0.37500000 </v>
    <v>       0.12500000       0.87500000       0.87500000 </v>
    <v>       0.62500000       0.37500000       0.37500000 </v>
    <v>       0.62500000       0.37500000       0.87500000 </v>
    <v>       0.62500000       0.87500000       0.37500000 </v>
    <v>       0.62500000       0.87500000       0.87500000 </v>
    <v>       0.25000000       0.25000000       0.00000000 </v>
    <v>       0.25000000       0.25000000       0.50000000 </v>
    <v>       0.25000000       0.75000000       0.00000000 </v>
    <v>       0.25000000       0.75000000       0.50000000 </v>
    <v>       0.75000000       0.25000000       0.00000000 </v>
    <v>       0.75000000       0.25000000       0.50000000 </v>
    <v>       0.75000000       0.75000000       0.00000000 </v>
    <v>       0.75000000       0.75000000       0.50000000 </v>
    <v>       0.12500000       0.12500000       0.12500000 </v>
    <v>       0.12500000       0.12500000       0.62500000 </v>
    <v>       0.12500000       0.62500000       0.12500000 </v>
    <v>       0.12500000       0.62500000       0.62500000 </v>
    <v>       0.62500000       0.12500000       0.12500000 </v>
    <v>       0.62500000       0.12500000       0.62500000 </v>
    <v>       0.62500000       0.62500000       0.12500000 </v>
    <v>       0.62500000       0.62500000       0.62500000 </v>
   </varray>
  </structure>
  <varray name="forces" >
   <v>      -0.00000000      -0.00000000      -0.31230810 </v>
   <v>       0.00000000      -0.00000000      -0.31230810 </v>
   <v>       0.00000000      -0.00000000      -0.31230810 </v>
   <v>       0.00000000       0.00000000      -0.31230810 </v>
   <v>      -0.00000000      -0.00000000      -0.31230810 </v>
   <v>      -0.00000000      -0.00000000      -0.31230810 </v>
   <v>       0.00000000       0.00000000      -0.31230810 </v>
   <v>       0.00000000       0.00000000      -0.31230810 </v>
   <v>       0.00000000       0.00000000       0.31230810 </v>
   <v>      -0.00000000       0.00000000       0.31230810 </v>
   <v>       0.00000000       0.00000000       0.31230810 </v>
   <v>      -0.00000000       0.00000000       0.31230810 </v>
   <v>      -0.00000000       0.00000000       0.31230810 </v>
   <v>      -0.00000000       0.00000000       0.31230810 </v>
   <v>       0.00000000      -0.00000000       0.31230810 </v>
   <v>       0.00000000       0.00000000       0.31230810 </v>
   <v>      -0.00000000      -0.00000000      -0.31230810 </v>
   <v>      -0.00000000       0.00000000      -0.31230810 </v>
   <v>      -0.00000000      -0.00000000      -0.31230810 </v>
   <v>       0.00000000      -0.00000000      -0.31230810 </v>
   <v>      -0.00000000       0.00000000      -0.31230810 </v>
   <v>       0.00000000       0.00000000      -0.31230810 </v>
   <v>      -0.00000000       0.00000000      -0.31230810 </v>
   <v>       0.00000000       0.00000000      -0.31230810 </v>
   <v>       0.00000000      -0.00000000       0.31230810 </v>
   <v>       0.00000000      -0.00000000       0.31230810 </v>
   <v>      -0.00000000      -0.00000000       0.31230810 </v>
   <v>      -0.00000000      -0.00000000       0.31230810 </v>
   <v>       0.00000000       0.00000000       0.31230810 </v>
   <v>       0.00000000      -0.00000000       0.31230810 </v>
   <v>      -0.00000000       0.00000000       0.31230810 </v>
   <v>       0.00000000      -0.00000000       0.31230810 </v>
   <v>       0.00000000       0.00000000      -0.31230810 </v>
   <v>       0.00000000      -0.00000000      -0.31230810 </v>
   <v>      -0.00000000       0.00000000      -0.31230810 </v>
   <v>       0.00000000       0.00000000      -0.31230810 </v>
   <v>       0.00000000      -0.00000000      -0.31230810 </v>
   <v>      -0.00000000      -0.00000000      -0.31230810 </v>
   <v>       0.00000000      -0.00000000      -0.31230810 </v>
   <v>       0.00000000       0.00000000      -0.31230810 </v>
   <v>       0.00000000       0.00000000       0.31230810 </v>
   <v>      -0.00000000       0.00000000       0.31230810 </v>
   <v>       0.00000000      -0.00000000       0.31230810 </v>
   <v>       0.00000000       0.00000000       0.31230810 </v>
   <v>      -0.00000000       0.00000000       0.31230810 </v>
   <v>      -0.00000000       0.00000000       0.31230810 </v>
   <v>      -0.00000000      -0.00000000       0.31230810 </v>
   <v>       0.00000000       0.00000000       0.31230810 </v>
   <v>      -0.00000000      -0.00000000      -0.31230810 </v>
   <v>       0.00000000      -0.00000000      -0.31230810 </v>
   <v>       0.00000000       0.00000000      -0.31230810 </v>
   <v>       0.00000000       0.00000000      -0.31230810 </v>
   <v>      -0.00000000      -0.00000000      -0.31230810 </v>
   <v>       0.00000000       0.00000000      -0.31230810 </v>
   <v>       0.00000000       0.00000000      -0.31230810 </v>
   <v>      -0.00000000       0.00000000      -0.31230810 </v>
   <v>       0.00000000       0.00000000       0.31230810 </v>
   <v>       0.00000000       0.00000000       0.31230810 </v>
   <v>       0.00000000       0.00000000       0.31230810 </v>
   <v>      -0.00000000      -0.00000000       0.31230810 </v>
   <v>       0.00000000      -0.00000000       0.31230810 </v>
   <v>      -0.00000000      -0.00000000       0.31230810 </v>
   <v>       0.00000000      -0.00000000       0.31230810 </v>
   <v>      -0.00000000      -0.00000000       0.31230810 </v>
  </varray>
  <varray name="stress" >
   <v>     137.27426471      27.77728354       0.00000000 </v>
   <v>      27.77728354     123.03915812       0.00000000 </v>
   <v>       0.00000000       0.00000000     122.86309414 </v>
  </varray>
  <energy>
   <i name="e_fr_energy">   -362.53647146 </i>
   <i name="e_wo_entrp">   -362.55212209 </i>
   <i name="e_0_energy">   -362.54168833 </i>
  </energy>
  <time name="totalsc">   27.67   28.16</time>
 </calculation>
 <calculation>
  <scstep>
   <time name="dav">    1.28    1.29</time>
   <time name="total">    1.68    1.69</time>
   <energy>
    <i name="alphaZ">    119.59728838 </i>
    <i name="ewald">  -7576.24661864 </i>
    <i name="hartreedc">   -428.56848209 </i>
    <i name="XCdc">   -524.42585843 </i>
    <i name="pawpsdc">  34953.88296841 </i>
    <i name="pawaedc"> -33857.17108999 </i>
    <i name="eentropy">      0.01136874 </i>
    <i name="bandstr">    385.53551198 </i>
    <i name="atom">   6564.79586099 </i>
    <i name="e_fr_energy">   -362.58905064 </i>
    <i name="e_wo_entrp">   -362.60041938 </i>
    <i name="e_0_energy">   -362.59284022 </i>
   </energy>
  </scstep>
  <scstep>
   <time name="diag">    0.13    0.13</time>
   <time name="diis">    0.70    0.70</time>
   <time name="orth">    0.02    0.02</time>
   <time name="total">    1.24    1.26</time>
   <energy>
    <i name="e_fr_energy">   -362.60728563 </i>
    <i name="e_wo_entrp">   -362.61876468 </i>
    <i name="e_0_energy">   -362.61111198 </i>
   </energy>
  </scstep>
  <scstep>
   <time name="diag">    0.13    0.13</time>
   <time name="diis">    0.70    0.71</time>
   <time name="orth">    0.02    0.02</time>
   <time name="total">    1.25    1.28</time>
   <energy>
    <i name="e_fr_energy">   -362.60843728 </i>
    <i name="e_wo_entrp">   -362.62020860 </i>
    <i name="e_0_energy">   -362.61236106 </i>
   </energy>
  </scstep>
  <scstep>
   <time name="diag">    0.13    0.13</time>
   <time name="diis">    0.70    0.70</time>
   <time name="orth">    0.02    0.02</time>
   <time name="total">    1.25    1.27</time>
   <energy>
    <i name="e_fr_energy">   -362.60827294 </i>
    <i name="e_wo_entrp">   -362.62022241 </i>
    <i name="e_0_energy">   -362.61225609 </i>
   </energy>
  </scstep>
  <scstep>
   <time name="diag">    0.13    0.13</time>
   <time name="diis">    0.74    0.75</time>
   <time name="orth">    0.02    0.02</time>
   <time name="total">    1.30    1.33</time>
   <energy>
    <i name="e_fr_energy">   -362.60830492 </i>
    <i name="e_wo_entrp">   -362.62031262 </i>
    <i name="e_0_energy">   -362.61230749 </i>
   </energy>
  </scstep>
  <scstep>
   <time name="diag">    0.13    0.13</time>
   <time name="diis">    0.74    0.74</time>
   <time name="orth">    0.02    0.02</time>
   <time name="total">    1.30    1.31</time>
   <energy>
    <i name="e_fr_energy">   -362.60832102 </i>
    <i name="e_wo_entrp">   -362.62032570 </i>
    <i name="e_0_energy">   -362.61232258 </i>
   </energy>
  </scstep>
  <scstep>
   <time name="diag">    0.13    0.13</time>
   <time name="diis">    0.71    0.72</time>
   <time name="orth">    0.02    0.02</time>
   <time name="total">    1.26    1.28</time>
   <energy>
    <i name="e_fr_energy">   -362.60832346 </i>
    <i name="e_wo_entrp">   -362.62032759 </i>
    <i name="e_0_energy">   -362.61232484 </i>
   </energy>
  </scstep>
  <scstep>
   <time name="diag">    0.13    0.13</time>
   <time name="diis">    0.53    0.53</time>
   <time name="orth">    0.02    0.02</time>
   <time name="total">    0.84    0.85</time>
   <energy>
    <i name="alphaZ">    119.59728838 </i>
    <i name="ewald">  -7576.24661864 </i>
    <i name="hartreedc">   -428.16093040 </i>
    <i name="XCdc">   -524.48509992 </i>
    <i name="pawpsdc">  34884.95496073 </i>
    <i name="pawaedc"> -33788.20859194 </i>
    <i name="eentropy">      0.01200438 </i>
    <i name="bandstr">    385.13280253 </i>
    <i name="atom">   6564.79586099 </i>
    <i name="e_fr_energy">   -362.60832388 </i>
    <i name="e_wo_entrp">   -362.62032826 </i>
    <i name="e_0_energy">   -362.61232534 </i>
   </energy>
  </scstep>
  <structure>
   <crystal>
    <varray name="basis" >
     <v>      10.34577853      -0.10556902       0.00000000 </v>
     <v>      -0.10556902      10.55691756       0.00000000 </v>
     <v>       0.00000000       0.00000000      10.55691756 </v>
    </varray>
    <i name="volume">   1152.90392972 </i>
    <varray name="rec_basis" >
     <v>       0.09666765       0.00096667       0.00000000 </v>
     <v>       0.00096667       0.09473429       0.00000000 </v>
     <v>       0.00000000       0.00000000       0.09472462 </v>
    </varray>
   </crystal>
   <varray name="positions" >
    <v>       1.00000000       1.00000000       0.99857282 </v>
    <v>       0.00000000       1.00000000       0.49857282 </v>
    <v>       0.00000000       0.50000000       0.99857282 </v>
    <v>       0.00000000       0.50000000       0.49857282 </v>
    <v>       0.50000000       1.00000000       0.99857282 </v>
    <v>       0.50000000       1.00000000       0.49857282 </v>
    <v>       0.50000000       0.50000000       0.99857282 </v>
    <v>       0.50000000       0.50000000       0.49857282 </v>
    <v>       0.37500000       0.37500000       0.12642718 </v>
    <v>       0.37500000       0.37500000       0.62642718 </v>
    <v>       0.37500000       0.87500000       0.12642718 </v>
    <v>       0.37500000       0.87500000       0.62642718 </v>
    <v>       0.87500000       0.37500000       0.12642718 </v>
    <v>       0.87500000       0.37500000       0.62642718 </v>
    <v>       0.87500000       0.87500000       0.12642718 </v>
    <v>       0.87500000       0.87500000       0.62642718 </v>
    <v>       1.00000000       0.25000000       0.24857282 </v>
    <v>       1.00000000       0.25000000       0.74857282 </v>
    <v>       1.00000000       0.75000000       0.24857282 </v>
    <v>       0.00000000       0.75000000       0.74857282 </v>
    <v>       0.50000000       0.25000000       0.24857282 </v>
    <v>       0.50000000       0.25000000       0.74857282 </v>
    <v>       0.50000000       0.75000000       0.24857282 </v>
    <v>       0.50000000       0.75000000       0.74857282 </v>
    <v>       0.37500000       0.12500000       0.37642718 </v>
    <v>       0.37500000       0.12500000       0.87642718 </v>
    <v>       0.37500000       0.62500000       0.37642718 </v>
    <v>       0.37500000       0.62500000       0.87642718 </v>
    <v>       0.87500000       0.12500000       0.37642718 </v>
    <v>       0.87500000       0.12500000       0.87642718 </v>
    <v>       0.87500000       0.62500000       0.37642718 </v>
    <v>       0.87500000       0.62500000       0.87642718 </v>
    <v>       0.25000000       0.00000000       0.24857282 </v>
    <v>       0.25000000       1.00000000       0.74857282 </v>
    <v>       0.25000000       0.50000000       0.24857282 </v>
    <v>       0.25000000       0.50000000       0.74857282 </v>
    <v>       0.75000000       1.00000000       0.24857282 </v>
    <v>       0.75000000       1.00000000       0.74857282 </v>
    <v>       0.75000000       0.50000000       0.24857282 </v>
    <v>       0.75000000       0.50000000       0.74857282 </v>
    <v>       0.12500000       0.37500000       0.37642718 </v>
    <v>       0.12500000       0.37500000       0.87642718 </v>
    <v>       0.12500000       0.87500000       0.37642718 </v>
    <v>       0.12500000       0.87500000       0.87642718 </v>
    <v>       0.62500000       0.37500000       0.37642718 </v>
    <v>       0.62500000       0.37500000       0.87642718 </v>
    <v>       0.62500000       0.87500000       0.37642718 </v>
    <v>       0.62500000       0.87500000       0.87642718 </v>
    <v>       0.25000000       0.25000000       0.99857282 </v>
    <v>       0.25000000       0.25000000       0.49857282 </v>
    <v>       0.25000000       0.75000000       0.99857282 </v>
    <v>       0.25000000       0.75000000       0.49857282 </v>
    <v>       0.75000000       0.25000000       0.99857282 </v>
    <v>       0.75000000       0.25000000       0.49857282 </v>
    <v>       0.75000000       0.75000000       0.99857282 </v>
    <v>       0.75000000       0.75000000       0.49857282 </v>
    <v>       0.12500000       0.12500000       0.12642718 </v>
    <v>       0.12500000       0.12500000       0.62642718 </v>
    <v>       0.12500000       0.62500000       0.12642718 </v>
    <v>       0.12500000       0.62500000       0.62642718 </v>
    <v>       0.62500000       0.12500000       0.12642718 </v>
    <v>       0.62500000       0.12500000       0.62642718 </v>
    <v>       0.62500000       0.62500000       0.12642718 </v>
    <v>       0.62500000       0.62500000       0.62642718 </v>
   </varray>
  </structure>
  <varray name="forces" >
   <v>       0.00000000       0.00000000       0.16495946 </v>
   <v>       0.00000000       0.00000000       0.16495946 </v>
   <v>      -0.00000000       0.00000000       0.16495946 </v>
   <v>       0.00000000       0.00000000       0.16495946 </v>
   <v>       0.00000000       0.00000000       0.16495946 </v>
   <v>       0.00000000       0.00000000       0.16495946 </v>
   <v>      -0.00000000      -0.00000000       0.16495946 </v>
   <v>       0.00000000       0.00000000       0.16495946 </v>
   <v>       0.00000000      -0.00000000      -0.16495946 </v>
   <v>       0.00000000      -0.00000000      -0.16495946 </v>
   <v>      -0.00000000      -0.00000000      -0.16495946 </v>
   <v>      -0.00000000      -0.00000000      -0.16495946 </v>
   <v>       0.00000000      -0.00000000      -0.16495946 </v>
   <v>       0.00000000      -0.00000000      -0.16495946 </v>
   <v>      -0.00000000      -0.00000000      -0.16495946 </v>
   <v>      -0.00000000       0.00000000      -0.16495946 </v>
   <v>       0.00000000      -0.00000000       0.16495946 </v>
   <v>       0.00000000       0.00000000       0.16495946 </v>
   <v>      -0.00000000       0.00000000       0.16495946 </v>
   <v>      -0.00000000       0.00000000       0.16495946 </v>
   <v>       0.00000000      -0.00000000       0.16495946 </v>
   <v>       0.00000000       0.00000000       0.16495946 </v>
   <v>      -0.00000000      -0.00000000       0.16495946 </v>
   <v>      -0.00000000       0.00000000       0.16495946 </v>
   <v>      -0.00000000       0.00000000      -0.16495946 </v>
   <v>      -0.00000000       0.00000000      -0.16495946 </v>
   <v>      -0.00000000      -0.00000000      -0.16495946 </v>
   <v>       0.00000000      -0.00000000      -0.16495946 </v>
   <v>      -0.00000000      -0.00000000      -0.16495946 </v>
   <v>       0.00000000       0.00000000      -0.16495946 </v>
   <v>      -0.00000000      -0.00000000      -0.16495946 </v>
   <v>       0.00000000       0.00000000      -0.16495946 </v>
   <v>      -0.00000000       0.00000000       0.16495946 </v>
   <v>      -0.00000000      -0.00000000       0.16495946 </v>
   <v>      -0.00000000       0.00000000       0.16495946 </v>
   <v>      -0.00000000       0.00000000       0.16495946 </v>
   <v>      -0.00000000      -0.00000000       0.16495946 </v>
   <v>       0.00000000       0.00000000       0.16495946 </v>
   <v>       0.00000000      -0.00000000       0.16495946 </v>
   <v>       0.00000000       0.00000000       0.16495946 </v>
   <v>       0.00000000      -0.00000000      -0.16495946 </v>
   <v>       0.00000000      -0.00000000      -0.16495946 </v>
   <v>      -0.00000000       0.00000000      -0.16495946 </v>
   <v>       0.00000000      -0.00000000      -0.16495946 </v>
   <v>       0.00000000      -0.00000000      -0.16495946 </v>
   <v>      -0.00000000      -0.00000000      -0.16495946 </v>
   <v>      -0.00000000       0.00000000      -0.16495946 </v>
   <v>      -0.00000000      -0.00000000      -0.16495946 </v>
   <v>       0.00000000      -0.00000000       0.16495946 </v>
   <v>       0.00000000       0.00000000       0.16495946 </v>
   <v>      -0.00000000      -0.00000000       0.16495946 </v>
   <v>      -0.00000000      -0.00000000       0.16495946 </v>
   <v>       0.00000000       0.00000000       0.16495946 </v>
   <v>       0.00000000      -0.00000000       0.16495946 </v>
   <v>      -0.00000000      -0.00000000       0.16495946 </v>
   <v>      -0.00000000      -0.00000000       0.16495946 </v>
   <v>       0.00000000       0.00000000      -0.16495946 </v>
   <v>      -0.00000000       0.00000000      -0.16495946 </v>
   <v>      -0.00000000      -0.00000000      -0.16495946 </v>
   <v>      -0.00000000       0.00000000      -0.16495946 </v>
   <v>       0.00000000       0.00000000      -0.16495946 </v>
   <v>       0.00000000       0.00000000      -0.16495946 </v>
   <v>       0.00000000      -0.00000000      -0.16495946 </v>
   <v>       0.00000000      -0.00000000      -0.16495946 </v>
  </varray>
  <varray name="stress" >
   <v>     136.03460139       6.84272071       0.00000000 </v>
   <v>       6.84272073     122.13419724       0.00000000 </v>
   <v>       0.00000000       0.00000000     121.40036310 </v>
  </varray>
  <energy>
   <i name="e_fr_energy">   -362.60832388 </i>
   <i name="e_wo_entrp">   -362.62032826 </i>
   <i name="e_0_energy">   -362.61232534 </i>
  </energy>
  <time name="totalsc">   13.86   14.03</time>
 </calculation>
 <calculation>
  <scstep>
   <time name="dav">    1.24    1.24</time>
   <time name="total">    1.63    1.64</time>
   <energy>
    <i name="alphaZ">    119.59728838 </i>
    <i name="ewald">  -7575.91097788 </i>
    <i name="hartreedc">   -428.36606679 </i>
    <i name="XCdc">   -524.47508368 </i>
    <i name="pawpsdc">  34881.72248659 </i>
    <i name="pawaedc"> -33784.97598364 </i>
    <i name="eentropy">      0.01394345 </i>
    <i name="bandstr">    384.96513409 </i>
    <i name="atom">   6564.79586099 </i>
    <i name="e_fr_energy">   -362.63339848 </i>
    <i name="e_wo_entrp">   -362.64734194 </i>
    <i name="e_0_energy">   -362.63804630 </i>
   </energy>
  </scstep>
  <scstep>
   <time name="diag">    0.13    0.13</time>
   <time name="diis">    0.69    0.69</time>
   <time name="orth">    0.02    0.02</time>
   <time name="total">    1.24    1.26</time>
   <energy>
    <i name="e_fr_energy">   -362.63548650 </i>
    <i name="e_wo_entrp">   -362.64941028 </i>
    <i name="e_0_energy">   -362.64012776 </i>
   </energy>
  </scstep>
  <scstep>
   <time name="diag">    0.13    0.13</time>
   <time name="diis">    0.71    0.71</time>
   <time name="orth">    0.02    0.02</time>
   <time name="total">    1.25    1.27</time>
   <energy>
    <i name="e_fr_energy">   -362.63561537 </i>
    <i name="e_wo_entrp">   -362.64948002 </i>
    <i name="e_0_energy">   -362.64023692 </i>
   </energy>
  </scstep>
  <scstep>
   <time name="diag">    0.13    0.13</time>
   <time name="diis">    0.70    0.70</time>
   <time name="orth">    0.02    0.02</time>
   <time name="total">    1.25    1.26</time>
   <energy>
    <i name="e_fr_energy">   -362.63559945 </i>
    <i name="e_wo_entrp">   -362.64942849 </i>
    <i name="e_0_energy">   -362.64020913 </i>
   </energy>
  </scstep>
  <scstep>
   <time name="diag">    0.13    0.13</time>
   <time name="diis">    0.71    0.71</time>
   <time name="orth">    0.02    0.02</time>
   <time name="total">    1.26    1.27</time>
   <energy>
    <i name="e_fr_energy">   -362.63560310 </i>
    <i name="e_wo_entrp">   -362.64942012 </i>
    <i name="e_0_energy">   -362.64020878 </i>
   </energy>
  </scstep>
  <scstep>
   <time name="diag">    0.13    0.13</time>
   <time name="diis">    0.69    0.69</time>
   <time name="orth">    0.02    0.02</time>
   <time name="total">    1.24    1.26</time>
   <energy>
    <i name="e_fr_energy">   -362.63560488 </i>
    <i name="e_wo_entrp">   -362.64942254 </i>
    <i name="e_0_energy">   -362.64021076 </i>
   </energy>
  </scstep>
  <scstep>
   <time name="diag">    0.13    0.13</time>
   <time name="diis">    0.49    0.49</time>
   <time name="orth">    0.02    0.02</time>
   <time name="total">    1.05    1.07</time>
   <energy>
    <i name="e_fr_energy">   -362.63560514 </i>
    <i name="e_wo_entrp">   -362.64942323 </i>
    <i name="e_0_energy">   -362.64021117 </i>
   </energy>
  </scstep>
  <scstep>
   <time name="diag">    0.13    0.13</time>
   <time name="diis">    0.44    0.44</time>
   <time name="orth">    0.02    0.02</time>
   <time name="total">    0.76    0.76</time>
   <energy>
    <i name="alphaZ">    119.59728838 </i>
    <i name="ewald">  -7575.91097788 </i>
    <i name="hartreedc">   -428.53895312 </i>
    <i name="XCdc">   -524.45233324 </i>
    <i name="pawpsdc">  34906.21484653 </i>
    <i name="pawaedc"> -33809.47903134 </i>
    <i name="eentropy">      0.01381810 </i>
    <i name="bandstr">    385.12387633 </i>
    <i name="atom">   6564.79586099 </i>
    <i name="e_fr_energy">   -362.63560524 </i>
    <i name="e_wo_entrp">   -362.64942334 </i>
    <i name="e_0_energy">   -362.64021127 </i>
   </energy>
  </scstep>
  <structure>
   <crystal>
    <varray name="basis" >
     <v>      10.34577853      -0.10556902       0.00000000 </v>
     <v>      -0.10556902      10.55691756       0.00000000 </v>
     <v>       0.00000000       0.00000000      10.55691756 </v>
    </varray>
    <i name="volume">   1152.90392972 </i>
    <varray name="rec_basis" >
     <v>       0.09666765       0.00096667       0.00000000 </v>
     <v>       0.00096667       0.09473429       0.00000000 </v>
     <v>       0.00000000       0.00000000       0.09472462 </v>
    </varray>
   </crystal>
   <varray name="positions" >
    <v>       0.00000000       0.00000000       0.99906270 </v>
    <v>       0.00000000       0.00000000       0.49906270 </v>
    <v>       0.00000000       0.50000000       0.99906270 </v>
    <v>       0.00000000       0.50000000       0.49906270 </v>
    <v>       0.50000000       0.00000000       0.99906270 </v>
    <v>       0.50000000       0.00000000       0.49906270 </v>
    <v>       0.50000000       0.50000000       0.99906270 </v>
    <v>       0.50000000       0.50000000       0.49906270 </v>
    <v>       0.37500000       0.37500000       0.12593730 </v>
    <v>       0.37500000       0.37500000       0.62593730 </v>
    <v>       0.37500000       0.87500000       0.12593730 </v>
    <v>       0.37500000       0.87500000       0.62593730 </v>
    <v>       0.87500000       0.37500000       0.12593730 </v>
    <v>       0.87500000       0.37500000       0.62593730 </v>
    <v>       0.87500000       0.87500000       0.12593730 </v>
    <v>       0.87500000       0.87500000       0.62593730 </v>
    <v>       0.00000000       0.25000000       0.24906270 </v>
    <v>       0.00000000       0.25000000       0.74906270 </v>
    <v>       0.00000000       0.75000000       0.24906270 </v>
    <v>       0.00000000       0.75000000       0.74906270 </v>
    <v>       0.50000000       0.25000000       0.24906270 </v>
    <v>       0.50000000       0.25000000       0.74906270 </v>
    <v>       0.50000000       0.75000000       0.24906270 </v>
    <v>       0.50000000       0.75000000       0.74906270 </v>
    <v>       0.37500000       0.12500000       0.37593730 </v>
    <v>       0.37500000       0.12500000       0.87593730 </v>
    <v>       0.37500000       0.62500000       0.37593730 </v>
    <v>       0.37500000       0.62500000       0.87593730 </v>
    <v>       0.87500000       0.12500000       0.37593730 </v>
    <v>       0.87500000       0.12500000       0.87593730 </v>
    <v>       0.87500000       0.62500000       0.37593730 </v>
    <v>       0.87500000       0.62500000       0.87593730 </v>
    <v>       0.25000000       0.00000000       0.24906270 </v>
    <v>       0.25000000       0.00000000       0.74906270 </v>
    <v>       0.25000000       0.50000000       0.24906270 </v>
    <v>       0.25000000       0.50000000       0.74906270 </v>
    <v>       0.75000000       0.00000000       0.24906270 </v>
    <v>       0.75000000       0.00000000       0.74906270 </v>
    <v>       0.75000000       0.50000000       0.24906270 </v>
    <v>       0.75000000       0.50000000       0.74906270 </v>
    <v>       0.12500000       0.37500000       0.37593730 </v>
    <v>       0.12500000       0.37500000       0.87593730 </v>
    <v>       0.12500000       0.87500000       0.37593730 </v>
    <v>       0.12500000       0.87500000       0.87593730 </v>
    <v>       0.62500000       0.37500000       0.37593730 </v>
    <v>       0.62500000       0.37500000       0.87593730 </v>
    <v>       0.62500000       0.87500000       0.37593730 </v>
    <v>       0.62500000       0.87500000       0.87593730 </v>
    <v>       0.25000000       0.25000000       0.99906270 </v>
    <v>       0.25000000       0.25000000       0.49906270 </v>
    <v>       0.25000000       0.75000000       0.99906270 </v>
    <v>       0.25000000       0.75000000       0.49906270 </v>
    <v>       0.75000000       0.25000000       0.99906270 </v>
    <v>       0.75000000       0.25000000       0.49906270 </v>
    <v>       0.75000000       0.75000000       0.99906270 </v>
    <v>       0.75000000       0.75000000       0.49906270 </v>
    <v>       0.12500000       0.12500000       0.12593730 </v>
    <v>       0.12500000       0.12500000       0.62593730 </v>
    <v>       0.12500000       0.62500000       0.12593730 </v>
    <v>       0.12500000       0.62500000       0.62593730 </v>
    <v>       0.62500000       0.12500000       0.12593730 </v>
    <v>       0.62500000       0.12500000       0.62593730 </v>
    <v>       0.62500000       0.62500000       0.12593730 </v>
    <v>       0.62500000       0.62500000       0.62593730 </v>
   </varray>
  </structure>
  <varray name="forces" >
   <v>       0.00000000      -0.00000000       0.00022021 </v>
   <v>      -0.00000000       0.00000000       0.00022021 </v>
   <v>       0.00000000      -0.00000000       0.00022021 </v>
   <v>       0.00000000      -0.00000000       0.00022021 </v>
   <v>       0.00000000      -0.00000000       0.00022021 </v>
   <v>      -0.00000000      -0.00000000       0.00022021 </v>
   <v>       0.00000000      -0.00000000       0.00022021 </v>
   <v>       0.00000000      -0.00000000       0.00022021 </v>
   <v>       0.00000000       0.00000000      -0.00022021 </v>
   <v>       0.00000000       0.00000000      -0.00022021 </v>
   <v>       0.00000000       0.00000000      -0.00022021 </v>
   <v>      -0.00000000       0.00000000      -0.00022021 </v>
   <v>      -0.00000000       0.00000000      -0.00022021 </v>
   <v>      -0.00000000       0.00000000      -0.00022021 </v>
   <v>      -0.00000000       0.00000000      -0.00022021 </v>
   <v>      -0.00000000      -0.00000000      -0.00022021 </v>
   <v>      -0.00000000       0.00000000       0.00022021 </v>
   <v>      -0.00000000      -0.00000000       0.00022021 </v>
   <v>      -0.00000000       0.00000000       0.00022021 </v>
   <v>      -0.00000000       0.00000000       0.00022021 </v>
   <v>       0.00000000       0.00000000       0.00022021 </v>
   <v>       0.00000000       0.00000000       0.00022021 </v>
   <v>       0.00000000       0.00000000       0.00022021 </v>
   <v>       0.00000000      -0.00000000       0.00022021 </v>
   <v>       0.00000000       0.00000000      -0.00022021 </v>
   <v>       0.00000000       0.00000000      -0.00022021 </v>
   <v>       0.00000000      -0.00000000      -0.00022021 </v>
   <v>       0.00000000      -0.00000000      -0.00022021 </v>
   <v>      -0.00000000       0.00000000      -0.00022021 </v>
   <v>      -0.00000000       0.00000000      -0.00022021 </v>
   <v>       0.00000000      -0.00000000      -0.00022021 </v>
   <v>       0.00000000      -0.00000000      -0.00022021 </v>
   <v>      -0.00000000      -0.00000000       0.00022021 </v>
   <v>      -0.00000000      -0.00000000       0.00022021 </v>
   <v>       0.00000000      -0.00000000       0.00022021 </v>
   <v>       0.00000000      -0.00000000       0.00022021 </v>
   <v>      -0.00000000      -0.00000000       0.00022021 </v>
   <v>      -0.00000000      -0.00000000       0.00022021 </v>
   <v>       0.00000000      -0.00000000       0.00022021 </v>
   <v>       0.00000000      -0.00000000       0.00022021 </v>
   <v>       0.00000000       0.00000000      -0.00022021 </v>
   <v>      -0.00000000       0.00000000      -0.00022021 </v>
   <v>      -0.00000000       0.00000000      -0.00022021 </v>
   <v>      -0.00000000       0.00000000      -0.00022021 </v>
   <v>       0.00000000       0.00000000      -0.00022021 </v>
   <v>       0.00000000       0.00000000      -0.00022021 </v>
   <v>      -0.00000000       0.00000000      -0.00022021 </v>
   <v>      -0.00000000       0.00000000      -0.00022021 </v>
   <v>      -0.00000000       0.00000000       0.00022021 </v>
   <v>      -0.00000000       0.00000000       0.00022021 </v>
   <v>      -0.00000000       0.00000000       0.00022021 </v>
   <v>      -0.00000000       0.00000000       0.00022021 </v>
   <v>      -0.00000000       0.00000000       0.00022021 </v>
   <v>      -0.00000000      -0.00000000       0.00022021 </v>
   <v>      -0.00000000       0.00000000       0.00022021 </v>
   <v>       0.00000000       0.00000000       0.00022021 </v>
   <v>      -0.00000000       0.00000000      -0.00022021 </v>
   <v>      -0.00000000       0.00000000      -0.00022021 </v>
   <v>       0.00000000      -0.00000000      -0.00022021 </v>
   <v>       0.00000000      -0.00000000      -0.00022021 </v>
   <v>       0.00000000       0.00000000      -0.00022021 </v>
   <v>       0.00000000       0.00000000      -0.00022021 </v>
   <v>       0.00000000      -0.00000000      -0.00022021 </v>
   <v>       0.00000000      -0.00000000      -0.00022021 </v>
  </varray>
  <varray name="stress" >
   <v>     136.31035863      14.04674395       0.00000000 </v>
   <v>      14.04674397     122.28537581       0.00000000 </v>
   <v>       0.00000000       0.00000000     121.93856376 </v>
  </varray>
  <energy>
   <i name="e_fr_energy">   -362.63560524 </i>
   <i name="e_wo_entrp">   -362.64942334 </i>
   <i name="e_0_energy">   -362.64021127 </i>
  </energy>
  <time name="totalsc">   13.26   13.40</time>
  <eigenvalues>
   <array>
    <dimension dim="1">band</dimension>
    <dimension dim="2">kpoint</dimension>
    <dimension dim="3">spin</dimension>
    <field>eigene</field>
    <field>occ</field>
    <set>
     <set comment="spin 1">
      <set comment="kpoint 1">
       <r>   -5.8399    1.0000 </r>
       <r>   -4.6660    1.0000 </r>
       <r>   -4.6660    1.0000 </r>
       <r>   -4.6655    1.0000 </r>
       <r>   -4.6655    1.0000 </r>
       <r>   -4.6232    1.0000 </r>
       <r>   -4.6232    1.0000 </r>
       <r>   -3.6162    1.0000 </r>
       <r>   -3.6161    1.0000 </r>
       <r>   -3.5975    1.0000 </r>
       <r>   -3.5974    1.0000 </r>
       <r>   -3.5974    1.0000 </r>
       <r>   -3.5974    1.0000 </r>
       <r>   -3.5660    1.0000 </r>
       <r>   -3.5660    1.0000 </r>
       <r>   -3.5660    1.0000 </r>
       <r>   -3.5660    1.0000 </r>
       <r>   -3.5147    1.0000 </r>
       <r>   -3.5147    1.0000 </r>
       <r>   -3.2580    1.0000 </r>
       <r>   -3.2580    1.0000 </r>
       <r>   -3.1539    1.0000 </r>
       <r>   -3.1539    1.0000 </r>
       <r>   -1.3494    1.0000 </r>
       <r>   -1.3255    1.0000 </r>
       <r>   -1.3255    1.0000 </r>
       <r>   -1.3064    1.0000 </r>
       <r>   -1.1864    1.0000 </r>
       <r>   -1.1864    1.0000 </r>
       <r>   -1.1368    1.0000 </r>
       <r>   -1.1368    1.0000 </r>
       <r>   -1.0898    1.0000 </r>
       <r>   -1.0898    1.0000 </r>
       <r>   -1.0399    1.0000 </r>
       <r>   -1.0399    1.0000 </r>
       <r>   -1.0399    1.0000 </r>
       <r>   -1.0399    1.0000 </r>
       <r>   -1.0341    1.0000 </r>
       <r>   -1.0341    1.0000 </r>
       <r>   -0.9927    1.0000 </r>
       <r>   -0.9927    1.0000 </r>
       <r>   -0.6715    1.0000 </r>
       <r>   -0.6715    1.0000 </r>
       <r>   -0.6048    1.0000 </r>
       <r>   -0.6048    1.0000 </r>
       <r>    1.1490    1.0000 </r>
       <r>    1.1490    1.0000 </r>
       <r>    1.1750    1.0000 </r>
       <r>    1.1750    1.0000 </r>
       <r>    1.1750    1.0000 </r>
       <r>    1.1750    1.0000 </r>
       <r>    1.2056    1.0000 </r>
       <r>    1.2056    1.0000 </r>
       <r>    1.2609    1.0000 </r>
       <r>    1.2609    1.0000 </r>
       <r>    1.2609    1.0000 </r>
       <r>    1.2609    1.0000 </r>
       <r>    2.4929    1.0000 </r>
       <r>    2.4929    1.0000 </r>
       <r>    2.5075    1.0000 </r>
       <r>    2.5075    1.0000 </r>
       <r>    2.5403    1.0000 </r>
       <r>    2.5403    1.0000 </r>
       <r>    2.5403    1.0000 </r>
       <r>    2.5403    1.0000 </r>
       <r>    2.5533    1.0000 </r>
       <r>    2.5533    1.0000 </r>
       <r>    2.5741    1.0000 </r>
       <r>    2.5741    1.0000 </r>
       <r>    2.6245    1.0000 </r>
       <r>    2.6245    1.0000 </r>
       <r>    2.6495    1.0000 </r>
       <r>    2.6495    1.0000 </r>
       <r>    2.6495    1.0000 </r>
       <r>    2.6495    1.0000 </r>
       <r>    2.6639    1.0000 </r>
       <r>    2.6639    1.0000 </r>
       <r>    2.7741    1.0000 </r>
       <r>    2.7741    1.0000 </r>
       <r>    2.7741    1.0000 </r>
       <r>    2.7741    1.0000 </r>
       <r>    3.3446    1.0000 </r>
       <r>    3.3446    1.0000 </r>
       <r>    3.3486    1.0000 </r>
       <r>    3.3486    1.0000 </r>
       <r>    3.5076    1.0000 </r>
       <r>    3.5076    1.0000 </r>
       <r>    3.6397    1.0000 </r>
       <r>    3.6397    1.0000 </r>
       <r>    3.6546    1.0000 </r>
       <r>    3.8110    1.0000 </r>
       <r>    3.8110    1.0000 </r>
       <r>    3.9721    1.0000 </r>
       <r>    4.6935    1.0000 </r>
       <r>    4.6935    1.0000 </r>
       <r>    4.7128    1.0000 </r>
       <r>    4.7128    1.0000 </r>
       <r>    4.7166    1.0000 </r>
       <r>    4.7166    1.0000 </r>
       <r>    4.8226    1.0000 </r>
       <r>    4.8227    1.0000 </r>
       <r>    4.8697    1.0000 </r>
       <r>    4.8697    1.0000 </r>
       <r>    5.0028    1.0000 </r>
       <r>    5.0028    1.0000 </r>
       <r>    5.3374    1.0000 </r>
       <r>    5.3374    1.0000 </r>
       <r>    5.3374    1.0000 </r>
       <r>    5.3374    1.0000 </r>
       <r>    5.3975    1.0000 </r>
       <r>    5.3975    1.0000 </r>
       <r>    5.4605    1.0000 </r>
       <r>    5.4606    1.0000 </r>
       <r>    5.5123    1.0000 </r>
       <r>    5.5123    1.0000 </r>
       <r>    5.5123    1.0000 </r>
       <r>    5.5123    1.0000 </r>
       <r>    5.5467    1.0000 </r>
       <r>    5.5467    1.0000 </r>
       <r>    5.6344    1.0000 </r>
       <r>    5.6344    1.0000 </r>
       <r>    5.6472    1.0000 </r>
       <r>    5.6472    1.0000 </r>
       <r>    5.8250    1.0000 </r>
       <r>    5.8250    1.0000 </r>
       <r>    6.7876    1.0351 </r>
       <r>    6.8635    1.0103 </r>
       <r>    7.0963    0.2805 </r>
       <r>    7.1602    0.0847 </r>
       <r>    7.1602    0.0847 </r>
       <r>    7.1630    0.0784 </r>
       <r>    7.3326   -0.0297 </r>
       <r>    7.3326   -0.0297 </r>
       <r>    7.5047   -0.0026 </r>
       <r>    7.7281   -0.0000 </r>
       <r>    7.7281   -0.0000 </r>
       <r>    7.8878   -0.0000 </r>
       <r>    7.8878   -0.0000 </r>
       <r>    7.8960   -0.0000 </r>
       <r>    7.8960   -0.0000 </r>
       <r>    8.6307   -0.0000 </r>
       <r>    8.6307   -0.0000 </r>
       <r>    8.8290   -0.0000 </r>
       <r>    8.8290   -0.0000 </r>
       <r>    9.1745   -0.0000 </r>
       <r>    9.1745   -0.0000 </r>
       <r>    9.1745   -0.0000 </r>
       <r>    9.1745   -0.0000 </r>
       <r>    9.2577   -0.0000 </r>
       <r>    9.2577   -0.0000 </r>
       <r>    9.3385   -0.0000 </r>
       <r>    9.3746   -0.0000 </r>
       <r>    9.3746   -0.0000 </r>
       <r>    9.3746   -0.0000 </r>
       <r>    9.3747   -0.0000 </r>
       <r>    9.4688   -0.0000 </r>
       <r>    9.4943   -0.0000 </r>
       <r>    9.4944   -0.0000 </r>
       <r>    9.5817   -0.0000 </r>
       <r>    9.8459   -0.0000 </r>
       <r>    9.8669   -0.0000 </r>
       <r>    9.8748   -0.0000 </r>
      </set>
      <set comment="kpoint 2">
       <r>   -5.5330    1.0000 </r>
       <r>   -5.5330    1.0000 </r>
       <r>   -4.4092    1.0000 </r>
       <r>   -4.4092    1.0000 </r>
       <r>   -4.3833    1.0000 </r>
       <r>   -4.3833    1.0000 </r>
       <r>   -4.3833    1.0000 </r>
       <r>   -4.3833    1.0000 </r>
       <r>   -4.3563    1.0000 </r>
       <r>   -4.3563    1.0000 </r>
       <r>   -3.4579    1.0000 </r>
       <r>   -3.4579    1.0000 </r>
       <r>   -3.4579    1.0000 </r>
       <r>   -3.4579    1.0000 </r>
       <r>   -3.3947    1.0000 </r>
       <r>   -3.3947    1.0000 </r>
       <r>   -3.3947    1.0000 </r>
       <r>   -3.3947    1.0000 </r>
       <r>   -3.1478    1.0000 </r>
       <r>   -3.1478    1.0000 </r>
       <r>   -2.4076    1.0000 </r>
       <r>   -2.4076    1.0000 </r>
       <r>   -2.3424    1.0000 </r>
       <r>   -2.3424    1.0000 </r>
       <r>   -2.3424    1.0000 </r>
       <r>   -2.3424    1.0000 </r>
       <r>   -2.2768    1.0000 </r>
       <r>   -2.2768    1.0000 </r>
       <r>   -1.2540    1.0000 </r>
       <r>   -1.2540    1.0000 </r>
       <r>   -1.2463    1.0000 </r>
       <r>   -1.2463    1.0000 </r>
       <r>   -1.1845    1.0000 </r>
       <r>   -1.1845    1.0000 </r>
       <r>   -1.1724    1.0000 </r>
       <r>   -1.1724    1.0000 </r>
       <r>    0.0479    1.0000 </r>
       <r>    0.0479    1.0000 </r>
       <r>    0.0479    1.0000 </r>
       <r>    0.0479    1.0000 </r>
       <r>    0.0484    1.0000 </r>
       <r>    0.0484    1.0000 </r>
       <r>    0.0542    1.0000 </r>
       <r>    0.0542    1.0000 </r>
       <r>    0.0542    1.0000 </r>
       <r>    0.0542    1.0000 </r>
       <r>    0.0563    1.0000 </r>
       <r>    0.0563    1.0000 </r>
       <r>    0.1457    1.0000 </r>
       <r>    0.1457    1.0000 </r>
       <r>    0.1457    1.0000 </r>
       <r>    0.1457    1.0000 </r>
       <r>    1.1098    1.0000 </r>
       <r>    1.1098    1.0000 </r>
       <r>    2.0766    1.0000 </r>
       <r>    2.0766    1.0000 </r>
       <r>    2.0882    1.0000 </r>
       <r>    2.0882    1.0000 </r>
       <r>    2.0882    1.0000 </r>
       <r>    2.0882    1.0000 </r>
       <r>    2.0976    1.0000 </r>
       <r>    2.0976    1.0000 </r>
       <r>    2.4359    1.0000 </r>
       <r>    2.4359    1.0000 </r>
       <r>    2.4668    1.0000 </r>
       <r>    2.4668    1.0000 </r>
       <r>    2.4668    1.0000 </r>
       <r>    2.4668    1.0000 </r>
       <r>    2.5131    1.0000 </r>
       <r>    2.5131    1.0000 </r>
       <r>    2.9711    1.0000 </r>
       <r>    2.9711    1.0000 </r>
       <r>    3.0660    1.0000 </r>
       <r>    3.0660    1.0000 </r>
       <r>    3.0863    1.0000 </r>
       <r>    3.0863    1.0000 </r>
       <r>    3.1851    1.0000 </r>
       <r>    3.1851    1.0000 </r>
       <r>    3.8136    1.0000 </r>
       <r>    3.8136    1.0000 </r>
       <r>    3.8535    1.0000 </r>
       <r>    3.8535    1.0000 </r>
       <r>    3.8535    1.0000 </r>
       <r>    3.8535    1.0000 </r>
       <r>    3.8787    1.0000 </r>
       <r>    3.8787    1.0000 </r>
       <r>    3.9129    1.0000 </r>
       <r>    3.9129    1.0000 </r>
       <r>    3.9136    1.0000 </r>
       <r>    3.9136    1.0000 </r>
       <r>    3.9976    1.0000 </r>
       <r>    3.9976    1.0000 </r>
       <r>    4.0845    1.0000 </r>
       <r>    4.0845    1.0000 </r>
       <r>    4.0845    1.0000 </r>
       <r>    4.0845    1.0000 </r>
       <r>    4.1742    1.0000 </r>
       <r>    4.1742    1.0000 </r>
       <r>    4.2476    1.0000 </r>
       <r>    4.2476    1.0000 </r>
       <r>    4.2476    1.0000 </r>
       <r>    4.2476    1.0000 </r>
       <r>    4.4221    1.0000 </r>
       <r>    4.4221    1.0000 </r>
       <r>    4.4221    1.0000 </r>
       <r>    4.4221    1.0000 </r>
       <r>    5.2928    1.0000 </r>
       <r>    5.2928    1.0000 </r>
       <r>    5.3556    1.0000 </r>
       <r>    5.3556    1.0000 </r>
       <r>    5.3556    1.0000 </r>
       <r>    5.3556    1.0000 </r>
       <r>    5.3936    1.0000 </r>
       <r>    5.3936    1.0000 </r>
       <r>    5.3936    1.0000 </r>
       <r>    5.3936    1.0000 </r>
       <r>    5.4223    1.0000 </r>
       <r>    5.4223    1.0000 </r>
       <r>    5.4495    1.0000 </r>
       <r>    5.4495    1.0000 </r>
       <r>    5.4495    1.0000 </r>
       <r>    5.4495    1.0000 </r>
       <r>    5.7008    1.0000 </r>
       <r>    5.7008    1.0000 </r>
       <r>    5.9302    1.0000 </r>
       <r>    5.9302    1.0000 </r>
       <r>    5.9879    1.0000 </r>
       <r>    5.9879    1.0000 </r>
       <r>    7.1025    0.2575 </r>
       <r>    7.1025    0.2575 </r>
       <r>    8.0597   -0.0000 </r>
       <r>    8.0597   -0.0000 </r>
       <r>    8.5984   -0.0000 </r>
       <r>    8.5984   -0.0000 </r>
       <r>    8.7675   -0.0000 </r>
       <r>    8.7675   -0.0000 </r>
       <r>    8.7819   -0.0000 </r>
       <r>    8.7819   -0.0000 </r>
       <r>    8.8313   -0.0000 </r>
       <r>    8.8313   -0.0000 </r>
       <r>    9.0178   -0.0000 </r>
       <r>    9.0178   -0.0000 </r>
       <r>    9.2154   -0.0000 </r>
       <r>    9.2154   -0.0000 </r>
       <r>    9.2154   -0.0000 </r>
       <r>    9.2155   -0.0000 </r>
       <r>    9.3204   -0.0000 </r>
       <r>    9.3204   -0.0000 </r>
       <r>    9.3205   -0.0000 </r>
       <r>    9.3208   -0.0000 </r>
       <r>    9.3376   -0.0000 </r>
       <r>    9.3379   -0.0000 </r>
       <r>    9.3852   -0.0000 </r>
       <r>    9.3852   -0.0000 </r>
       <r>    9.3854   -0.0000 </r>
[...]
      </set>
     </set>
    </set>
   </array>
  </eigenvalues>
  <separator name="orbital magnetization" >
   <v name="MAGDIPOLOUT">      0.00000000      0.00000000      0.00000000</v>
  </separator>
  <dos>
   <i name="efermi">      7.04225377 </i>
   <total>
    <array>
     <dimension dim="1">gridpoints</dimension>
     <dimension dim="2">spin</dimension>
     <field>energy</field>
     <field>total</field>
     <field>integrated</field>
     <set>
      <set comment="spin 1">
       <r>    -7.8399     0.0000     0.0000 </r>
       <r>    -7.7725     0.0000     0.0000 </r>
       <r>    -7.7050     0.0000     0.0000 </r>
       <r>    -7.6375     0.0000     0.0000 </r>
       <r>    -7.5700     0.0000     0.0000 </r>
       <r>    -7.5026    -0.0000    -0.0000 </r>
       <r>    -7.4351    -0.0000    -0.0000 </r>
       <r>    -7.3676    -0.0000    -0.0000 </r>
       <r>    -7.3001    -0.0000    -0.0000 </r>
       <r>    -7.2327    -0.0000    -0.0000 </r>
       <r>    -7.1652    -0.0000    -0.0000 </r>
       <r>    -7.0977    -0.0000    -0.0000 </r>
       <r>    -7.0302    -0.0000    -0.0000 </r>
       <r>    -6.9628    -0.0000    -0.0000 </r>
       <r>    -6.8953    -0.0000    -0.0000 </r>
       <r>    -6.8278    -0.0000    -0.0000 </r>
       <r>    -6.7603    -0.0000    -0.0000 </r>
       <r>    -6.6929    -0.0000    -0.0000 </r>
       <r>    -6.6254    -0.0000    -0.0000 </r>
       <r>    -6.5579    -0.0000    -0.0000 </r>
       <r>    -6.4904    -0.0001    -0.0000 </r>
       <r>    -6.4230    -0.0005    -0.0000 </r>
       <r>    -6.3555    -0.0025    -0.0002 </r>
       <r>    -6.2880    -0.0096    -0.0009 </r>
       <r>    -6.2206    -0.0275    -0.0027 </r>
       <r>    -6.1531    -0.0526    -0.0063 </r>
       <r>    -6.0856    -0.0475    -0.0095 </r>
       <r>    -6.0181     0.0621    -0.0053 </r>
       <r>    -5.9507     0.3052     0.0153 </r>
       <r>    -5.8832     0.5644     0.0534 </r>
       <r>    -5.8157     0.7049     0.1010 </r>
       <r>    -5.7482     0.9552     0.1654 </r>
       <r>    -5.6808     1.8992     0.2936 </r>
       <r>    -5.6133     3.6368     0.5390 </r>
       <r>    -5.5458     5.1944     0.8894 </r>
       <r>    -5.4783     5.6657     1.2717 </r>
       <r>    -5.4109     5.8803     1.6685 </r>
       <r>    -5.3434     7.5469     2.1777 </r>
       <r>    -5.2759    10.3773     2.8779 </r>
       <r>    -5.2084    11.8072     3.6746 </r>
       <r>    -5.1410    10.4984     4.3830 </r>
       <r>    -5.0735     8.3081     4.9436 </r>
       <r>    -5.0060     7.4510     5.4463 </r>
       <r>    -4.9385     7.4564     5.9494 </r>
       <r>    -4.8711     6.6120     6.3956 </r>
       <r>    -4.8036     4.9642     6.7305 </r>
       <r>    -4.7361     3.9664     6.9982 </r>
       <r>    -4.6686     4.1556     7.2786 </r>
       <r>    -4.6012     5.2994     7.6361 </r>
       <r>    -4.5337     8.2757     8.1945 </r>
       <r>    -4.4662    14.0987     9.1458 </r>
       <r>    -4.3987    20.8113    10.5501 </r>
       <r>    -4.3313    24.5407    12.2059 </r>
       <r>    -4.2638    24.6718    13.8706 </r>
       <r>    -4.1963    24.4061    15.5174 </r>
       <r>    -4.1288    24.8768    17.1960 </r>
       <r>    -4.0614    22.8368    18.7369 </r>
       <r>    -3.9939    16.0197    19.8178 </r>
       <r>    -3.9264     7.0908    20.2962 </r>
       <r>    -3.8589     0.5396    20.3327 </r>
       <r>    -3.7915    -1.5264    20.2297 </r>
       <r>    -3.7240     0.6264    20.2719 </r>
       <r>    -3.6565     6.1399    20.6862 </r>
       <r>    -3.5891    13.8825    21.6229 </r>
       <r>    -3.5216    21.9079    23.1011 </r>
       <r>    -3.4541    27.5471    24.9599 </r>
       <r>    -3.3866    28.5072    26.8834 </r>
       <r>    -3.3192    24.5698    28.5412 </r>
       <r>    -3.2517    18.3489    29.7793 </r>
       <r>    -3.1842    13.8891    30.7164 </r>
       <r>    -3.1167    14.2199    31.6759 </r>
       <r>    -3.0493    19.6375    33.0009 </r>
       <r>    -2.9818    27.4901    34.8558 </r>
       <r>    -2.9143    33.8497    37.1398 </r>
       <r>    -2.8468    36.2212    39.5838 </r>
       <r>    -2.7794    34.9397    41.9413 </r>
       <r>    -2.7119    32.0314    44.1026 </r>
       <r>    -2.6444    29.0298    46.0614 </r>
       <r>    -2.5769    26.4059    47.8431 </r>
       <r>    -2.5095    24.7754    49.5148 </r>
       <r>    -2.4420    24.7397    51.1841 </r>
       <r>    -2.3745    24.8276    52.8594 </r>
       <r>    -2.3070    21.9119    54.3379 </r>
       <r>    -2.2396    15.0323    55.3521 </r>
       <r>    -2.1721     6.9939    55.8241 </r>
       <r>    -2.1046     1.2556    55.9088 </r>
       <r>    -2.0371    -1.2219    55.8263 </r>
       <r>    -1.9697    -1.4980    55.7253 </r>
       <r>    -1.9022    -0.4247    55.6966 </r>
       <r>    -1.8347     2.1604    55.8424 </r>
       <r>    -1.7672     6.2173    56.2619 </r>
       <r>    -1.6998    10.0939    56.9430 </r>
       <r>    -1.6323    11.1889    57.6979 </r>
       <r>    -1.5648     8.5578    58.2754 </r>
       <r>    -1.4973     4.4416    58.5750 </r>
       <r>    -1.4299     2.7279    58.7591 </r>
       <r>    -1.3624     6.0673    59.1685 </r>
       <r>    -1.2949    14.1898    60.1259 </r>
       <r>    -1.2274    23.9760    61.7437 </r>
       <r>    -1.1600    30.9218    63.8301 </r>
       <r>    -1.0925    31.5451    65.9586 </r>
       <r>    -1.0250    25.4650    67.6769 </r>
       <r>    -0.9576    15.7584    68.7401 </r>
       <r>    -0.8901     7.3225    69.2342 </r>
       <r>    -0.8226     4.0327    69.5063 </r>
       <r>    -0.7551     6.2389    69.9273 </r>
       <r>    -0.6877    10.5732    70.6407 </r>
       <r>    -0.6202    12.9451    71.5142 </r>
       <r>    -0.5527    12.5904    72.3637 </r>
       <r>    -0.4852    12.8035    73.2276 </r>
       <r>    -0.4178    16.5302    74.3430 </r>
       <r>    -0.3503    21.4787    75.7922 </r>
       <r>    -0.2828    21.7796    77.2618 </r>
       <r>    -0.2153    15.5973    78.3142 </r>
       <r>    -0.1479     9.2825    78.9406 </r>
       <r>    -0.0804    12.1592    79.7610 </r>
       <r>    -0.0129    27.2618    81.6005 </r>
       <r>     0.0546    47.4051    84.7991 </r>
       <r>     0.1220    60.2714    88.8659 </r>
       <r>     0.1895    57.8981    92.7725 </r>
       <r>     0.2570    42.1555    95.6169 </r>
       <r>     0.3245    22.0155    97.1024 </r>
       <r>     0.3919     6.2146    97.5217 </r>
       <r>     0.4594    -1.6504    97.4104 </r>
       <r>     0.5269    -2.2685    97.2573 </r>
       <r>     0.5944     2.7035    97.4397 </r>
       <r>     0.6618    11.3593    98.2062 </r>
       <r>     0.7293    19.9632    99.5532 </r>
       <r>     0.7968    23.7091   101.1529 </r>
       <r>     0.8643    20.6042   102.5432 </r>
       <r>     0.9317    13.5983   103.4607 </r>
       <r>     0.9992     8.2574   104.0179 </r>
       <r>     1.0667     8.8343   104.6140 </r>
       <r>     1.1342    15.7172   105.6745 </r>
       <r>     1.2016    24.9930   107.3609 </r>
       <r>     1.2691    30.7484   109.4356 </r>
       <r>     1.3366    29.2565   111.4097 </r>
       <r>     1.4041    21.4805   112.8591 </r>
       <r>     1.4715    11.6714   113.6466 </r>
       <r>     1.5390     3.9068   113.9102 </r>
       <r>     1.6065    -0.2727   113.8918 </r>
       <r>     1.6739    -1.7590   113.7731 </r>
       <r>     1.7414    -2.0528   113.6346 </r>
       <r>     1.8089    -1.3813   113.5414 </r>
       <r>     1.8764     1.8220   113.6643 </r>
       <r>     1.9438     9.3034   114.2921 </r>
       <r>     2.0113    20.0032   115.6418 </r>
       <r>     2.0788    28.8946   117.5914 </r>
       <r>     2.1463    30.3571   119.6397 </r>
       <r>     2.2137    23.6388   121.2348 </r>
       <r>     2.2812    14.6507   122.2233 </r>
       <r>     2.3487    11.7665   123.0172 </r>
       <r>     2.4162    18.8376   124.2883 </r>
       <r>     2.4836    31.2904   126.3996 </r>
       <r>     2.5511    39.6442   129.0746 </r>
       <r>     2.6186    37.9326   131.6340 </r>
       <r>     2.6861    28.5068   133.5575 </r>
       <r>     2.7535    19.1512   134.8497 </r>
       <r>     2.8210    17.3052   136.0174 </r>
       <r>     2.8885    26.3937   137.7983 </r>
       <r>     2.9560    44.2607   140.7848 </r>
       <r>     3.0234    63.3862   145.0617 </r>
       <r>     3.0909    74.1982   150.0682 </r>
       <r>     3.1584    70.6309   154.8339 </r>
       <r>     3.2259    54.1116   158.4851 </r>
       <r>     3.2933    32.5310   160.6801 </r>
       <r>     3.3608    14.5227   161.6600 </r>
       <r>     3.4283     3.9902   161.9292 </r>
       <r>     3.4958    -0.1530   161.9189 </r>
       <r>     3.5632     0.2288   161.9344 </r>
       <r>     3.6307     5.9304   162.3345 </r>
       <r>     3.6982    19.0225   163.6180 </r>
       <r>     3.7657    37.8594   166.1726 </r>
       <r>     3.8331    55.0390   169.8863 </r>
       <r>     3.9006    62.9122   174.1313 </r>
       <r>     3.9681    61.0003   178.2472 </r>
       <r>     4.0356    55.5624   181.9963 </r>
       <r>     4.1030    51.8781   185.4967 </r>
       <r>     4.1705    49.6950   188.8498 </r>
       <r>     4.2380    46.8323   192.0098 </r>
       <r>     4.3054    43.9763   194.9771 </r>
       <r>     4.3729    43.3245   197.9004 </r>
       <r>     4.4404    44.1091   200.8766 </r>
       <r>     4.5079    42.4509   203.7410 </r>
       <r>     4.5753    35.9761   206.1684 </r>
       <r>     4.6428    26.9359   207.9859 </r>
       <r>     4.7103    20.1878   209.3481 </r>
       <r>     4.7778    18.9851   210.6291 </r>
       <r>     4.8452    22.9729   212.1792 </r>
       <r>     4.9127    29.2460   214.1525 </r>
       <r>     4.9802    34.5485   216.4837 </r>
       <r>     5.0477    36.8896   218.9728 </r>
       <r>     5.1151    36.4168   221.4300 </r>
       <r>     5.1826    35.5676   223.8299 </r>
       <r>     5.2501    37.2999   226.3466 </r>
       <r>     5.3176    41.8766   229.1722 </r>
       <r>     5.3850    46.0686   232.2807 </r>
       <r>     5.4525    46.4108   235.4122 </r>
       <r>     5.5200    42.3579   238.2703 </r>
       <r>     5.5875    35.5978   240.6722 </r>
       <r>     5.6549    27.7144   242.5423 </r>
       <r>     5.7224    19.9589   243.8890 </r>
       <r>     5.7899    14.3380   244.8564 </r>
       <r>     5.8574    12.8381   245.7227 </r>
       <r>     5.9248    15.1116   246.7423 </r>
       <r>     5.9923    18.1019   247.9637 </r>
       <r>     6.0598    18.6711   249.2235 </r>
       <r>     6.1273    16.1527   250.3134 </r>
       <r>     6.1947    12.0618   251.1273 </r>
       <r>     6.2622     8.0884   251.6731 </r>
       <r>     6.3297     5.1629   252.0214 </r>
       <r>     6.3972     3.9328   252.2868 </r>
       <r>     6.4646     4.7758   252.6090 </r>
       <r>     6.5321     6.9821   253.0801 </r>
       <r>     6.5996     8.8726   253.6788 </r>
       <r>     6.6671     9.2165   254.3007 </r>
       <r>     6.7345     8.0469   254.8437 </r>
       <r>     6.8020     6.0592   255.2525 </r>
       <r>     6.8695     3.9483   255.5189 </r>
       <r>     6.9369     2.4984   255.6875 </r>
       <r>     7.0044     2.5409   255.8589 </r>
       <r>     7.0719     4.2458   256.1454 </r>
       <r>     7.1394     6.7035   256.5977 </r>
       <r>     7.2068     8.5475   257.1745 </r>
       <r>     7.2743     8.8541   257.7719 </r>
       <r>     7.3418     7.4690   258.2758 </r>
       <r>     7.4093     4.9982   258.6131 </r>
       <r>     7.4767     2.6884   258.7945 </r>
       <r>     7.5442     1.9118   258.9235 </r>
       <r>     7.6117     3.3253   259.1479 </r>
       <r>     7.6792     6.2850   259.5719 </r>
       <r>     7.7466     9.2061   260.1931 </r>
       <r>     7.8141    10.9212   260.9300 </r>
       <r>     7.8816    11.8068   261.7267 </r>
       <r>     7.9491    13.4367   262.6333 </r>
       <r>     8.0165    16.8931   263.7732 </r>
       <r>     8.0840    21.0975   265.1967 </r>
       <r>     8.1515    23.1744   266.7604 </r>
       <r>     8.2190    21.1724   268.1890 </r>
       <r>     8.2864    16.2595   269.2861 </r>
       <r>     8.3539    12.0030   270.0960 </r>
       <r>     8.4214    11.6954   270.8851 </r>
       <r>     8.4889    15.9012   271.9580 </r>
       <r>     8.5563    22.1484   273.4525 </r>
       <r>     8.6238    27.4735   275.3062 </r>
       <r>     8.6913    30.8590   277.3884 </r>
       <r>     8.7588    32.2148   279.5621 </r>
       <r>     8.8262    30.6596   281.6308 </r>
       <r>     8.8937    26.3352   283.4078 </r>
       <r>     8.9612    22.7079   284.9400 </r>
       <r>     9.0287    24.3295   286.5816 </r>
       <r>     9.0961    32.5276   288.7764 </r>
       <r>     9.1636    44.6685   291.7904 </r>
       <r>     9.2311    56.8375   295.6254 </r>
       <r>     9.2986    65.7873   300.0644 </r>
       <r>     9.3660    69.1052   304.7272 </r>
       <r>     9.4335    65.5167   309.1479 </r>
       <r>     9.5010    55.5742   312.8978 </r>
       <r>     9.5684    41.8244   315.7198 </r>
       <r>     9.6359    28.4359   317.6385 </r>
       <r>     9.7034    19.5701   318.9590 </r>
       <r>     9.7709    16.4146   320.0666 </r>
       <r>     9.8383    16.1302   321.1549 </r>
       <r>     9.9058    14.8143   322.1545 </r>
       <r>     9.9733    11.1072   322.9040 </r>
       <r>    10.0408     6.4189   323.3371 </r>
       <r>    10.1082     2.6344   323.5148 </r>
       <r>    10.1757     0.5801   323.5540 </r>
       <r>    10.2432     0.1439   323.5637 </r>
       <r>    10.3107     0.7634   323.6152 </r>
       <r>    10.3781     1.6191   323.7244 </r>
       <r>    10.4456     1.9431   323.8556 </r>
       <r>    10.5131     1.5144   323.9577 </r>
       <r>    10.5806     0.7404   324.0077 </r>
       <r>    10.6480     0.1464   324.0176 </r>
       <r>    10.7155    -0.0894   324.0115 </r>
       <r>    10.7830    -0.0986   324.0049 </r>
       <r>    10.8505    -0.0502   324.0015 </r>
       <r>    10.9179    -0.0171   324.0004 </r>
       <r>    10.9854    -0.0043   324.0001 </r>
       <r>    11.0529    -0.0008   324.0000 </r>
       <r>    11.1204    -0.0001   324.0000 </r>
       <r>    11.1878    -0.0000   324.0000 </r>
       <r>    11.2553    -0.0000   324.0000 </r>
       <r>    11.3228    -0.0000   324.0000 </r>
       <r>    11.3903    -0.0000   324.0000 </r>
       <r>    11.4577    -0.0000   324.0000 </r>
       <r>    11.5252    -0.0000   324.0000 </r>
       <r>    11.5927    -0.0000   324.0000 </r>
       <r>    11.6602    -0.0000   324.0000 </r>
       <r>    11.7276     0.0000   324.0000 </r>
       <r>    11.7951     0.0000   324.0000 </r>
       <r>    11.8626     0.0000   324.0000 </r>
       <r>    11.9301     0.0000   324.0000 </r>
       <r>    11.9975     0.0000   324.0000 </r>
       <r>    12.0650     0.0000   324.0000 </r>
       <r>    12.1325     0.0000   324.0000 </r>
       <r>    12.1999     0.0000   324.0000 </r>
       <r>    12.2674     0.0000   324.0000 </r>
       <r>    12.3349     0.0000   324.0000 </r>
       <r>    12.4024     0.0000   324.0000 </r>
      </set>
     </set>
    </array>
   </total>
  </dos>
 </calculation>
 <structure name="finalpos" >
  <crystal>
   <varray name="basis" >
    <v>      10.34577853      -0.10556902       0.00000000 </v>
    <v>      -0.10556902      10.55691756       0.00000000 </v>
    <v>       0.00000000       0.00000000      10.55691756 </v>
   </varray>
   <i name="volume">   1152.90392972 </i>
   <varray name="rec_basis" >
    <v>       0.09666765       0.00096667       0.00000000 </v>
    <v>       0.00096667       0.09473429       0.00000000 </v>
    <v>       0.00000000       0.00000000       0.09472462 </v>
   </varray>
  </crystal>
  <varray name="positions" >
   <v>       0.00000000       0.00000000       0.99906270 </v>
   <v>       0.00000000       0.00000000       0.49906270 </v>
   <v>       0.00000000       0.50000000       0.99906270 </v>
   <v>       0.00000000       0.50000000       0.49906270 </v>
   <v>       0.50000000       0.00000000       0.99906270 </v>
   <v>       0.50000000       0.00000000       0.49906270 </v>
   <v>       0.50000000       0.50000000       0.99906270 </v>
   <v>       0.50000000       0.50000000       0.49906270 </v>
   <v>       0.37500000       0.37500000       0.12593730 </v>
   <v>       0.37500000       0.37500000       0.62593730 </v>
   <v>       0.37500000       0.87500000       0.12593730 </v>
   <v>       0.37500000       0.87500000       0.62593730 </v>
   <v>       0.87500000       0.37500000       0.12593730 </v>
   <v>       0.87500000       0.37500000       0.62593730 </v>
   <v>       0.87500000       0.87500000       0.12593730 </v>
   <v>       0.87500000       0.87500000       0.62593730 </v>
   <v>       0.00000000       0.25000000       0.24906270 </v>
   <v>       0.00000000       0.25000000       0.74906270 </v>
   <v>       0.00000000       0.75000000       0.24906270 </v>
   <v>       0.00000000       0.75000000       0.74906270 </v>
   <v>       0.50000000       0.25000000       0.24906270 </v>
   <v>       0.50000000       0.25000000       0.74906270 </v>
   <v>       0.50000000       0.75000000       0.24906270 </v>
   <v>       0.50000000       0.75000000       0.74906270 </v>
   <v>       0.37500000       0.12500000       0.37593730 </v>
   <v>       0.37500000       0.12500000       0.87593730 </v>
   <v>       0.37500000       0.62500000       0.37593730 </v>
   <v>       0.37500000       0.62500000       0.87593730 </v>
   <v>       0.87500000       0.12500000       0.37593730 </v>
   <v>       0.87500000       0.12500000       0.87593730 </v>
   <v>       0.87500000       0.62500000       0.37593730 </v>
   <v>       0.87500000       0.62500000       0.87593730 </v>
   <v>       0.25000000       0.00000000       0.24906270 </v>
   <v>       0.25000000       0.00000000       0.74906270 </v>
   <v>       0.25000000       0.50000000       0.24906270 </v>
   <v>       0.25000000       0.50000000       0.74906270 </v>
   <v>       0.75000000       0.00000000       0.24906270 </v>
   <v>       0.75000000       0.00000000       0.74906270 </v>
   <v>       0.75000000       0.50000000       0.24906270 </v>
   <v>       0.75000000       0.50000000       0.74906270 </v>
   <v>       0.12500000       0.37500000       0.37593730 </v>
   <v>       0.12500000       0.37500000       0.87593730 </v>
   <v>       0.12500000       0.87500000       0.37593730 </v>
   <v>       0.12500000       0.87500000       0.87593730 </v>
   <v>       0.62500000       0.37500000       0.37593730 </v>
   <v>       0.62500000       0.37500000       0.87593730 </v>
   <v>       0.62500000       0.87500000       0.37593730 </v>
   <v>       0.62500000       0.87500000       0.87593730 </v>
   <v>       0.25000000       0.25000000       0.99906270 </v>
   <v>       0.25000000       0.25000000       0.49906270 </v>
   <v>       0.25000000       0.75000000       0.99906270 </v>
   <v>       0.25000000       0.75000000       0.49906270 </v>
   <v>       0.75000000       0.25000000       0.99906270 </v>
   <v>       0.75000000       0.25000000       0.49906270 </v>
   <v>       0.75000000       0.75000000       0.99906270 </v>
   <v>       0.75000000       0.75000000       0.49906270 </v>
   <v>       0.12500000       0.12500000       0.12593730 </v>
   <v>       0.12500000       0.12500000       0.62593730 </v>
   <v>       0.12500000       0.62500000       0.12593730 </v>
   <v>       0.12500000       0.62500000       0.62593730 </v>
   <v>       0.62500000       0.12500000       0.12593730 </v>
   <v>       0.62500000       0.12500000       0.62593730 </v>
   <v>       0.62500000       0.62500000       0.12593730 </v>
   <v>       0.62500000       0.62500000       0.62593730 </v>
  </varray>
 </structure>
</modeling>
