Si64                                    
           1
    10.503974   -0.053050    0.000000
    -0.053050   10.610074    0.000000
     0.000000    0.000000   10.610074
   Si
    64
Direct configuration=     1
   0.00000000  0.00000000  0.00000000
   0.00000000  0.00000000  0.50000000
   0.00000000  0.50000000  0.00000000
   0.00000000  0.50000000  0.50000000
   0.50000000  0.00000000  0.00000000
   0.50000000  0.00000000  0.50000000
   0.50000000  0.50000000  0.00000000
   0.50000000  0.50000000  0.50000000
   0.37500000  0.37500000  0.12500000
   0.37500000  0.37500000  0.62500000
   0.37500000  0.87500000  0.12500000
   0.37500000  0.87500000  0.62500000
   0.87500000  0.37500000  0.12500000
   0.87500000  0.37500000  0.62500000
   0.87500000  0.87500000  0.12500000
   0.87500000  0.87500000  0.62500000
   0.00000000  0.25000000  0.25000000
   0.00000000  0.25000000  0.75000000
   0.00000000  0.75000000  0.25000000
   0.00000000  0.75000000  0.75000000
   0.50000000  0.25000000  0.25000000
   0.50000000  0.25000000  0.75000000
   0.50000000  0.75000000  0.25000000
   0.50000000  0.75000000  0.75000000
   0.37500000  0.12500000  0.37500000
   0.37500000  0.12500000  0.87500000
   0.37500000  0.62500000  0.37500000
   0.37500000  0.62500000  0.87500000
   0.87500000  0.12500000  0.37500000
   0.87500000  0.12500000  0.87500000
   0.87500000  0.62500000  0.37500000
   0.87500000  0.62500000  0.87500000
   0.25000000  0.00000000  0.25000000
   0.25000000  0.00000000  0.75000000
   0.25000000  0.50000000  0.25000000
   0.25000000  0.50000000  0.75000000
   0.75000000  0.00000000  0.25000000
   0.75000000  0.00000000  0.75000000
   0.75000000  0.50000000  0.25000000
   0.75000000  0.50000000  0.75000000
   0.12500000  0.37500000  0.37500000
   0.12500000  0.37500000  0.87500000
   0.12500000  0.87500000  0.37500000
   0.12500000  0.87500000  0.87500000
   0.62500000  0.37500000  0.37500000
   0.62500000  0.37500000  0.87500000
   0.62500000  0.87500000  0.37500000
   0.62500000  0.87500000  0.87500000
   0.25000000  0.25000000  0.00000000
   0.25000000  0.25000000  0.50000000
   0.25000000  0.75000000  0.00000000
   0.25000000  0.75000000  0.50000000
   0.75000000  0.25000000  0.00000000
   0.75000000  0.25000000  0.50000000
   0.75000000  0.75000000  0.00000000
   0.75000000  0.75000000  0.50000000
   0.12500000  0.12500000  0.12500000
   0.12500000  0.12500000  0.62500000
   0.12500000  0.62500000  0.12500000
   0.12500000  0.62500000  0.62500000
   0.62500000  0.12500000  0.12500000
   0.62500000  0.12500000  0.62500000
   0.62500000  0.62500000  0.12500000
   0.62500000  0.62500000  0.62500000
Direct configuration=     2
   1.00000000  0.00000000  0.99936489
   0.00000000  0.00000000  0.49936489
   0.00000000  0.50000000  0.99936489
   0.00000000  0.50000000  0.49936489
   0.50000000  0.00000000  0.99936489
   0.50000000  0.00000000  0.49936489
   0.50000000  0.50000000  0.99936489
   0.50000000  0.50000000  0.49936489
   0.37500000  0.37500000  0.12563511
   0.37500000  0.37500000  0.62563511
   0.37500000  0.87500000  0.12563511
   0.37500000  0.87500000  0.62563511
   0.87500000  0.37500000  0.12563511
   0.87500000  0.37500000  0.62563511
   0.87500000  0.87500000  0.12563511
   0.87500000  0.87500000  0.62563511
   1.00000000  0.25000000  0.24936489
   0.00000000  0.25000000  0.74936489
   1.00000000  0.75000000  0.24936489
   1.00000000  0.75000000  0.74936489
   0.50000000  0.25000000  0.24936489
   0.50000000  0.25000000  0.74936489
   0.50000000  0.75000000  0.24936489
   0.50000000  0.75000000  0.74936489
   0.37500000  0.12500000  0.37563511
   0.37500000  0.12500000  0.87563511
   0.37500000  0.62500000  0.37563511
   0.37500000  0.62500000  0.87563511
   0.87500000  0.12500000  0.37563511
   0.87500000  0.12500000  0.87563511
   0.87500000  0.62500000  0.37563511
   0.87500000  0.62500000  0.87563511
   0.25000000  0.00000000  0.24936489
   0.25000000  0.00000000  0.74936489
   0.25000000  0.50000000  0.24936489
   0.25000000  0.50000000  0.74936489
   0.75000000  0.00000000  0.24936489
   0.75000000  0.00000000  0.74936489
   0.75000000  0.50000000  0.24936489
   0.75000000  0.50000000  0.74936489
   0.12500000  0.37500000  0.37563511
   0.12500000  0.37500000  0.87563511
   0.12500000  0.87500000  0.37563511
   0.12500000  0.87500000  0.87563511
   0.62500000  0.37500000  0.37563511
   0.62500000  0.37500000  0.87563511
   0.62500000  0.87500000  0.37563511
   0.62500000  0.87500000  0.87563511
   0.25000000  0.25000000  0.99936489
   0.25000000  0.25000000  0.49936489
   0.25000000  0.75000000  0.99936489
   0.25000000  0.75000000  0.49936489
   0.75000000  0.25000000  0.99936489
   0.75000000  0.25000000  0.49936489
   0.75000000  0.75000000  0.99936489
   0.75000000  0.75000000  0.49936489
   0.12500000  0.12500000  0.12563511
   0.12500000  0.12500000  0.62563511
   0.12500000  0.62500000  0.12563511
   0.12500000  0.62500000  0.62563511
   0.62500000  0.12500000  0.12563511
   0.62500000  0.12500000  0.62563511
   0.62500000  0.62500000  0.12563511
   0.62500000  0.62500000  0.62563511
Direct configuration=     3
   0.00000000  0.00000000  0.99957341
   0.00000000  0.00000000  0.49957341
   0.00000000  0.50000000  0.99957341
   0.00000000  0.50000000  0.49957341
   0.50000000  0.00000000  0.99957341
   0.50000000  0.00000000  0.49957341
   0.50000000  0.50000000  0.99957341
   0.50000000  0.50000000  0.49957341
   0.37500000  0.37500000  0.12542659
   0.37500000  0.37500000  0.62542659
   0.37500000  0.87500000  0.12542659
   0.37500000  0.87500000  0.62542659
   0.87500000  0.37500000  0.12542659
   0.87500000  0.37500000  0.62542659
   0.87500000  0.87500000  0.12542659
   0.87500000  0.87500000  0.62542659
   0.00000000  0.25000000  0.24957341
   0.00000000  0.25000000  0.74957341
   0.00000000  0.75000000  0.24957341
   0.00000000  0.75000000  0.74957341
   0.50000000  0.25000000  0.24957341
   0.50000000  0.25000000  0.74957341
   0.50000000  0.75000000  0.24957341
   0.50000000  0.75000000  0.74957341
   0.37500000  0.12500000  0.37542659
   0.37500000  0.12500000  0.87542659
   0.37500000  0.62500000  0.37542659
   0.37500000  0.62500000  0.87542659
   0.87500000  0.12500000  0.37542659
   0.87500000  0.12500000  0.87542659
   0.87500000  0.62500000  0.37542659
   0.87500000  0.62500000  0.87542659
   0.25000000  0.00000000  0.24957341
   0.25000000  0.00000000  0.74957341
   0.25000000  0.50000000  0.24957341
   0.25000000  0.50000000  0.74957341
   0.75000000  0.00000000  0.24957341
   0.75000000  0.00000000  0.74957341
   0.75000000  0.50000000  0.24957341
   0.75000000  0.50000000  0.74957341
   0.12500000  0.37500000  0.37542659
   0.12500000  0.37500000  0.87542659
   0.12500000  0.87500000  0.37542659
   0.12500000  0.87500000  0.87542659
   0.62500000  0.37500000  0.37542659
   0.62500000  0.37500000  0.87542659
   0.62500000  0.87500000  0.37542659
   0.62500000  0.87500000  0.87542659
   0.25000000  0.25000000  0.99957341
   0.25000000  0.25000000  0.49957341
   0.25000000  0.75000000  0.99957341
   0.25000000  0.75000000  0.49957341
   0.75000000  0.25000000  0.99957341
   0.75000000  0.25000000  0.49957341
   0.75000000  0.75000000  0.99957341
   0.75000000  0.75000000  0.49957341
   0.12500000  0.12500000  0.12542659
   0.12500000  0.12500000  0.62542659
   0.12500000  0.62500000  0.12542659
   0.12500000  0.62500000  0.62542659
   0.62500000  0.12500000  0.12542659
   0.62500000  0.12500000  0.62542659
   0.62500000  0.62500000  0.12542659
   0.62500000  0.62500000  0.62542659
