  64  64   0   0
  0.1819934E+02  0.1045148E-08  0.1055705E-08  0.1055692E-08  0.5000000E-15
  1.000000000000000E-004
  CAR 
 Si64                                    
     12.31243616     -7.87581971  301      6.96994051      1.00000000
     -7.876  0.0000E+00  0.0000E+00
     -7.809  0.0000E+00  0.0000E+00
     -7.741  0.0000E+00  0.0000E+00
     -7.674  0.0000E+00  0.0000E+00
     -7.607  0.0000E+00  0.0000E+00
     -7.539 -0.1307E-30 -0.8796E-32
     -7.472 -0.3007E-28 -0.2033E-29
     -7.405 -0.5526E-26 -0.3739E-27
     -7.337 -0.8077E-24 -0.5473E-25
     -7.270 -0.9391E-22 -0.6374E-23
     -7.203 -0.8682E-20 -0.5906E-21
     -7.136 -0.6380E-18 -0.4353E-19
     -7.068 -0.3725E-16 -0.2550E-17
     -7.001 -0.1672E-14 -0.1151E-15
     -6.934 -0.6131E-13 -0.4241E-14
     -6.866 -0.1780E-11 -0.1240E-12
     -6.799 -0.4087E-10 -0.2874E-11
     -6.732 -0.7413E-09 -0.5276E-10
     -6.665 -0.1060E-07 -0.7660E-09
     -6.597 -0.1190E-06 -0.8777E-08
     -6.530 -0.1046E-05 -0.7917E-07
     -6.463 -0.7144E-05 -0.5599E-06
     -6.395 -0.3755E-04 -0.3086E-05
     -6.328 -0.1493E-03 -0.1313E-04
     -6.261 -0.4343E-03 -0.4236E-04
     -6.193 -0.8554E-03 -0.9992E-04
     -6.126 -0.8443E-03 -0.1567E-03
     -6.059  0.7998E-03 -0.1029E-03
     -5.992  0.4676E-02  0.2117E-03
     -5.924  0.9037E-02  0.8199E-03
     -5.857  0.1160E-01  0.1601E-02
     -5.790  0.1568E-01  0.2656E-02
     -5.722  0.3073E-01  0.4724E-02
     -5.655  0.5913E-01  0.8703E-02
     -5.588  0.8565E-01  0.1447E-01
     -5.521  0.9486E-01  0.2085E-01
     -5.453  0.9902E-01  0.2751E-01
     -5.386  0.1261E+00  0.3600E-01
     -5.319  0.1728E+00  0.4763E-01
     -5.251  0.1974E+00  0.6092E-01
     -5.184  0.1769E+00  0.7282E-01
     -5.117  0.1409E+00  0.8231E-01
     -5.049  0.1261E+00  0.9079E-01
     -4.982  0.1252E+00  0.9921E-01
     -4.915  0.1104E+00  0.1066E+00
     -4.848  0.8273E-01  0.1122E+00
     -4.780  0.6635E-01  0.1167E+00
     -4.713  0.6973E-01  0.1214E+00
     -4.646  0.8935E-01  0.1274E+00
     -4.578  0.1413E+00  0.1369E+00
     -4.511  0.2422E+00  0.1532E+00
     -4.444  0.3556E+00  0.1771E+00
     -4.377  0.4150E+00  0.2050E+00
     -4.309  0.4151E+00  0.2330E+00
     -4.242  0.4132E+00  0.2608E+00
     -4.175  0.4223E+00  0.2892E+00
     -4.107  0.3811E+00  0.3149E+00
     -4.040  0.2561E+00  0.3321E+00
     -3.973  0.1024E+00  0.3390E+00
     -3.905 -0.2544E-02  0.3388E+00
     -3.838 -0.2899E-01  0.3369E+00
     -3.771  0.1484E-01  0.3379E+00
     -3.704  0.1148E+00  0.3456E+00
     -3.636  0.2523E+00  0.3626E+00
     -3.569  0.3926E+00  0.3890E+00
     -3.502  0.4842E+00  0.4216E+00
     -3.434  0.4848E+00  0.4542E+00
     -3.367  0.3987E+00  0.4810E+00
     -3.300  0.2849E+00  0.5002E+00
     -3.233  0.2161E+00  0.5147E+00
     -3.165  0.2370E+00  0.5307E+00
     -3.098  0.3456E+00  0.5540E+00
     -3.031  0.4901E+00  0.5869E+00
     -2.963  0.5964E+00  0.6271E+00
     -2.896  0.6233E+00  0.6690E+00
     -2.829  0.5889E+00  0.7086E+00
     -2.761  0.5361E+00  0.7447E+00
     -2.694  0.4848E+00  0.7773E+00
     -2.627  0.4346E+00  0.8066E+00
     -2.560  0.4034E+00  0.8337E+00
     -2.492  0.4091E+00  0.8613E+00
     -2.425  0.4137E+00  0.8891E+00
     -2.358  0.3499E+00  0.9127E+00
     -2.290  0.2142E+00  0.9271E+00
     -2.223  0.7627E-01  0.9322E+00
     -2.156 -0.5214E-02  0.9319E+00
     -2.089 -0.3012E-01  0.9298E+00
     -2.021 -0.2495E-01  0.9281E+00
     -1.954  0.1135E-02  0.9282E+00
     -1.887  0.5663E-01  0.9320E+00
     -1.819  0.1343E+00  0.9411E+00
     -1.752  0.1922E+00  0.9540E+00
     -1.685  0.1850E+00  0.9665E+00
     -1.617  0.1151E+00  0.9742E+00
     -1.550  0.4013E-01  0.9769E+00
     -1.483  0.2950E-01  0.9789E+00
     -1.416  0.1211E+00  0.9870E+00
     -1.348  0.2982E+00  0.1007E+01
     -1.281  0.4861E+00  0.1040E+01
     -1.214  0.5845E+00  0.1079E+01
     -1.146  0.5357E+00  0.1115E+01
     -1.079  0.3694E+00  0.1140E+01
     -1.012  0.1785E+00  0.1152E+01
     -0.945  0.5544E-01  0.1156E+01
     -0.877  0.4339E-01  0.1159E+01
     -0.810  0.1193E+00  0.1167E+01
     -0.743  0.2082E+00  0.1181E+01
     -0.675  0.2382E+00  0.1197E+01
     -0.608  0.2118E+00  0.1211E+01
     -0.541  0.2074E+00  0.1225E+01
     -0.473  0.2778E+00  0.1244E+01
     -0.406  0.3628E+00  0.1268E+01
     -0.339  0.3506E+00  0.1292E+01
     -0.272  0.2302E+00  0.1307E+01
     -0.204  0.1399E+00  0.1317E+01
     -0.137  0.2440E+00  0.1333E+01
     -0.070  0.5612E+00  0.1371E+01
     -0.002  0.9159E+00  0.1432E+01
      0.065  0.1072E+01  0.1505E+01
      0.132  0.9299E+00  0.1567E+01
      0.199  0.5925E+00  0.1607E+01
      0.267  0.2493E+00  0.1624E+01
      0.334  0.2724E-01  0.1626E+01
      0.401 -0.5292E-01  0.1622E+01
      0.469 -0.1887E-01  0.1621E+01
      0.536  0.1032E+00  0.1628E+01
      0.603  0.2690E+00  0.1646E+01
      0.671  0.3918E+00  0.1672E+01
      0.738  0.3952E+00  0.1699E+01
      0.805  0.2911E+00  0.1718E+01
      0.872  0.1682E+00  0.1730E+01
      0.940  0.1115E+00  0.1737E+01
      1.007  0.1589E+00  0.1748E+01
      1.074  0.2994E+00  0.1768E+01
      1.142  0.4658E+00  0.1799E+01
      1.209  0.5513E+00  0.1836E+01
      1.276  0.4878E+00  0.1869E+01
      1.343  0.3112E+00  0.1890E+01
      1.411  0.1268E+00  0.1899E+01
      1.478  0.1280E-01  0.1900E+01
      1.545 -0.2708E-01  0.1898E+01
      1.613 -0.3144E-01  0.1896E+01
      1.680 -0.3089E-01  0.1894E+01
      1.747 -0.2354E-01  0.1892E+01
      1.815  0.2296E-01  0.1894E+01
      1.882  0.1444E+00  0.1903E+01
      1.949  0.3301E+00  0.1926E+01
      2.016  0.4952E+00  0.1959E+01
      2.084  0.5316E+00  0.1995E+01
      2.151  0.4188E+00  0.2023E+01
      2.218  0.2712E+00  0.2041E+01
      2.286  0.2429E+00  0.2057E+01
      2.353  0.3743E+00  0.2083E+01
      2.420  0.5531E+00  0.2120E+01
      2.487  0.6363E+00  0.2163E+01
      2.555  0.5819E+00  0.2202E+01
      2.622  0.4459E+00  0.2232E+01
      2.689  0.3104E+00  0.2253E+01
      2.757  0.2655E+00  0.2271E+01
      2.824  0.4054E+00  0.2298E+01
      2.891  0.7485E+00  0.2348E+01
      2.959  0.1154E+01  0.2426E+01
      3.026  0.1376E+01  0.2518E+01
      3.093  0.1257E+01  0.2603E+01
      3.160  0.8676E+00  0.2661E+01
      3.228  0.4387E+00  0.2691E+01
      3.295  0.1491E+00  0.2701E+01
      3.362  0.1518E-01  0.2702E+01
      3.430 -0.3074E-01  0.2700E+01
      3.497 -0.1422E-01  0.2699E+01
      3.564  0.1081E+00  0.2706E+01
      3.631  0.3693E+00  0.2731E+01
      3.699  0.7048E+00  0.2778E+01
      3.766  0.9697E+00  0.2844E+01
      3.833  0.1065E+01  0.2915E+01
      3.901  0.1023E+01  0.2984E+01
      3.968  0.9523E+00  0.3048E+01
      4.035  0.9077E+00  0.3109E+01
      4.103  0.8618E+00  0.3167E+01
      4.170  0.7848E+00  0.3220E+01
      4.237  0.7207E+00  0.3269E+01
      4.304  0.7315E+00  0.3318E+01
      4.372  0.7788E+00  0.3370E+01
      4.439  0.7382E+00  0.3420E+01
      4.506  0.5569E+00  0.3457E+01
      4.574  0.3356E+00  0.3480E+01
      4.641  0.2225E+00  0.3495E+01
      4.708  0.2698E+00  0.3513E+01
      4.775  0.4151E+00  0.3541E+01
      4.843  0.5623E+00  0.3579E+01
      4.910  0.6519E+00  0.3623E+01
      4.977  0.6734E+00  0.3668E+01
      5.045  0.6471E+00  0.3712E+01
      5.112  0.6133E+00  0.3753E+01
      5.179  0.6155E+00  0.3794E+01
      5.247  0.6680E+00  0.3839E+01
      5.314  0.7415E+00  0.3889E+01
      5.381  0.7876E+00  0.3942E+01
      5.448  0.7622E+00  0.3994E+01
      5.516  0.6405E+00  0.4037E+01
      5.583  0.4408E+00  0.4066E+01
      5.650  0.2348E+00  0.4082E+01
      5.718  0.1137E+00  0.4090E+01
      5.785  0.1269E+00  0.4098E+01
      5.852  0.2423E+00  0.4115E+01
      5.919  0.3630E+00  0.4139E+01
      5.987  0.3966E+00  0.4166E+01
      6.054  0.3210E+00  0.4187E+01
      6.121  0.1877E+00  0.4200E+01
      6.189  0.6812E-01  0.4205E+01
      6.256  0.6774E-02  0.4205E+01
      6.323  0.1375E-01  0.4206E+01
      6.391  0.7353E-01  0.4211E+01
      6.458  0.1479E+00  0.4221E+01
      6.525  0.1891E+00  0.4234E+01
      6.592  0.1735E+00  0.4245E+01
      6.660  0.1208E+00  0.4253E+01
      6.727  0.6945E-01  0.4258E+01
      6.794  0.3934E-01  0.4261E+01
      6.862  0.2750E-01  0.4263E+01
      6.929  0.3105E-01  0.4265E+01
      6.996  0.5790E-01  0.4269E+01
      7.063  0.1096E+00  0.4276E+01
      7.131  0.1627E+00  0.4287E+01
      7.198  0.1804E+00  0.4299E+01
      7.265  0.1470E+00  0.4309E+01
      7.333  0.8243E-01  0.4314E+01
      7.400  0.2259E-01  0.4316E+01
      7.467 -0.4327E-02  0.4316E+01
      7.535  0.1775E-01  0.4317E+01
      7.602  0.8993E-01  0.4323E+01
      7.669  0.1844E+00  0.4335E+01
      7.736  0.2482E+00  0.4352E+01
      7.804  0.2493E+00  0.4369E+01
      7.871  0.2226E+00  0.4384E+01
      7.938  0.2428E+00  0.4400E+01
      8.006  0.3350E+00  0.4423E+01
      8.073  0.4292E+00  0.4452E+01
      8.140  0.4277E+00  0.4480E+01
      8.207  0.3082E+00  0.4501E+01
      8.275  0.1465E+00  0.4511E+01
      8.342  0.5516E-01  0.4515E+01
      8.409  0.1129E+00  0.4522E+01
      8.477  0.3201E+00  0.4544E+01
      8.544  0.5863E+00  0.4583E+01
      8.611  0.7691E+00  0.4635E+01
      8.679  0.7627E+00  0.4686E+01
      8.746  0.5781E+00  0.4725E+01
      8.813  0.3437E+00  0.4748E+01
      8.880  0.2182E+00  0.4763E+01
      8.948  0.2841E+00  0.4782E+01
      9.015  0.5163E+00  0.4817E+01
      9.082  0.8357E+00  0.4873E+01
      9.150  0.1153E+01  0.4951E+01
      9.217  0.1355E+01  0.5042E+01
      9.284  0.1331E+01  0.5131E+01
      9.351  0.1065E+01  0.5203E+01
      9.419  0.6903E+00  0.5250E+01
      9.486  0.3872E+00  0.5276E+01
      9.553  0.2449E+00  0.5292E+01
      9.621  0.2407E+00  0.5308E+01
      9.688  0.2996E+00  0.5328E+01
      9.755  0.3397E+00  0.5351E+01
      9.823  0.3066E+00  0.5372E+01
      9.890  0.2065E+00  0.5386E+01
      9.957  0.9454E-01  0.5392E+01
     10.024  0.1950E-01  0.5394E+01
     10.092 -0.8432E-02  0.5393E+01
     10.159 -0.4515E-02  0.5393E+01
     10.226  0.1279E-01  0.5394E+01
     10.294  0.2868E-01  0.5395E+01
     10.361  0.3310E-01  0.5398E+01
     10.428  0.2488E-01  0.5399E+01
     10.495  0.1172E-01  0.5400E+01
     10.563  0.2085E-02  0.5400E+01
     10.630 -0.1564E-02  0.5400E+01
     10.697 -0.1610E-02  0.5400E+01
     10.765 -0.8008E-03  0.5400E+01
     10.832 -0.2692E-03  0.5400E+01
     10.899 -0.6634E-04  0.5400E+01
     10.967 -0.1238E-04  0.5400E+01
     11.034 -0.1780E-05  0.5400E+01
     11.101 -0.1992E-06  0.5400E+01
     11.168 -0.1744E-07  0.5400E+01
     11.236 -0.1201E-08  0.5400E+01
     11.303 -0.6520E-10  0.5400E+01
     11.370 -0.2797E-11  0.5400E+01
     11.438 -0.9500E-13  0.5400E+01
     11.505 -0.2557E-14  0.5400E+01
     11.572 -0.5499E-16  0.5400E+01
     11.639  0.0000E+00  0.5400E+01
     11.707  0.0000E+00  0.5400E+01
     11.774  0.0000E+00  0.5400E+01
     11.841  0.0000E+00  0.5400E+01
     11.909  0.0000E+00  0.5400E+01
     11.976  0.0000E+00  0.5400E+01
     12.043  0.0000E+00  0.5400E+01
     12.111  0.0000E+00  0.5400E+01
     12.178  0.0000E+00  0.5400E+01
     12.245  0.0000E+00  0.5400E+01
     12.312  0.0000E+00  0.5400E+01
