 vasp.6.4.3 19Mar24 (build Oct 21 2024 22:36:34) complex                        
  
 executed on             LinuxIFC date 2024.11.01  22:58:07
 running   96 mpi-ranks, on    1 nodes
 distrk:  each k-point on   24 cores,    4 groups
 distr:  one band on NCORE=  12 cores,    2 groups


--------------------------------------------------------------------------------------------------------


 INCAR:
   SYSTEM = Si64
   ISTART = 0
   ICHARG = 2
   LREAL = Auto
   PREC = Accurate
   LWAVE = .False.
   LCHARG = .False.
   ADDGRID = .True.
   ENCUT = 400
   GGA = PS
   GGA_COMPAT = .FALSE.
   ISMEAR = 1
   SIGMA = 0.2
   NELM = 60
   NELMIN = 8
   EDIFF = 1e-06
   EDIFFG = -0.01
   NSW = 60
   IBRION = 2
   ISIF = 2
   KPAR = 4
   NPAR = 2
   ALGO = Fast

 POTCAR:    PAW_PBE Si 05Jan2001                  
 POTCAR:    PAW_PBE Si 05Jan2001                  
   VRHFIN =Si: s2p2                                                                                 
   LEXCH  = PE                                                                                      
   EATOM  =   103.0669 eV,    7.5752 Ry                                                             
                                                                                                    
   TITEL  = PAW_PBE Si 05Jan2001                                                                    
   LULTRA =        F    use ultrasoft PP ?                                                          
   IUNSCR =        1    unscreen: 0-lin 1-nonlin 2-no                                               
   RPACOR =    1.500    partial core radius                                                         
   POMASS =   28.085; ZVAL   =    4.000    mass and valenz                                          
   RCORE  =    1.900    outmost cutoff radius                                                       
   RWIGS  =    2.480; RWIGS  =    1.312    wigner-seitz radius (au A)                               
   ENMAX  =  245.345; ENMIN  =  184.009 eV                                                          
   ICORE  =        2    local potential                                                             
   LCOR   =        T    correct aug charges                                                         
   LPAW   =        T    paw PP                                                                      
   EAUG   =  322.069                                                                                
   DEXC   =    0.000                                                                                
   RMAX   =    1.950    core radius for proj-oper                                                   
   RAUG   =    1.300    factor for augmentation sphere                                              
   RDEP   =    1.993    radius for radial grids                                                     
   RDEPT  =    1.837    core radius for aug-charge                                                  
                                                                                                    
   Atomic configuration                                                                             
    6 entries                                                                                       
     n  l   j            E        occ.                                                              
     1  0  0.50     -1785.8828   2.0000                                                             
     2  0  0.50      -139.4969   2.0000                                                             
     2  1  1.50       -95.5546   6.0000                                                             
     3  0  0.50       -10.8127   2.0000                                                             
     3  1  0.50        -4.0811   2.0000                                                             
     3  2  1.50        -4.0817   0.0000                                                             
   Description                                                                                      
     l       E           TYP  RCUT    TYP  RCUT                                                     
     0    -10.8127223     23  1.900                                                                 
     0     -7.6451159     23  1.900                                                                 
     1     -4.0811372     23  1.900                                                                 
     1      2.4879257     23  1.900                                                                 
     2     -4.0817478      7  1.900                                                                 
  local pseudopotential read in
  partial core-charges read in
  partial kinetic energy density read in
  atomic valenz-charges read in
  non local Contribution for L=           0  read in
    real space projection operators read in
  non local Contribution for L=           0  read in
    real space projection operators read in
  non local Contribution for L=           1  read in
    real space projection operators read in
  non local Contribution for L=           1  read in
    real space projection operators read in
    PAW grid and wavefunctions read in
 
   number of l-projection  operators is LMAX  =           4
   number of lm-projection operators is LMMAX =           8
 
 Optimization of the real space projectors (new method)

 maximal supplied QI-value         = 19.84
 optimisation between [QCUT,QGAM] = [ 10.12, 20.44] = [ 28.68,116.96] Ry 
 Optimized for a Real-space Cutoff    1.38 Angstroem

   l    n(q)    QCUT    max X(q) W(low)/X(q) W(high)/X(q)  e(spline) 
   0      8    10.119   159.560    0.58E-04    0.11E-03    0.54E-07
   0      8    10.119   115.863    0.56E-04    0.11E-03    0.54E-07
   1      8    10.119    88.339    0.22E-03    0.17E-03    0.19E-06
   1      8    10.119    48.592    0.22E-03    0.17E-03    0.18E-06
 -----------------------------------------------------------------------------
|                                                                             |
|               ----> ADVICE to this user running VASP <----                  |
|                                                                             |
|     You enforced a specific xc type in the INCAR file but a different       |
|     type was found in the POTCAR file.                                      |
|     I HOPE YOU KNOW WHAT YOU ARE DOING!                                     |
|                                                                             |
 -----------------------------------------------------------------------------

  PAW_PBE Si 05Jan2001                  :
 energy of atom  1       EATOM= -103.0669
 kinetic energy error for atom=    0.0012 (will be added to EATOM!!)
 
 
 POSCAR: Si8
  positions in direct lattice
  velocities in cartesian coordinates


 exchange-correlation table for PS
   RHO(1)=    0.500       N(1)  =     2000
   RHO(2)=  100.500       N(2)  =     4000
 


--------------------------------------------------------------------------------------------------------


 ion  position               nearest neighbor table
   1  0.000  0.000  0.000-  15 2.27  57 2.27  44 2.29  30 2.29
   2  0.000  0.000  0.500-  16 2.27  58 2.27  43 2.29  29 2.29
   3  0.000  0.500  0.000-  13 2.27  59 2.27  42 2.29  32 2.29
   4  0.000  0.500  0.500-  14 2.27  60 2.27  41 2.29  31 2.29
   5  0.500  0.000  0.000-  11 2.27  61 2.27  48 2.29  26 2.29
   6  0.500  0.000  0.500-  12 2.27  62 2.27  47 2.29  25 2.29
   7  0.500  0.500  0.000-   9 2.27  63 2.27  46 2.29  28 2.29
   8  0.500  0.500  0.500-  10 2.27  64 2.27  45 2.29  27 2.29
   9  0.375  0.375  0.125-   7 2.27  49 2.27  35 2.29  21 2.29
  10  0.375  0.375  0.625-   8 2.27  50 2.27  36 2.29  22 2.29
  11  0.375  0.875  0.125-   5 2.27  51 2.27  33 2.29  23 2.29
  12  0.375  0.875  0.625-   6 2.27  52 2.27  34 2.29  24 2.29
  13  0.875  0.375  0.125-   3 2.27  53 2.27  39 2.29  17 2.29
  14  0.875  0.375  0.625-   4 2.27  54 2.27  40 2.29  18 2.29
  15  0.875  0.875  0.125-   1 2.27  55 2.27  37 2.29  19 2.29
  16  0.875  0.875  0.625-   2 2.27  56 2.27  38 2.29  20 2.29
  17  0.000  0.250  0.250-  29 2.27  41 2.27  13 2.29  57 2.29
  18  0.000  0.250  0.750-  30 2.27  42 2.27  14 2.29  58 2.29
  19  0.000  0.750  0.250-  31 2.27  43 2.27  15 2.29  59 2.29
  20  0.000  0.750  0.750-  32 2.27  44 2.27  16 2.29  60 2.29
  21  0.500  0.250  0.250-  25 2.27  45 2.27   9 2.29  61 2.29
  22  0.500  0.250  0.750-  26 2.27  46 2.27  10 2.29  62 2.29
  23  0.500  0.750  0.250-  27 2.27  47 2.27  11 2.29  63 2.29
  24  0.500  0.750  0.750-  28 2.27  48 2.27  12 2.29  64 2.29
  25  0.375  0.125  0.375-  21 2.27  33 2.27   6 2.29  50 2.29
  26  0.375  0.125  0.875-  22 2.27  34 2.27   5 2.29  49 2.29
  27  0.375  0.625  0.375-  23 2.27  35 2.27   8 2.29  52 2.29
  28  0.375  0.625  0.875-  24 2.27  36 2.27   7 2.29  51 2.29
  29  0.875  0.125  0.375-  17 2.27  37 2.27   2 2.29  54 2.29
  30  0.875  0.125  0.875-  18 2.27  38 2.27   1 2.29  53 2.29
  31  0.875  0.625  0.375-  19 2.27  39 2.27   4 2.29  56 2.29
  32  0.875  0.625  0.875-  20 2.27  40 2.27   3 2.29  55 2.29
  33  0.250  0.000  0.250-  25 2.27  43 2.27  11 2.29  57 2.29
  34  0.250  0.000  0.750-  26 2.27  44 2.27  12 2.29  58 2.29
  35  0.250  0.500  0.250-  27 2.27  41 2.27   9 2.29  59 2.29
  36  0.250  0.500  0.750-  28 2.27  42 2.27  10 2.29  60 2.29
  37  0.750  0.000  0.250-  29 2.27  47 2.27  15 2.29  61 2.29
  38  0.750  0.000  0.750-  30 2.27  48 2.27  16 2.29  62 2.29
  39  0.750  0.500  0.250-  31 2.27  45 2.27  13 2.29  63 2.29
  40  0.750  0.500  0.750-  32 2.27  46 2.27  14 2.29  64 2.29
  41  0.125  0.375  0.375-  17 2.27  35 2.27   4 2.29  50 2.29
  42  0.125  0.375  0.875-  18 2.27  36 2.27   3 2.29  49 2.29
  43  0.125  0.875  0.375-  19 2.27  33 2.27   2 2.29  52 2.29
  44  0.125  0.875  0.875-  20 2.27  34 2.27   1 2.29  51 2.29
  45  0.625  0.375  0.375-  21 2.27  39 2.27   8 2.29  54 2.29
  46  0.625  0.375  0.875-  22 2.27  40 2.27   7 2.29  53 2.29
  47  0.625  0.875  0.375-  23 2.27  37 2.27   6 2.29  56 2.29
  48  0.625  0.875  0.875-  24 2.27  38 2.27   5 2.29  55 2.29
  49  0.250  0.250  0.000-   9 2.27  57 2.27  42 2.29  26 2.29
  50  0.250  0.250  0.500-  10 2.27  58 2.27  41 2.29  25 2.29
  51  0.250  0.750  0.000-  11 2.27  59 2.27  44 2.29  28 2.29
  52  0.250  0.750  0.500-  12 2.27  60 2.27  43 2.29  27 2.29
  53  0.750  0.250  0.000-  13 2.27  61 2.27  46 2.29  30 2.29
  54  0.750  0.250  0.500-  14 2.27  62 2.27  45 2.29  29 2.29
  55  0.750  0.750  0.000-  15 2.27  63 2.27  48 2.29  32 2.29
  56  0.750  0.750  0.500-  16 2.27  64 2.27  47 2.29  31 2.29
  57  0.125  0.125  0.125-   1 2.27  49 2.27  33 2.29  17 2.29
  58  0.125  0.125  0.625-   2 2.27  50 2.27  34 2.29  18 2.29
  59  0.125  0.625  0.125-   3 2.27  51 2.27  35 2.29  19 2.29
  60  0.125  0.625  0.625-   4 2.27  52 2.27  36 2.29  20 2.29
  61  0.625  0.125  0.125-   5 2.27  53 2.27  37 2.29  21 2.29
  62  0.625  0.125  0.625-   6 2.27  54 2.27  38 2.29  22 2.29
  63  0.625  0.625  0.125-   7 2.27  55 2.27  39 2.29  23 2.29
  64  0.625  0.625  0.625-   8 2.27  56 2.27  40 2.29  24 2.29
 
  LATTYP: Found a simple monoclinic cell.
 ALAT       =    10.4514808392
 B/A-ratio  =     1.0100882087
 C/A-ratio  =     1.0101008349
 COS(beta)  =    -0.0100503316
  
  Lattice vectors:
  
 A1 = (  10.4513475435,  -0.0527850078,   0.0000000000)
 A2 = (   0.0000000000,   0.0000000000, -10.5569175591)
 A3 = (  -0.0527850078,  10.5569175591,   0.0000000000)


Analysis of symmetry for initial positions (statically):
=====================================================================
 Subroutine PRICEL returns following result:
 
  LATTYP: Found a base centered monoclinic cell.
 ALAT       =     5.2257404196
 B/A-ratio  =     1.0100882087
 C/A-ratio  =     0.7071067812
 COS(beta)  =    -0.6999283404
  
  Lattice vectors:
  
 A1 = (  -2.6128368859,   0.0131962519,  -2.6392293898)
 A2 = (  -2.6128368859,   0.0131962519,   2.6392293898)
 A3 = (   2.5996406339,   2.6260331378,   0.0000000000)
 
  32 primitive cells build up your supercell.
 

 Routine SETGRP: Setting up the symmetry group for a 
 simple monoclinic supercell.


 Subroutine GETGRP returns: Found  4 space group operations
 (whereof  2 operations were pure point group operations)
 out of a pool of  4 trial point group operations.


The static configuration has the point symmetry C_2 .
 The point group associated with its full space group is C_2h.


Analysis of symmetry for dynamics (positions and initial velocities):
=====================================================================
 Subroutine PRICEL returns following result:
 
  LATTYP: Found a base centered monoclinic cell.
 ALAT       =     5.2257404196
 B/A-ratio  =     1.0100882087
 C/A-ratio  =     0.7071067812
 COS(beta)  =    -0.6999283404
  
  Lattice vectors:
  
 A1 = (  -2.6128368859,   0.0131962519,  -2.6392293898)
 A2 = (  -2.6128368859,   0.0131962519,   2.6392293898)
 A3 = (   2.5996406339,   2.6260331378,   0.0000000000)
 
  32 primitive cells build up your supercell.
 

 Routine SETGRP: Setting up the symmetry group for a 
 simple monoclinic supercell.


 Subroutine GETGRP returns: Found  4 space group operations
 (whereof  2 operations were pure point group operations)
 out of a pool of  4 trial point group operations.


The dynamic configuration has the point symmetry C_2 .
 The point group associated with its full space group is C_2h.


 Subroutine INISYM returns: Found  4 space group operations
 (whereof  2 operations are pure point group operations),
 and found    32 'primitive' translations


----------------------------------------------------------------------------------------

                                     Primitive cell                                     

  volume of cell :      36.3987

  direct lattice vectors                    reciprocal lattice vectors
    -2.612836886  0.013196252 -2.639229390    -0.190410870  0.188497177 -0.189449239
    -2.612836886  0.013196252  2.639229390    -0.190410870  0.188497177  0.189449239
     2.599640634  2.626033138  0.000000000     0.001913692  0.378908047 -0.000000000

  length of vectors
     3.713842014  3.713842014  3.695156487     0.328144022  0.328144022  0.378912880

  position of ions in fractional coordinates (direct lattice)
     0.000000000  0.000000000  0.000000000
     0.750000000  0.250000000  0.500000000

  ion indices of the primitive-cell ions
   primitive index   ion index
                 1           1
                 2          15

----------------------------------------------------------------------------------------

 
 
 KPOINTS: Automatic mesh                          

Automatic generation of k-mesh.
 Grid dimensions read from file:
 generate k-points for:    2    2    2

 Generating k-lattice:

  Cartesian coordinates                     Fractional coordinates (reciprocal lattice)
     0.047841929  0.000239212  0.000000000     0.500000000  0.000000000  0.000000000
     0.000239212  0.047363506  0.000000000     0.000000000  0.500000000  0.000000000
     0.000000000  0.000000000  0.047362310     0.000000000  0.000000000  0.500000000

  Length of vectors
     0.047842527  0.047364110  0.047362310

  Shift w.r.t. Gamma in fractional coordinates (k-lattice)
     0.000000000  0.000000000  0.000000000

 
 Subroutine IBZKPT returns following result:
 ===========================================
 
 Found      8 irreducible k-points:
 
 Following reciprocal coordinates:
            Coordinates               Weight
  0.000000  0.000000  0.000000      1.000000
  0.500000  0.000000  0.000000      1.000000
 -0.000000  0.500000  0.000000      1.000000
  0.500000  0.500000  0.000000      1.000000
  0.000000  0.000000  0.500000      1.000000
  0.500000  0.000000  0.500000      1.000000
 -0.000000  0.500000  0.500000      1.000000
  0.500000  0.500000  0.500000      1.000000
 
 Following cartesian coordinates:
            Coordinates               Weight
  0.000000  0.000000  0.000000      1.000000
  0.047842  0.000239  0.000000      1.000000
  0.000239  0.047364  0.000000      1.000000
  0.048081  0.047603  0.000000      1.000000
  0.000000  0.000000  0.047362      1.000000
  0.047842  0.000239  0.047362      1.000000
  0.000239  0.047364  0.047362      1.000000
  0.048081  0.047603  0.047362      1.000000
 


--------------------------------------------------------------------------------------------------------




 Dimension of arrays:
   k-points           NKPTS =      8   k-points in BZ     NKDIM =      8   number of bands    NBANDS=    162
   number of dos      NEDOS =    301   number of ions     NIONS =     64
   non local maximal  LDIM  =      4   non local SUM 2l+1 LMDIM =      8
   total plane-waves  NPLWV = 343000
   max r-space proj   IRMAX =   3295   max aug-charges    IRDMAX=  78958
   dimension x,y,z NGX =    70 NGY =   70 NGZ =   70
   dimension x,y,z NGXF=   140 NGYF=  140 NGZF=  140
   support grid    NGXF=   280 NGYF=  280 NGZF=  280
   ions per type =              64
   NGX,Y,Z   is equivalent  to a cutoff of  11.13, 11.02, 11.02 a.u.
   NGXF,Y,Z  is equivalent  to a cutoff of  22.27, 22.05, 22.05 a.u.

 SYSTEM =  Si64                                    
 POSCAR =  Si8                                     

 Startparameter for this run:
   NWRITE =      2    write-flag & timer
   PREC   = accura    normal or accurate (medium, high low for compatibility)
   ISTART =      0    job   : 0-new  1-cont  2-samecut
   ICHARG =      2    charge: 1-file 2-atom 10-const
   ISPIN  =      1    spin polarized calculation?
   LNONCOLLINEAR =      F non collinear calculations
   LSORBIT =      F    spin-orbit coupling
   INIWAV =      1    electr: 0-lowe 1-rand  2-diag
   LASPH  =      F    aspherical Exc in radial PAW
 Electronic Relaxation 1
   ENCUT  =  400.0 eV  29.40 Ry    5.42 a.u.  17.04 17.22 17.22*2*pi/ulx,y,z
   ENINI  =  400.0     initial cutoff
   ENAUG  =  322.1 eV  augmentation charge cutoff
   NELM   =     60;   NELMIN=  8; NELMDL= -5     # of ELM steps 
   EDIFF  = 0.1E-05   stopping-criterion for ELM
   LREAL  =      T    real-space projection
   NLSPLINE    = F    spline interpolate recip. space projectors
   LCOMPAT=      F    compatible to vasp.4.4
   GGA_COMPAT  = F    GGA compatible to vasp.4.4-vasp.4.6
   LMAXPAW     = -100 max onsite density
   LMAXMIX     =    2 max onsite mixed and CHGCAR
   VOSKOWN=      0    Vosko Wilk Nusair interpolation
   ROPT   =   -0.00025
 Ionic relaxation
   EDIFFG = -.1E-01   stopping-criterion for IOM
   NSW    =     60    number of steps for IOM
   NBLOCK =      1;   KBLOCK =     60    inner block; outer block 
   IBRION =      2    ionic relax: 0-MD 1-quasi-New 2-CG
   NFREE  =      1    steps in history (QN), initial steepest desc. (CG)
   ISIF   =      2    stress and relaxation
   IWAVPR =     11    prediction:  0-non 1-charg 2-wave 3-comb
   ISYM   =      2    0-nonsym 1-usesym 2-fastsym
   LCORR  =      T    Harris-Foulkes like correction to forces

   POTIM  = 0.5000    time-step for ionic-motion
   TEIN   =    0.0    initial temperature
   TEBEG  =    0.0;   TEEND  =   0.0 temperature during run
   SMASS  =  -3.00    Nose mass-parameter (am)
   estimated Nose-frequenzy (Omega)   =  0.10E-29 period in steps = 0.13E+47 mass=  -0.250E-26a.u.
   SCALEE = 1.0000    scale energy and forces
   NPACO  =    256;   APACO  = 10.0  distance and # of slots for P.C.
   PSTRESS=    0.0 pullay stress

  Mass of Ions in am
   POMASS =  28.09
  Ionic Valenz
   ZVAL   =   4.00
  Atomic Wigner-Seitz radii
   RWIGS  =  -1.00
  virtual crystal weights 
   VCA    =   1.00
   NELECT =     256.0000    total number of electrons
   NUPDOWN=      -1.0000    fix difference up-down

 DOS related values:
   EMIN   =  10.00;   EMAX   =-10.00  energy-range for DOS
   EFERMI =   0.00;   METHOD = LEGACY      
   ISMEAR =     1;   SIGMA  =   0.20  broadening in eV -4-tet -1-fermi 0-gaus

 Electronic relaxation 2 (details)
   IALGO  =     68    algorithm
   LDIAG  =      T    sub-space diagonalisation (order eigenvalues)
   LSUBROT=      F    optimize rotation matrix (better conditioning)
   TURBO    =      0    0=normal 1=particle mesh
   IRESTART =      0    0=no restart 2=restart with 2 vectors
   NREBOOT  =      0    no. of reboots
   NMIN     =      0    reboot dimension
   EREF     =   0.00    reference energy to select bands
   IMIX   =      4    mixing-type and parameters
     AMIX     =   0.40;   BMIX     =  1.00
     AMIX_MAG =   1.60;   BMIX_MAG =  1.00
     AMIN     =   0.10
     WC   =   100.;   INIMIX=   1;  MIXPRE=   1;  MAXMIX= -45

 Intra band minimization:
   WEIMIN = 0.0010     energy-eigenvalue tresh-hold
   EBREAK =  0.15E-08  absolut break condition
   DEPER  =   0.30     relativ break condition  

   TIME   =   0.40     timestep for ELM

  volume/ion in A,a.u.               =      18.20       122.82
  Fermi-wavevector in a.u.,A,eV,Ry     =   0.987968  1.866989 13.280390  0.976081
  Thomas-Fermi vector in A             =   2.119461
 
 Write flags
   LWAVE        =      F    write WAVECAR
   LDOWNSAMPLE  =      F    k-point downsampling of WAVECAR
   LCHARG       =      F    write CHGCAR
   LVTOT        =      F    write LOCPOT, total local potential
   LVHAR        =      F    write LOCPOT, Hartree potential only
   WRT_POTENTIAL= false  ! write potential to hdf5 file
   LELF         =      F    write electronic localiz. function (ELF)
   LORBIT       =      0    0 simple, 1 ext, 2 COOP (PROOUT), +10 PAW based schemes


 Dipole corrections
   LMONO      =      F    monopole corrections only (constant potential shift)
   LDIPOL     =      F    correct potential (dipole corrections)
   IDIPOL     =      0    1-x, 2-y, 3-z, 4-all directions 
   EPSILON    =  1.0000000 bulk dielectric constant
   LVACPOTAV  =      F  vacuum potentials using an averaging scheme for the charge density
   VACPOTFLAT =  0.1000000 required flatness to determine vacuum potential
 Exchange correlation treatment:
   GGA     = PS    functional components
   XC_C    = 1    coefficients multiplying the functional components
   LIBXC   =     F    Libxc                    
   VOSKOWN =     0    Vosko Wilk Nusair interpolation
   LHFCALC =     F    Hartree Fock is set to
   LHFONE  =     F    Hartree Fock one center treatment
   AEXX    =    0.0000 exact exchange contribution

 Parameters of functionals:
   PS:
     No parameter
 
 Van der Waals corrections
   IVDW    =     0    specifies the selected vdW correction

 Linear response parameters
   LEPSILON=     F    determine dielectric tensor
   LRPA    =     F    only Hartree local field effects (RPA)
   LNABLA  =     F    use nabla operator in PAW spheres
   LVEL    =     F    velocity operator in full k-point grid
   CSHIFT  =0.1000    complex shift for real part using Kramers Kronig
   OMEGAMAX=  -1.0    maximum frequency
   DEG_THRESHOLD= 0.2000000E-02 threshold for treating states as degnerate
   RTIME   =   -0.100 relaxation time in fs
  (WPLASMAI=    0.000 imaginary part of plasma frequency in eV, 0.658/RTIME)
   DFIELD  = 0.0000000 0.0000000 0.0000000 field for delta impulse in time
 
  Optional k-point grid parameters
   LKPOINTS_OPT  =     F    use optional k-point grid
   KPOINTS_OPT_MODE=     1    mode for optional k-point grid
 
 Orbital magnetization related:
   ORBITALMAG=     F  switch on orbital magnetization
   LCHIMAG   =     F  perturbation theory with respect to B field
   DQ        =  0.001000  dq finite difference perturbation B field
   LLRAUG    =     F  two centre corrections for induced B field
   LBONE     =     F  B-component reconstruction in AE one-centre
   LVGVCALC  =     T  calculate vGv susceptibility
   LVGVAPPL  =     F  apply vGv susceptibility instead of pGv for G=0

 Random number generation:
   RANDOM_GENERATOR = DEFAULT
   PCG_SEED         = not used


--------------------------------------------------------------------------------------------------------


 conjugate gradient relaxation of ions
 charge density and potential will be updated during run
 non-spin polarized calculation
 RMM-DIIS sequential band-by-band and
  variant of blocked Davidson during initial phase
 perform sub-space diagonalisation
    before iterative eigenvector-optimisation
 modified Broyden-mixing scheme, WC =      100.0
 initial mixing is a Kerker type mixing with AMIX =  0.4000 and BMIX =      1.0000
 Hartree-type preconditioning will be used
 using additional bands           34
 real space projection scheme for non local part
 use partial core corrections
 calculate Harris-corrections to forces 
   (improved forces if not selfconsistent)
 use gradient corrections 
 use of overlap-Matrix (Vanderbilt PP)
 Methfessel and Paxton  Order N= 1 SIGMA  =   0.20


--------------------------------------------------------------------------------------------------------


  energy-cutoff  :      400.00
  volume of cell :     1164.76
      direct lattice vectors                 reciprocal lattice vectors
    10.451347543 -0.052785008  0.000000000     0.095683858  0.000478423  0.000000000
    -0.052785008 10.556917559  0.000000000     0.000478423  0.094727012  0.000000000
     0.000000000  0.000000000 10.556917559     0.000000000  0.000000000  0.094724620

  length of vectors
    10.451480839 10.557049522 10.556917559     0.095685054  0.094728220  0.094724620


 
 k-points in units of 2pi/SCALE and weight: Automatic mesh                          
   0.00000000  0.00000000  0.00000000       0.125
   0.04784194  0.00023921  0.00000000       0.125
   0.00023921  0.04736351  0.00000000       0.125
   0.04808115  0.04760272  0.00000000       0.125
   0.00000000  0.00000000  0.04736232       0.125
   0.04784194  0.00023921  0.04736232       0.125
   0.00023921  0.04736351  0.04736232       0.125
   0.04808115  0.04760272  0.04736232       0.125
 
 k-points in reciprocal lattice and weights: Automatic mesh                          
   0.00000000  0.00000000  0.00000000       0.125
   0.50000000  0.00000000  0.00000000       0.125
  -0.00000000  0.50000000  0.00000000       0.125
   0.50000000  0.50000000  0.00000000       0.125
   0.00000000  0.00000000  0.50000000       0.125
   0.50000000  0.00000000  0.50000000       0.125
  -0.00000000  0.50000000  0.50000000       0.125
   0.50000000  0.50000000  0.50000000       0.125
 
 position of ions in fractional coordinates (direct lattice) 
   0.00000000  0.00000000  0.00000000
   0.00000000  0.00000000  0.50000000
   0.00000000  0.50000000  0.00000000
   0.00000000  0.50000000  0.50000000
   0.50000000  0.00000000  0.00000000
   0.50000000  0.00000000  0.50000000
   0.50000000  0.50000000  0.00000000
   0.50000000  0.50000000  0.50000000
   0.37500000  0.37500000  0.12500000
   0.37500000  0.37500000  0.62500000
   0.37500000  0.87500000  0.12500000
   0.37500000  0.87500000  0.62500000
   0.87500000  0.37500000  0.12500000
   0.87500000  0.37500000  0.62500000
   0.87500000  0.87500000  0.12500000
   0.87500000  0.87500000  0.62500000
   0.00000000  0.25000000  0.25000000
   0.00000000  0.25000000  0.75000000
   0.00000000  0.75000000  0.25000000
   0.00000000  0.75000000  0.75000000
   0.50000000  0.25000000  0.25000000
   0.50000000  0.25000000  0.75000000
   0.50000000  0.75000000  0.25000000
   0.50000000  0.75000000  0.75000000
   0.37500000  0.12500000  0.37500000
   0.37500000  0.12500000  0.87500000
   0.37500000  0.62500000  0.37500000
   0.37500000  0.62500000  0.87500000
   0.87500000  0.12500000  0.37500000
   0.87500000  0.12500000  0.87500000
   0.87500000  0.62500000  0.37500000
   0.87500000  0.62500000  0.87500000
   0.25000000  0.00000000  0.25000000
   0.25000000  0.00000000  0.75000000
   0.25000000  0.50000000  0.25000000
   0.25000000  0.50000000  0.75000000
   0.75000000  0.00000000  0.25000000
   0.75000000  0.00000000  0.75000000
   0.75000000  0.50000000  0.25000000
   0.75000000  0.50000000  0.75000000
   0.12500000  0.37500000  0.37500000
   0.12500000  0.37500000  0.87500000
   0.12500000  0.87500000  0.37500000
   0.12500000  0.87500000  0.87500000
   0.62500000  0.37500000  0.37500000
   0.62500000  0.37500000  0.87500000
   0.62500000  0.87500000  0.37500000
   0.62500000  0.87500000  0.87500000
   0.25000000  0.25000000  0.00000000
   0.25000000  0.25000000  0.50000000
   0.25000000  0.75000000  0.00000000
   0.25000000  0.75000000  0.50000000
   0.75000000  0.25000000  0.00000000
   0.75000000  0.25000000  0.50000000
   0.75000000  0.75000000  0.00000000
   0.75000000  0.75000000  0.50000000
   0.12500000  0.12500000  0.12500000
   0.12500000  0.12500000  0.62500000
   0.12500000  0.62500000  0.12500000
   0.12500000  0.62500000  0.62500000
   0.62500000  0.12500000  0.12500000
   0.62500000  0.12500000  0.62500000
   0.62500000  0.62500000  0.12500000
   0.62500000  0.62500000  0.62500000
 
 position of ions in cartesian coordinates  (Angst):
   0.00000000  0.00000000  0.00000000
   0.00000000  0.00000000  5.27845878
  -0.02639250  5.27845878  0.00000000
  -0.02639250  5.27845878  5.27845878
   5.22567377 -0.02639250  0.00000000
   5.22567377 -0.02639250  5.27845878
   5.19928127  5.25206628  0.00000000
   5.19928127  5.25206628  5.27845878
   3.89946095  3.93904971  1.31961469
   3.89946095  3.93904971  6.59807347
   3.87306845  9.21750849  1.31961469
   3.87306845  9.21750849  6.59807347
   9.12513472  3.91265720  1.31961469
   9.12513472  3.91265720  6.59807347
   9.09874222  9.19111598  1.31961469
   9.09874222  9.19111598  6.59807347
  -0.01319625  2.63922939  2.63922939
  -0.01319625  2.63922939  7.91768817
  -0.03958876  7.91768817  2.63922939
  -0.03958876  7.91768817  7.91768817
   5.21247752  2.61283689  2.63922939
   5.21247752  2.61283689  7.91768817
   5.18608502  7.89129567  2.63922939
   5.18608502  7.89129567  7.91768817
   3.91265720  1.29982032  3.95884408
   3.91265720  1.29982032  9.23730286
   3.88626470  6.57827910  3.95884408
   3.88626470  6.57827910  9.23730286
   9.13833097  1.27342781  3.95884408
   9.13833097  1.27342781  9.23730286
   9.11193847  6.55188659  3.95884408
   9.11193847  6.55188659  9.23730286
   2.61283689 -0.01319625  2.63922939
   2.61283689 -0.01319625  7.91768817
   2.58644438  5.26526253  2.63922939
   2.58644438  5.26526253  7.91768817
   7.83851066 -0.03958876  2.63922939
   7.83851066 -0.03958876  7.91768817
   7.81211815  5.23887002  2.63922939
   7.81211815  5.23887002  7.91768817
   1.28662407  3.95224596  3.95884408
   1.28662407  3.95224596  9.23730286
   1.26023156  9.23070474  3.95884408
   1.26023156  9.23070474  9.23730286
   6.51229784  3.92585345  3.95884408
   6.51229784  3.92585345  9.23730286
   6.48590533  9.20431223  3.95884408
   6.48590533  9.20431223  9.23730286
   2.59964063  2.62603314  0.00000000
   2.59964063  2.62603314  5.27845878
   2.57324813  7.90449192  0.00000000
   2.57324813  7.90449192  5.27845878
   7.82531441  2.59964063  0.00000000
   7.82531441  2.59964063  5.27845878
   7.79892190  7.87809941  0.00000000
   7.79892190  7.87809941  5.27845878
   1.29982032  1.31301657  1.31961469
   1.29982032  1.31301657  6.59807347
   1.27342781  6.59147535  1.31961469
   1.27342781  6.59147535  6.59807347
   6.52549409  1.28662407  1.31961469
   6.52549409  1.28662407  6.59807347
   6.49910158  6.56508284  1.31961469
   6.49910158  6.56508284  6.59807347
 


--------------------------------------------------------------------------------------------------------


 k-point     1 :   0.0000 0.0000 0.0000  plane waves:   21147
 k-point     2 :   0.5000 0.0000 0.0000  plane waves:   21194
 k-point     3 :  -0.0000 0.5000 0.0000  plane waves:   21156
 k-point     4 :   0.5000 0.5000 0.0000  plane waves:   21150
 k-point     5 :   0.0000 0.0000 0.5000  plane waves:   21154
 k-point     6 :   0.5000 0.0000 0.5000  plane waves:   21160
 k-point     7 :  -0.0000 0.5000 0.5000  plane waves:   21160
 k-point     8 :   0.5000 0.5000 0.5000  plane waves:   21156

 maximum and minimum number of plane-waves per node :      1806     1718

 maximum number of plane-waves:     21194
 maximum index in each direction: 
   IXMAX=   17   IYMAX=   17   IZMAX=   17
   IXMIN=  -17   IYMIN=  -17   IZMIN=  -17


 real space projection operators:
  total allocation   :      12610.50 KBytes
  max/ min on nodes  :       1094.50        913.25


 parallel 3D FFT for wavefunctions:
    minimum data exchange during FFTs selected (reduces bandwidth)
 parallel 3D FFT for charge:
    minimum data exchange during FFTs selected (reduces bandwidth)


 total amount of memory used by VASP MPI-rank0    78531. kBytes
=======================================================================

   base      :      30000. kBytes
   nonlr-proj:       4875. kBytes
   fftplans  :      17991. kBytes
   grid      :       6881. kBytes
   one-center:         18. kBytes
   wavefun   :      18766. kBytes
 
     INWAV:  cpu time      0.0000: real time      0.0000
 Broyden mixing: mesh for mixing (old mesh)
   NGX = 35   NGY = 35   NGZ = 35
  (NGX  =140   NGY  =140   NGZ  =140)
  gives a total of  42875 points

 initial charge density was supplied:
 charge density of overlapping atoms calculated
 number of electron     256.0000000 magnetization 
 keeping initial charge density in first step


--------------------------------------------------------------------------------------------------------


 Maximum index for non-local projection operator          294
 Maximum index for augmentation-charges         3917 (set IRDMAX)


--------------------------------------------------------------------------------------------------------


 First call to EWALD:  gamma=   0.168
 Maximum number of real-space cells 3x 3x 3
 Maximum number of reciprocal cells 3x 3x 3

    FEWALD:  cpu time      0.0042: real time      0.0042


--------------------------------------- Ionic step        1  -------------------------------------------




--------------------------------------- Iteration      1(   1)  ---------------------------------------


    POTLOK:  cpu time      0.0936: real time      0.1026
    SETDIJ:  cpu time      0.0877: real time      0.0899
     EDDAV:  cpu time      1.2775: real time      1.3532
       DOS:  cpu time      0.0100: real time      0.0131
    --------------------------------------------
      LOOP:  cpu time      1.4687: real time      1.5589

 eigenvalue-minimisations  :  2592
 total energy-change (2. order) : 0.5764903E+03  (-0.8542372E+04)
 number of electron     256.0000000 magnetization 
 augmentation part      256.0000000 magnetization 

 Free energy of the ion-electron system (eV)
  ---------------------------------------------------
  alpha Z        PSCENC =       118.38014564
  Ewald energy   TEWEN  =     -7549.30119340
  -Hartree energ DENC   =      -307.93251592
  -exchange      EXHF   =         0.00000000
  -V(xc)+E(xc)   XCENC  =      -547.14203368
  PAW double counting   =      5598.62625415    -4492.17844134
  entropy T*S    EENTRO =        -0.00609485
  eigenvalues    EBANDS =      1191.24828510
  atomic energy  EATOM  =      6564.79586099
  Solvation  Ediel_sol  =         0.00000000
  ---------------------------------------------------
  free energy    TOTEN  =       576.49026670 eV

  energy without entropy =      576.49636155  energy(sigma->0) =      576.49229831


--------------------------------------------------------------------------------------------------------




--------------------------------------- Iteration      1(   2)  ---------------------------------------


     EDDAV:  cpu time      1.3187: real time      1.3363
       DOS:  cpu time      0.0017: real time      0.0018
    --------------------------------------------
      LOOP:  cpu time      1.3204: real time      1.3380

 eigenvalue-minimisations  :  3080
 total energy-change (2. order) :-0.8843823E+03  (-0.8386377E+03)
 number of electron     256.0000000 magnetization 
 augmentation part      256.0000000 magnetization 

 Free energy of the ion-electron system (eV)
  ---------------------------------------------------
  alpha Z        PSCENC =       118.38014564
  Ewald energy   TEWEN  =     -7549.30119340
  -Hartree energ DENC   =      -307.93251592
  -exchange      EXHF   =         0.00000000
  -V(xc)+E(xc)   XCENC  =      -547.14203368
  PAW double counting   =      5598.62625415    -4492.17844134
  entropy T*S    EENTRO =         0.00638007
  eigenvalues    EBANDS =       306.85355213
  atomic energy  EATOM  =      6564.79586099
  Solvation  Ediel_sol  =         0.00000000
  ---------------------------------------------------
  free energy    TOTEN  =      -307.89199135 eV

  energy without entropy =     -307.89837142  energy(sigma->0) =     -307.89411804


--------------------------------------------------------------------------------------------------------




--------------------------------------- Iteration      1(   3)  ---------------------------------------


     EDDAV:  cpu time      1.3818: real time      1.3976
       DOS:  cpu time      0.0013: real time      0.0013
    --------------------------------------------
      LOOP:  cpu time      1.3831: real time      1.3990

 eigenvalue-minimisations  :  3136
 total energy-change (2. order) :-0.6336012E+02  (-0.6212730E+02)
 number of electron     256.0000000 magnetization 
 augmentation part      256.0000000 magnetization 

 Free energy of the ion-electron system (eV)
  ---------------------------------------------------
  alpha Z        PSCENC =       118.38014564
  Ewald energy   TEWEN  =     -7549.30119340
  -Hartree energ DENC   =      -307.93251592
  -exchange      EXHF   =         0.00000000
  -V(xc)+E(xc)   XCENC  =      -547.14203368
  PAW double counting   =      5598.62625415    -4492.17844134
  entropy T*S    EENTRO =         0.00803373
  eigenvalues    EBANDS =       243.49177363
  atomic energy  EATOM  =      6564.79586099
  Solvation  Ediel_sol  =         0.00000000
  ---------------------------------------------------
  free energy    TOTEN  =      -371.25211619 eV

  energy without entropy =     -371.26014992  energy(sigma->0) =     -371.25479410


--------------------------------------------------------------------------------------------------------




--------------------------------------- Iteration      1(   4)  ---------------------------------------


     EDDAV:  cpu time      1.3345: real time      1.3512
       DOS:  cpu time      0.0013: real time      0.0014
    --------------------------------------------
      LOOP:  cpu time      1.3358: real time      1.3526

 eigenvalue-minimisations  :  3144
 total energy-change (2. order) :-0.1609784E+01  (-0.1598465E+01)
 number of electron     256.0000000 magnetization 
 augmentation part      256.0000000 magnetization 

 Free energy of the ion-electron system (eV)
  ---------------------------------------------------
  alpha Z        PSCENC =       118.38014564
  Ewald energy   TEWEN  =     -7549.30119340
  -Hartree energ DENC   =      -307.93251592
  -exchange      EXHF   =         0.00000000
  -V(xc)+E(xc)   XCENC  =      -547.14203368
  PAW double counting   =      5598.62625415    -4492.17844134
  entropy T*S    EENTRO =         0.00826102
  eigenvalues    EBANDS =       241.88176188
  atomic energy  EATOM  =      6564.79586099
  Solvation  Ediel_sol  =         0.00000000
  ---------------------------------------------------
  free energy    TOTEN  =      -372.86190065 eV

  energy without entropy =     -372.87016167  energy(sigma->0) =     -372.86465433


--------------------------------------------------------------------------------------------------------




--------------------------------------- Iteration      1(   5)  ---------------------------------------


     EDDAV:  cpu time      1.3448: real time      1.3673
       DOS:  cpu time      0.0012: real time      0.0012
    CHARGE:  cpu time      0.2499: real time      0.2545
    MIXING:  cpu time      0.0094: real time      0.0135
    --------------------------------------------
      LOOP:  cpu time      1.6053: real time      1.6365

 eigenvalue-minimisations  :  3074
 total energy-change (2. order) :-0.4904525E-01  (-0.4893422E-01)
 number of electron     255.9999997 magnetization 
 augmentation part      -15.2048908 magnetization 

 Broyden mixing:
  rms(total) = 0.31822E+01    rms(broyden)= 0.31822E+01
  rms(prec ) = 0.35007E+01
  weight for this iteration     100.00

 Free energy of the ion-electron system (eV)
  ---------------------------------------------------
  alpha Z        PSCENC =       118.38014564
  Ewald energy   TEWEN  =     -7549.30119340
  -Hartree energ DENC   =      -307.93251592
  -exchange      EXHF   =         0.00000000
  -V(xc)+E(xc)   XCENC  =      -547.14203368
  PAW double counting   =      5598.62625415    -4492.17844134
  entropy T*S    EENTRO =         0.00822939
  eigenvalues    EBANDS =       241.83274826
  atomic energy  EATOM  =      6564.79586099
  Solvation  Ediel_sol  =         0.00000000
  ---------------------------------------------------
  free energy    TOTEN  =      -372.91094590 eV

  energy without entropy =     -372.91917529  energy(sigma->0) =     -372.91368903


--------------------------------------------------------------------------------------------------------




--------------------------------------- Iteration      1(   6)  ---------------------------------------


    POTLOK:  cpu time      0.0728: real time      0.0891
    SETDIJ:  cpu time      0.0764: real time      0.0766
    EDDIAG:  cpu time      0.1371: real time      0.1398
  RMM-DIIS:  cpu time      0.6981: real time      0.7027
    ORTHCH:  cpu time      0.0195: real time      0.0196
       DOS:  cpu time      0.0016: real time      0.0016
    CHARGE:  cpu time      0.2353: real time      0.2360
    MIXING:  cpu time      0.0080: real time      0.0110
    --------------------------------------------
      LOOP:  cpu time      1.2488: real time      1.2763

 eigenvalue-minimisations  :  2592
 total energy-change (2. order) : 0.6544744E+01  (-0.3507724E+00)
 number of electron     255.9999997 magnetization 
 augmentation part      -15.0053214 magnetization 

 Broyden mixing:
  rms(total) = 0.19236E+01    rms(broyden)= 0.19236E+01
  rms(prec ) = 0.21000E+01
  weight for this iteration     100.00

 eigenvalues of (default mixing * dielectric matrix)
  average eigenvalue GAMMA=   2.5213
  2.5213

 Free energy of the ion-electron system (eV)
  ---------------------------------------------------
  alpha Z        PSCENC =       118.38014564
  Ewald energy   TEWEN  =     -7549.30119340
  -Hartree energ DENC   =      -358.85905573
  -exchange      EXHF   =         0.00000000
  -V(xc)+E(xc)   XCENC  =      -539.05377084
  PAW double counting   =     13763.74743383   -12661.66080740
  entropy T*S    EENTRO =         0.02466374
  eigenvalues    EBANDS =       295.56052140
  atomic energy  EATOM  =      6564.79586099
  Solvation  Ediel_sol  =         0.00000000
  ---------------------------------------------------
  free energy    TOTEN  =      -366.36620176 eV

  energy without entropy =     -366.39086550  energy(sigma->0) =     -366.37442301


--------------------------------------------------------------------------------------------------------




--------------------------------------- Iteration      1(   7)  ---------------------------------------


    POTLOK:  cpu time      0.0755: real time      0.0900
    SETDIJ:  cpu time      0.0737: real time      0.0739
    EDDIAG:  cpu time      0.1355: real time      0.1358
  RMM-DIIS:  cpu time      0.7058: real time      0.7083
    ORTHCH:  cpu time      0.0198: real time      0.0199
       DOS:  cpu time      0.0020: real time      0.0020
    CHARGE:  cpu time      0.2356: real time      0.2363
    MIXING:  cpu time      0.0070: real time      0.0083
    --------------------------------------------
      LOOP:  cpu time      1.2548: real time      1.2745

 eigenvalue-minimisations  :  2659
 total energy-change (2. order) : 0.2782861E+01  (-0.8799207E+00)
 number of electron     255.9999997 magnetization 
 augmentation part      -14.7231347 magnetization 

 Broyden mixing:
  rms(total) = 0.13045E+00    rms(broyden)= 0.13045E+00
  rms(prec ) = 0.16329E+00
  weight for this iteration     100.00

 eigenvalues of (default mixing * dielectric matrix)
  average eigenvalue GAMMA=   2.3146
  2.3146  2.3146

 Free energy of the ion-electron system (eV)
  ---------------------------------------------------
  alpha Z        PSCENC =       118.38014564
  Ewald energy   TEWEN  =     -7549.30119340
  -Hartree energ DENC   =      -442.54343035
  -exchange      EXHF   =         0.00000000
  -V(xc)+E(xc)   XCENC  =      -525.16642062
  PAW double counting   =     34351.06860473   -33255.15897892
  entropy T*S    EENTRO =         0.01825364
  eigenvalues    EBANDS =       374.32381773
  atomic energy  EATOM  =      6564.79586099
  Solvation  Ediel_sol  =         0.00000000
  ---------------------------------------------------
  free energy    TOTEN  =      -363.58334056 eV

  energy without entropy =     -363.60159421  energy(sigma->0) =     -363.58942511


--------------------------------------------------------------------------------------------------------




--------------------------------------- Iteration      1(   8)  ---------------------------------------


    POTLOK:  cpu time      0.0794: real time      0.0931
    SETDIJ:  cpu time      0.0758: real time      0.0760
    EDDIAG:  cpu time      0.1333: real time      0.1336
  RMM-DIIS:  cpu time      0.6894: real time      0.6917
    ORTHCH:  cpu time      0.0198: real time      0.0199
       DOS:  cpu time      0.0015: real time      0.0015
    CHARGE:  cpu time      0.2356: real time      0.2363
    MIXING:  cpu time      0.0072: real time      0.0078
    --------------------------------------------
      LOOP:  cpu time      1.2420: real time      1.2599

 eigenvalue-minimisations  :  2610
 total energy-change (2. order) :-0.2659667E-01  (-0.7966432E-01)
 number of electron     255.9999997 magnetization 
 augmentation part      -14.7869438 magnetization 

 Broyden mixing:
  rms(total) = 0.57060E-01    rms(broyden)= 0.57060E-01
  rms(prec ) = 0.61613E-01
  weight for this iteration     100.00

 eigenvalues of (default mixing * dielectric matrix)
  average eigenvalue GAMMA=   2.0621
  2.5589  1.8137  1.8137

 Free energy of the ion-electron system (eV)
  ---------------------------------------------------
  alpha Z        PSCENC =       118.38014564
  Ewald energy   TEWEN  =     -7549.30119340
  -Hartree energ DENC   =      -432.09475029
  -exchange      EXHF   =         0.00000000
  -V(xc)+E(xc)   XCENC  =      -526.06313681
  PAW double counting   =     34208.22320057   -33111.10325039
  entropy T*S    EENTRO =         0.02555077
  eigenvalues    EBANDS =       363.52763568
  atomic energy  EATOM  =      6564.79586099
  Solvation  Ediel_sol  =         0.00000000
  ---------------------------------------------------
  free energy    TOTEN  =      -363.60993723 eV

  energy without entropy =     -363.63548800  energy(sigma->0) =     -363.61845416


--------------------------------------------------------------------------------------------------------




--------------------------------------- Iteration      1(   9)  ---------------------------------------


    POTLOK:  cpu time      0.0756: real time      0.0887
    SETDIJ:  cpu time      0.0787: real time      0.0789
    EDDIAG:  cpu time      0.1310: real time      0.1314
  RMM-DIIS:  cpu time      0.7160: real time      0.7183
    ORTHCH:  cpu time      0.0198: real time      0.0199
       DOS:  cpu time      0.0017: real time      0.0017
    CHARGE:  cpu time      0.2345: real time      0.2350
    MIXING:  cpu time      0.0073: real time      0.0073
    --------------------------------------------
      LOOP:  cpu time      1.2645: real time      1.2812

 eigenvalue-minimisations  :  2676
 total energy-change (2. order) :-0.2479704E-01  (-0.2460521E-01)
 number of electron     255.9999997 magnetization 
 augmentation part      -14.7692374 magnetization 

 Broyden mixing:
  rms(total) = 0.63520E-01    rms(broyden)= 0.63520E-01
  rms(prec ) = 0.72918E-01
  weight for this iteration     100.00

 eigenvalues of (default mixing * dielectric matrix)
  average eigenvalue GAMMA=   1.8823
  2.5483  2.2782  2.2782  0.4244

 Free energy of the ion-electron system (eV)
  ---------------------------------------------------
  alpha Z        PSCENC =       118.38014564
  Ewald energy   TEWEN  =     -7549.30119340
  -Hartree energ DENC   =      -436.11581696
  -exchange      EXHF   =         0.00000000
  -V(xc)+E(xc)   XCENC  =      -525.53589562
  PAW double counting   =     34704.59022619   -33607.83494149
  entropy T*S    EENTRO =         0.02361775
  eigenvalues    EBANDS =       367.36326263
  atomic energy  EATOM  =      6564.79586099
  Solvation  Ediel_sol  =         0.00000000
  ---------------------------------------------------
  free energy    TOTEN  =      -363.63473427 eV

  energy without entropy =     -363.65835202  energy(sigma->0) =     -363.64260685


--------------------------------------------------------------------------------------------------------




--------------------------------------- Iteration      1(  10)  ---------------------------------------


    POTLOK:  cpu time      0.0768: real time      0.0924
    SETDIJ:  cpu time      0.0726: real time      0.0728
    EDDIAG:  cpu time      0.1314: real time      0.1317
  RMM-DIIS:  cpu time      0.7114: real time      0.7137
    ORTHCH:  cpu time      0.0196: real time      0.0196
       DOS:  cpu time      0.0015: real time      0.0015
    CHARGE:  cpu time      0.2321: real time      0.2363
    MIXING:  cpu time      0.0137: real time      0.0137
    --------------------------------------------
      LOOP:  cpu time      1.2591: real time      1.2817

 eigenvalue-minimisations  :  2707
 total energy-change (2. order) :-0.5046024E-02  (-0.4364874E-02)
 number of electron     255.9999997 magnetization 
 augmentation part      -14.7751988 magnetization 

 Broyden mixing:
  rms(total) = 0.88967E-01    rms(broyden)= 0.88967E-01
  rms(prec ) = 0.97508E-01
  weight for this iteration     100.00

 eigenvalues of (default mixing * dielectric matrix)
  average eigenvalue GAMMA=   1.6175
  2.6418  2.2921  1.8253  0.6640  0.6640

 Free energy of the ion-electron system (eV)
  ---------------------------------------------------
  alpha Z        PSCENC =       118.38014564
  Ewald energy   TEWEN  =     -7549.30119340
  -Hartree energ DENC   =      -436.32033150
  -exchange      EXHF   =         0.00000000
  -V(xc)+E(xc)   XCENC  =      -525.51408425
  PAW double counting   =     34756.69792417   -33659.95103636
  entropy T*S    EENTRO =         0.02346172
  eigenvalues    EBANDS =       367.54947268
  atomic energy  EATOM  =      6564.79586099
  Solvation  Ediel_sol  =         0.00000000
  ---------------------------------------------------
  free energy    TOTEN  =      -363.63978029 eV

  energy without entropy =     -363.66324202  energy(sigma->0) =     -363.64760087


--------------------------------------------------------------------------------------------------------




--------------------------------------- Iteration      1(  11)  ---------------------------------------


    POTLOK:  cpu time      0.0715: real time      0.0873
    SETDIJ:  cpu time      0.0755: real time      0.0757
    EDDIAG:  cpu time      0.1314: real time      0.1317
  RMM-DIIS:  cpu time      0.6916: real time      0.6937
    ORTHCH:  cpu time      0.0199: real time      0.0199
       DOS:  cpu time      0.0014: real time      0.0014
    CHARGE:  cpu time      0.2343: real time      0.2348
    MIXING:  cpu time      0.0074: real time      0.0074
    --------------------------------------------
      LOOP:  cpu time      1.2330: real time      1.2520

 eigenvalue-minimisations  :  2592
 total energy-change (2. order) : 0.5753225E-02  (-0.1602949E-02)
 number of electron     255.9999997 magnetization 
 augmentation part      -14.7911689 magnetization 

 Broyden mixing:
  rms(total) = 0.60306E-01    rms(broyden)= 0.60306E-01
  rms(prec ) = 0.60834E-01
  weight for this iteration     100.00

 eigenvalues of (default mixing * dielectric matrix)
  average eigenvalue GAMMA=   1.4696
  2.5678  2.5678  1.5051  1.0527  0.8253  0.2988

 Free energy of the ion-electron system (eV)
  ---------------------------------------------------
  alpha Z        PSCENC =       118.38014564
  Ewald energy   TEWEN  =     -7549.30119340
  -Hartree energ DENC   =      -433.26212224
  -exchange      EXHF   =         0.00000000
  -V(xc)+E(xc)   XCENC  =      -525.75949615
  PAW double counting   =     34651.84164096   -33554.80430776
  entropy T*S    EENTRO =         0.02557673
  eigenvalues    EBANDS =       364.44986817
  atomic energy  EATOM  =      6564.79586099
  Solvation  Ediel_sol  =         0.00000000
  ---------------------------------------------------
  free energy    TOTEN  =      -363.63402707 eV

  energy without entropy =     -363.65960380  energy(sigma->0) =     -363.64255264


--------------------------------------------------------------------------------------------------------




--------------------------------------- Iteration      1(  12)  ---------------------------------------


    POTLOK:  cpu time      0.0781: real time      0.0878
    SETDIJ:  cpu time      0.0774: real time      0.0776
    EDDIAG:  cpu time      0.1307: real time      0.1310
  RMM-DIIS:  cpu time      0.6891: real time      0.6910
    ORTHCH:  cpu time      0.0194: real time      0.0194
       DOS:  cpu time      0.0016: real time      0.0016
    CHARGE:  cpu time      0.2342: real time      0.2347
    MIXING:  cpu time      0.0076: real time      0.0076
    --------------------------------------------
      LOOP:  cpu time      1.2380: real time      1.2507

 eigenvalue-minimisations  :  2618
 total energy-change (2. order) :-0.2061562E-03  (-0.1966706E-03)
 number of electron     255.9999997 magnetization 
 augmentation part      -14.7940045 magnetization 

 Broyden mixing:
  rms(total) = 0.58450E-01    rms(broyden)= 0.58450E-01
  rms(prec ) = 0.58794E-01
  weight for this iteration     100.00

 eigenvalues of (default mixing * dielectric matrix)
  average eigenvalue GAMMA=   1.4436
  2.5789  2.5789  1.8383  1.0230  0.9198  0.7536  0.4126

 Free energy of the ion-electron system (eV)
  ---------------------------------------------------
  alpha Z        PSCENC =       118.38014564
  Ewald energy   TEWEN  =     -7549.30119340
  -Hartree energ DENC   =      -433.16709369
  -exchange      EXHF   =         0.00000000
  -V(xc)+E(xc)   XCENC  =      -525.77865443
  PAW double counting   =     34571.99595350   -33474.96937279
  entropy T*S    EENTRO =         0.02561210
  eigenvalues    EBANDS =       364.38450886
  atomic energy  EATOM  =      6564.79586099
  Solvation  Ediel_sol  =         0.00000000
  ---------------------------------------------------
  free energy    TOTEN  =      -363.63423322 eV

  energy without entropy =     -363.65984532  energy(sigma->0) =     -363.64277059


--------------------------------------------------------------------------------------------------------




--------------------------------------- Iteration      1(  13)  ---------------------------------------


    POTLOK:  cpu time      0.0797: real time      0.0951
    SETDIJ:  cpu time      0.0723: real time      0.0725
    EDDIAG:  cpu time      0.1308: real time      0.1311
  RMM-DIIS:  cpu time      0.7285: real time      0.7306
    ORTHCH:  cpu time      0.0195: real time      0.0195
       DOS:  cpu time      0.0015: real time      0.0015
    CHARGE:  cpu time      0.2339: real time      0.2345
    MIXING:  cpu time      0.0083: real time      0.0083
    --------------------------------------------
      LOOP:  cpu time      1.2745: real time      1.2931

 eigenvalue-minimisations  :  2719
 total energy-change (2. order) :-0.7963421E-04  (-0.3773788E-04)
 number of electron     255.9999997 magnetization 
 augmentation part      -14.7946370 magnetization 

 Broyden mixing:
  rms(total) = 0.65352E-01    rms(broyden)= 0.65352E-01
  rms(prec ) = 0.65648E-01
  weight for this iteration     100.00

 eigenvalues of (default mixing * dielectric matrix)
  average eigenvalue GAMMA=   1.8135
  3.3160  3.3160  2.4449  2.1857  0.9842  0.9081  0.9081  0.4453

 Free energy of the ion-electron system (eV)
  ---------------------------------------------------
  alpha Z        PSCENC =       118.38014564
  Ewald energy   TEWEN  =     -7549.30119340
  -Hartree energ DENC   =      -433.21132458
  -exchange      EXHF   =         0.00000000
  -V(xc)+E(xc)   XCENC  =      -525.76530139
  PAW double counting   =     34638.87305444   -33541.85077863
  entropy T*S    EENTRO =         0.02561571
  eigenvalues    EBANDS =       364.41960835
  atomic energy  EATOM  =      6564.79586099
  Solvation  Ediel_sol  =         0.00000000
  ---------------------------------------------------
  free energy    TOTEN  =      -363.63431286 eV

  energy without entropy =     -363.65992857  energy(sigma->0) =     -363.64285143


--------------------------------------------------------------------------------------------------------




--------------------------------------- Iteration      1(  14)  ---------------------------------------


    POTLOK:  cpu time      0.0750: real time      0.0954
    SETDIJ:  cpu time      0.0704: real time      0.0721
    EDDIAG:  cpu time      0.1295: real time      0.1321
  RMM-DIIS:  cpu time      0.7001: real time      0.7233
    ORTHCH:  cpu time      0.0190: real time      0.0196
       DOS:  cpu time      0.0018: real time      0.0018
    CHARGE:  cpu time      0.2340: real time      0.2371
    MIXING:  cpu time      0.0067: real time      0.0068
    --------------------------------------------
      LOOP:  cpu time      1.2364: real time      1.2881

 eigenvalue-minimisations  :  2600
 total energy-change (2. order) : 0.3078592E-04  (-0.1014265E-04)
 number of electron     255.9999997 magnetization 
 augmentation part      -14.7946207 magnetization 

 Broyden mixing:
  rms(total) = 0.21385E-01    rms(broyden)= 0.21385E-01
  rms(prec ) = 0.21823E-01
  weight for this iteration     100.00

 eigenvalues of (default mixing * dielectric matrix)
  average eigenvalue GAMMA=   1.5390
  2.6471  2.6471  2.5367  2.0981  0.9651  0.9288  0.9288  0.4628  0.6369

 Free energy of the ion-electron system (eV)
  ---------------------------------------------------
  alpha Z        PSCENC =       118.38014564
  Ewald energy   TEWEN  =     -7549.30119340
  -Hartree energ DENC   =      -433.01217709
  -exchange      EXHF   =         0.00000000
  -V(xc)+E(xc)   XCENC  =      -525.82048971
  PAW double counting   =     34205.28228175   -33108.28412109
  entropy T*S    EENTRO =         0.02564004
  eigenvalues    EBANDS =       364.29977078
  atomic energy  EATOM  =      6564.79586099
  Solvation  Ediel_sol  =         0.00000000
  ---------------------------------------------------
  free energy    TOTEN  =      -363.63428207 eV

  energy without entropy =     -363.65992211  energy(sigma->0) =     -363.64282875


--------------------------------------------------------------------------------------------------------




--------------------------------------- Iteration      1(  15)  ---------------------------------------


    POTLOK:  cpu time      0.0729: real time      0.0883
    SETDIJ:  cpu time      0.0751: real time      0.0753
    EDDIAG:  cpu time      0.1335: real time      0.1338
  RMM-DIIS:  cpu time      0.7002: real time      0.7023
    ORTHCH:  cpu time      0.0199: real time      0.0200
       DOS:  cpu time      0.0017: real time      0.0017
    CHARGE:  cpu time      0.2360: real time      0.2366
    MIXING:  cpu time      0.0074: real time      0.0075
    --------------------------------------------
      LOOP:  cpu time      1.2466: real time      1.2653

 eigenvalue-minimisations  :  2618
 total energy-change (2. order) :-0.7709265E-04  (-0.4982506E-05)
 number of electron     255.9999997 magnetization 
 augmentation part      -14.7949814 magnetization 

 Broyden mixing:
  rms(total) = 0.19369E-01    rms(broyden)= 0.19369E-01
  rms(prec ) = 0.19612E-01
  weight for this iteration     100.00

 eigenvalues of (default mixing * dielectric matrix)
  average eigenvalue GAMMA=   1.4735
  2.6455  2.6455  2.3972  2.0485  0.9933  0.9933  0.8965  0.8343  0.8343  0.4461

 Free energy of the ion-electron system (eV)
  ---------------------------------------------------
  alpha Z        PSCENC =       118.38014564
  Ewald energy   TEWEN  =     -7549.30119340
  -Hartree energ DENC   =      -433.01234129
  -exchange      EXHF   =         0.00000000
  -V(xc)+E(xc)   XCENC  =      -525.80872041
  PAW double counting   =     34259.49146898   -33162.48886068
  entropy T*S    EENTRO =         0.02570651
  eigenvalues    EBANDS =       364.28357449
  atomic energy  EATOM  =      6564.79586099
  Solvation  Ediel_sol  =         0.00000000
  ---------------------------------------------------
  free energy    TOTEN  =      -363.63435916 eV

  energy without entropy =     -363.66006568  energy(sigma->0) =     -363.64292800


--------------------------------------------------------------------------------------------------------




--------------------------------------- Iteration      1(  16)  ---------------------------------------


    POTLOK:  cpu time      0.0744: real time      0.0892
    SETDIJ:  cpu time      0.0791: real time      0.0793
    EDDIAG:  cpu time      0.1379: real time      0.1382
  RMM-DIIS:  cpu time      0.6937: real time      0.6957
    ORTHCH:  cpu time      0.0199: real time      0.0200
       DOS:  cpu time      0.0022: real time      0.0022
    CHARGE:  cpu time      0.2391: real time      0.2396
    MIXING:  cpu time      0.0072: real time      0.0076
    --------------------------------------------
      LOOP:  cpu time      1.2535: real time      1.2719

 eigenvalue-minimisations  :  2592
 total energy-change (2. order) :-0.4477130E-04  (-0.2413674E-05)
 number of electron     255.9999997 magnetization 
 augmentation part      -14.7946874 magnetization 

 Broyden mixing:
  rms(total) = 0.16845E-01    rms(broyden)= 0.16845E-01
  rms(prec ) = 0.16945E-01
  weight for this iteration     100.00

 eigenvalues of (default mixing * dielectric matrix)
  average eigenvalue GAMMA=   1.5240
  2.7822  2.7822  2.3952  2.2897  1.1890  1.1890  0.9637  0.9637  0.8800  0.8800
  0.4497

 Free energy of the ion-electron system (eV)
  ---------------------------------------------------
  alpha Z        PSCENC =       118.38014564
  Ewald energy   TEWEN  =     -7549.30119340
  -Hartree energ DENC   =      -433.14050576
  -exchange      EXHF   =         0.00000000
  -V(xc)+E(xc)   XCENC  =      -525.79162167
  PAW double counting   =     34302.09606767   -33205.09389806
  entropy T*S    EENTRO =         0.02570549
  eigenvalues    EBANDS =       364.39503517
  atomic energy  EATOM  =      6564.79586099
  Solvation  Ediel_sol  =         0.00000000
  ---------------------------------------------------
  free energy    TOTEN  =      -363.63440394 eV

  energy without entropy =     -363.66010943  energy(sigma->0) =     -363.64297243


--------------------------------------------------------------------------------------------------------




--------------------------------------- Iteration      1(  17)  ---------------------------------------


    POTLOK:  cpu time      0.0767: real time      0.0893
    SETDIJ:  cpu time      0.0732: real time      0.0733
    EDDIAG:  cpu time      0.1312: real time      0.1315
  RMM-DIIS:  cpu time      0.6226: real time      0.6244
    ORTHCH:  cpu time      0.0198: real time      0.0198
       DOS:  cpu time      0.0014: real time      0.0014
    CHARGE:  cpu time      0.2361: real time      0.2367
    MIXING:  cpu time      0.0085: real time      0.0085
    --------------------------------------------
      LOOP:  cpu time      1.1694: real time      1.1849

 eigenvalue-minimisations  :  2340
 total energy-change (2. order) :-0.3894849E-05  (-0.6693755E-06)
 number of electron     255.9999997 magnetization 
 augmentation part      -14.7946490 magnetization 

 Broyden mixing:
  rms(total) = 0.41157E-02    rms(broyden)= 0.41157E-02
  rms(prec ) = 0.42059E-02
  weight for this iteration     100.00

 eigenvalues of (default mixing * dielectric matrix)
  average eigenvalue GAMMA=   1.6868
  2.9317  2.9317  2.0530  2.0530  2.4732  1.6496  1.6496  1.0398  1.0398  1.0714
  0.8995  0.4490

 Free energy of the ion-electron system (eV)
  ---------------------------------------------------
  alpha Z        PSCENC =       118.38014564
  Ewald energy   TEWEN  =     -7549.30119340
  -Hartree energ DENC   =      -433.11430022
  -exchange      EXHF   =         0.00000000
  -V(xc)+E(xc)   XCENC  =      -525.80313201
  PAW double counting   =     34201.31828423   -33104.31653557
  entropy T*S    EENTRO =         0.02572719
  eigenvalues    EBANDS =       364.38073531
  atomic energy  EATOM  =      6564.79586099
  Solvation  Ediel_sol  =         0.00000000
  ---------------------------------------------------
  free energy    TOTEN  =      -363.63440783 eV

  energy without entropy =     -363.66013502  energy(sigma->0) =     -363.64298356


--------------------------------------------------------------------------------------------------------




--------------------------------------- Iteration      1(  18)  ---------------------------------------


    POTLOK:  cpu time      0.0742: real time      0.0881
    SETDIJ:  cpu time      0.0770: real time      0.0772
    EDDIAG:  cpu time      0.1306: real time      0.1309
  RMM-DIIS:  cpu time      0.5156: real time      0.5172
    ORTHCH:  cpu time      0.0204: real time      0.0204
       DOS:  cpu time      0.0016: real time      0.0016
    CHARGE:  cpu time      0.2356: real time      0.2367
    MIXING:  cpu time      0.0074: real time      0.0075
    --------------------------------------------
      LOOP:  cpu time      1.0624: real time      1.0795

 eigenvalue-minimisations  :  1832
 total energy-change (2. order) :-0.4890153E-05  (-0.3235223E-06)
 number of electron     255.9999997 magnetization 
 augmentation part      -14.7945342 magnetization 

 Broyden mixing:
  rms(total) = 0.97662E-03    rms(broyden)= 0.97655E-03
  rms(prec ) = 0.10071E-02
  weight for this iteration     100.00

 eigenvalues of (default mixing * dielectric matrix)
  average eigenvalue GAMMA=   1.9534
  6.7052  2.8601  2.4130  2.4130  2.3967  1.5798  1.5798  0.4490  1.1823  0.9919
  0.9919  0.9631  0.8690

 Free energy of the ion-electron system (eV)
  ---------------------------------------------------
  alpha Z        PSCENC =       118.38014564
  Ewald energy   TEWEN  =     -7549.30119340
  -Hartree energ DENC   =      -433.13970962
  -exchange      EXHF   =         0.00000000
  -V(xc)+E(xc)   XCENC  =      -525.80080320
  PAW double counting   =     34195.94994884   -33098.94790020
  entropy T*S    EENTRO =         0.02573657
  eigenvalues    EBANDS =       364.40350165
  atomic energy  EATOM  =      6564.79586099
  Solvation  Ediel_sol  =         0.00000000
  ---------------------------------------------------
  free energy    TOTEN  =      -363.63441272 eV

  energy without entropy =     -363.66014929  energy(sigma->0) =     -363.64299158


--------------------------------------------------------------------------------------------------------




--------------------------------------- Iteration      1(  19)  ---------------------------------------


    POTLOK:  cpu time      0.0734: real time      0.0883
    SETDIJ:  cpu time      0.0758: real time      0.0760
    EDDIAG:  cpu time      0.1304: real time      0.1307
  RMM-DIIS:  cpu time      0.4436: real time      0.4447
    ORTHCH:  cpu time      0.0201: real time      0.0201
       DOS:  cpu time      0.0014: real time      0.0014
    --------------------------------------------
      LOOP:  cpu time      0.7447: real time      0.7613

 eigenvalue-minimisations  :  1566
 total energy-change (2. order) :-0.6741438E-06  (-0.9184500E-07)
 number of electron     255.9999997 magnetization 
 augmentation part      -14.7945342 magnetization 

 Free energy of the ion-electron system (eV)
  ---------------------------------------------------
  alpha Z        PSCENC =       118.38014564
  Ewald energy   TEWEN  =     -7549.30119340
  -Hartree energ DENC   =      -433.15564039
  -exchange      EXHF   =         0.00000000
  -V(xc)+E(xc)   XCENC  =      -525.79897030
  PAW double counting   =     34202.96821377   -33105.96580373
  entropy T*S    EENTRO =         0.02573829
  eigenvalues    EBANDS =       364.41723573
  atomic energy  EATOM  =      6564.79586099
  Solvation  Ediel_sol  =         0.00000000
  ---------------------------------------------------
  free energy    TOTEN  =      -363.63441340 eV

  energy without entropy =     -363.66015168  energy(sigma->0) =     -363.64299282


--------------------------------------------------------------------------------------------------------




 average (electrostatic) potential at core
  the test charge radii are     0.9892
  (the norm of the test charge is              1.0000)
       1 -81.9324       2 -81.9324       3 -81.9324       4 -81.9324       5 -81.9324
       6 -81.9324       7 -81.9324       8 -81.9324       9 -81.9324      10 -81.9324
      11 -81.9324      12 -81.9324      13 -81.9324      14 -81.9324      15 -81.9324
      16 -81.9324      17 -81.9324      18 -81.9324      19 -81.9324      20 -81.9324
      21 -81.9324      22 -81.9324      23 -81.9324      24 -81.9324      25 -81.9324
      26 -81.9324      27 -81.9324      28 -81.9324      29 -81.9324      30 -81.9324
      31 -81.9324      32 -81.9324      33 -81.9324      34 -81.9324      35 -81.9324
      36 -81.9324      37 -81.9324      38 -81.9324      39 -81.9324      40 -81.9324
      41 -81.9324      42 -81.9324      43 -81.9324      44 -81.9324      45 -81.9324
      46 -81.9324      47 -81.9324      48 -81.9324      49 -81.9324      50 -81.9324
      51 -81.9324      52 -81.9324      53 -81.9324      54 -81.9324      55 -81.9324
      56 -81.9324      57 -81.9324      58 -81.9324      59 -81.9324      60 -81.9324
      61 -81.9324      62 -81.9324      63 -81.9324      64 -81.9324
 
 
 
 E-fermi :   6.9667     XC(G=0):  -9.9228     alpha+bet :-13.1788

 val. band max:        6.8556445672   @ k =   0.0000   0.0000   0.0000
 cond. band min:       7.0733450938   @ k =   0.5000   0.0000   0.0000
 fundamental gap:      0.2177005266
 Fermi energy:         6.9666909443

 k-point     1 :       0.0000    0.0000    0.0000
  band No.  band energies     occupation 
      1      -5.8760      2.00000
      2      -4.7051      2.00000
      3      -4.7051      2.00000
      4      -4.7049      2.00000
      5      -4.7049      2.00000
      6      -4.6842      2.00000
      7      -4.6841      2.00000
      8      -3.6599      2.00000
      9      -3.6599      2.00000
     10      -3.6441      2.00000
     11      -3.6441      2.00000
     12      -3.6441      2.00000
     13      -3.6441      2.00000
     14      -3.6288      2.00000
     15      -3.6288      2.00000
     16      -3.6288      2.00000
     17      -3.6288      2.00000
     18      -3.5971      2.00000
     19      -3.5971      2.00000
     20      -3.3080      2.00000
     21      -3.3080      2.00000
     22      -3.2353      2.00000
     23      -3.2353      2.00000
     24      -1.4198      2.00000
     25      -1.3790      2.00000
     26      -1.3790      2.00000
     27      -1.3392      2.00000
     28      -1.3107      2.00000
     29      -1.3107      2.00000
     30      -1.2002      2.00000
     31      -1.2002      2.00000
     32      -1.1775      2.00000
     33      -1.1775      2.00000
     34      -1.1296      2.00000
     35      -1.1296      2.00000
     36      -1.1296      2.00000
     37      -1.1296      2.00000
     38      -1.1037      2.00000
     39      -1.1037      2.00000
     40      -1.0817      2.00000
     41      -1.0817      2.00000
     42      -0.7016      2.00000
     43      -0.7016      2.00000
     44      -0.6909      2.00000
     45      -0.6909      2.00000
     46       1.0849      2.00000
     47       1.0850      2.00000
     48       1.1020      2.00000
     49       1.1020      2.00000
     50       1.1020      2.00000
     51       1.1020      2.00000
     52       1.1184      2.00000
     53       1.1184      2.00000
     54       1.1438      2.00000
     55       1.1438      2.00000
     56       1.1438      2.00000
     57       1.1438      2.00000
     58       2.4608      2.00000
     59       2.4608      2.00000
     60       2.4634      2.00000
     61       2.4634      2.00000
     62       2.4683      2.00000
     63       2.4683      2.00000
     64       2.4702      2.00000
     65       2.4702      2.00000
     66       2.4702      2.00000
     67       2.4702      2.00000
     68       2.4715      2.00000
     69       2.4715      2.00000
     70       2.5814      2.00000
     71       2.5814      2.00000
     72       2.5947      2.00000
     73       2.5947      2.00000
     74       2.5947      2.00000
     75       2.5947      2.00000
     76       2.6071      2.00000
     77       2.6071      2.00000
     78       2.6559      2.00000
     79       2.6559      2.00000
     80       2.6559      2.00000
     81       2.6559      2.00000
     82       3.2626      2.00000
     83       3.2626      2.00000
     84       3.2643      2.00000
     85       3.2643      2.00000
     86       3.3440      2.00000
     87       3.3440      2.00000
     88       3.6120      2.00000
     89       3.6120      2.00000
     90       3.6352      2.00000
     91       3.6964      2.00000
     92       3.6964      2.00000
     93       3.7580      2.00000
     94       4.6643      2.00000
     95       4.6643      2.00000
     96       4.6643      2.00000
     97       4.6643      2.00000
     98       4.6747      2.00000
     99       4.6747      2.00000
    100       4.7183      2.00000
    101       4.7183      2.00000
    102       4.7407      2.00000
    103       4.7407      2.00000
    104       4.7856      2.00000
    105       4.7856      2.00000
    106       5.2963      2.00000
    107       5.2963      2.00000
    108       5.2963      2.00000
    109       5.2963      2.00000
    110       5.3538      2.00000
    111       5.3538      2.00000
    112       5.3834      2.00000
    113       5.3834      2.00000
    114       5.3834      2.00000
    115       5.3834      2.00000
    116       5.4142      2.00000
    117       5.4142      2.00000
    118       5.4350      2.00000
    119       5.4350      2.00000
    120       5.4899      2.00000
    121       5.4899      2.00000
    122       5.5409      2.00000
    123       5.5409      2.00000
    124       5.5939      2.00000
    125       5.5939      2.00000
    126       6.7744      2.04132
    127       6.7774      2.03725
    128       6.8556      1.79782
    129       7.1285      0.01544
    130       7.1285      0.01544
    131       7.1505     -0.02914
    132       7.2135     -0.07089
    133       7.2135     -0.07089
    134       7.2776     -0.05035
    135       7.6813     -0.00001
    136       7.6813     -0.00001
    137       7.7640     -0.00000
    138       7.7640     -0.00000
    139       7.7642     -0.00000
    140       7.7642     -0.00000
    141       8.5513     -0.00000
    142       8.5513     -0.00000
    143       8.6486     -0.00000
    144       8.6487     -0.00000
    145       9.1278     -0.00000
    146       9.1279     -0.00000
    147       9.1282     -0.00000
    148       9.1285     -0.00000
    149       9.1936     -0.00000
    150       9.1951     -0.00000
    151       9.2267     -0.00000
    152       9.2271     -0.00000
    153       9.2273     -0.00000
    154       9.2309     -0.00000
    155       9.2614     -0.00000
    156       9.2632     -0.00000
    157       9.2656     -0.00000
    158       9.3591     -0.00000
    159       9.4367     -0.00000
    160       9.7792     -0.00000
    161       9.8224     -0.00000
    162       9.8668     -0.00000

 k-point     2 :       0.5000    0.0000    0.0000
  band No.  band energies     occupation 
      1      -5.5754      2.00000
      2      -5.5754      2.00000
      3      -4.4441      2.00000
      4      -4.4441      2.00000
      5      -4.4286      2.00000
      6      -4.4286      2.00000
      7      -4.4286      2.00000
      8      -4.4286      2.00000
      9      -4.4127      2.00000
     10      -4.4127      2.00000
     11      -3.5019      2.00000
     12      -3.5019      2.00000
     13      -3.5019      2.00000
     14      -3.5019      2.00000
     15      -3.4590      2.00000
     16      -3.4590      2.00000
     17      -3.4590      2.00000
     18      -3.4590      2.00000
     19      -3.2376      2.00000
     20      -3.2376      2.00000
     21      -2.4722      2.00000
     22      -2.4722      2.00000
     23      -2.4270      2.00000
     24      -2.4270      2.00000
     25      -2.4270      2.00000
     26      -2.4270      2.00000
     27      -2.3813      2.00000
     28      -2.3813      2.00000
     29      -1.3175      2.00000
     30      -1.3175      2.00000
     31      -1.3035      2.00000
     32      -1.3035      2.00000
     33      -1.2421      2.00000
     34      -1.2421      2.00000
     35      -1.2290      2.00000
     36      -1.2290      2.00000
     37      -0.0541      2.00000
     38      -0.0541      2.00000
     39      -0.0215      2.00000
     40      -0.0215      2.00000
     41      -0.0215      2.00000
     42      -0.0215      2.00000
     43       0.0080      2.00000
     44       0.0080      2.00000
     45       0.0080      2.00000
     46       0.0080      2.00000
     47       0.0096      2.00000
     48       0.0096      2.00000
     49       0.0218      2.00000
     50       0.0218      2.00000
     51       0.0218      2.00000
     52       0.0218      2.00000
     53       0.9558      2.00000
     54       0.9558      2.00000
     55       2.0445      2.00000
     56       2.0445      2.00000
     57       2.0462      2.00000
     58       2.0462      2.00000
     59       2.0462      2.00000
     60       2.0462      2.00000
     61       2.0479      2.00000
     62       2.0479      2.00000
     63       2.3768      2.00000
     64       2.3768      2.00000
     65       2.3863      2.00000
     66       2.3863      2.00000
     67       2.3863      2.00000
     68       2.3863      2.00000
     69       2.3981      2.00000
     70       2.3981      2.00000
     71       2.9590      2.00000
     72       2.9590      2.00000
     73       2.9847      2.00000
     74       2.9847      2.00000
     75       3.0029      2.00000
     76       3.0029      2.00000
     77       3.0292      2.00000
     78       3.0292      2.00000
     79       3.7466      2.00000
     80       3.7466      2.00000
     81       3.7696      2.00000
     82       3.7696      2.00000
     83       3.7696      2.00000
     84       3.7696      2.00000
     85       3.7895      2.00000
     86       3.7895      2.00000
     87       3.8800      2.00000
     88       3.8800      2.00000
     89       3.8802      2.00000
     90       3.8802      2.00000
     91       3.9360      2.00000
     92       3.9360      2.00000
     93       3.9569      2.00000
     94       3.9569      2.00000
     95       3.9569      2.00000
     96       3.9569      2.00000
     97       3.9774      2.00000
     98       3.9774      2.00000
     99       4.1582      2.00000
    100       4.1582      2.00000
    101       4.1582      2.00000
    102       4.1582      2.00000
    103       4.2161      2.00000
    104       4.2161      2.00000
[...]
  0.000   0.000   4.165   0.000  -0.000   7.759   0.000  -0.000
 -0.001  -0.001   0.000   4.165   0.000   0.000   7.759   0.000
  0.000   0.000  -0.000   0.000   4.166  -0.000   0.000   7.759
  0.000   0.000   7.759   0.000  -0.000  14.464   0.000  -0.000
 -0.001  -0.002   0.000   7.759   0.000   0.000  14.464   0.000
  0.000   0.000  -0.000   0.000   7.759  -0.000   0.000  14.464
 total augmentation occupancy for first ion, spin component:           1
  6.783  -2.756  -0.000   0.026   0.000  -0.000  -0.010   0.000
 -2.756   1.226  -0.000  -0.014   0.000  -0.000   0.005   0.000
 -0.000  -0.000   3.313   0.000  -0.001  -0.770   0.000   0.002
  0.026  -0.014   0.000   3.313  -0.000   0.000  -0.770   0.000
  0.000   0.000  -0.001  -0.000   3.291   0.002   0.000  -0.762
 -0.000  -0.000  -0.770   0.000   0.002   0.189   0.000  -0.001
 -0.010   0.005   0.000  -0.770   0.000  -0.000   0.189  -0.000
  0.000   0.000   0.002   0.000  -0.762  -0.001  -0.000   0.186


------------------------ aborting loop because EDIFF is reached ----------------------------------------


    CHARGE:  cpu time      0.2421: real time      0.2427
    FORLOC:  cpu time      0.0228: real time      0.0229
    FORNL :  cpu time      0.6988: real time      0.7015
    STRESS:  cpu time      2.1606: real time      2.1684
    FORCOR:  cpu time      0.0873: real time      0.0877
    FORHAR:  cpu time      0.0350: real time      0.0350
    MIXING:  cpu time      0.0040: real time      0.0040
    OFIELD:  cpu time      0.0000: real time      0.0000

  FORCE on cell =-STRESS in cart. coord.  units (eV):
  Direction    XX          YY          ZZ          XY          YZ          ZX
  --------------------------------------------------------------------------------------
  Alpha Z   118.38015   118.38015   118.38015
  Ewald   -2539.72109 -2504.93080 -2504.91181     3.16613     0.00000    -0.00000
  Hartree   140.87258   146.07976   146.02033     3.95656    -0.00000    -0.00000
  E(xc)    -836.73481  -837.07204  -837.08432     0.02660    -0.00000    -0.00000
  Local    -862.62473  -903.49235  -903.61717    -7.99181    -0.00000     0.00000
  n-local  2546.68075  2552.18685  2552.40067    -0.82073     0.00000    -0.00000
  augment  -370.74409  -370.75036  -370.76937    -0.29053     0.00000     0.00000
  Kinetic  1889.83441  1880.12369  1879.96983     7.22954    -0.00000     0.00000
  Fock        0.00000     0.00000     0.00000     0.00000     0.00000     0.00000
  -------------------------------------------------------------------------------------
  Total      85.94316    80.52489    80.38832     5.27576     0.00000     0.00000
  in kB     118.21874   110.76567   110.57780     7.25705     0.00000     0.00000
  external pressure =      113.19 kB  Pullay stress =        0.00 kB


 VOLUME and BASIS-vectors are now :
 -----------------------------------------------------------------------------
  energy-cutoff  :      400.00
  volume of cell :     1164.76
      direct lattice vectors                 reciprocal lattice vectors
    10.451347543 -0.052785008  0.000000000     0.095683858  0.000478423  0.000000000
    -0.052785008 10.556917559  0.000000000     0.000478423  0.094727012  0.000000000
     0.000000000  0.000000000 10.556917559     0.000000000  0.000000000  0.094724620

  length of vectors
    10.451480839 10.557049522 10.556917559     0.095685054  0.094728220  0.094724620


 FORCES acting on ions
    electron-ion (+dipol)            ewald-force                    non-local-force                 convergence-correction
 -----------------------------------------------------------------------------------------------
   -.363E-08 -.326E-08 0.831E+00   -.511E-14 0.244E-14 -.587E+00   -.169E-21 0.128E-19 -.244E+00   -.175E-13 -.133E-12 -.169E-04
   -.363E-08 -.326E-08 0.831E+00   0.444E-15 0.666E-14 -.587E+00   -.130E-20 0.100E-19 -.244E+00   -.107E-13 0.695E-13 -.169E-04
   -.363E-08 -.326E-08 0.831E+00   -.142E-13 0.131E-13 -.587E+00   0.198E-20 0.363E-20 -.244E+00   -.163E-13 0.127E-12 -.169E-04
   -.363E-08 -.326E-08 0.831E+00   -.124E-13 0.129E-13 -.587E+00   -.173E-21 0.350E-20 -.244E+00   -.163E-13 -.802E-13 -.169E-04
   -.363E-08 -.326E-08 0.831E+00   -.266E-14 0.799E-14 -.587E+00   0.405E-21 -.447E-20 -.244E+00   0.101E-13 -.152E-12 -.169E-04
   -.363E-08 -.326E-08 0.831E+00   -.222E-13 0.115E-13 -.587E+00   0.724E-21 0.534E-20 -.244E+00   0.571E-14 0.908E-13 -.169E-04
   -.363E-08 -.326E-08 0.831E+00   0.124E-13 0.182E-13 -.587E+00   -.335E-21 0.133E-19 -.244E+00   0.973E-14 0.128E-12 -.169E-04
   -.363E-08 -.326E-08 0.831E+00   0.711E-14 0.107E-13 -.587E+00   -.104E-20 0.952E-20 -.244E+00   0.847E-14 -.884E-13 -.169E-04
   0.526E-08 0.474E-08 -.831E+00   -.129E-13 0.222E-14 0.587E+00   0.101E-20 0.325E-20 0.244E+00   -.891E-13 0.895E-13 0.169E-04
   0.526E-08 0.474E-08 -.831E+00   -.107E-13 0.355E-14 0.587E+00   -.124E-20 -.664E-20 0.244E+00   0.131E-12 -.476E-13 0.169E-04
   0.526E-08 0.474E-08 -.831E+00   -.888E-14 0.107E-13 0.587E+00   -.300E-21 -.248E-21 0.244E+00   -.470E-15 -.970E-13 0.169E-04
   0.526E-08 0.474E-08 -.831E+00   -.533E-14 0.355E-14 0.587E+00   0.151E-21 -.171E-19 0.244E+00   0.704E-13 0.467E-13 0.169E-04
   0.526E-08 0.474E-08 -.831E+00   -.355E-14 0.311E-14 0.587E+00   -.381E-21 0.447E-20 0.244E+00   0.968E-13 0.170E-12 0.169E-04
   0.526E-08 0.474E-08 -.831E+00   -.711E-14 -.355E-14 0.587E+00   0.141E-21 -.155E-19 0.244E+00   -.137E-12 -.111E-12 0.169E-04
   0.526E-08 0.474E-08 -.831E+00   -.142E-13 0.577E-14 0.587E+00   0.116E-20 0.362E-20 0.244E+00   0.906E-14 -.182E-12 0.169E-04
   0.526E-08 0.474E-08 -.831E+00   -.160E-13 0.533E-14 0.587E+00   -.152E-20 0.638E-21 0.244E+00   -.706E-13 0.103E-12 0.169E-04
   -.363E-08 -.326E-08 0.831E+00   0.178E-14 0.289E-14 -.587E+00   -.720E-21 0.219E-20 -.244E+00   0.976E-13 0.706E-13 -.169E-04
   -.363E-08 -.326E-08 0.831E+00   0.888E-14 0.266E-14 -.587E+00   0.154E-20 -.916E-21 -.244E+00   -.121E-12 -.336E-13 -.169E-04
   -.363E-08 -.326E-08 0.831E+00   0.266E-14 0.777E-14 -.587E+00   0.304E-20 0.324E-20 -.244E+00   0.345E-13 -.712E-13 -.169E-04
   -.363E-08 -.326E-08 0.831E+00   0.266E-14 0.000E+00 -.587E+00   -.309E-21 0.448E-21 -.244E+00   -.656E-13 0.271E-13 -.169E-04
   -.363E-08 -.326E-08 0.831E+00   -.167E-13 0.311E-14 -.587E+00   0.169E-20 0.165E-21 -.244E+00   -.104E-12 -.370E-13 -.169E-04
   -.363E-08 -.326E-08 0.831E+00   -.266E-14 0.977E-14 -.587E+00   0.585E-21 -.223E-20 -.244E+00   0.119E-12 0.433E-13 -.169E-04
   -.363E-08 -.326E-08 0.831E+00   0.311E-14 0.444E-14 -.587E+00   -.189E-20 0.246E-21 -.244E+00   -.435E-13 0.331E-13 -.169E-04
   -.363E-08 -.326E-08 0.831E+00   0.355E-14 -.355E-14 -.587E+00   0.110E-20 -.313E-20 -.244E+00   0.666E-13 -.424E-13 -.169E-04
   0.526E-08 0.474E-08 -.831E+00   0.000E+00 -.223E-14 0.587E+00   -.237E-20 0.304E-20 0.244E+00   0.519E-13 -.103E-13 0.169E-04
   0.526E-08 0.474E-08 -.831E+00   -.355E-14 0.221E-14 0.587E+00   0.239E-20 -.918E-21 0.244E+00   0.729E-14 -.115E-13 0.169E-04
   0.526E-08 0.474E-08 -.831E+00   0.355E-14 -.243E-15 0.587E+00   0.327E-21 -.363E-20 0.244E+00   0.133E-13 0.671E-14 0.169E-04
   0.526E-08 0.474E-08 -.831E+00   0.711E-14 0.599E-14 0.587E+00   -.136E-20 0.290E-20 0.244E+00   0.381E-13 0.137E-13 0.169E-04
   0.526E-08 0.474E-08 -.831E+00   -.711E-14 0.264E-14 0.587E+00   0.256E-21 0.966E-21 0.244E+00   -.372E-13 0.226E-13 0.169E-04
   0.526E-08 0.474E-08 -.831E+00   0.000E+00 -.490E-14 0.587E+00   -.878E-21 0.449E-20 0.244E+00   -.210E-13 -.304E-13 0.169E-04
   0.526E-08 0.474E-08 -.831E+00   0.000E+00 0.109E-13 0.587E+00   -.267E-21 0.368E-21 0.244E+00   -.609E-14 -.144E-13 0.169E-04
   0.526E-08 0.474E-08 -.831E+00   0.000E+00 -.113E-14 0.587E+00   0.192E-20 -.464E-21 0.244E+00   -.357E-13 0.264E-13 0.169E-04
   -.363E-08 -.326E-08 0.831E+00   0.133E-14 -.844E-14 -.587E+00   0.132E-20 0.169E-21 -.244E+00   0.873E-13 -.616E-13 -.169E-04
   -.363E-08 -.326E-08 0.831E+00   0.799E-14 0.888E-15 -.587E+00   -.120E-21 0.311E-20 -.244E+00   -.120E-13 0.758E-14 -.169E-04
   -.363E-08 -.326E-08 0.831E+00   0.444E-15 -.111E-14 -.587E+00   0.182E-21 0.150E-21 -.244E+00   -.125E-13 0.580E-13 -.169E-04
   -.363E-08 -.326E-08 0.831E+00   -.355E-14 -.400E-14 -.587E+00   0.510E-21 0.554E-20 -.244E+00   0.556E-13 -.218E-13 -.169E-04
   -.363E-08 -.326E-08 0.831E+00   -.278E-13 -.115E-13 -.587E+00   -.829E-21 0.248E-20 -.244E+00   -.885E-13 -.131E-12 -.169E-04
   -.363E-08 -.326E-08 0.831E+00   0.444E-15 -.888E-15 -.587E+00   0.113E-21 0.185E-20 -.244E+00   0.161E-13 0.653E-13 -.169E-04
   -.363E-08 -.326E-08 0.831E+00   0.000E+00 -.488E-14 -.587E+00   -.338E-21 0.152E-20 -.244E+00   0.250E-13 0.112E-12 -.169E-04
   -.363E-08 -.326E-08 0.831E+00   0.711E-14 0.000E+00 -.587E+00   -.113E-21 0.281E-20 -.244E+00   -.644E-13 -.713E-13 -.169E-04
   0.526E-08 0.474E-08 -.831E+00   0.149E-14 -.533E-14 0.587E+00   0.990E-21 0.113E-20 0.244E+00   0.787E-13 0.104E-13 0.169E-04
   0.526E-08 0.474E-08 -.831E+00   0.882E-14 -.533E-14 0.587E+00   -.134E-20 -.187E-20 0.244E+00   -.565E-13 0.483E-13 0.169E-04
   0.526E-08 0.474E-08 -.831E+00   -.123E-13 -.711E-14 0.587E+00   0.117E-20 -.174E-20 0.244E+00   0.103E-12 -.170E-13 0.169E-04
   0.526E-08 0.474E-08 -.831E+00   -.117E-14 -.355E-14 0.587E+00   0.151E-20 0.696E-21 0.244E+00   -.746E-13 -.553E-13 0.169E-04
   0.526E-08 0.474E-08 -.831E+00   -.272E-14 -.533E-14 0.587E+00   0.159E-20 -.150E-21 0.244E+00   -.873E-13 -.243E-13 0.169E-04
   0.526E-08 0.474E-08 -.831E+00   0.439E-14 -.888E-14 0.587E+00   0.169E-20 -.332E-20 0.244E+00   0.627E-13 0.754E-13 0.169E-04
   0.526E-08 0.474E-08 -.831E+00   0.305E-14 -.711E-14 0.587E+00   0.941E-21 -.281E-21 0.244E+00   -.118E-12 0.172E-13 0.169E-04
   0.526E-08 0.474E-08 -.831E+00   0.971E-14 -.711E-14 0.587E+00   -.222E-20 -.195E-20 0.244E+00   0.761E-13 -.746E-13 0.169E-04
   -.363E-08 -.326E-08 0.831E+00   0.533E-14 -.222E-14 -.587E+00   -.549E-21 -.406E-20 -.244E+00   -.577E-13 0.408E-13 -.169E-04
   -.363E-08 -.326E-08 0.831E+00   0.533E-14 0.178E-14 -.587E+00   0.778E-21 -.564E-20 -.244E+00   0.113E-12 -.225E-13 -.169E-04
   -.363E-08 -.326E-08 0.831E+00   0.355E-14 -.933E-14 -.587E+00   0.592E-21 -.653E-20 -.244E+00   -.443E-13 -.409E-13 -.169E-04
   -.363E-08 -.326E-08 0.831E+00   0.711E-14 -.577E-14 -.587E+00   0.212E-21 -.139E-19 -.244E+00   0.945E-13 0.130E-13 -.169E-04
   -.363E-08 -.326E-08 0.831E+00   0.133E-13 -.444E-15 -.587E+00   -.405E-21 -.444E-20 -.244E+00   0.588E-13 0.409E-13 -.169E-04
   -.363E-08 -.326E-08 0.831E+00   0.124E-13 -.355E-14 -.587E+00   -.581E-21 -.128E-19 -.244E+00   -.105E-12 -.168E-13 -.169E-04
   -.363E-08 -.326E-08 0.831E+00   0.151E-13 -.711E-14 -.587E+00   -.563E-21 -.111E-20 -.244E+00   0.515E-13 -.387E-13 -.169E-04
   -.363E-08 -.326E-08 0.831E+00   0.107E-13 -.355E-14 -.587E+00   0.446E-21 -.377E-21 -.244E+00   -.950E-13 0.888E-14 -.169E-04
   0.526E-08 0.474E-08 -.831E+00   0.503E-14 -.154E-13 0.587E+00   -.284E-21 0.406E-20 0.244E+00   0.551E-13 -.301E-13 0.169E-04
   0.526E-08 0.474E-08 -.831E+00   -.209E-14 -.876E-14 0.587E+00   -.163E-20 0.564E-20 0.244E+00   -.155E-13 0.328E-13 0.169E-04
   0.526E-08 0.474E-08 -.831E+00   0.328E-14 -.515E-14 0.587E+00   0.280E-21 -.280E-20 0.244E+00   -.242E-13 0.341E-13 0.169E-04
   0.526E-08 0.474E-08 -.831E+00   0.327E-14 -.158E-13 0.587E+00   0.148E-20 0.114E-19 0.244E+00   0.374E-13 -.279E-13 0.169E-04
   0.526E-08 0.474E-08 -.831E+00   0.112E-14 -.647E-14 0.587E+00   0.377E-21 -.234E-20 0.244E+00   -.684E-13 -.115E-12 0.169E-04
   0.526E-08 0.474E-08 -.831E+00   0.205E-14 -.690E-14 0.587E+00   0.229E-20 0.103E-19 0.244E+00   0.238E-13 0.899E-13 0.169E-04
   0.526E-08 0.474E-08 -.831E+00   -.583E-15 -.724E-14 0.587E+00   0.564E-21 0.366E-20 0.244E+00   0.188E-13 0.124E-12 0.169E-04
   0.526E-08 0.474E-08 -.831E+00   0.390E-14 -.363E-14 0.587E+00   -.437E-21 0.630E-20 0.244E+00   -.420E-13 -.948E-13 0.169E-04
 -----------------------------------------------------------------------------------------------
   0.524E-07 0.473E-07 0.298E-04   -.258E-13 -.248E-13 0.553E-13   0.118E-19 0.304E-19 -.569E-14   -.315E-13 -.139E-12 0.269E-09
 
 
 POSITION                                       TOTAL-FORCE (eV/Angst)
 -----------------------------------------------------------------------------------
     -0.00000      0.00000     10.55219         0.000000     -0.000000      0.000024
      0.00000      0.00000      5.27373        -0.000000     -0.000000      0.000024
     -0.02639      5.27846     10.55219         0.000000      0.000000      0.000024
     -0.02639      5.27846      5.27373         0.000000     -0.000000      0.000024
      5.22567     -0.02639     10.55219        -0.000000      0.000000      0.000024
      5.22567     -0.02639      5.27373        -0.000000     -0.000000      0.000024
      5.19928      5.25207     10.55219         0.000000     -0.000000      0.000024
      5.19928      5.25207      5.27373        -0.000000      0.000000      0.000024
      3.89946      3.93905      1.32434        -0.000000      0.000000     -0.000024
      3.89946      3.93905      6.60280         0.000000      0.000000     -0.000024
      3.87307      9.21751      1.32434        -0.000000     -0.000000     -0.000024
      3.87307      9.21751      6.60280         0.000000      0.000000     -0.000024
      9.12513      3.91266      1.32434         0.000000     -0.000000     -0.000024
      9.12513      3.91266      6.60280         0.000000      0.000000     -0.000024
      9.09874      9.19112      1.32434        -0.000000     -0.000000     -0.000024
      9.09874      9.19112      6.60280         0.000000      0.000000     -0.000024
     -0.01320      2.63923      2.63450         0.000000     -0.000000      0.000024
     -0.01320      2.63923      7.91296         0.000000      0.000000      0.000024
     -0.03959      7.91769      2.63450         0.000000      0.000000      0.000024
     -0.03959      7.91769      7.91296        -0.000000     -0.000000      0.000024
      5.21248      2.61284      2.63450         0.000000     -0.000000      0.000024
      5.21248      2.61284      7.91296        -0.000000      0.000000      0.000024
      5.18609      7.89130      2.63450        -0.000000     -0.000000      0.000024
      5.18609      7.89130      7.91296        -0.000000     -0.000000      0.000024
      3.91266      1.29982      3.96357         0.000000     -0.000000     -0.000024
      3.91266      1.29982      9.24203         0.000000     -0.000000     -0.000024
      3.88626      6.57828      3.96357        -0.000000      0.000000     -0.000024
      3.88626      6.57828      9.24203        -0.000000      0.000000     -0.000024
      9.13833      1.27343      3.96357         0.000000     -0.000000     -0.000024
      9.13833      1.27343      9.24203         0.000000     -0.000000     -0.000024
      9.11194      6.55189      3.96357        -0.000000      0.000000     -0.000024
      9.11194      6.55189      9.24203        -0.000000      0.000000     -0.000024
      2.61284     -0.01320      2.63450        -0.000000      0.000000      0.000024
      2.61284     -0.01320      7.91296        -0.000000      0.000000      0.000024
      2.58644      5.26526      2.63450         0.000000     -0.000000      0.000024
      2.58644      5.26526      7.91296         0.000000      0.000000      0.000024
      7.83851     -0.03959      2.63450        -0.000000      0.000000      0.000024
      7.83851     -0.03959      7.91296         0.000000     -0.000000      0.000024
      7.81212      5.23887      2.63450        -0.000000      0.000000      0.000024
      7.81212      5.23887      7.91296        -0.000000      0.000000      0.000024
      1.28662      3.95225      3.96357        -0.000000      0.000000     -0.000024
      1.28662      3.95225      9.24203        -0.000000      0.000000     -0.000024
      1.26023      9.23070      3.96357        -0.000000     -0.000000     -0.000024
      1.26023      9.23070      9.24203        -0.000000     -0.000000     -0.000024
      6.51230      3.92585      3.96357         0.000000      0.000000     -0.000024
      6.51230      3.92585      9.24203         0.000000      0.000000     -0.000024
      6.48591      9.20431      3.96357        -0.000000     -0.000000     -0.000024
      6.48591      9.20431      9.24203         0.000000      0.000000     -0.000024
      2.59964      2.62603     10.55219        -0.000000      0.000000      0.000024
      2.59964      2.62603      5.27373         0.000000     -0.000000      0.000024
      2.57325      7.90449     10.55219        -0.000000     -0.000000      0.000024
      2.57325      7.90449      5.27373        -0.000000      0.000000      0.000024
      7.82531      2.59964     10.55219        -0.000000      0.000000      0.000024
      7.82531      2.59964      5.27373         0.000000     -0.000000      0.000024
      7.79892      7.87810     10.55219        -0.000000     -0.000000      0.000024
      7.79892      7.87810      5.27373        -0.000000      0.000000      0.000024
      1.29982      1.31302      1.32434         0.000000     -0.000000     -0.000024
      1.29982      1.31302      6.60280         0.000000     -0.000000     -0.000024
      1.27343      6.59148      1.32434        -0.000000      0.000000     -0.000024
      1.27343      6.59148      6.60280        -0.000000      0.000000     -0.000024
      6.52549      1.28662      1.32434         0.000000     -0.000000     -0.000024
      6.52549      1.28662      6.60280         0.000000     -0.000000     -0.000024
      6.49910      6.56508      1.32434        -0.000000      0.000000     -0.000024
      6.49910      6.56508      6.60280        -0.000000      0.000000     -0.000024
 -----------------------------------------------------------------------------------
    total drift:                                0.000000      0.000000      0.000030


--------------------------------------------------------------------------------------------------------



  FREE ENERGIE OF THE ION-ELECTRON SYSTEM (eV)
  ---------------------------------------------------
  free  energy   TOTEN  =      -363.65687665 eV

  energy  without entropy=     -363.67895178  energy(sigma->0) =     -363.66423503
 
 d Force = 0.5983503E-02[ 0.368E-05, 0.120E-01]  d Energy = 0.5974990E-02 0.851E-05
 d Force =-0.8142559E-01[-0.917E-01,-0.712E-01]  d Ewald  =-0.8141569E-01-0.990E-05


--------------------------------------------------------------------------------------------------------


    POTLOK:  cpu time      0.1446: real time      0.1451


--------------------------------------------------------------------------------------------------------




--------------------------------------------------------------------------------------------------------


  
 reached required accuracy - stopping structural energy minimisation
     LOOP+:  cpu time     12.8870: real time     13.0522
    4ORBIT:  cpu time      0.0000: real time      0.0000

 total amount of memory used by VASP MPI-rank0    78531. kBytes
=======================================================================

   base      :      30000. kBytes
   nonlr-proj:       4875. kBytes
   fftplans  :      17991. kBytes
   grid      :       6881. kBytes
   one-center:         18. kBytes
   wavefun   :      18766. kBytes
 
  
  
 General timing and accounting informations for this job:
 ========================================================
  
                  Total CPU time used (sec):       59.528
                            User time (sec):       56.107
                          System time (sec):        3.421
                         Elapsed time (sec):       63.130
  
                   Maximum memory used (kb):      404484.
                   Average memory used (kb):          N/A
  
                          Minor page faults:        94353
                          Major page faults:            0
                 Voluntary context switches:         9914
