WARNING: $PATH does not agree with $PATH_modshare counter. The following directories' usage counters were adjusted to match. Note that this may mean that module unloading may not work correctly.
 /public1/home/sc80607/atat/bin/
 running   96 mpi-ranks, on    1 nodes
 distrk:  each k-point on   24 cores,    4 groups
 distr:  one band on   12 cores,    2 groups
 vasp.6.4.3 19Mar24 (build Oct 21 2024 22:36:34) complex                        
  
 POSCAR found type information on POSCAR Si
 POSCAR found :  1 types and      64 ions
 scaLAPACK will be used
 -----------------------------------------------------------------------------
|                                                                             |
|               ----> ADVICE to this user running VASP <----                  |
|                                                                             |
|     You enforced a specific xc type in the INCAR file but a different       |
|     type was found in the POTCAR file.                                      |
|     I HOPE YOU KNOW WHAT YOU ARE DOING!                                     |
|                                                                             |
 -----------------------------------------------------------------------------

 LDA part: xc-table for (Slater+PW92), standard interpolation
 POSCAR, INCAR and KPOINTS ok, starting setup
 FFT: planning ... GRIDC
 FFT: planning ... GRID_SOFT
 FFT: planning ... GRID
 WAVECAR not read
 entering main loop
       N       E                     dE             d eps       ncg     rms          rms(c)
DAV:   1     0.576490266699E+03    0.57649E+03   -0.85424E+04  2592   0.107E+03
DAV:   2    -0.307891991354E+03   -0.88438E+03   -0.83864E+03  3080   0.176E+02
DAV:   3    -0.371252116191E+03   -0.63360E+02   -0.62127E+02  3136   0.416E+01
DAV:   4    -0.372861900651E+03   -0.16098E+01   -0.15985E+01  3144   0.796E+00
DAV:   5    -0.372910945904E+03   -0.49045E-01   -0.48934E-01  3074   0.130E+00    0.318E+01
RMM:   6    -0.366366201761E+03    0.65447E+01   -0.35077E+00  2592   0.296E+00    0.192E+01
RMM:   7    -0.363583340564E+03    0.27829E+01   -0.87992E+00  2659   0.465E+00    0.130E+00
RMM:   8    -0.363609937232E+03   -0.26597E-01   -0.79664E-01  2610   0.177E+00    0.571E-01
RMM:   9    -0.363634734269E+03   -0.24797E-01   -0.24605E-01  2676   0.860E-01    0.635E-01
RMM:  10    -0.363639780293E+03   -0.50460E-02   -0.43649E-02  2707   0.406E-01    0.890E-01
RMM:  11    -0.363634027068E+03    0.57532E-02   -0.16029E-02  2592   0.250E-01    0.603E-01
RMM:  12    -0.363634233224E+03   -0.20616E-03   -0.19667E-03  2618   0.106E-01    0.585E-01
RMM:  13    -0.363634312858E+03   -0.79634E-04   -0.37738E-04  2719   0.434E-02    0.654E-01
RMM:  14    -0.363634282072E+03    0.30786E-04   -0.10143E-04  2600   0.252E-02    0.214E-01
RMM:  15    -0.363634359165E+03   -0.77093E-04   -0.49825E-05  2618   0.144E-02    0.194E-01
RMM:  16    -0.363634403936E+03   -0.44771E-04   -0.24137E-05  2592   0.110E-02    0.168E-01
RMM:  17    -0.363634407831E+03   -0.38948E-05   -0.66938E-06  2340   0.643E-03    0.412E-02
RMM:  18    -0.363634412721E+03   -0.48902E-05   -0.32352E-06  1832   0.408E-03    0.977E-03
RMM:  19    -0.363634413395E+03   -0.67414E-06   -0.91845E-07  1566   0.209E-03
   1 F= -.36363441E+03 E0= -.36364299E+03  d E =-.363634E+03
 curvature:   0.00 expect dE= 0.000E+00 dE for cont linesearch  0.000E+00
 trial: gam= 0.00000 g(F)=  0.681E-01 g(S)=  0.000E+00 ort = 0.000E+00 (trialstep = 0.100E+01)
 search vector abs. value=  0.681E-01
 bond charge predicted
       N       E                     dE             d eps       ncg     rms          rms(c)
DAV:   1    -0.363646310743E+03   -0.11898E-01   -0.93222E-01  2968   0.186E+00    0.464E-01
RMM:   2    -0.363650555358E+03   -0.42446E-02   -0.44569E-02  2593   0.457E-01    0.189E-01
RMM:   3    -0.363650924179E+03   -0.36882E-03   -0.66510E-03  2633   0.198E-01    0.765E-02
RMM:   4    -0.363650889129E+03    0.35050E-04   -0.92479E-04  2623   0.818E-02    0.297E-02
RMM:   5    -0.363650897334E+03   -0.82049E-05   -0.16933E-04  2691   0.317E-02    0.552E-03
RMM:   6    -0.363650901101E+03   -0.37664E-05   -0.37821E-05  2726   0.141E-02    0.122E-03
RMM:   7    -0.363650901612E+03   -0.51194E-06   -0.53162E-06  1945   0.517E-03    0.109E-03
RMM:   8    -0.363650901660E+03   -0.47559E-07   -0.10597E-06  1586   0.221E-03
   2 F= -.36365090E+03 E0= -.36365731E+03  d E =-.164883E-01
 trial-energy change:   -0.016488  1 .order   -0.016469   -0.068079    0.035140
 step:   0.6596(harm=  0.6596)  dis= 0.00472  next Energy=  -363.656864 (dE=-0.225E-01)
 bond charge predicted
       N       E                     dE             d eps       ncg     rms          rms(c)
DAV:   1    -0.363656360841E+03   -0.54592E-02   -0.10773E-01  2912   0.633E-01    0.157E-01
RMM:   2    -0.363656838994E+03   -0.47815E-03   -0.50132E-03  2592   0.154E-01    0.644E-02
RMM:   3    -0.363656879062E+03   -0.40068E-04   -0.73516E-04  2636   0.667E-02    0.255E-02
RMM:   4    -0.363656875394E+03    0.36677E-05   -0.10017E-04  2616   0.274E-02    0.992E-03
RMM:   5    -0.363656876193E+03   -0.79898E-06   -0.18620E-05  2623   0.106E-02    0.180E-03
RMM:   6    -0.363656876541E+03   -0.34763E-06   -0.40743E-06  1851   0.477E-03    0.375E-04
RMM:   7    -0.363656876614E+03   -0.72935E-07   -0.68506E-07  1526   0.188E-03    0.426E-04
RMM:   8    -0.363656876650E+03   -0.36427E-07   -0.16677E-07  1156   0.930E-04
   3 F= -.36365688E+03 E0= -.36366424E+03  d E =-.224633E-01
 curvature:  -0.33 expect dE=-0.567E-09 dE for cont linesearch -0.567E-09
 trial: gam= 0.00000 g(F)=  0.172E-08 g(S)=  0.000E+00 ort =-0.108E-04 (trialstep = 0.932E+00)
 search vector abs. value=  0.182E-08
 reached required accuracy - stopping structural energy minimisation
