  64  64   0   0
  0.1926741E+02  0.1083091E-08  0.1067086E-08  0.1067056E-08  0.5000000E-15
  1.000000000000000E-004
  CAR 
 Si64                                    
     11.62289228     -8.07206317  301      6.42010102      1.00000000
     -8.072  0.0000E+00  0.0000E+00
     -8.006  0.0000E+00  0.0000E+00
     -7.941  0.0000E+00  0.0000E+00
     -7.875  0.0000E+00  0.0000E+00
     -7.809  0.0000E+00  0.0000E+00
     -7.744  0.0000E+00  0.0000E+00
     -7.678 -0.1414E-28 -0.9283E-30
     -7.613 -0.2358E-26 -0.1557E-27
     -7.547 -0.3179E-24 -0.2102E-25
     -7.481 -0.3446E-22 -0.2283E-23
     -7.416 -0.3004E-20 -0.1995E-21
     -7.350 -0.2104E-18 -0.1402E-19
     -7.284 -0.1185E-16 -0.7917E-18
     -7.219 -0.5179E-15 -0.3479E-16
     -7.153 -0.1877E-13 -0.1267E-14
     -7.087 -0.5437E-12 -0.3696E-13
     -7.022 -0.1261E-10 -0.8647E-12
     -6.956 -0.2337E-09 -0.1621E-10
     -6.890 -0.3456E-08 -0.2431E-09
     -6.825 -0.4068E-07 -0.2914E-08
     -6.759 -0.3798E-06 -0.2785E-07
     -6.693 -0.2799E-05 -0.2116E-06
     -6.628 -0.1616E-04 -0.1273E-05
     -6.562 -0.7226E-04 -0.6016E-05
     -6.496 -0.2451E-03 -0.2210E-04
     -6.431 -0.6051E-03 -0.6183E-04
     -6.365 -0.9772E-03 -0.1260E-03
     -6.300 -0.5955E-03 -0.1651E-03
     -6.234  0.1619E-02 -0.5881E-04
     -6.168  0.5613E-02  0.3097E-03
     -6.103  0.9494E-02  0.9330E-03
     -6.037  0.1284E-01  0.1776E-02
     -5.971  0.2120E-01  0.3168E-02
     -5.906  0.4180E-01  0.5912E-02
     -5.840  0.7064E-01  0.1055E-01
     -5.774  0.9209E-01  0.1660E-01
     -5.709  0.1013E+00  0.2325E-01
     -5.643  0.1172E+00  0.3094E-01
     -5.577  0.1546E+00  0.4109E-01
     -5.512  0.1925E+00  0.5373E-01
     -5.446  0.1968E+00  0.6665E-01
     -5.380  0.1688E+00  0.7773E-01
     -5.315  0.1419E+00  0.8705E-01
     -5.249  0.1318E+00  0.9570E-01
     -5.183  0.1208E+00  0.1036E+00
     -5.118  0.9701E-01  0.1100E+00
     -5.052  0.7456E-01  0.1149E+00
     -4.987  0.6981E-01  0.1195E+00
     -4.921  0.8687E-01  0.1252E+00
     -4.855  0.1353E+00  0.1341E+00
     -4.790  0.2277E+00  0.1490E+00
     -4.724  0.3415E+00  0.1714E+00
     -4.658  0.4215E+00  0.1991E+00
     -4.593  0.4460E+00  0.2284E+00
     -4.527  0.4475E+00  0.2578E+00
     -4.461  0.4424E+00  0.2868E+00
     -4.396  0.3923E+00  0.3126E+00
     -4.330  0.2699E+00  0.3303E+00
     -4.264  0.1177E+00  0.3380E+00
     -4.199  0.7631E-02  0.3385E+00
     -4.133 -0.2152E-01  0.3371E+00
     -4.067  0.3072E-01  0.3391E+00
     -4.002  0.1490E+00  0.3489E+00
     -3.936  0.3041E+00  0.3689E+00
     -3.870  0.4450E+00  0.3981E+00
     -3.805  0.5129E+00  0.4317E+00
     -3.739  0.4792E+00  0.4632E+00
     -3.674  0.3727E+00  0.4877E+00
     -3.608  0.2642E+00  0.5050E+00
     -3.542  0.2218E+00  0.5196E+00
     -3.477  0.2775E+00  0.5378E+00
     -3.411  0.4129E+00  0.5649E+00
     -3.345  0.5650E+00  0.6020E+00
     -3.280  0.6643E+00  0.6456E+00
     -3.214  0.6828E+00  0.6904E+00
     -3.148  0.6387E+00  0.7324E+00
     -3.083  0.5623E+00  0.7693E+00
     -3.017  0.4788E+00  0.8007E+00
     -2.951  0.4198E+00  0.8283E+00
     -2.886  0.4074E+00  0.8550E+00
     -2.820  0.4130E+00  0.8821E+00
     -2.754  0.3711E+00  0.9065E+00
     -2.689  0.2563E+00  0.9233E+00
     -2.623  0.1165E+00  0.9310E+00
     -2.557  0.1531E-01  0.9320E+00
     -2.492 -0.2705E-01  0.9302E+00
     -2.426 -0.2547E-01  0.9285E+00
     -2.361  0.7853E-02  0.9290E+00
     -2.295  0.7050E-01  0.9337E+00
     -2.229  0.1455E+00  0.9432E+00
     -2.164  0.1915E+00  0.9558E+00
     -2.098  0.1743E+00  0.9672E+00
     -2.032  0.1053E+00  0.9741E+00
     -1.967  0.3972E-01  0.9768E+00
     -1.901  0.3986E-01  0.9794E+00
     -1.835  0.1388E+00  0.9885E+00
     -1.770  0.3184E+00  0.1009E+01
     -1.704  0.5042E+00  0.1042E+01
     -1.638  0.5971E+00  0.1082E+01
     -1.573  0.5410E+00  0.1117E+01
     -1.507  0.3689E+00  0.1141E+01
     -1.441  0.1774E+00  0.1153E+01
     -1.376  0.5579E-01  0.1157E+01
     -1.310  0.3645E-01  0.1159E+01
     -1.244  0.9295E-01  0.1165E+01
     -1.179  0.1664E+00  0.1176E+01
     -1.113  0.2020E+00  0.1189E+01
     -1.048  0.1852E+00  0.1202E+01
     -0.982  0.1567E+00  0.1212E+01
     -0.916  0.1791E+00  0.1224E+01
     -0.851  0.2680E+00  0.1241E+01
     -0.785  0.3571E+00  0.1265E+01
     -0.719  0.3651E+00  0.1289E+01
     -0.654  0.3075E+00  0.1309E+01
     -0.588  0.3056E+00  0.1329E+01
     -0.522  0.4608E+00  0.1359E+01
     -0.457  0.7358E+00  0.1407E+01
     -0.391  0.9683E+00  0.1471E+01
     -0.325  0.9945E+00  0.1536E+01
     -0.260  0.7767E+00  0.1587E+01
     -0.194  0.4317E+00  0.1616E+01
     -0.128  0.1355E+00  0.1624E+01
     -0.063  0.2086E-02  0.1625E+01
      0.003  0.4216E-01  0.1627E+01
      0.069  0.1910E+00  0.1640E+01
      0.134  0.3444E+00  0.1663E+01
      0.200  0.4055E+00  0.1689E+01
      0.265  0.3472E+00  0.1712E+01
      0.331  0.2269E+00  0.1727E+01
      0.397  0.1273E+00  0.1735E+01
      0.462  0.9582E-01  0.1742E+01
      0.528  0.1392E+00  0.1751E+01
      0.594  0.2429E+00  0.1767E+01
      0.659  0.3724E+00  0.1791E+01
      0.725  0.4699E+00  0.1822E+01
      0.791  0.4781E+00  0.1853E+01
      0.856  0.3817E+00  0.1878E+01
      0.922  0.2261E+00  0.1893E+01
      0.988  0.8492E-01  0.1899E+01
      1.053  0.3938E-02  0.1899E+01
      1.119 -0.2082E-01  0.1898E+01
      1.185 -0.1904E-01  0.1896E+01
      1.250 -0.1576E-01  0.1895E+01
      1.316 -0.2079E-01  0.1894E+01
      1.382 -0.2860E-01  0.1892E+01
      1.447 -0.1541E-01  0.1891E+01
      1.513  0.5730E-01  0.1895E+01
      1.578  0.2167E+00  0.1909E+01
      1.644  0.4419E+00  0.1938E+01
      1.710  0.6571E+00  0.1981E+01
      1.775  0.7703E+00  0.2032E+01
      1.841  0.7303E+00  0.2080E+01
      1.907  0.5684E+00  0.2117E+01
      1.972  0.3919E+00  0.2143E+01
      2.038  0.3102E+00  0.2163E+01
      2.104  0.3390E+00  0.2185E+01
      2.169  0.3912E+00  0.2211E+01
      2.235  0.3801E+00  0.2236E+01
      2.301  0.3246E+00  0.2257E+01
      2.366  0.3472E+00  0.2280E+01
      2.432  0.5597E+00  0.2317E+01
      2.498  0.9377E+00  0.2378E+01
      2.563  0.1298E+01  0.2464E+01
      2.629  0.1416E+01  0.2557E+01
      2.695  0.1202E+01  0.2636E+01
      2.760  0.7706E+00  0.2686E+01
      2.826  0.3353E+00  0.2708E+01
      2.891  0.4796E-01  0.2711E+01
      2.957 -0.7374E-01  0.2706E+01
      3.023 -0.8158E-01  0.2701E+01
      3.088  0.1330E-02  0.2701E+01
      3.154  0.2016E+00  0.2714E+01
      3.220  0.5247E+00  0.2749E+01
      3.285  0.8881E+00  0.2807E+01
      3.351  0.1161E+01  0.2883E+01
      3.417  0.1268E+01  0.2967E+01
      3.482  0.1226E+01  0.3047E+01
      3.548  0.1091E+01  0.3119E+01
      3.614  0.9133E+00  0.3179E+01
      3.679  0.7471E+00  0.3228E+01
      3.745  0.6493E+00  0.3270E+01
      3.811  0.6490E+00  0.3313E+01
      3.876  0.7056E+00  0.3359E+01
      3.942  0.7191E+00  0.3407E+01
      4.008  0.6213E+00  0.3447E+01
      4.073  0.4613E+00  0.3478E+01
      4.139  0.3623E+00  0.3501E+01
      4.204  0.3889E+00  0.3527E+01
      4.270  0.4890E+00  0.3559E+01
      4.336  0.5696E+00  0.3596E+01
      4.401  0.5957E+00  0.3635E+01
      4.467  0.5986E+00  0.3675E+01
      4.533  0.6208E+00  0.3716E+01
      4.598  0.6769E+00  0.3760E+01
      4.664  0.7548E+00  0.3810E+01
      4.730  0.8273E+00  0.3864E+01
      4.795  0.8620E+00  0.3920E+01
      4.861  0.8301E+00  0.3975E+01
      4.927  0.7156E+00  0.4022E+01
      4.992  0.5290E+00  0.4057E+01
      5.058  0.3207E+00  0.4078E+01
      5.124  0.1658E+00  0.4089E+01
      5.189  0.1191E+00  0.4096E+01
      5.255  0.1779E+00  0.4108E+01
      5.321  0.2857E+00  0.4127E+01
      5.386  0.3650E+00  0.4151E+01
      5.452  0.3607E+00  0.4174E+01
      5.517  0.2711E+00  0.4192E+01
      5.583  0.1470E+00  0.4202E+01
      5.649  0.5398E-01  0.4205E+01
      5.714  0.2977E-01  0.4207E+01
      5.780  0.6873E-01  0.4212E+01
      5.846  0.1332E+00  0.4221E+01
      5.911  0.1776E+00  0.4232E+01
      5.977  0.1750E+00  0.4244E+01
      6.043  0.1324E+00  0.4253E+01
      6.108  0.8064E-01  0.4258E+01
      6.174  0.4531E-01  0.4261E+01
      6.240  0.2924E-01  0.4263E+01
      6.305  0.2164E-01  0.4264E+01
      6.371  0.1873E-01  0.4265E+01
      6.437  0.2951E-01  0.4267E+01
      6.502  0.6144E-01  0.4271E+01
      6.568  0.1059E+00  0.4278E+01
      6.634  0.1419E+00  0.4288E+01
      6.699  0.1517E+00  0.4298E+01
      6.765  0.1307E+00  0.4306E+01
      6.830  0.8831E-01  0.4312E+01
      6.896  0.4576E-01  0.4315E+01
      6.962  0.2975E-01  0.4317E+01
      7.027  0.5684E-01  0.4321E+01
      7.093  0.1190E+00  0.4328E+01
      7.159  0.1859E+00  0.4341E+01
      7.224  0.2260E+00  0.4355E+01
      7.290  0.2332E+00  0.4371E+01
      7.356  0.2340E+00  0.4386E+01
      7.421  0.2661E+00  0.4404E+01
      7.487  0.3380E+00  0.4426E+01
      7.553  0.4086E+00  0.4453E+01
      7.618  0.4186E+00  0.4480E+01
      7.684  0.3524E+00  0.4503E+01
      7.750  0.2657E+00  0.4521E+01
      7.815  0.2415E+00  0.4537E+01
      7.881  0.3163E+00  0.4557E+01
      7.947  0.4530E+00  0.4587E+01
      8.012  0.5809E+00  0.4625E+01
      8.078  0.6493E+00  0.4668E+01
      8.143  0.6440E+00  0.4710E+01
      8.209  0.5880E+00  0.4749E+01
      8.275  0.5420E+00  0.4784E+01
      8.340  0.5746E+00  0.4822E+01
      8.406  0.7032E+00  0.4868E+01
      8.472  0.8787E+00  0.4926E+01
      8.537  0.1031E+01  0.4994E+01
      8.603  0.1109E+01  0.5066E+01
      8.669  0.1079E+01  0.5137E+01
      8.734  0.9298E+00  0.5198E+01
      8.800  0.6943E+00  0.5244E+01
      8.866  0.4543E+00  0.5274E+01
      8.931  0.2899E+00  0.5293E+01
      8.997  0.2309E+00  0.5308E+01
      9.063  0.2507E+00  0.5324E+01
      9.128  0.2923E+00  0.5343E+01
      9.194  0.2998E+00  0.5363E+01
      9.259  0.2466E+00  0.5379E+01
      9.325  0.1512E+00  0.5389E+01
      9.391  0.6045E-01  0.5393E+01
      9.456  0.1064E-01  0.5394E+01
      9.522  0.4115E-02  0.5394E+01
      9.588  0.1826E-01  0.5395E+01
      9.653  0.2899E-01  0.5397E+01
      9.719  0.2635E-01  0.5399E+01
      9.785  0.1503E-01  0.5400E+01
      9.850  0.4356E-02  0.5400E+01
      9.916 -0.9149E-03  0.5400E+01
      9.982 -0.1809E-02  0.5400E+01
     10.047 -0.1109E-02  0.5400E+01
     10.113 -0.4393E-03  0.5400E+01
     10.179 -0.1266E-03  0.5400E+01
     10.244 -0.2772E-04  0.5400E+01
     10.310 -0.4705E-05  0.5400E+01
     10.376 -0.6263E-06  0.5400E+01
     10.441 -0.6587E-07  0.5400E+01
     10.507 -0.5499E-08  0.5400E+01
     10.572 -0.3656E-09  0.5400E+01
     10.638 -0.1941E-10  0.5400E+01
     10.704 -0.8242E-12  0.5400E+01
     10.769 -0.2802E-13  0.5400E+01
     10.835 -0.7751E-15  0.5400E+01
     10.901 -0.1409E-16  0.5400E+01
     10.966  0.0000E+00  0.5400E+01
     11.032  0.0000E+00  0.5400E+01
     11.098  0.0000E+00  0.5400E+01
     11.163  0.0000E+00  0.5400E+01
     11.229  0.0000E+00  0.5400E+01
     11.295  0.0000E+00  0.5400E+01
     11.360  0.0000E+00  0.5400E+01
     11.426  0.0000E+00  0.5400E+01
     11.492  0.0000E+00  0.5400E+01
     11.557  0.0000E+00  0.5400E+01
     11.623  0.0000E+00  0.5400E+01
