       N       E                     dE             d eps       ncg     rms          rms(c)
DAV:   1     0.567724457624E+03    0.56772E+03   -0.84460E+04  2592   0.106E+03
DAV:   2    -0.310708902795E+03   -0.87843E+03   -0.83230E+03  3112   0.174E+02
DAV:   3    -0.373170189454E+03   -0.62461E+02   -0.61150E+02  3136   0.412E+01
DAV:   4    -0.374763996937E+03   -0.15938E+01   -0.15821E+01  3136   0.797E+00
DAV:   5    -0.374814178693E+03   -0.50182E-01   -0.50069E-01  3088   0.132E+00    0.296E+01
RMM:   6    -0.369235585402E+03    0.55786E+01   -0.28744E+00  2592   0.266E+00    0.178E+01
RMM:   7    -0.366754231691E+03    0.24814E+01   -0.73221E+00  2649   0.424E+00    0.107E+00
RMM:   8    -0.366792362878E+03   -0.38131E-01   -0.68780E-01  2618   0.161E+00    0.520E-01
RMM:   9    -0.366813839154E+03   -0.21476E-01   -0.20340E-01  2670   0.792E-01    0.595E-01
RMM:  10    -0.366817786516E+03   -0.39474E-02   -0.36085E-02  2738   0.373E-01    0.797E-01
RMM:  11    -0.366814211947E+03    0.35746E-02   -0.12759E-02  2592   0.226E-01    0.640E-01
RMM:  12    -0.366814368211E+03   -0.15626E-03   -0.18687E-03  2612   0.102E-01    0.632E-01
RMM:  13    -0.366814435278E+03   -0.67067E-04   -0.35774E-04  2754   0.416E-02    0.720E-01
RMM:  14    -0.366814437711E+03   -0.24336E-05   -0.96662E-05  2604   0.244E-02    0.324E-01
RMM:  15    -0.366814515233E+03   -0.77522E-04   -0.37827E-05  2633   0.131E-02    0.283E-01
RMM:  16    -0.366814573746E+03   -0.58512E-04   -0.32326E-05  2592   0.127E-02    0.190E-01
RMM:  17    -0.366814583651E+03   -0.99055E-05   -0.90836E-06  2589   0.735E-03    0.717E-02
RMM:  18    -0.366814587857E+03   -0.42062E-05   -0.25374E-06  1653   0.381E-03    0.183E-02
RMM:  19    -0.366814589282E+03   -0.14245E-05   -0.14822E-06  1570   0.270E-03    0.797E-03
RMM:  20    -0.366814589319E+03   -0.36747E-07   -0.34138E-07  1545   0.113E-03
   1 F= -.36681459E+03 E0= -.36682436E+03  d E =-.366815E+03
       N       E                     dE             d eps       ncg     rms          rms(c)
DAV:   1    -0.366837046714E+03   -0.22457E-01   -0.12504E+00  2944   0.215E+00    0.497E-01
RMM:   2    -0.366843199422E+03   -0.61527E-02   -0.63891E-02  2592   0.534E-01    0.202E-01
RMM:   3    -0.366844079837E+03   -0.88042E-03   -0.10098E-02  2637   0.238E-01    0.855E-02
RMM:   4    -0.366844073276E+03    0.65606E-05   -0.13850E-03  2658   0.993E-02    0.314E-02
RMM:   5    -0.366844083246E+03   -0.99691E-05   -0.24190E-04  2665   0.392E-02    0.658E-03
RMM:   6    -0.366844089317E+03   -0.60715E-05   -0.60880E-05  2811   0.175E-02    0.147E-03
RMM:   7    -0.366844089999E+03   -0.68217E-06   -0.71416E-06  2042   0.601E-03    0.162E-03
RMM:   8    -0.366844090098E+03   -0.98875E-07   -0.13872E-06  1633   0.257E-03
   2 F= -.36684409E+03 E0= -.36685154E+03  d E =-.295008E-01
       N       E                     dE             d eps       ncg     rms          rms(c)
DAV:   1    -0.366848617207E+03   -0.45272E-02   -0.96303E-02  2934   0.595E-01    0.138E-01
RMM:   2    -0.366849081268E+03   -0.46406E-03   -0.47921E-03  2592   0.147E-01    0.564E-02
RMM:   3    -0.366849144422E+03   -0.63154E-04   -0.73719E-04  2641   0.654E-02    0.233E-02
RMM:   4    -0.366849143889E+03    0.53292E-06   -0.99778E-05  2645   0.271E-02    0.852E-03
RMM:   5    -0.366849144712E+03   -0.82212E-06   -0.18002E-05  2610   0.107E-02    0.178E-03
RMM:   6    -0.366849145076E+03   -0.36431E-06   -0.41736E-06  1880   0.478E-03    0.364E-04
RMM:   7    -0.366849145136E+03   -0.60118E-07   -0.65367E-07  1536   0.187E-03    0.408E-04
RMM:   8    -0.366849145164E+03   -0.28172E-07   -0.16843E-07  1181   0.921E-04
   3 F= -.36684915E+03 E0= -.36685746E+03  d E =-.345558E-01
