   8   8   0   0
  0.5728167E+01  0.3590444E-09  0.3572581E-09  0.3572570E-09  0.5000000E-15
  1.000000000000000E-004
  CAR 
 C8                                      
     23.43541778    -13.75758734  301      9.68950297      1.00000000
    -13.758  0.0000E+00  0.0000E+00
    -13.634  0.0000E+00  0.0000E+00
    -13.510  0.0000E+00  0.0000E+00
    -13.386  0.0000E+00  0.0000E+00
    -13.262  0.0000E+00  0.0000E+00
    -13.138  0.0000E+00  0.0000E+00
    -13.014  0.0000E+00  0.0000E+00
    -12.890  0.0000E+00  0.0000E+00
    -12.766  0.0000E+00  0.0000E+00
    -12.642  0.0000E+00  0.0000E+00
    -12.518  0.0000E+00  0.0000E+00
    -12.394  0.0000E+00  0.0000E+00
    -12.270  0.0000E+00  0.0000E+00
    -12.146  0.0000E+00  0.0000E+00
    -12.022  0.0000E+00  0.0000E+00
    -11.898  0.0000E+00  0.0000E+00
    -11.774  0.0000E+00  0.0000E+00
    -11.650  0.1596E+00  0.8261E-02
    -11.526  0.2081E+00  0.3017E-01
    -11.402  0.2636E+00  0.5990E-01
    -11.278  0.3104E+00  0.9533E-01
    -11.154  0.3481E+00  0.1364E+00
    -11.030  0.3845E+00  0.1818E+00
    -10.906  0.4185E+00  0.2318E+00
    -10.782  0.4469E+00  0.2854E+00
    -10.658  0.4782E+00  0.3427E+00
    -10.534  0.5057E+00  0.4038E+00
    -10.410  0.5299E+00  0.4680E+00
    -10.286  0.5568E+00  0.5353E+00
    -10.162  0.5826E+00  0.6061E+00
    -10.038  0.6039E+00  0.6796E+00
     -9.914  0.6269E+00  0.7559E+00
     -9.790  0.6513E+00  0.8351E+00
     -9.666  0.7956E+00  0.9245E+00
     -9.542  0.7246E+00  0.1017E+01
     -9.418  0.6858E+00  0.1105E+01
     -9.294  0.6552E+00  0.1188E+01
     -9.170  0.7787E+00  0.1272E+01
     -9.046  0.7950E+00  0.1367E+01
     -8.922  0.7964E+00  0.1464E+01
     -8.799  0.8153E+00  0.1564E+01
     -8.675  0.8383E+00  0.1667E+01
     -8.551  0.8557E+00  0.1772E+01
     -8.427  0.8756E+00  0.1879E+01
     -8.303  0.8953E+00  0.1989E+01
     -8.179  0.9157E+00  0.2101E+01
     -8.055  0.9353E+00  0.2216E+01
     -7.931  0.9567E+00  0.2333E+01
     -7.807  0.1027E+01  0.2454E+01
     -7.683  0.1021E+01  0.2579E+01
     -7.559  0.1028E+01  0.2705E+01
     -7.435  0.1058E+01  0.2835E+01
     -7.311  0.1130E+01  0.2966E+01
     -7.187  0.1131E+01  0.3106E+01
     -7.063  0.1077E+01  0.3241E+01
     -6.939  0.1065E+01  0.3373E+01
     -6.815  0.1167E+01  0.3508E+01
     -6.691  0.1223E+01  0.3656E+01
     -6.567  0.1218E+01  0.3807E+01
     -6.443  0.1244E+01  0.3959E+01
     -6.319  0.1302E+01  0.4116E+01
     -6.195  0.1399E+01  0.4284E+01
     -6.071  0.1498E+01  0.4464E+01
     -5.947  0.1606E+01  0.4661E+01
     -5.823  0.1579E+01  0.4853E+01
     -5.699  0.1461E+01  0.5041E+01
     -5.575  0.1478E+01  0.5221E+01
     -5.451  0.1400E+01  0.5402E+01
     -5.327  0.1375E+01  0.5574E+01
     -5.203  0.1352E+01  0.5742E+01
     -5.079  0.1316E+01  0.5906E+01
     -4.955  0.1235E+01  0.6064E+01
     -4.831  0.1235E+01  0.6216E+01
     -4.707  0.1243E+01  0.6366E+01
     -4.583  0.1169E+01  0.6516E+01
     -4.459  0.1104E+01  0.6657E+01
     -4.335  0.1053E+01  0.6790E+01
     -4.211  0.1020E+01  0.6918E+01
     -4.087  0.9875E+00  0.7043E+01
     -3.963  0.1072E+01  0.7166E+01
     -3.839  0.9376E+00  0.7286E+01
     -3.715  0.8763E+00  0.7398E+01
     -3.591  0.9878E+00  0.7509E+01
     -3.468  0.1053E+01  0.7633E+01
     -3.344  0.1110E+01  0.7769E+01
     -3.220  0.1067E+01  0.7902E+01
     -3.096  0.1097E+01  0.8035E+01
     -2.972  0.9680E+00  0.8165E+01
     -2.848  0.9380E+00  0.8281E+01
     -2.724  0.9924E+00  0.8400E+01
     -2.600  0.9831E+00  0.8521E+01
     -2.476  0.1109E+01  0.8650E+01
     -2.352  0.1272E+01  0.8798E+01
     -2.228  0.1471E+01  0.8968E+01
     -2.104  0.1829E+01  0.9168E+01
     -1.980  0.2266E+01  0.9416E+01
     -1.856  0.2892E+01  0.9733E+01
     -1.732  0.2712E+01  0.1009E+02
     -1.608  0.2162E+01  0.1038E+02
     -1.484  0.1898E+01  0.1063E+02
     -1.360  0.1767E+01  0.1086E+02
     -1.236  0.1660E+01  0.1107E+02
     -1.112  0.1757E+01  0.1128E+02
     -0.988  0.1444E+01  0.1147E+02
     -0.864  0.1372E+01  0.1164E+02
     -0.740  0.1325E+01  0.1181E+02
     -0.616  0.1279E+01  0.1197E+02
     -0.492  0.1230E+01  0.1213E+02
     -0.368  0.1174E+01  0.1228E+02
     -0.244  0.1174E+01  0.1242E+02
     -0.120  0.1093E+01  0.1256E+02
      0.004  0.1057E+01  0.1270E+02
      0.128  0.1039E+01  0.1283E+02
      0.252  0.1096E+01  0.1296E+02
      0.376  0.1168E+01  0.1309E+02
      0.500  0.1485E+01  0.1326E+02
      0.624  0.1699E+01  0.1346E+02
      0.748  0.1709E+01  0.1367E+02
      0.872  0.1812E+01  0.1389E+02
      0.996  0.2210E+01  0.1414E+02
      1.120  0.2218E+01  0.1441E+02
      1.244  0.2232E+01  0.1468E+02
      1.368  0.2361E+01  0.1496E+02
      1.492  0.2370E+01  0.1527E+02
      1.616  0.1722E+01  0.1553E+02
      1.739  0.1365E+01  0.1570E+02
      1.863  0.1749E+01  0.1589E+02
      1.987  0.2253E+01  0.1613E+02
      2.111  0.2369E+01  0.1643E+02
      2.235  0.2179E+01  0.1671E+02
      2.359  0.2240E+01  0.1698E+02
      2.483  0.2417E+01  0.1727E+02
      2.607  0.2401E+01  0.1756E+02
      2.731  0.2382E+01  0.1785E+02
      2.855  0.2508E+01  0.1816E+02
      2.979  0.2792E+01  0.1848E+02
      3.103  0.2872E+01  0.1884E+02
      3.227  0.2537E+01  0.1918E+02
      3.351  0.3188E+01  0.1952E+02
      3.475  0.3022E+01  0.1990E+02
      3.599  0.3174E+01  0.2028E+02
      3.723  0.3350E+01  0.2069E+02
      3.847  0.3204E+01  0.2109E+02
      3.971  0.3127E+01  0.2148E+02
      4.095  0.3137E+01  0.2187E+02
      4.219  0.2909E+01  0.2224E+02
      4.343  0.3322E+01  0.2263E+02
      4.467  0.2856E+01  0.2301E+02
      4.591  0.2749E+01  0.2335E+02
      4.715  0.2658E+01  0.2369E+02
      4.839  0.2907E+01  0.2403E+02
      4.963  0.3075E+01  0.2441E+02
      5.087  0.2984E+01  0.2479E+02
      5.211  0.2988E+01  0.2516E+02
      5.335  0.2837E+01  0.2552E+02
      5.459  0.2858E+01  0.2586E+02
      5.583  0.2604E+01  0.2619E+02
      5.707  0.2653E+01  0.2651E+02
      5.831  0.2632E+01  0.2684E+02
      5.955  0.2795E+01  0.2717E+02
      6.079  0.2819E+01  0.2752E+02
      6.203  0.2665E+01  0.2786E+02
      6.327  0.2675E+01  0.2819E+02
      6.451  0.2527E+01  0.2851E+02
      6.575  0.3089E+01  0.2884E+02
      6.699  0.2605E+01  0.2919E+02
      6.823  0.1469E+01  0.2939E+02
      6.947  0.2293E+01  0.2962E+02
      7.070  0.2108E+01  0.2988E+02
      7.194  0.2073E+01  0.3014E+02
      7.318  0.1503E+01  0.3034E+02
      7.442  0.1372E+01  0.3052E+02
      7.566  0.1261E+01  0.3068E+02
      7.690  0.1164E+01  0.3083E+02
      7.814  0.1088E+01  0.3097E+02
      7.938  0.1009E+01  0.3110E+02
      8.062  0.9234E+00  0.3122E+02
      8.186  0.8513E+00  0.3133E+02
      8.310  0.7826E+00  0.3143E+02
      8.434  0.7256E+00  0.3153E+02
      8.558  0.6579E+00  0.3161E+02
      8.682  0.5802E+00  0.3169E+02
      8.806  0.5244E+00  0.3176E+02
      8.930  0.4858E+00  0.3182E+02
      9.054  0.3976E+00  0.3187E+02
      9.178  0.3470E+00  0.3192E+02
      9.302  0.2420E+00  0.3196E+02
      9.426  0.1969E+00  0.3199E+02
      9.550  0.5676E-01  0.3200E+02
      9.674  0.0000E+00  0.3200E+02
      9.798  0.0000E+00  0.3200E+02
      9.922  0.0000E+00  0.3200E+02
     10.046  0.0000E+00  0.3200E+02
     10.170  0.0000E+00  0.3200E+02
     10.294  0.0000E+00  0.3200E+02
     10.418  0.0000E+00  0.3200E+02
     10.542  0.0000E+00  0.3200E+02
     10.666  0.0000E+00  0.3200E+02
     10.790  0.0000E+00  0.3200E+02
     10.914  0.0000E+00  0.3200E+02
     11.038  0.0000E+00  0.3200E+02
     11.162  0.0000E+00  0.3200E+02
     11.286  0.0000E+00  0.3200E+02
     11.410  0.0000E+00  0.3200E+02
     11.534  0.0000E+00  0.3200E+02
     11.658  0.0000E+00  0.3200E+02
     11.782  0.0000E+00  0.3200E+02
     11.906  0.0000E+00  0.3200E+02
     12.030  0.0000E+00  0.3200E+02
     12.154  0.0000E+00  0.3200E+02
     12.278  0.0000E+00  0.3200E+02
     12.401  0.0000E+00  0.3200E+02
     12.525  0.0000E+00  0.3200E+02
     12.649  0.0000E+00  0.3200E+02
     12.773  0.0000E+00  0.3200E+02
     12.897  0.0000E+00  0.3200E+02
     13.021  0.0000E+00  0.3200E+02
     13.145  0.0000E+00  0.3200E+02
     13.269  0.0000E+00  0.3200E+02
     13.393  0.0000E+00  0.3200E+02
     13.517  0.0000E+00  0.3200E+02
     13.641  0.0000E+00  0.3200E+02
     13.765  0.1036E+00  0.3200E+02
     13.889  0.2849E+00  0.3203E+02
     14.013  0.4158E+00  0.3207E+02
     14.137  0.5895E+00  0.3213E+02
     14.261  0.6336E+00  0.3221E+02
     14.385  0.7968E+00  0.3230E+02
     14.509  0.9306E+00  0.3240E+02
     14.633  0.1023E+01  0.3253E+02
     14.757  0.1198E+01  0.3266E+02
     14.881  0.1474E+01  0.3283E+02
     15.005  0.1490E+01  0.3301E+02
     15.129  0.1526E+01  0.3320E+02
     15.253  0.1635E+01  0.3339E+02
     15.377  0.1696E+01  0.3360E+02
     15.501  0.1871E+01  0.3382E+02
     15.625  0.2088E+01  0.3407E+02
     15.749  0.2018E+01  0.3432E+02
     15.873  0.1949E+01  0.3457E+02
     15.997  0.1977E+01  0.3481E+02
     16.121  0.2141E+01  0.3506E+02
     16.245  0.2390E+01  0.3534E+02
     16.369  0.2411E+01  0.3564E+02
     16.493  0.2462E+01  0.3594E+02
     16.617  0.2500E+01  0.3625E+02
     16.741  0.2565E+01  0.3656E+02
     16.865  0.2813E+01  0.3690E+02
     16.989  0.2935E+01  0.3725E+02
     17.113  0.3157E+01  0.3761E+02
     17.237  0.3170E+01  0.3800E+02
     17.361  0.3221E+01  0.3839E+02
     17.485  0.3664E+01  0.3882E+02
     17.609  0.4002E+01  0.3930E+02
     17.732  0.4599E+01  0.3981E+02
     17.856  0.4961E+01  0.4040E+02
     17.980  0.3697E+01  0.4093E+02
     18.104  0.3640E+01  0.4134E+02
     18.228  0.3846E+01  0.4180E+02
     18.352  0.3949E+01  0.4229E+02
     18.476  0.3792E+01  0.4276E+02
     18.600  0.3490E+01  0.4321E+02
     18.724  0.3248E+01  0.4362E+02
     18.848  0.3201E+01  0.4402E+02
     18.972  0.2937E+01  0.4440E+02
     19.096  0.2649E+01  0.4475E+02
     19.220  0.2618E+01  0.4507E+02
     19.344  0.2842E+01  0.4541E+02
     19.468  0.2779E+01  0.4576E+02
     19.592  0.2679E+01  0.4609E+02
     19.716  0.2579E+01  0.4642E+02
     19.840  0.2207E+01  0.4672E+02
     19.964  0.1982E+01  0.4697E+02
     20.088  0.1779E+01  0.4720E+02
     20.212  0.1637E+01  0.4741E+02
     20.336  0.1351E+01  0.4760E+02
     20.460  0.1011E+01  0.4774E+02
     20.584  0.9088E+00  0.4786E+02
     20.708  0.3126E+00  0.4792E+02
     20.832  0.1930E+00  0.4795E+02
     20.956  0.1276E+00  0.4797E+02
     21.080  0.8810E-01  0.4799E+02
     21.204  0.5288E-01  0.4799E+02
     21.328  0.2554E-01  0.4800E+02
     21.452  0.1095E-02  0.4800E+02
     21.576  0.0000E+00  0.4800E+02
     21.700  0.0000E+00  0.4800E+02
     21.824  0.0000E+00  0.4800E+02
     21.948  0.0000E+00  0.4800E+02
     22.072  0.0000E+00  0.4800E+02
     22.196  0.0000E+00  0.4800E+02
     22.320  0.0000E+00  0.4800E+02
     22.444  0.0000E+00  0.4800E+02
     22.568  0.0000E+00  0.4800E+02
     22.692  0.0000E+00  0.4800E+02
     22.816  0.0000E+00  0.4800E+02
     22.940  0.0000E+00  0.4800E+02
     23.063  0.0000E+00  0.4800E+02
     23.187  0.0000E+00  0.4800E+02
     23.311  0.0000E+00  0.4800E+02
     23.435  0.0000E+00  0.4800E+02
