       N       E                     dE             d eps       ncg     rms          rms(c)
DAV:   1     0.671746408755E+02    0.67175E+02   -0.17888E+04 62640   0.130E+03
DAV:   2    -0.722818205075E+02   -0.13946E+03   -0.13702E+03 83292   0.230E+02
DAV:   3    -0.752034645994E+02   -0.29216E+01   -0.29180E+01 88140   0.362E+01
DAV:   4    -0.752226784629E+02   -0.19214E-01   -0.19208E-01 81132   0.298E+00
DAV:   5    -0.752229563105E+02   -0.27785E-03   -0.27778E-03 87408   0.334E-01    0.110E+01
RMM:   6    -0.733546774818E+02    0.18683E+01   -0.11609E+00 62777   0.624E+00    0.651E+00
RMM:   7    -0.727281600936E+02    0.62652E+00   -0.18582E+00 69003   0.837E+00    0.140E+00
RMM:   8    -0.727422104709E+02   -0.14050E-01   -0.10599E-01 67280   0.243E+00    0.238E-01
RMM:   9    -0.727432651759E+02   -0.10547E-02   -0.19952E-02 73575   0.948E-01    0.123E-01
RMM:  10    -0.727434141355E+02   -0.14896E-03   -0.28967E-03 73203   0.358E-01    0.372E-02
RMM:  11    -0.727434797842E+02   -0.65649E-04   -0.67243E-04 77318   0.151E-01    0.936E-03
RMM:  12    -0.727434902695E+02   -0.10485E-04   -0.10005E-04 78269   0.620E-02    0.146E-02
RMM:  13    -0.727434953298E+02   -0.50604E-05   -0.25582E-05 75987   0.251E-02    0.376E-03
RMM:  14    -0.727434949913E+02    0.33855E-06   -0.37056E-06 63088   0.108E-02
   1 F= -.72743495E+02 E0= -.72743495E+02  d E =0.000000E+00
