  64  64   0   0
  0.1936149E+02  0.1088449E-08  0.1067109E-08  0.1067056E-08  0.5000000E-15
  1.000000000000000E-004
  CAR 
 Si64                                    
     11.55853467     -8.08826008  301      6.35495659      1.00000000
     -8.088  0.0000E+00  0.0000E+00
     -8.023  0.0000E+00  0.0000E+00
     -7.957  0.0000E+00  0.0000E+00
     -7.892  0.0000E+00  0.0000E+00
     -7.826  0.0000E+00  0.0000E+00
     -7.761  0.0000E+00  0.0000E+00
     -7.695 -0.1313E-28 -0.8597E-30
     -7.630 -0.2169E-26 -0.1429E-27
     -7.564 -0.2901E-24 -0.1914E-25
     -7.499 -0.3123E-22 -0.2064E-23
     -7.433 -0.2706E-20 -0.1793E-21
     -7.368 -0.1887E-18 -0.1254E-19
     -7.302 -0.1058E-16 -0.7055E-18
     -7.237 -0.4629E-15 -0.3102E-16
     -7.171 -0.1670E-13 -0.1125E-14
     -7.106 -0.4835E-12 -0.3279E-13
     -7.040 -0.1122E-10 -0.7675E-12
     -6.975 -0.2083E-09 -0.1441E-10
     -6.909 -0.3090E-08 -0.2168E-09
     -6.844 -0.3653E-07 -0.2609E-08
     -6.778 -0.3430E-06 -0.2507E-07
     -6.713 -0.2545E-05 -0.1918E-06
     -6.647 -0.1482E-04 -0.1163E-05
     -6.582 -0.6699E-04 -0.5550E-05
     -6.517 -0.2303E-03 -0.2063E-04
     -6.451 -0.5794E-03 -0.5858E-04
     -6.386 -0.9665E-03 -0.1219E-03
     -6.320 -0.6734E-03 -0.1660E-03
     -6.255  0.1381E-02 -0.7555E-04
     -6.189  0.5271E-02  0.2696E-03
     -6.124  0.9221E-02  0.8735E-03
     -6.058  0.1259E-01  0.1698E-02
     -5.993  0.2046E-01  0.3038E-02
     -5.927  0.4020E-01  0.5670E-02
     -5.862  0.6882E-01  0.1018E-01
     -5.796  0.9124E-01  0.1615E-01
     -5.731  0.1014E+00  0.2279E-01
     -5.665  0.1165E+00  0.3042E-01
     -5.600  0.1525E+00  0.4041E-01
     -5.534  0.1911E+00  0.5292E-01
     -5.469  0.1980E+00  0.6589E-01
     -5.403  0.1717E+00  0.7713E-01
     -5.338  0.1440E+00  0.8657E-01
     -5.272  0.1325E+00  0.9525E-01
     -5.207  0.1217E+00  0.1032E+00
     -5.141  0.9870E-01  0.1097E+00
     -5.076  0.7589E-01  0.1147E+00
     -5.010  0.7016E-01  0.1192E+00
     -4.945  0.8674E-01  0.1249E+00
     -4.879  0.1344E+00  0.1337E+00
     -4.814  0.2248E+00  0.1485E+00
     -4.748  0.3375E+00  0.1706E+00
     -4.683  0.4201E+00  0.1981E+00
     -4.617  0.4484E+00  0.2274E+00
     -4.552  0.4501E+00  0.2569E+00
     -4.486  0.4425E+00  0.2859E+00
     -4.421  0.3922E+00  0.3116E+00
     -4.355  0.2733E+00  0.3295E+00
     -4.290  0.1238E+00  0.3376E+00
     -4.224  0.1319E-01  0.3384E+00
     -4.159 -0.1779E-01  0.3373E+00
     -4.093  0.3363E-01  0.3395E+00
     -4.028  0.1518E+00  0.3494E+00
     -3.962  0.3054E+00  0.3694E+00
     -3.897  0.4428E+00  0.3984E+00
     -3.831  0.5078E+00  0.4317E+00
     -3.766  0.4748E+00  0.4628E+00
     -3.700  0.3726E+00  0.4872E+00
     -3.635  0.2688E+00  0.5048E+00
     -3.569  0.2291E+00  0.5198E+00
     -3.504  0.2844E+00  0.5384E+00
     -3.439  0.4163E+00  0.5657E+00
     -3.373  0.5650E+00  0.6027E+00
     -3.308  0.6647E+00  0.6462E+00
     -3.242  0.6858E+00  0.6911E+00
     -3.177  0.6417E+00  0.7331E+00
     -3.111  0.5622E+00  0.7699E+00
     -3.046  0.4780E+00  0.8013E+00
     -2.980  0.4220E+00  0.8289E+00
     -2.915  0.4099E+00  0.8557E+00
     -2.849  0.4103E+00  0.8826E+00
     -2.784  0.3642E+00  0.9065E+00
     -2.718  0.2516E+00  0.9229E+00
     -2.653  0.1167E+00  0.9306E+00
     -2.587  0.1782E-01  0.9317E+00
     -2.522 -0.2462E-01  0.9301E+00
     -2.456 -0.2225E-01  0.9287E+00
     -2.391  0.1359E-01  0.9296E+00
     -2.325  0.7709E-01  0.9346E+00
     -2.260  0.1478E+00  0.9443E+00
     -2.194  0.1866E+00  0.9565E+00
     -2.129  0.1660E+00  0.9674E+00
     -2.063  0.1018E+00  0.9741E+00
     -1.998  0.4696E-01  0.9771E+00
     -1.932  0.5673E-01  0.9808E+00
     -1.867  0.1570E+00  0.9911E+00
     -1.801  0.3266E+00  0.1013E+01
     -1.736  0.4961E+00  0.1045E+01
     -1.670  0.5774E+00  0.1083E+01
     -1.605  0.5220E+00  0.1117E+01
     -1.539  0.3605E+00  0.1141E+01
     -1.474  0.1815E+00  0.1152E+01
     -1.408  0.6718E-01  0.1157E+01
     -1.343  0.4677E-01  0.1160E+01
     -1.277  0.9491E-01  0.1166E+01
     -1.212  0.1587E+00  0.1177E+01
     -1.146  0.1906E+00  0.1189E+01
     -1.081  0.1780E+00  0.1201E+01
     -1.015  0.1555E+00  0.1211E+01
     -0.950  0.1796E+00  0.1223E+01
     -0.884  0.2664E+00  0.1240E+01
     -0.819  0.3566E+00  0.1263E+01
     -0.753  0.3730E+00  0.1288E+01
     -0.688  0.3263E+00  0.1309E+01
     -0.622  0.3268E+00  0.1331E+01
     -0.557  0.4703E+00  0.1361E+01
     -0.491  0.7264E+00  0.1409E+01
     -0.426  0.9470E+00  0.1471E+01
     -0.361  0.9762E+00  0.1535E+01
     -0.295  0.7717E+00  0.1586E+01
     -0.230  0.4393E+00  0.1614E+01
     -0.164  0.1498E+00  0.1624E+01
     -0.099  0.1986E-01  0.1625E+01
     -0.033  0.6131E-01  0.1629E+01
      0.032  0.2057E+00  0.1643E+01
      0.098  0.3477E+00  0.1666E+01
      0.163  0.3969E+00  0.1692E+01
      0.229  0.3330E+00  0.1713E+01
      0.294  0.2143E+00  0.1727E+01
      0.360  0.1214E+00  0.1735E+01
      0.425  0.9918E-01  0.1742E+01
      0.491  0.1499E+00  0.1752E+01
      0.556  0.2530E+00  0.1768E+01
      0.622  0.3717E+00  0.1793E+01
      0.687  0.4552E+00  0.1822E+01
      0.753  0.4581E+00  0.1852E+01
      0.818  0.3702E+00  0.1877E+01
      0.884  0.2290E+00  0.1892E+01
      0.949  0.9570E-01  0.1898E+01
      1.015  0.1303E-01  0.1899E+01
      1.080 -0.1701E-01  0.1898E+01
      1.146 -0.1850E-01  0.1897E+01
      1.211 -0.1557E-01  0.1895E+01
      1.277 -0.1981E-01  0.1894E+01
      1.342 -0.2838E-01  0.1892E+01
      1.408 -0.2084E-01  0.1891E+01
      1.473  0.4009E-01  0.1894E+01
      1.539  0.1874E+00  0.1906E+01
      1.604  0.4135E+00  0.1933E+01
      1.670  0.6502E+00  0.1976E+01
      1.735  0.7943E+00  0.2028E+01
      1.801  0.7710E+00  0.2078E+01
      1.866  0.5998E+00  0.2117E+01
      1.932  0.3990E+00  0.2143E+01
      1.997  0.2949E+00  0.2163E+01
      2.063  0.3123E+00  0.2183E+01
      2.128  0.3673E+00  0.2207E+01
      2.194  0.3733E+00  0.2232E+01
      2.259  0.3408E+00  0.2254E+01
      2.325  0.3741E+00  0.2279E+01
      2.390  0.5708E+00  0.2316E+01
      2.456  0.9115E+00  0.2376E+01
      2.521  0.1239E+01  0.2457E+01
      2.586  0.1361E+01  0.2546E+01
      2.652  0.1192E+01  0.2624E+01
      2.717  0.8138E+00  0.2677E+01
      2.783  0.4031E+00  0.2704E+01
      2.848  0.1037E+00  0.2710E+01
      2.914 -0.4480E-01  0.2708E+01
      2.979 -0.7497E-01  0.2703E+01
      3.045 -0.8498E-02  0.2702E+01
      3.110  0.1774E+00  0.2714E+01
      3.176  0.4939E+00  0.2746E+01
      3.241  0.8676E+00  0.2803E+01
      3.307  0.1161E+01  0.2879E+01
      3.372  0.1278E+01  0.2963E+01
      3.438  0.1227E+01  0.3043E+01
      3.503  0.1080E+01  0.3114E+01
      3.569  0.9076E+00  0.3173E+01
      3.634  0.7562E+00  0.3223E+01
      3.700  0.6621E+00  0.3266E+01
      3.765  0.6440E+00  0.3308E+01
      3.831  0.6787E+00  0.3353E+01
      3.896  0.6987E+00  0.3398E+01
      3.962  0.6423E+00  0.3440E+01
      4.027  0.5224E+00  0.3475E+01
      4.093  0.4230E+00  0.3502E+01
      4.158  0.4119E+00  0.3529E+01
      4.224  0.4733E+00  0.3560E+01
      4.289  0.5386E+00  0.3596E+01
      4.355  0.5666E+00  0.3633E+01
      4.420  0.5759E+00  0.3670E+01
      4.486  0.6116E+00  0.3711E+01
      4.551  0.6948E+00  0.3756E+01
      4.617  0.7986E+00  0.3808E+01
      4.682  0.8675E+00  0.3865E+01
      4.748  0.8628E+00  0.3922E+01
      4.813  0.7864E+00  0.3973E+01
      4.879  0.6618E+00  0.4016E+01
      4.944  0.5089E+00  0.4050E+01
      5.010  0.3506E+00  0.4073E+01
      5.075  0.2251E+00  0.4088E+01
      5.141  0.1688E+00  0.4099E+01
      5.206  0.1878E+00  0.4111E+01
      5.272  0.2532E+00  0.4127E+01
      5.337  0.3164E+00  0.4148E+01
      5.403  0.3299E+00  0.4170E+01
      5.468  0.2743E+00  0.4188E+01
      5.534  0.1755E+00  0.4199E+01
      5.599  0.8772E-01  0.4205E+01
      5.664  0.5307E-01  0.4208E+01
      5.730  0.7491E-01  0.4213E+01
      5.795  0.1243E+00  0.4221E+01
      5.861  0.1636E+00  0.4232E+01
      5.926  0.1672E+00  0.4243E+01
      5.992  0.1339E+00  0.4252E+01
      6.057  0.8477E-01  0.4257E+01
      6.123  0.4558E-01  0.4260E+01
      6.188  0.2678E-01  0.4262E+01
      6.254  0.2238E-01  0.4264E+01
      6.319  0.2619E-01  0.4265E+01
      6.385  0.4102E-01  0.4268E+01
      6.450  0.6885E-01  0.4273E+01
      6.516  0.1004E+00  0.4279E+01
      6.581  0.1213E+00  0.4287E+01
      6.647  0.1257E+00  0.4295E+01
      6.712  0.1155E+00  0.4303E+01
      6.778  0.9425E-01  0.4309E+01
      6.843  0.6965E-01  0.4314E+01
      6.909  0.5807E-01  0.4317E+01
      6.974  0.7438E-01  0.4322E+01
      7.040  0.1153E+00  0.4330E+01
      7.105  0.1610E+00  0.4340E+01
      7.171  0.1957E+00  0.4353E+01
      7.236  0.2199E+00  0.4368E+01
      7.302  0.2441E+00  0.4384E+01
      7.367  0.2786E+00  0.4402E+01
      7.433  0.3272E+00  0.4423E+01
      7.498  0.3787E+00  0.4448E+01
      7.564  0.4048E+00  0.4475E+01
      7.629  0.3848E+00  0.4500E+01
      7.695  0.3384E+00  0.4522E+01
      7.760  0.3179E+00  0.4543E+01
      7.826  0.3534E+00  0.4566E+01
      7.891  0.4222E+00  0.4594E+01
      7.957  0.4867E+00  0.4625E+01
      8.022  0.5403E+00  0.4661E+01
      8.088  0.5915E+00  0.4700E+01
      8.153  0.6309E+00  0.4741E+01
      8.219  0.6524E+00  0.4784E+01
      8.284  0.6836E+00  0.4828E+01
      8.350  0.7543E+00  0.4878E+01
      8.415  0.8532E+00  0.4934E+01
      8.481  0.9418E+00  0.4995E+01
      8.546  0.9932E+00  0.5060E+01
      8.612  0.9909E+00  0.5125E+01
      8.677  0.9145E+00  0.5185E+01
      8.742  0.7590E+00  0.5235E+01
      8.808  0.5626E+00  0.5272E+01
      8.873  0.3916E+00  0.5297E+01
      8.939  0.2939E+00  0.5317E+01
      9.004  0.2687E+00  0.5334E+01
      9.070  0.2741E+00  0.5352E+01
      9.135  0.2599E+00  0.5369E+01
      9.201  0.2025E+00  0.5382E+01
      9.266  0.1182E+00  0.5390E+01
      9.332  0.4479E-01  0.5393E+01
      9.397  0.8338E-02  0.5394E+01
      9.463  0.7345E-02  0.5394E+01
      9.528  0.2132E-01  0.5396E+01
      9.594  0.2984E-01  0.5397E+01
      9.659  0.2549E-01  0.5399E+01
      9.725  0.1377E-01  0.5400E+01
      9.790  0.3576E-02  0.5400E+01
      9.856 -0.1138E-02  0.5400E+01
      9.921 -0.1767E-02  0.5400E+01
      9.987 -0.1032E-02  0.5400E+01
     10.052 -0.3979E-03  0.5400E+01
     10.118 -0.1124E-03  0.5400E+01
     10.183 -0.2421E-04  0.5400E+01
     10.249 -0.4053E-05  0.5400E+01
     10.314 -0.5335E-06  0.5400E+01
     10.380 -0.5558E-07  0.5400E+01
     10.445 -0.4605E-08  0.5400E+01
     10.511 -0.3043E-09  0.5400E+01
     10.576 -0.1608E-10  0.5400E+01
     10.642 -0.6809E-12  0.5400E+01
     10.707 -0.2311E-13  0.5400E+01
     10.773 -0.6357E-15  0.5400E+01
     10.838 -0.1413E-16  0.5400E+01
     10.904  0.0000E+00  0.5400E+01
     10.969  0.0000E+00  0.5400E+01
     11.035  0.0000E+00  0.5400E+01
     11.100  0.0000E+00  0.5400E+01
     11.166  0.0000E+00  0.5400E+01
     11.231  0.0000E+00  0.5400E+01
     11.297  0.0000E+00  0.5400E+01
     11.362  0.0000E+00  0.5400E+01
     11.428  0.0000E+00  0.5400E+01
     11.493  0.0000E+00  0.5400E+01
     11.559  0.0000E+00  0.5400E+01
