 vasp.6.4.3 19Mar24 (build Oct 21 2024 22:36:34) complex                        
  
 executed on             LinuxIFC date 2024.11.01  22:54:24
 running   96 mpi-ranks, on    1 nodes
 distrk:  each k-point on   24 cores,    4 groups
 distr:  one band on NCORE=  12 cores,    2 groups


--------------------------------------------------------------------------------------------------------


 INCAR:
   SYSTEM = Si64
   ISTART = 0
   ICHARG = 2
   LREAL = Auto
   PREC = Accurate
   LWAVE = .False.
   LCHARG = .False.
   ADDGRID = .True.
   ENCUT = 400
   GGA = PS
   GGA_COMPAT = .FALSE.
   ISMEAR = 1
   SIGMA = 0.2
   NELM = 60
   NELMIN = 8
   EDIFF = 1e-06
   EDIFFG = -0.01
   NSW = 60
   IBRION = 2
   ISIF = 2
   KPAR = 4
   NPAR = 2
   ALGO = Fast

 POTCAR:    PAW_PBE Si 05Jan2001                  
 POTCAR:    PAW_PBE Si 05Jan2001                  
   VRHFIN =Si: s2p2                                                                                 
   LEXCH  = PE                                                                                      
   EATOM  =   103.0669 eV,    7.5752 Ry                                                             
                                                                                                    
   TITEL  = PAW_PBE Si 05Jan2001                                                                    
   LULTRA =        F    use ultrasoft PP ?                                                          
   IUNSCR =        1    unscreen: 0-lin 1-nonlin 2-no                                               
   RPACOR =    1.500    partial core radius                                                         
   POMASS =   28.085; ZVAL   =    4.000    mass and valenz                                          
   RCORE  =    1.900    outmost cutoff radius                                                       
   RWIGS  =    2.480; RWIGS  =    1.312    wigner-seitz radius (au A)                               
   ENMAX  =  245.345; ENMIN  =  184.009 eV                                                          
   ICORE  =        2    local potential                                                             
   LCOR   =        T    correct aug charges                                                         
   LPAW   =        T    paw PP                                                                      
   EAUG   =  322.069                                                                                
   DEXC   =    0.000                                                                                
   RMAX   =    1.950    core radius for proj-oper                                                   
   RAUG   =    1.300    factor for augmentation sphere                                              
   RDEP   =    1.993    radius for radial grids                                                     
   RDEPT  =    1.837    core radius for aug-charge                                                  
                                                                                                    
   Atomic configuration                                                                             
    6 entries                                                                                       
     n  l   j            E        occ.                                                              
     1  0  0.50     -1785.8828   2.0000                                                             
     2  0  0.50      -139.4969   2.0000                                                             
     2  1  1.50       -95.5546   6.0000                                                             
     3  0  0.50       -10.8127   2.0000                                                             
     3  1  0.50        -4.0811   2.0000                                                             
     3  2  1.50        -4.0817   0.0000                                                             
   Description                                                                                      
     l       E           TYP  RCUT    TYP  RCUT                                                     
     0    -10.8127223     23  1.900                                                                 
     0     -7.6451159     23  1.900                                                                 
     1     -4.0811372     23  1.900                                                                 
     1      2.4879257     23  1.900                                                                 
     2     -4.0817478      7  1.900                                                                 
  local pseudopotential read in
  partial core-charges read in
  partial kinetic energy density read in
  atomic valenz-charges read in
  non local Contribution for L=           0  read in
    real space projection operators read in
  non local Contribution for L=           0  read in
    real space projection operators read in
  non local Contribution for L=           1  read in
    real space projection operators read in
  non local Contribution for L=           1  read in
    real space projection operators read in
    PAW grid and wavefunctions read in
 
   number of l-projection  operators is LMAX  =           4
   number of lm-projection operators is LMMAX =           8
 
 Optimization of the real space projectors (new method)

 maximal supplied QI-value         = 19.84
 optimisation between [QCUT,QGAM] = [ 10.12, 20.44] = [ 28.68,116.96] Ry 
 Optimized for a Real-space Cutoff    1.38 Angstroem

   l    n(q)    QCUT    max X(q) W(low)/X(q) W(high)/X(q)  e(spline) 
   0      8    10.119   159.560    0.58E-04    0.11E-03    0.54E-07
   0      8    10.119   115.863    0.56E-04    0.11E-03    0.54E-07
   1      8    10.119    88.339    0.22E-03    0.17E-03    0.19E-06
   1      8    10.119    48.592    0.22E-03    0.17E-03    0.18E-06
 -----------------------------------------------------------------------------
|                                                                             |
|               ----> ADVICE to this user running VASP <----                  |
|                                                                             |
|     You enforced a specific xc type in the INCAR file but a different       |
|     type was found in the POTCAR file.                                      |
|     I HOPE YOU KNOW WHAT YOU ARE DOING!                                     |
|                                                                             |
 -----------------------------------------------------------------------------

  PAW_PBE Si 05Jan2001                  :
 energy of atom  1       EATOM= -103.0669
 kinetic energy error for atom=    0.0012 (will be added to EATOM!!)
 
 
 POSCAR: Si8
  positions in direct lattice
  velocities in cartesian coordinates


 exchange-correlation table for PS
   RHO(1)=    0.500       N(1)  =     2000
   RHO(2)=  100.500       N(2)  =     4000
 


--------------------------------------------------------------------------------------------------------


 ion  position               nearest neighbor table
   1  0.000  0.000  0.000-  30 2.31  44 2.31  15 2.34  57 2.34
   2  0.000  0.000  0.500-  29 2.31  43 2.31  16 2.34  58 2.34
   3  0.000  0.500  0.000-  32 2.31  42 2.31  13 2.34  59 2.34
   4  0.000  0.500  0.500-  31 2.31  41 2.31  14 2.34  60 2.34
   5  0.500  0.000  0.000-  26 2.31  48 2.31  11 2.34  61 2.34
   6  0.500  0.000  0.500-  25 2.31  47 2.31  12 2.34  62 2.34
   7  0.500  0.500  0.000-  28 2.31  46 2.31   9 2.34  63 2.34
   8  0.500  0.500  0.500-  27 2.31  45 2.31  10 2.34  64 2.34
   9  0.375  0.375  0.125-  21 2.31  35 2.31   7 2.34  49 2.34
  10  0.375  0.375  0.625-  22 2.31  36 2.31   8 2.34  50 2.34
  11  0.375  0.875  0.125-  23 2.31  33 2.31   5 2.34  51 2.34
  12  0.375  0.875  0.625-  24 2.31  34 2.31   6 2.34  52 2.34
  13  0.875  0.375  0.125-  17 2.31  39 2.31   3 2.34  53 2.34
  14  0.875  0.375  0.625-  18 2.31  40 2.31   4 2.34  54 2.34
  15  0.875  0.875  0.125-  19 2.31  37 2.31   1 2.34  55 2.34
  16  0.875  0.875  0.625-  20 2.31  38 2.31   2 2.34  56 2.34
  17  0.000  0.250  0.250-  13 2.31  57 2.31  41 2.34  29 2.34
  18  0.000  0.250  0.750-  14 2.31  58 2.31  42 2.34  30 2.34
  19  0.000  0.750  0.250-  15 2.31  59 2.31  43 2.34  31 2.34
  20  0.000  0.750  0.750-  16 2.31  60 2.31  44 2.34  32 2.34
  21  0.500  0.250  0.250-   9 2.31  61 2.31  45 2.34  25 2.34
  22  0.500  0.250  0.750-  10 2.31  62 2.31  46 2.34  26 2.34
  23  0.500  0.750  0.250-  11 2.31  63 2.31  47 2.34  27 2.34
  24  0.500  0.750  0.750-  12 2.31  64 2.31  48 2.34  28 2.34
  25  0.375  0.125  0.375-   6 2.31  50 2.31  33 2.34  21 2.34
  26  0.375  0.125  0.875-   5 2.31  49 2.31  34 2.34  22 2.34
  27  0.375  0.625  0.375-   8 2.31  52 2.31  35 2.34  23 2.34
  28  0.375  0.625  0.875-   7 2.31  51 2.31  36 2.34  24 2.34
  29  0.875  0.125  0.375-   2 2.31  54 2.31  37 2.34  17 2.34
  30  0.875  0.125  0.875-   1 2.31  53 2.31  38 2.34  18 2.34
  31  0.875  0.625  0.375-   4 2.31  56 2.31  39 2.34  19 2.34
  32  0.875  0.625  0.875-   3 2.31  55 2.31  40 2.34  20 2.34
  33  0.250  0.000  0.250-  11 2.31  57 2.31  43 2.34  25 2.34
  34  0.250  0.000  0.750-  12 2.31  58 2.31  44 2.34  26 2.34
  35  0.250  0.500  0.250-   9 2.31  59 2.31  41 2.34  27 2.34
  36  0.250  0.500  0.750-  10 2.31  60 2.31  42 2.34  28 2.34
  37  0.750  0.000  0.250-  15 2.31  61 2.31  47 2.34  29 2.34
  38  0.750  0.000  0.750-  16 2.31  62 2.31  48 2.34  30 2.34
  39  0.750  0.500  0.250-  13 2.31  63 2.31  45 2.34  31 2.34
  40  0.750  0.500  0.750-  14 2.31  64 2.31  46 2.34  32 2.34
  41  0.125  0.375  0.375-   4 2.31  50 2.31  35 2.34  17 2.34
  42  0.125  0.375  0.875-   3 2.31  49 2.31  36 2.34  18 2.34
  43  0.125  0.875  0.375-   2 2.31  52 2.31  33 2.34  19 2.34
  44  0.125  0.875  0.875-   1 2.31  51 2.31  34 2.34  20 2.34
  45  0.625  0.375  0.375-   8 2.31  54 2.31  39 2.34  21 2.34
  46  0.625  0.375  0.875-   7 2.31  53 2.31  40 2.34  22 2.34
  47  0.625  0.875  0.375-   6 2.31  56 2.31  37 2.34  23 2.34
  48  0.625  0.875  0.875-   5 2.31  55 2.31  38 2.34  24 2.34
  49  0.250  0.250  0.000-  26 2.31  42 2.31   9 2.34  57 2.34
  50  0.250  0.250  0.500-  25 2.31  41 2.31  10 2.34  58 2.34
  51  0.250  0.750  0.000-  28 2.31  44 2.31  11 2.34  59 2.34
  52  0.250  0.750  0.500-  27 2.31  43 2.31  12 2.34  60 2.34
  53  0.750  0.250  0.000-  30 2.31  46 2.31  13 2.34  61 2.34
  54  0.750  0.250  0.500-  29 2.31  45 2.31  14 2.34  62 2.34
  55  0.750  0.750  0.000-  32 2.31  48 2.31  15 2.34  63 2.34
  56  0.750  0.750  0.500-  31 2.31  47 2.31  16 2.34  64 2.34
  57  0.125  0.125  0.125-  17 2.31  33 2.31   1 2.34  49 2.34
  58  0.125  0.125  0.625-  18 2.31  34 2.31   2 2.34  50 2.34
  59  0.125  0.625  0.125-  19 2.31  35 2.31   3 2.34  51 2.34
  60  0.125  0.625  0.625-  20 2.31  36 2.31   4 2.34  52 2.34
  61  0.625  0.125  0.125-  21 2.31  37 2.31   5 2.34  53 2.34
  62  0.625  0.125  0.625-  22 2.31  38 2.31   6 2.34  54 2.34
  63  0.625  0.625  0.125-  23 2.31  39 2.31   7 2.34  55 2.34
  64  0.625  0.625  0.625-  24 2.31  40 2.31   8 2.34  56 2.34
 
  LATTYP: Found a simple monoclinic cell.
 ALAT       =    10.6710900948
 B/A-ratio  =     0.9999500033
 C/A-ratio  =     1.0199980104
 COS(beta)  =    -0.0198020634
  
  Lattice vectors:
  
 A1 = (   0.1067060158,  10.6705565758,   0.0000000000)
 A2 = (   0.0000000000,   0.0000000000, -10.6705565758)
 A3 = ( -10.8839676074,  -0.1067060158,   0.0000000000)


Analysis of symmetry for initial positions (statically):
=====================================================================
 Subroutine PRICEL returns following result:
 
  LATTYP: Found a base centered monoclinic cell.
 ALAT       =     5.3355450474
 B/A-ratio  =     0.9999500033
 C/A-ratio  =     0.7071067477
 COS(beta)  =    -0.6928246251
  
  Lattice vectors:
  
 A1 = (   0.0266765039,   2.6676391440,  -2.6676391440)
 A2 = (   0.0266765039,   2.6676391440,   2.6676391440)
 A3 = (   2.6943153979,  -2.6409626400,   0.0000000000)
 
  32 primitive cells build up your supercell.
 

 Routine SETGRP: Setting up the symmetry group for a 
 simple monoclinic supercell.


 Subroutine GETGRP returns: Found  4 space group operations
 (whereof  2 operations were pure point group operations)
 out of a pool of  4 trial point group operations.


The static configuration has the point symmetry C_2 .
 The point group associated with its full space group is C_2h.


Analysis of symmetry for dynamics (positions and initial velocities):
=====================================================================
 Subroutine PRICEL returns following result:
 
  LATTYP: Found a base centered monoclinic cell.
 ALAT       =     5.3355450474
 B/A-ratio  =     0.9999500033
 C/A-ratio  =     0.7071067477
 COS(beta)  =    -0.6928246251
  
  Lattice vectors:
  
 A1 = (   0.0266765039,   2.6676391440,  -2.6676391440)
 A2 = (   0.0266765039,   2.6676391440,   2.6676391440)
 A3 = (   2.6943153979,  -2.6409626400,   0.0000000000)
 
  32 primitive cells build up your supercell.
 

 Routine SETGRP: Setting up the symmetry group for a 
 simple monoclinic supercell.


 Subroutine GETGRP returns: Found  4 space group operations
 (whereof  2 operations were pure point group operations)
 out of a pool of  4 trial point group operations.


The dynamic configuration has the point symmetry C_2 .
 The point group associated with its full space group is C_2h.


 Subroutine INISYM returns: Found  4 space group operations
 (whereof  2 operations are pure point group operations),
 and found    32 'primitive' translations


----------------------------------------------------------------------------------------

                                     Primitive cell                                     

  volume of cell :      38.7230

  direct lattice vectors                    reciprocal lattice vectors
     0.026676504  2.667639144 -2.667639144     0.181936783  0.185612272 -0.187431648
     0.026676504  2.667639144  2.667639144     0.181936783  0.185612272  0.187431648
     2.694315398 -2.640962640  0.000000000     0.367549072 -0.003675506 -0.000000000

  length of vectors
     3.772705772  3.772705772  3.772799906     0.320442711  0.320442711  0.367567450

  position of ions in fractional coordinates (direct lattice)
     0.000000000  0.000000000  0.000000000
     0.250000000  0.750000000  0.500000000

  ion indices of the primitive-cell ions
   primitive index   ion index
                 1           1
                 2          15

----------------------------------------------------------------------------------------

 
 
 KPOINTS: Automatic mesh                          

Automatic generation of k-mesh.
 Grid dimensions read from file:
 generate k-points for:    2    2    2

 Generating k-lattice:

  Cartesian coordinates                     Fractional coordinates (reciprocal lattice)
     0.045943634 -0.000459438  0.000000000     0.500000000 -0.000000000  0.000000000
    -0.000459438  0.046862506  0.000000000    -0.000000000  0.500000000  0.000000000
     0.000000000  0.000000000  0.046857912     0.000000000  0.000000000  0.500000000

  Length of vectors
     0.045945931  0.046864758  0.046857912

  Shift w.r.t. Gamma in fractional coordinates (k-lattice)
     0.000000000  0.000000000  0.000000000

 
 Subroutine IBZKPT returns following result:
 ===========================================
 
 Found      8 irreducible k-points:
 
 Following reciprocal coordinates:
            Coordinates               Weight
  0.000000  0.000000  0.000000      1.000000
  0.500000 -0.000000  0.000000      1.000000
 -0.000000  0.500000  0.000000      1.000000
  0.500000  0.500000  0.000000      1.000000
  0.000000  0.000000  0.500000      1.000000
  0.500000 -0.000000  0.500000      1.000000
 -0.000000  0.500000  0.500000      1.000000
  0.500000  0.500000  0.500000      1.000000
 
 Following cartesian coordinates:
            Coordinates               Weight
  0.000000  0.000000  0.000000      1.000000
  0.045944 -0.000459  0.000000      1.000000
 -0.000459  0.046863  0.000000      1.000000
  0.045484  0.046403  0.000000      1.000000
  0.000000  0.000000  0.046858      1.000000
  0.045944 -0.000459  0.046858      1.000000
 -0.000459  0.046863  0.046858      1.000000
  0.045484  0.046403  0.046858      1.000000
 


--------------------------------------------------------------------------------------------------------




 Dimension of arrays:
   k-points           NKPTS =      8   k-points in BZ     NKDIM =      8   number of bands    NBANDS=    162
   number of dos      NEDOS =    301   number of ions     NIONS =     64
   non local maximal  LDIM  =      4   non local SUM 2l+1 LMDIM =      8
   total plane-waves  NPLWV = 352800
   max r-space proj   IRMAX =   3187   max aug-charges    IRDMAX=  76346
   dimension x,y,z NGX =    72 NGY =   70 NGZ =   70
   dimension x,y,z NGXF=   144 NGYF=  140 NGZF=  140
   support grid    NGXF=   288 NGYF=  280 NGZF=  280
   ions per type =              64
   NGX,Y,Z   is equivalent  to a cutoff of  11.00, 10.91, 10.91 a.u.
   NGXF,Y,Z  is equivalent  to a cutoff of  21.99, 21.81, 21.81 a.u.

 SYSTEM =  Si64                                    
 POSCAR =  Si8                                     

 Startparameter for this run:
   NWRITE =      2    write-flag & timer
   PREC   = accura    normal or accurate (medium, high low for compatibility)
   ISTART =      0    job   : 0-new  1-cont  2-samecut
   ICHARG =      2    charge: 1-file 2-atom 10-const
   ISPIN  =      1    spin polarized calculation?
   LNONCOLLINEAR =      F non collinear calculations
   LSORBIT =      F    spin-orbit coupling
   INIWAV =      1    electr: 0-lowe 1-rand  2-diag
   LASPH  =      F    aspherical Exc in radial PAW
 Electronic Relaxation 1
   ENCUT  =  400.0 eV  29.40 Ry    5.42 a.u.  17.75 17.40 17.40*2*pi/ulx,y,z
   ENINI  =  400.0     initial cutoff
   ENAUG  =  322.1 eV  augmentation charge cutoff
   NELM   =     60;   NELMIN=  8; NELMDL= -5     # of ELM steps 
   EDIFF  = 0.1E-05   stopping-criterion for ELM
   LREAL  =      T    real-space projection
   NLSPLINE    = F    spline interpolate recip. space projectors
   LCOMPAT=      F    compatible to vasp.4.4
   GGA_COMPAT  = F    GGA compatible to vasp.4.4-vasp.4.6
   LMAXPAW     = -100 max onsite density
   LMAXMIX     =    2 max onsite mixed and CHGCAR
   VOSKOWN=      0    Vosko Wilk Nusair interpolation
   ROPT   =   -0.00025
 Ionic relaxation
   EDIFFG = -.1E-01   stopping-criterion for IOM
   NSW    =     60    number of steps for IOM
   NBLOCK =      1;   KBLOCK =     60    inner block; outer block 
   IBRION =      2    ionic relax: 0-MD 1-quasi-New 2-CG
   NFREE  =      1    steps in history (QN), initial steepest desc. (CG)
   ISIF   =      2    stress and relaxation
   IWAVPR =     11    prediction:  0-non 1-charg 2-wave 3-comb
   ISYM   =      2    0-nonsym 1-usesym 2-fastsym
   LCORR  =      T    Harris-Foulkes like correction to forces

   POTIM  = 0.5000    time-step for ionic-motion
   TEIN   =    0.0    initial temperature
   TEBEG  =    0.0;   TEEND  =   0.0 temperature during run
   SMASS  =  -3.00    Nose mass-parameter (am)
   estimated Nose-frequenzy (Omega)   =  0.10E-29 period in steps = 0.13E+47 mass=  -0.271E-26a.u.
   SCALEE = 1.0000    scale energy and forces
   NPACO  =    256;   APACO  = 10.0  distance and # of slots for P.C.
   PSTRESS=    0.0 pullay stress

  Mass of Ions in am
   POMASS =  28.09
  Ionic Valenz
   ZVAL   =   4.00
  Atomic Wigner-Seitz radii
   RWIGS  =  -1.00
  virtual crystal weights 
   VCA    =   1.00
   NELECT =     256.0000    total number of electrons
   NUPDOWN=      -1.0000    fix difference up-down

 DOS related values:
   EMIN   =  10.00;   EMAX   =-10.00  energy-range for DOS
   EFERMI =   0.00;   METHOD = LEGACY      
   ISMEAR =     1;   SIGMA  =   0.20  broadening in eV -4-tet -1-fermi 0-gaus

 Electronic relaxation 2 (details)
   IALGO  =     68    algorithm
   LDIAG  =      T    sub-space diagonalisation (order eigenvalues)
   LSUBROT=      F    optimize rotation matrix (better conditioning)
   TURBO    =      0    0=normal 1=particle mesh
   IRESTART =      0    0=no restart 2=restart with 2 vectors
   NREBOOT  =      0    no. of reboots
   NMIN     =      0    reboot dimension
   EREF     =   0.00    reference energy to select bands
   IMIX   =      4    mixing-type and parameters
     AMIX     =   0.40;   BMIX     =  1.00
     AMIX_MAG =   1.60;   BMIX_MAG =  1.00
     AMIN     =   0.10
     WC   =   100.;   INIMIX=   1;  MIXPRE=   1;  MAXMIX= -45

 Intra band minimization:
   WEIMIN = 0.0010     energy-eigenvalue tresh-hold
   EBREAK =  0.15E-08  absolut break condition
   DEPER  =   0.30     relativ break condition  

   TIME   =   0.40     timestep for ELM

  volume/ion in A,a.u.               =      19.36       130.66
  Fermi-wavevector in a.u.,A,eV,Ry     =   0.967792  1.828861 12.743499  0.936621
  Thomas-Fermi vector in A             =   2.097707
 
 Write flags
   LWAVE        =      F    write WAVECAR
   LDOWNSAMPLE  =      F    k-point downsampling of WAVECAR
   LCHARG       =      F    write CHGCAR
   LVTOT        =      F    write LOCPOT, total local potential
   LVHAR        =      F    write LOCPOT, Hartree potential only
   WRT_POTENTIAL= false  ! write potential to hdf5 file
   LELF         =      F    write electronic localiz. function (ELF)
   LORBIT       =      0    0 simple, 1 ext, 2 COOP (PROOUT), +10 PAW based schemes


 Dipole corrections
   LMONO      =      F    monopole corrections only (constant potential shift)
   LDIPOL     =      F    correct potential (dipole corrections)
   IDIPOL     =      0    1-x, 2-y, 3-z, 4-all directions 
   EPSILON    =  1.0000000 bulk dielectric constant
   LVACPOTAV  =      F  vacuum potentials using an averaging scheme for the charge density
   VACPOTFLAT =  0.1000000 required flatness to determine vacuum potential
 Exchange correlation treatment:
   GGA     = PS    functional components
   XC_C    = 1    coefficients multiplying the functional components
   LIBXC   =     F    Libxc                    
   VOSKOWN =     0    Vosko Wilk Nusair interpolation
   LHFCALC =     F    Hartree Fock is set to
   LHFONE  =     F    Hartree Fock one center treatment
   AEXX    =    0.0000 exact exchange contribution

 Parameters of functionals:
   PS:
     No parameter
 
 Van der Waals corrections
   IVDW    =     0    specifies the selected vdW correction

 Linear response parameters
   LEPSILON=     F    determine dielectric tensor
   LRPA    =     F    only Hartree local field effects (RPA)
   LNABLA  =     F    use nabla operator in PAW spheres
   LVEL    =     F    velocity operator in full k-point grid
   CSHIFT  =0.1000    complex shift for real part using Kramers Kronig
   OMEGAMAX=  -1.0    maximum frequency
   DEG_THRESHOLD= 0.2000000E-02 threshold for treating states as degnerate
   RTIME   =   -0.100 relaxation time in fs
  (WPLASMAI=    0.000 imaginary part of plasma frequency in eV, 0.658/RTIME)
   DFIELD  = 0.0000000 0.0000000 0.0000000 field for delta impulse in time
 
  Optional k-point grid parameters
   LKPOINTS_OPT  =     F    use optional k-point grid
   KPOINTS_OPT_MODE=     1    mode for optional k-point grid
 
 Orbital magnetization related:
   ORBITALMAG=     F  switch on orbital magnetization
   LCHIMAG   =     F  perturbation theory with respect to B field
   DQ        =  0.001000  dq finite difference perturbation B field
   LLRAUG    =     F  two centre corrections for induced B field
   LBONE     =     F  B-component reconstruction in AE one-centre
   LVGVCALC  =     T  calculate vGv susceptibility
   LVGVAPPL  =     F  apply vGv susceptibility instead of pGv for G=0

 Random number generation:
   RANDOM_GENERATOR = DEFAULT
   PCG_SEED         = not used


--------------------------------------------------------------------------------------------------------


 conjugate gradient relaxation of ions
 charge density and potential will be updated during run
 non-spin polarized calculation
 RMM-DIIS sequential band-by-band and
  variant of blocked Davidson during initial phase
 perform sub-space diagonalisation
    before iterative eigenvector-optimisation
 modified Broyden-mixing scheme, WC =      100.0
 initial mixing is a Kerker type mixing with AMIX =  0.4000 and BMIX =      1.0000
 Hartree-type preconditioning will be used
 using additional bands           34
 real space projection scheme for non local part
 use partial core corrections
 calculate Harris-corrections to forces 
   (improved forces if not selfconsistent)
 use gradient corrections 
 use of overlap-Matrix (Vanderbilt PP)
 Methfessel and Paxton  Order N= 1 SIGMA  =   0.20


--------------------------------------------------------------------------------------------------------


  energy-cutoff  :      400.00
  volume of cell :     1239.14
      direct lattice vectors                 reciprocal lattice vectors
    10.883967607  0.106706016  0.000000000     0.091887268 -0.000918877  0.000000000
     0.106706016 10.670556576  0.000000000    -0.000918877  0.093725013  0.000000000
     0.000000000  0.000000000 10.670556576     0.000000000  0.000000000  0.093715824

  length of vectors
    10.884490666 10.671090095 10.670556576     0.091891862  0.093729517  0.093715824


 
 k-points in units of 2pi/SCALE and weight: Automatic mesh                          
   0.00000000  0.00000000  0.00000000       0.125
   0.04594364 -0.00045944  0.00000000       0.125
  -0.00045944  0.04686251  0.00000000       0.125
   0.04548420  0.04640307  0.00000000       0.125
   0.00000000  0.00000000  0.04685792       0.125
   0.04594364 -0.00045944  0.04685792       0.125
  -0.00045944  0.04686251  0.04685792       0.125
   0.04548420  0.04640307  0.04685792       0.125
 
 k-points in reciprocal lattice and weights: Automatic mesh                          
   0.00000000  0.00000000  0.00000000       0.125
   0.50000000 -0.00000000  0.00000000       0.125
  -0.00000000  0.50000000  0.00000000       0.125
   0.50000000  0.50000000  0.00000000       0.125
   0.00000000  0.00000000  0.50000000       0.125
   0.50000000 -0.00000000  0.50000000       0.125
  -0.00000000  0.50000000  0.50000000       0.125
   0.50000000  0.50000000  0.50000000       0.125
 
 position of ions in fractional coordinates (direct lattice) 
   0.00000000  0.00000000  0.00000000
   0.00000000  0.00000000  0.50000000
   0.00000000  0.50000000  0.00000000
   0.00000000  0.50000000  0.50000000
   0.50000000  0.00000000  0.00000000
   0.50000000  0.00000000  0.50000000
   0.50000000  0.50000000  0.00000000
   0.50000000  0.50000000  0.50000000
   0.37500000  0.37500000  0.12500000
   0.37500000  0.37500000  0.62500000
   0.37500000  0.87500000  0.12500000
   0.37500000  0.87500000  0.62500000
   0.87500000  0.37500000  0.12500000
   0.87500000  0.37500000  0.62500000
   0.87500000  0.87500000  0.12500000
   0.87500000  0.87500000  0.62500000
   0.00000000  0.25000000  0.25000000
   0.00000000  0.25000000  0.75000000
   0.00000000  0.75000000  0.25000000
   0.00000000  0.75000000  0.75000000
   0.50000000  0.25000000  0.25000000
   0.50000000  0.25000000  0.75000000
   0.50000000  0.75000000  0.25000000
   0.50000000  0.75000000  0.75000000
   0.37500000  0.12500000  0.37500000
   0.37500000  0.12500000  0.87500000
   0.37500000  0.62500000  0.37500000
   0.37500000  0.62500000  0.87500000
   0.87500000  0.12500000  0.37500000
   0.87500000  0.12500000  0.87500000
   0.87500000  0.62500000  0.37500000
   0.87500000  0.62500000  0.87500000
   0.25000000  0.00000000  0.25000000
   0.25000000  0.00000000  0.75000000
   0.25000000  0.50000000  0.25000000
   0.25000000  0.50000000  0.75000000
   0.75000000  0.00000000  0.25000000
   0.75000000  0.00000000  0.75000000
   0.75000000  0.50000000  0.25000000
   0.75000000  0.50000000  0.75000000
   0.12500000  0.37500000  0.37500000
   0.12500000  0.37500000  0.87500000
   0.12500000  0.87500000  0.37500000
   0.12500000  0.87500000  0.87500000
   0.62500000  0.37500000  0.37500000
   0.62500000  0.37500000  0.87500000
   0.62500000  0.87500000  0.37500000
   0.62500000  0.87500000  0.87500000
   0.25000000  0.25000000  0.00000000
   0.25000000  0.25000000  0.50000000
   0.25000000  0.75000000  0.00000000
   0.25000000  0.75000000  0.50000000
   0.75000000  0.25000000  0.00000000
   0.75000000  0.25000000  0.50000000
   0.75000000  0.75000000  0.00000000
   0.75000000  0.75000000  0.50000000
   0.12500000  0.12500000  0.12500000
   0.12500000  0.12500000  0.62500000
   0.12500000  0.62500000  0.12500000
   0.12500000  0.62500000  0.62500000
   0.62500000  0.12500000  0.12500000
   0.62500000  0.12500000  0.62500000
   0.62500000  0.62500000  0.12500000
   0.62500000  0.62500000  0.62500000
 
 position of ions in cartesian coordinates  (Angst):
   0.00000000  0.00000000  0.00000000
   0.00000000  0.00000000  5.33527829
   0.05335301  5.33527829  0.00000000
   0.05335301  5.33527829  5.33527829
   5.44198380  0.05335301  0.00000000
   5.44198380  0.05335301  5.33527829
   5.49533681  5.38863130  0.00000000
   5.49533681  5.38863130  5.33527829
   4.12150261  4.04147347  1.33381957
   4.12150261  4.04147347  6.66909786
   4.17485562  9.37675176  1.33381957
   4.17485562  9.37675176  6.66909786
   9.56348641  4.09482648  1.33381957
   9.56348641  4.09482648  6.66909786
   9.61683942  9.43010477  1.33381957
   9.61683942  9.43010477  6.66909786
   0.02667650  2.66763914  2.66763914
   0.02667650  2.66763914  8.00291743
   0.08002951  8.00291743  2.66763914
   0.08002951  8.00291743  8.00291743
   5.46866031  2.72099215  2.66763914
   5.46866031  2.72099215  8.00291743
   5.52201332  8.05627044  2.66763914
   5.52201332  8.05627044  8.00291743
   4.09482610  1.37383433  4.00145872
   4.09482610  1.37383433  9.33673700
   4.14817911  6.70911262  4.00145872
   4.14817911  6.70911262  9.33673700
   9.53680991  1.42718734  4.00145872
   9.53680991  1.42718734  9.33673700
   9.59016292  6.76246562  4.00145872
   9.59016292  6.76246562  9.33673700
   2.72099190  0.02667650  2.66763914
   2.72099190  0.02667650  8.00291743
   2.77434491  5.36195479  2.66763914
   2.77434491  5.36195479  8.00291743
   8.16297571  0.08002951  2.66763914
   8.16297571  0.08002951  8.00291743
   8.21632871  5.41530780  2.66763914
   8.21632871  5.41530780  8.00291743
   1.40051071  4.01479697  4.00145872
   1.40051071  4.01479697  9.33673700
   1.45386371  9.35007526  4.00145872
   1.45386371  9.35007526  9.33673700
   6.84249451  4.06814998  4.00145872
   6.84249451  4.06814998  9.33673700
   6.89584752  9.40342826  4.00145872
   6.89584752  9.40342826  9.33673700
   2.74766841  2.69431565  0.00000000
   2.74766841  2.69431565  5.33527829
   2.80102141  8.02959394  0.00000000
   2.80102141  8.02959394  5.33527829
   8.18965221  2.74766866  0.00000000
   8.18965221  2.74766866  5.33527829
   8.24300522  8.08294694  0.00000000
   8.24300522  8.08294694  5.33527829
   1.37383420  1.34715782  1.33381957
   1.37383420  1.34715782  6.66909786
   1.42718721  6.68243611  1.33381957
   1.42718721  6.68243611  6.66909786
   6.81581801  1.40051083  1.33381957
   6.81581801  1.40051083  6.66909786
   6.86917101  6.73578912  1.33381957
   6.86917101  6.73578912  6.66909786
 


--------------------------------------------------------------------------------------------------------


 k-point     1 :   0.0000 0.0000 0.0000  plane waves:   22511
 k-point     2 :   0.5000-0.0000 0.0000  plane waves:   22532
 k-point     3 :  -0.0000 0.5000 0.0000  plane waves:   22494
 k-point     4 :   0.5000 0.5000 0.0000  plane waves:   22506
 k-point     5 :   0.0000 0.0000 0.5000  plane waves:   22502
 k-point     6 :   0.5000-0.0000 0.5000  plane waves:   22508
 k-point     7 :  -0.0000 0.5000 0.5000  plane waves:   22480
 k-point     8 :   0.5000 0.5000 0.5000  plane waves:   22492

 maximum and minimum number of plane-waves per node :      1898     1843

 maximum number of plane-waves:     22532
 maximum index in each direction: 
   IXMAX=   17   IYMAX=   17   IZMAX=   17
   IXMIN=  -18   IYMIN=  -17   IZMIN=  -17


 real space projection operators:
  total allocation   :      12159.50 KBytes
  max/ min on nodes  :       1028.00        987.00


 parallel 3D FFT for wavefunctions:
    minimum data exchange during FFTs selected (reduces bandwidth)
 parallel 3D FFT for charge:
    minimum data exchange during FFTs selected (reduces bandwidth)


 total amount of memory used by VASP MPI-rank0    79868. kBytes
=======================================================================

   base      :      30000. kBytes
   nonlr-proj:       4680. kBytes
   fftplans  :      18113. kBytes
   grid      :       6881. kBytes
   one-center:         18. kBytes
   wavefun   :      20176. kBytes
 
     INWAV:  cpu time      0.0000: real time      0.0000
 Broyden mixing: mesh for mixing (old mesh)
   NGX = 35   NGY = 35   NGZ = 35
  (NGX  =144   NGY  =140   NGZ  =140)
  gives a total of  42875 points

 initial charge density was supplied:
 charge density of overlapping atoms calculated
 number of electron     256.0000000 magnetization 
 keeping initial charge density in first step


--------------------------------------------------------------------------------------------------------


 Maximum index for non-local projection operator          288
 Maximum index for augmentation-charges         3348 (set IRDMAX)


--------------------------------------------------------------------------------------------------------


 First call to EWALD:  gamma=   0.165
 Maximum number of real-space cells 3x 3x 3
 Maximum number of reciprocal cells 3x 3x 3

    FEWALD:  cpu time      0.0043: real time      0.0043


--------------------------------------- Ionic step        1  -------------------------------------------




--------------------------------------- Iteration      1(   1)  ---------------------------------------


    POTLOK:  cpu time      0.0958: real time      0.1069
    SETDIJ:  cpu time      0.0892: real time      0.0902
     EDDAV:  cpu time      1.2829: real time      1.3538
       DOS:  cpu time      0.0095: real time      0.0126
    --------------------------------------------
      LOOP:  cpu time      1.4774: real time      1.5635

 eigenvalue-minimisations  :  2592
 total energy-change (2. order) : 0.5681293E+03  (-0.8444009E+04)
 number of electron     256.0000000 magnetization 
 augmentation part      256.0000000 magnetization 

 Free energy of the ion-electron system (eV)
  ---------------------------------------------------
  alpha Z        PSCENC =       111.27449877
  Ewald energy   TEWEN  =     -7395.05275389
  -Hartree energ DENC   =      -336.37891961
  -exchange      EXHF   =         0.00000000
  -V(xc)+E(xc)   XCENC  =      -554.65634575
  PAW double counting   =      5598.62625415    -4492.17844134
  entropy T*S    EENTRO =        -0.01271758
  eigenvalues    EBANDS =      1071.71182390
  atomic energy  EATOM  =      6564.79586099
  Solvation  Ediel_sol  =         0.00000000
  ---------------------------------------------------
  free energy    TOTEN  =       568.12925964 eV

  energy without entropy =      568.14197722  energy(sigma->0) =      568.13349883


--------------------------------------------------------------------------------------------------------




--------------------------------------- Iteration      1(   2)  ---------------------------------------


     EDDAV:  cpu time      1.3657: real time      1.3935
       DOS:  cpu time      0.0015: real time      0.0016
    --------------------------------------------
      LOOP:  cpu time      1.3671: real time      1.3951

 eigenvalue-minimisations  :  3104
 total energy-change (2. order) :-0.8787298E+03  (-0.8345597E+03)
 number of electron     256.0000000 magnetization 
 augmentation part      256.0000000 magnetization 

 Free energy of the ion-electron system (eV)
  ---------------------------------------------------
  alpha Z        PSCENC =       111.27449877
  Ewald energy   TEWEN  =     -7395.05275389
  -Hartree energ DENC   =      -336.37891961
  -exchange      EXHF   =         0.00000000
  -V(xc)+E(xc)   XCENC  =      -554.65634575
  PAW double counting   =      5598.62625415    -4492.17844134
  entropy T*S    EENTRO =         0.00717126
  eigenvalues    EBANDS =       192.96213701
  atomic energy  EATOM  =      6564.79586099
  Solvation  Ediel_sol  =         0.00000000
  ---------------------------------------------------
  free energy    TOTEN  =      -310.60053842 eV

  energy without entropy =     -310.60770968  energy(sigma->0) =     -310.60292884


--------------------------------------------------------------------------------------------------------




--------------------------------------- Iteration      1(   3)  ---------------------------------------


     EDDAV:  cpu time      1.3614: real time      1.3759
       DOS:  cpu time      0.0016: real time      0.0016
    --------------------------------------------
      LOOP:  cpu time      1.3630: real time      1.3775

 eigenvalue-minimisations  :  3128
 total energy-change (2. order) :-0.6251812E+02  (-0.6133339E+02)
 number of electron     256.0000000 magnetization 
 augmentation part      256.0000000 magnetization 

 Free energy of the ion-electron system (eV)
  ---------------------------------------------------
  alpha Z        PSCENC =       111.27449877
  Ewald energy   TEWEN  =     -7395.05275389
  -Hartree energ DENC   =      -336.37891961
  -exchange      EXHF   =         0.00000000
  -V(xc)+E(xc)   XCENC  =      -554.65634575
  PAW double counting   =      5598.62625415    -4492.17844134
  entropy T*S    EENTRO =         0.00686532
  eigenvalues    EBANDS =       130.44431867
  atomic energy  EATOM  =      6564.79586099
  Solvation  Ediel_sol  =         0.00000000
  ---------------------------------------------------
  free energy    TOTEN  =      -373.11866269 eV

  energy without entropy =     -373.12552801  energy(sigma->0) =     -373.12095113


--------------------------------------------------------------------------------------------------------




--------------------------------------- Iteration      1(   4)  ---------------------------------------


     EDDAV:  cpu time      1.3374: real time      1.3556
       DOS:  cpu time      0.0012: real time      0.0012
    --------------------------------------------
      LOOP:  cpu time      1.3387: real time      1.3568

 eigenvalue-minimisations  :  3136
 total energy-change (2. order) :-0.1589315E+01  (-0.1577559E+01)
 number of electron     256.0000000 magnetization 
 augmentation part      256.0000000 magnetization 

 Free energy of the ion-electron system (eV)
  ---------------------------------------------------
  alpha Z        PSCENC =       111.27449877
  Ewald energy   TEWEN  =     -7395.05275389
  -Hartree energ DENC   =      -336.37891961
  -exchange      EXHF   =         0.00000000
  -V(xc)+E(xc)   XCENC  =      -554.65634575
  PAW double counting   =      5598.62625415    -4492.17844134
  entropy T*S    EENTRO =         0.00743909
  eigenvalues    EBANDS =       128.85443018
  atomic energy  EATOM  =      6564.79586099
  Solvation  Ediel_sol  =         0.00000000
  ---------------------------------------------------
  free energy    TOTEN  =      -374.70797741 eV

  energy without entropy =     -374.71541650  energy(sigma->0) =     -374.71045711


--------------------------------------------------------------------------------------------------------




--------------------------------------- Iteration      1(   5)  ---------------------------------------


     EDDAV:  cpu time      1.3344: real time      1.3545
       DOS:  cpu time      0.0012: real time      0.0012
    CHARGE:  cpu time      0.2561: real time      0.2605
    MIXING:  cpu time      0.0070: real time      0.0071
    --------------------------------------------
      LOOP:  cpu time      1.5987: real time      1.6233

 eigenvalue-minimisations  :  3120
 total energy-change (2. order) :-0.5065414E-01  (-0.5054127E-01)
 number of electron     255.9999999 magnetization 
 augmentation part      -15.0424245 magnetization 

 Broyden mixing:
  rms(total) = 0.29382E+01    rms(broyden)= 0.29381E+01
  rms(prec ) = 0.32322E+01
  weight for this iteration     100.00

 Free energy of the ion-electron system (eV)
  ---------------------------------------------------
  alpha Z        PSCENC =       111.27449877
  Ewald energy   TEWEN  =     -7395.05275389
  -Hartree energ DENC   =      -336.37891961
  -exchange      EXHF   =         0.00000000
  -V(xc)+E(xc)   XCENC  =      -554.65634575
  PAW double counting   =      5598.62625415    -4492.17844134
  entropy T*S    EENTRO =         0.00742550
  eigenvalues    EBANDS =       128.80378963
  atomic energy  EATOM  =      6564.79586099
  Solvation  Ediel_sol  =         0.00000000
  ---------------------------------------------------
  free energy    TOTEN  =      -374.75863155 eV

  energy without entropy =     -374.76605706  energy(sigma->0) =     -374.76110672


--------------------------------------------------------------------------------------------------------




--------------------------------------- Iteration      1(   6)  ---------------------------------------


    POTLOK:  cpu time      0.0840: real time      0.0974
    SETDIJ:  cpu time      0.0717: real time      0.0719
    EDDIAG:  cpu time      0.1402: real time      0.1421
  RMM-DIIS:  cpu time      0.6997: real time      0.7034
    ORTHCH:  cpu time      0.0211: real time      0.0212
       DOS:  cpu time      0.0016: real time      0.0016
    CHARGE:  cpu time      0.2416: real time      0.2423
    MIXING:  cpu time      0.0043: real time      0.0043
    --------------------------------------------
      LOOP:  cpu time      1.2642: real time      1.2842

 eigenvalue-minimisations  :  2592
 total energy-change (2. order) : 0.5520032E+01  (-0.2841395E+00)
 number of electron     255.9999999 magnetization 
 augmentation part      -14.8696924 magnetization 

 Broyden mixing:
  rms(total) = 0.17697E+01    rms(broyden)= 0.17697E+01
  rms(prec ) = 0.19363E+01
  weight for this iteration     100.00

 eigenvalues of (default mixing * dielectric matrix)
  average eigenvalue GAMMA=   2.5090
  2.5090

 Free energy of the ion-electron system (eV)
  ---------------------------------------------------
  alpha Z        PSCENC =       111.27449877
  Ewald energy   TEWEN  =     -7395.05275389
  -Hartree energ DENC   =      -384.30679069
  -exchange      EXHF   =         0.00000000
  -V(xc)+E(xc)   XCENC  =      -547.08135587
  PAW double counting   =     12798.93062980   -11696.10490355
  entropy T*S    EENTRO =         0.01839128
  eigenvalues    EBANDS =       178.28782398
  atomic energy  EATOM  =      6564.79586099
  Solvation  Ediel_sol  =         0.00000000
  ---------------------------------------------------
  free energy    TOTEN  =      -369.23859919 eV

  energy without entropy =     -369.25699046  energy(sigma->0) =     -369.24472961


--------------------------------------------------------------------------------------------------------




--------------------------------------- Iteration      1(   7)  ---------------------------------------


    POTLOK:  cpu time      0.0806: real time      0.0977
    SETDIJ:  cpu time      0.0738: real time      0.0740
    EDDIAG:  cpu time      0.1397: real time      0.1401
  RMM-DIIS:  cpu time      0.6990: real time      0.7012
    ORTHCH:  cpu time      0.0209: real time      0.0210
       DOS:  cpu time      0.0016: real time      0.0016
    CHARGE:  cpu time      0.2431: real time      0.2438
    MIXING:  cpu time      0.0052: real time      0.0052
    --------------------------------------------
      LOOP:  cpu time      1.2638: real time      1.2846

 eigenvalue-minimisations  :  2640
 total energy-change (2. order) : 0.2452606E+01  (-0.7217452E+00)
 number of electron     255.9999999 magnetization 
 augmentation part      -14.6271310 magnetization 

 Broyden mixing:
  rms(total) = 0.10532E+00    rms(broyden)= 0.10532E+00
  rms(prec ) = 0.13242E+00
  weight for this iteration     100.00

 eigenvalues of (default mixing * dielectric matrix)
  average eigenvalue GAMMA=   2.2923
  2.2923  2.2923

 Free energy of the ion-electron system (eV)
  ---------------------------------------------------
  alpha Z        PSCENC =       111.27449877
  Ewald energy   TEWEN  =     -7395.05275389
  -Hartree energ DENC   =      -463.33883124
  -exchange      EXHF   =         0.00000000
  -V(xc)+E(xc)   XCENC  =      -534.01193568
  PAW double counting   =     30292.91722420   -29195.13055862
  entropy T*S    EENTRO =         0.02077483
  eigenvalues    EBANDS =       251.73972767
  atomic energy  EATOM  =      6564.79586099
  Solvation  Ediel_sol  =         0.00000000
  ---------------------------------------------------
  free energy    TOTEN  =      -366.78599297 eV

  energy without entropy =     -366.80676780  energy(sigma->0) =     -366.79291791


--------------------------------------------------------------------------------------------------------




--------------------------------------- Iteration      1(   8)  ---------------------------------------


    POTLOK:  cpu time      0.0778: real time      0.0896
    SETDIJ:  cpu time      0.0772: real time      0.0774
    EDDIAG:  cpu time      0.1425: real time      0.1429
  RMM-DIIS:  cpu time      0.7172: real time      0.7197
    ORTHCH:  cpu time      0.0215: real time      0.0215
       DOS:  cpu time      0.0018: real time      0.0018
    CHARGE:  cpu time      0.2431: real time      0.2438
    MIXING:  cpu time      0.0044: real time      0.0044
    --------------------------------------------
      LOOP:  cpu time      1.2855: real time      1.3011

 eigenvalue-minimisations  :  2627
 total energy-change (2. order) :-0.4029347E-01  (-0.6999679E-01)
 number of electron     255.9999999 magnetization 
 augmentation part      -14.6820309 magnetization 

 Broyden mixing:
  rms(total) = 0.52015E-01    rms(broyden)= 0.52015E-01
  rms(prec ) = 0.55633E-01
  weight for this iteration     100.00

 eigenvalues of (default mixing * dielectric matrix)
  average eigenvalue GAMMA=   2.1211
  2.5581  1.9026  1.9026

 Free energy of the ion-electron system (eV)
  ---------------------------------------------------
  alpha Z        PSCENC =       111.27449877
  Ewald energy   TEWEN  =     -7395.05275389
  -Hartree energ DENC   =      -455.09946376
  -exchange      EXHF   =         0.00000000
  -V(xc)+E(xc)   XCENC  =      -534.69588168
  PAW double counting   =     29961.61460839   -28862.84518485
  entropy T*S    EENTRO =         0.02431898
  eigenvalues    EBANDS =       243.15771062
  atomic energy  EATOM  =      6564.79586099
  Solvation  Ediel_sol  =         0.00000000
  ---------------------------------------------------
  free energy    TOTEN  =      -366.82628644 eV

  energy without entropy =     -366.85060542  energy(sigma->0) =     -366.83439277


--------------------------------------------------------------------------------------------------------




--------------------------------------- Iteration      1(   9)  ---------------------------------------


    POTLOK:  cpu time      0.0900: real time      0.0910
    SETDIJ:  cpu time      0.0750: real time      0.0752
    EDDIAG:  cpu time      0.1349: real time      0.1353
  RMM-DIIS:  cpu time      0.7095: real time      0.7122
    ORTHCH:  cpu time      0.0213: real time      0.0214
       DOS:  cpu time      0.0012: real time      0.0012
    CHARGE:  cpu time      0.2424: real time      0.2431
    MIXING:  cpu time      0.0043: real time      0.0043
    --------------------------------------------
      LOOP:  cpu time      1.2787: real time      1.2838

 eigenvalue-minimisations  :  2662
 total energy-change (2. order) :-0.2103435E-01  (-0.1992866E-01)
 number of electron     255.9999999 magnetization 
 augmentation part      -14.6692904 magnetization 

 Broyden mixing:
  rms(total) = 0.59270E-01    rms(broyden)= 0.59270E-01
  rms(prec ) = 0.66707E-01
  weight for this iteration     100.00

 eigenvalues of (default mixing * dielectric matrix)
  average eigenvalue GAMMA=   1.8486
  2.5515  2.2565  2.2565  0.3299

 Free energy of the ion-electron system (eV)
  ---------------------------------------------------
  alpha Z        PSCENC =       111.27449877
  Ewald energy   TEWEN  =     -7395.05275389
  -Hartree energ DENC   =      -458.23902804
  -exchange      EXHF   =         0.00000000
  -V(xc)+E(xc)   XCENC  =      -534.27103258
  PAW double counting   =     30361.52697795   -29263.01903904
  entropy T*S    EENTRO =         0.02358290
  eigenvalues    EBANDS =       246.11361214
  atomic energy  EATOM  =      6564.79586099
  Solvation  Ediel_sol  =         0.00000000
  ---------------------------------------------------
  free energy    TOTEN  =      -366.84732079 eV

  energy without entropy =     -366.87090369  energy(sigma->0) =     -366.85518175


--------------------------------------------------------------------------------------------------------




--------------------------------------- Iteration      1(  10)  ---------------------------------------


    POTLOK:  cpu time      0.0751: real time      0.0895
    SETDIJ:  cpu time      0.0748: real time      0.0749
    EDDIAG:  cpu time      0.1329: real time      0.1333
  RMM-DIIS:  cpu time      0.7242: real time      0.7265
    ORTHCH:  cpu time      0.0212: real time      0.0213
       DOS:  cpu time      0.0014: real time      0.0014
    CHARGE:  cpu time      0.2423: real time      0.2429
    MIXING:  cpu time      0.0044: real time      0.0044
    --------------------------------------------
      LOOP:  cpu time      1.2763: real time      1.2942

 eigenvalue-minimisations  :  2744
 total energy-change (2. order) :-0.4091245E-02  (-0.3655730E-02)
 number of electron     255.9999999 magnetization 
 augmentation part      -14.6755109 magnetization 

 Broyden mixing:
  rms(total) = 0.81685E-01    rms(broyden)= 0.81685E-01
  rms(prec ) = 0.88464E-01
  weight for this iteration     100.00

 eigenvalues of (default mixing * dielectric matrix)
  average eigenvalue GAMMA=   1.6063
  2.6676  2.0628  2.0628  0.6191  0.6191

 Free energy of the ion-electron system (eV)
  ---------------------------------------------------
  alpha Z        PSCENC =       111.27449877
  Ewald energy   TEWEN  =     -7395.05275389
  -Hartree energ DENC   =      -458.40802971
  -exchange      EXHF   =         0.00000000
  -V(xc)+E(xc)   XCENC  =      -534.25198518
  PAW double counting   =     30403.82070646   -29305.31921659
  entropy T*S    EENTRO =         0.02350994
  eigenvalues    EBANDS =       246.26599718
  atomic energy  EATOM  =      6564.79586099
  Solvation  Ediel_sol  =         0.00000000
  ---------------------------------------------------
  free energy    TOTEN  =      -366.85141203 eV

  energy without entropy =     -366.87492198  energy(sigma->0) =     -366.85924868


--------------------------------------------------------------------------------------------------------




--------------------------------------- Iteration      1(  11)  ---------------------------------------


    POTLOK:  cpu time      0.0788: real time      0.0955
    SETDIJ:  cpu time      0.0717: real time      0.0719
    EDDIAG:  cpu time      0.1324: real time      0.1327
  RMM-DIIS:  cpu time      0.6934: real time      0.6955
    ORTHCH:  cpu time      0.0206: real time      0.0206
       DOS:  cpu time      0.0014: real time      0.0014
    CHARGE:  cpu time      0.2424: real time      0.2430
    MIXING:  cpu time      0.0043: real time      0.0043
    --------------------------------------------
      LOOP:  cpu time      1.2450: real time      1.2649

 eigenvalue-minimisations  :  2592
 total energy-change (2. order) : 0.3545721E-02  (-0.1287283E-02)
 number of electron     255.9999999 magnetization 
 augmentation part      -14.6894566 magnetization 

 Broyden mixing:
  rms(total) = 0.60446E-01    rms(broyden)= 0.60446E-01
  rms(prec ) = 0.60987E-01
  weight for this iteration     100.00

 eigenvalues of (default mixing * dielectric matrix)
  average eigenvalue GAMMA=   1.4738
  2.5878  2.5878  1.2744  1.2744  0.8012  0.3172

 Free energy of the ion-electron system (eV)
  ---------------------------------------------------
  alpha Z        PSCENC =       111.27449877
  Ewald energy   TEWEN  =     -7395.05275389
  -Hartree energ DENC   =      -455.89489327
  -exchange      EXHF   =         0.00000000
  -V(xc)+E(xc)   XCENC  =      -534.43591895
  PAW double counting   =     30298.23462975   -29199.48400875
  entropy T*S    EENTRO =         0.02449637
  eigenvalues    EBANDS =       243.69022267
  atomic energy  EATOM  =      6564.79586099
  Solvation  Ediel_sol  =         0.00000000
  ---------------------------------------------------
  free energy    TOTEN  =      -366.84786631 eV

  energy without entropy =     -366.87236268  energy(sigma->0) =     -366.85603177


--------------------------------------------------------------------------------------------------------




--------------------------------------- Iteration      1(  12)  ---------------------------------------


    POTLOK:  cpu time      0.0826: real time      0.0998
    SETDIJ:  cpu time      0.0715: real time      0.0717
    EDDIAG:  cpu time      0.1329: real time      0.1332
  RMM-DIIS:  cpu time      0.6930: real time      0.6949
    ORTHCH:  cpu time      0.0209: real time      0.0210
       DOS:  cpu time      0.0014: real time      0.0014
    CHARGE:  cpu time      0.2417: real time      0.2422
    MIXING:  cpu time      0.0046: real time      0.0046
    --------------------------------------------
      LOOP:  cpu time      1.2485: real time      1.2688

 eigenvalue-minimisations  :  2611
 total energy-change (2. order) :-0.1693127E-03  (-0.1853207E-03)
 number of electron     255.9999999 magnetization 
 augmentation part      -14.6926756 magnetization 

 Broyden mixing:
  rms(total) = 0.58507E-01    rms(broyden)= 0.58507E-01
  rms(prec ) = 0.58839E-01
  weight for this iteration     100.00

 eigenvalues of (default mixing * dielectric matrix)
  average eigenvalue GAMMA=   1.4270
  2.5877  2.5877  0.8221  1.6077  1.1103  0.8562  0.4173

 Free energy of the ion-electron system (eV)
  ---------------------------------------------------
  alpha Z        PSCENC =       111.27449877
  Ewald energy   TEWEN  =     -7395.05275389
  -Hartree energ DENC   =      -455.73715400
  -exchange      EXHF   =         0.00000000
  -V(xc)+E(xc)   XCENC  =      -534.46343988
  PAW double counting   =     30217.41654153   -29118.67517536
  entropy T*S    EENTRO =         0.02452373
  eigenvalues    EBANDS =       243.56906250
  atomic energy  EATOM  =      6564.79586099
  Solvation  Ediel_sol  =         0.00000000
  ---------------------------------------------------
  free energy    TOTEN  =      -366.84803563 eV

  energy without entropy =     -366.87255935  energy(sigma->0) =     -366.85621020


--------------------------------------------------------------------------------------------------------




--------------------------------------- Iteration      1(  13)  ---------------------------------------


    POTLOK:  cpu time      0.0795: real time      0.0965
    SETDIJ:  cpu time      0.0717: real time      0.0719
    EDDIAG:  cpu time      0.1314: real time      0.1317
  RMM-DIIS:  cpu time      0.7279: real time      0.7433
    ORTHCH:  cpu time      0.0211: real time      0.0211
       DOS:  cpu time      0.0012: real time      0.0012
    CHARGE:  cpu time      0.2431: real time      0.2436
    MIXING:  cpu time      0.0048: real time      0.0048
    --------------------------------------------
      LOOP:  cpu time      1.2805: real time      1.3141

 eigenvalue-minimisations  :  2758
 total energy-change (2. order) :-0.6665422E-04  (-0.3597142E-04)
 number of electron     255.9999999 magnetization 
 augmentation part      -14.6931978 magnetization 

 Broyden mixing:
  rms(total) = 0.68121E-01    rms(broyden)= 0.68121E-01
  rms(prec ) = 0.68431E-01
  weight for this iteration     100.00

 eigenvalues of (default mixing * dielectric matrix)
  average eigenvalue GAMMA=   1.6730
  2.8470  2.8470  2.4121  2.1341  0.9753  0.8583  0.8583  0.4522

 Free energy of the ion-electron system (eV)
  ---------------------------------------------------
  alpha Z        PSCENC =       111.27449877
  Ewald energy   TEWEN  =     -7395.05275389
  -Hartree energ DENC   =      -455.79144179
  -exchange      EXHF   =         0.00000000
  -V(xc)+E(xc)   XCENC  =      -534.44907802
  PAW double counting   =     30291.63385359   -29192.89266533
  entropy T*S    EENTRO =         0.02452584
  eigenvalues    EBANDS =       243.60909756
  atomic energy  EATOM  =      6564.79586099
  Solvation  Ediel_sol  =         0.00000000
  ---------------------------------------------------
  free energy    TOTEN  =      -366.84810228 eV

  energy without entropy =     -366.87262812  energy(sigma->0) =     -366.85627756


--------------------------------------------------------------------------------------------------------




--------------------------------------- Iteration      1(  14)  ---------------------------------------


    POTLOK:  cpu time      0.0759: real time      0.0897
    SETDIJ:  cpu time      0.0738: real time      0.0740
    EDDIAG:  cpu time      0.1344: real time      0.1347
  RMM-DIIS:  cpu time      0.6937: real time      0.6957
    ORTHCH:  cpu time      0.0213: real time      0.0214
       DOS:  cpu time      0.0013: real time      0.0013
    CHARGE:  cpu time      0.2417: real time      0.2423
    MIXING:  cpu time      0.0048: real time      0.0048
    --------------------------------------------
      LOOP:  cpu time      1.2469: real time      1.2638

 eigenvalue-minimisations  :  2604
 total energy-change (2. order) :-0.1327869E-04  (-0.9443576E-05)
 number of electron     255.9999999 magnetization 
 augmentation part      -14.6934074 magnetization 

 Broyden mixing:
  rms(total) = 0.26770E-01    rms(broyden)= 0.26770E-01
  rms(prec ) = 0.27078E-01
  weight for this iteration     100.00

 eigenvalues of (default mixing * dielectric matrix)
  average eigenvalue GAMMA=   1.4835
  2.5619  2.5619  2.4177  2.0395  0.9678  0.9678  0.8824  0.4762  0.4762

 Free energy of the ion-electron system (eV)
  ---------------------------------------------------
  alpha Z        PSCENC =       111.27449877
  Ewald energy   TEWEN  =     -7395.05275389
  -Hartree energ DENC   =      -455.59859985
  -exchange      EXHF   =         0.00000000
  -V(xc)+E(xc)   XCENC  =      -534.49517904
  PAW double counting   =     29960.99934427   -28862.28172507
  entropy T*S    EENTRO =         0.02454399
  eigenvalues    EBANDS =       243.48589428
  atomic energy  EATOM  =      6564.79586099
  Solvation  Ediel_sol  =         0.00000000
  ---------------------------------------------------
  free energy    TOTEN  =      -366.84811556 eV

  energy without entropy =     -366.87265955  energy(sigma->0) =     -366.85629689


--------------------------------------------------------------------------------------------------------




--------------------------------------- Iteration      1(  15)  ---------------------------------------


    POTLOK:  cpu time      0.0795: real time      0.0963
    SETDIJ:  cpu time      0.0712: real time      0.0714
    EDDIAG:  cpu time      0.1328: real time      0.1331
  RMM-DIIS:  cpu time      0.7153: real time      0.7173
    ORTHCH:  cpu time      0.0206: real time      0.0206
       DOS:  cpu time      0.0020: real time      0.0020
    CHARGE:  cpu time      0.2424: real time      0.2430
    MIXING:  cpu time      0.0050: real time      0.0050
    --------------------------------------------
      LOOP:  cpu time      1.2688: real time      1.2887

 eigenvalue-minimisations  :  2630
 total energy-change (2. order) :-0.5548331E-04  (-0.3456084E-05)
 number of electron     255.9999999 magnetization 
 augmentation part      -14.6936297 magnetization 

 Broyden mixing:
  rms(total) = 0.22649E-01    rms(broyden)= 0.22649E-01
  rms(prec ) = 0.22856E-01
  weight for this iteration     100.00

 eigenvalues of (default mixing * dielectric matrix)
  average eigenvalue GAMMA=   1.4420
  2.6596  2.6596  2.3133  1.8791  0.9781  0.9781  0.8615  0.8174  0.8174  0.4555

 Free energy of the ion-electron system (eV)
  ---------------------------------------------------
  alpha Z        PSCENC =       111.27449877
  Ewald energy   TEWEN  =     -7395.05275389
  -Hartree energ DENC   =      -455.59222374
  -exchange      EXHF   =         0.00000000
  -V(xc)+E(xc)   XCENC  =      -534.49048704
  PAW double counting   =     29962.09968255   -28863.37903020
  entropy T*S    EENTRO =         0.02457594
  eigenvalues    EBANDS =       243.47170557
  atomic energy  EATOM  =      6564.79586099
  Solvation  Ediel_sol  =         0.00000000
  ---------------------------------------------------
  free energy    TOTEN  =      -366.84817104 eV

  energy without entropy =     -366.87274699  energy(sigma->0) =     -366.85636302


--------------------------------------------------------------------------------------------------------




--------------------------------------- Iteration      1(  16)  ---------------------------------------


    POTLOK:  cpu time      0.0852: real time      0.1031
    SETDIJ:  cpu time      0.0728: real time      0.0730
    EDDIAG:  cpu time      0.1351: real time      0.1354
  RMM-DIIS:  cpu time      0.7049: real time      0.7069
    ORTHCH:  cpu time      0.0211: real time      0.0211
       DOS:  cpu time      0.0019: real time      0.0019
    CHARGE:  cpu time      0.2448: real time      0.2454
    MIXING:  cpu time      0.0053: real time      0.0053
    --------------------------------------------
      LOOP:  cpu time      1.2710: real time      1.2922

 eigenvalue-minimisations  :  2592
 total energy-change (2. order) :-0.3862462E-04  (-0.2715479E-05)
 number of electron     255.9999999 magnetization 
 augmentation part      -14.6932586 magnetization 

 Broyden mixing:
  rms(total) = 0.14015E-01    rms(broyden)= 0.14015E-01
  rms(prec ) = 0.14098E-01
  weight for this iteration     100.00

 eigenvalues of (default mixing * dielectric matrix)
  average eigenvalue GAMMA=   1.4298
  2.6908  2.6908  2.1663  2.1663  1.0686  1.0686  0.9655  0.9655  0.8315  0.4637
  0.6503

 Free energy of the ion-electron system (eV)
  ---------------------------------------------------
  alpha Z        PSCENC =       111.27449877
  Ewald energy   TEWEN  =     -7395.05275389
  -Hartree energ DENC   =      -455.70408369
  -exchange      EXHF   =         0.00000000
  -V(xc)+E(xc)   XCENC  =      -534.48020132
  PAW double counting   =     29941.44812199   -28842.73007622
  entropy T*S    EENTRO =         0.02458766
  eigenvalues    EBANDS =       243.57583605
  atomic energy  EATOM  =      6564.79586099
  Solvation  Ediel_sol  =         0.00000000
  ---------------------------------------------------
  free energy    TOTEN  =      -366.84820967 eV

  energy without entropy =     -366.87279733  energy(sigma->0) =     -366.85640555


--------------------------------------------------------------------------------------------------------




--------------------------------------- Iteration      1(  17)  ---------------------------------------


    POTLOK:  cpu time      0.0806: real time      0.0973
    SETDIJ:  cpu time      0.0718: real time      0.0720
    EDDIAG:  cpu time      0.1330: real time      0.1333
  RMM-DIIS:  cpu time      0.6799: real time      0.6821
    ORTHCH:  cpu time      0.0214: real time      0.0214
       DOS:  cpu time      0.0013: real time      0.0013
    CHARGE:  cpu time      0.2412: real time      0.2418
    MIXING:  cpu time      0.0053: real time      0.0054
    --------------------------------------------
      LOOP:  cpu time      1.2346: real time      1.2547

 eigenvalue-minimisations  :  2575
 total energy-change (2. order) :-0.6010011E-05  (-0.7929134E-06)
 number of electron     255.9999999 magnetization 
 augmentation part      -14.6930803 magnetization 

 Broyden mixing:
  rms(total) = 0.44189E-02    rms(broyden)= 0.44189E-02
  rms(prec ) = 0.44752E-02
  weight for this iteration     100.00

 eigenvalues of (default mixing * dielectric matrix)
  average eigenvalue GAMMA=   1.5877
  2.0202  2.0202  2.7341  2.7341  2.4184  2.1074  0.9858  0.9858  0.8860  0.8502
  0.8502  0.4598

 Free energy of the ion-electron system (eV)
  ---------------------------------------------------
  alpha Z        PSCENC =       111.27449877
  Ewald energy   TEWEN  =     -7395.05275389
  -Hartree energ DENC   =      -455.71133268
  -exchange      EXHF   =         0.00000000
  -V(xc)+E(xc)   XCENC  =      -534.48576590
  PAW double counting   =     29878.22226237   -28779.50492961
  entropy T*S    EENTRO =         0.02459551
  eigenvalues    EBANDS =       243.58934876
  atomic energy  EATOM  =      6564.79586099
  Solvation  Ediel_sol  =         0.00000000
  ---------------------------------------------------
  free energy    TOTEN  =      -366.84821568 eV

  energy without entropy =     -366.87281119  energy(sigma->0) =     -366.85641418


--------------------------------------------------------------------------------------------------------




--------------------------------------- Iteration      1(  18)  ---------------------------------------


    POTLOK:  cpu time      0.0851: real time      0.0974
    SETDIJ:  cpu time      0.0716: real time      0.0717
    EDDIAG:  cpu time      0.1335: real time      0.1338
  RMM-DIIS:  cpu time      0.4597: real time      0.4612
    ORTHCH:  cpu time      0.0212: real time      0.0213
       DOS:  cpu time      0.0012: real time      0.0012
    CHARGE:  cpu time      0.2411: real time      0.2417
    MIXING:  cpu time      0.0047: real time      0.0047
    --------------------------------------------
      LOOP:  cpu time      1.0180: real time      1.0330

 eigenvalue-minimisations  :  1599
 total energy-change (2. order) :-0.2473225E-05  (-0.2182480E-06)
 number of electron     255.9999999 magnetization 
 augmentation part      -14.6929248 magnetization 

 Broyden mixing:
  rms(total) = 0.89858E-03    rms(broyden)= 0.89851E-03
  rms(prec ) = 0.94467E-03
  weight for this iteration     100.00

 eigenvalues of (default mixing * dielectric matrix)
  average eigenvalue GAMMA=   1.7339
  4.0849  3.1360  2.0678  2.0678  2.2436  2.2436  1.3314  1.3314  0.4601  0.8733
  0.8733  0.9510  0.8765

 Free energy of the ion-electron system (eV)
  ---------------------------------------------------
  alpha Z        PSCENC =       111.27449877
  Ewald energy   TEWEN  =     -7395.05275389
  -Hartree energ DENC   =      -455.73225252
  -exchange      EXHF   =         0.00000000
  -V(xc)+E(xc)   XCENC  =      -534.48571484
  PAW double counting   =     29857.46276056   -28758.74586511
  entropy T*S    EENTRO =         0.02459727
  eigenvalues    EBANDS =       243.61065062
  atomic energy  EATOM  =      6564.79586099
  Solvation  Ediel_sol  =         0.00000000
  ---------------------------------------------------
  free energy    TOTEN  =      -366.84821815 eV

  energy without entropy =     -366.87281542  energy(sigma->0) =     -366.85641724


--------------------------------------------------------------------------------------------------------




--------------------------------------- Iteration      1(  19)  ---------------------------------------


    POTLOK:  cpu time      0.0773: real time      0.0944
    SETDIJ:  cpu time      0.0730: real time      0.0732
    EDDIAG:  cpu time      0.1326: real time      0.1329
  RMM-DIIS:  cpu time      0.4531: real time      0.4544
    ORTHCH:  cpu time      0.0212: real time      0.0212
       DOS:  cpu time      0.0013: real time      0.0013
    --------------------------------------------
      LOOP:  cpu time      0.7585: real time      0.7774

 eigenvalue-minimisations  :  1567
 total energy-change (2. order) :-0.3986943E-06  (-0.1168679E-06)
 number of electron     255.9999999 magnetization 
 augmentation part      -14.6929248 magnetization 

 Free energy of the ion-electron system (eV)
  ---------------------------------------------------
  alpha Z        PSCENC =       111.27449877
  Ewald energy   TEWEN  =     -7395.05275389
  -Hartree energ DENC   =      -455.75660727
  -exchange      EXHF   =         0.00000000
  -V(xc)+E(xc)   XCENC  =      -534.48332130
  PAW double counting   =     29860.21767015   -28761.50009713
  entropy T*S    EENTRO =         0.02459904
  eigenvalues    EBANDS =       243.63193210
  atomic energy  EATOM  =      6564.79586099
  Solvation  Ediel_sol  =         0.00000000
  ---------------------------------------------------
  free energy    TOTEN  =      -366.84821855 eV

  energy without entropy =     -366.87281759  energy(sigma->0) =     -366.85641823


--------------------------------------------------------------------------------------------------------




 average (electrostatic) potential at core
  the test charge radii are     0.9892
  (the norm of the test charge is              1.0000)
       1 -82.6536       2 -82.6536       3 -82.6536       4 -82.6536       5 -82.6536
       6 -82.6536       7 -82.6536       8 -82.6536       9 -82.6536      10 -82.6536
      11 -82.6536      12 -82.6536      13 -82.6536      14 -82.6536      15 -82.6536
      16 -82.6536      17 -82.6536      18 -82.6536      19 -82.6536      20 -82.6536
      21 -82.6536      22 -82.6536      23 -82.6536      24 -82.6536      25 -82.6536
      26 -82.6536      27 -82.6536      28 -82.6536      29 -82.6536      30 -82.6536
      31 -82.6536      32 -82.6536      33 -82.6536      34 -82.6536      35 -82.6536
      36 -82.6536      37 -82.6536      38 -82.6536      39 -82.6536      40 -82.6536
      41 -82.6536      42 -82.6536      43 -82.6536      44 -82.6536      45 -82.6536
      46 -82.6536      47 -82.6536      48 -82.6536      49 -82.6536      50 -82.6536
      51 -82.6536      52 -82.6536      53 -82.6536      54 -82.6536      55 -82.6536
      56 -82.6536      57 -82.6536      58 -82.6536      59 -82.6536      60 -82.6536
      61 -82.6536      62 -82.6536      63 -82.6536      64 -82.6536
 
 
 
 E-fermi :   6.3588     XC(G=0):  -9.6818     alpha+bet :-12.3877

 val. band max:        6.1915082594   @ k =   0.0000   0.0000   0.0000
 cond. band min:       6.4912910433   @ k =   0.0000   0.0000   0.0000
 fundamental gap:      0.2997827839
 Fermi energy:         6.3587960546

 k-point     1 :       0.0000    0.0000    0.0000
  band No.  band energies     occupation 
      1      -6.0892      2.00000
      2      -4.9961      2.00000
      3      -4.9961      2.00000
      4      -4.9591      2.00000
      5      -4.9591      2.00000
      6      -4.9583      2.00000
      7      -4.9583      2.00000
      8      -4.0370      2.00000
      9      -4.0370      2.00000
     10      -3.9791      2.00000
     11      -3.9791      2.00000
     12      -3.9791      2.00000
     13      -3.9791      2.00000
     14      -3.9525      2.00000
     15      -3.9525      2.00000
     16      -3.9525      2.00000
     17      -3.9524      2.00000
     18      -3.9192      2.00000
     19      -3.9192      2.00000
     20      -3.7191      2.00000
     21      -3.7191      2.00000
     22      -3.5836      2.00000
     23      -3.5836      2.00000
     24      -1.8858      2.00000
     25      -1.8858      2.00000
     26      -1.8464      2.00000
     27      -1.7618      2.00000
     28      -1.7618      2.00000
     29      -1.7250      2.00000
     30      -1.7250      2.00000
     31      -1.6808      2.00000
     32      -1.6799      2.00000
     33      -1.6799      2.00000
     34      -1.6324      2.00000
     35      -1.6324      2.00000
     36      -1.6324      2.00000
     37      -1.6324      2.00000
     38      -1.5396      2.00000
     39      -1.5396      2.00000
     40      -1.4966      2.00000
     41      -1.4966      2.00000
     42      -1.0558      2.00000
     43      -1.0558      2.00000
     44      -1.0267      2.00000
     45      -1.0267      2.00000
     46       0.5320      2.00000
     47       0.5320      2.00000
     48       0.5320      2.00000
     49       0.5320      2.00000
     50       0.5650      2.00000
     51       0.5650      2.00000
     52       0.6052      2.00000
     53       0.6052      2.00000
     54       0.6052      2.00000
     55       0.6052      2.00000
     56       0.6420      2.00000
     57       0.6420      2.00000
     58       2.0808      2.00000
     59       2.0808      2.00000
     60       2.0825      2.00000
     61       2.0825      2.00000
     62       2.0829      2.00000
     63       2.0829      2.00000
     64       2.0829      2.00000
     65       2.0829      2.00000
     66       2.0888      2.00000
     67       2.0888      2.00000
     68       2.0923      2.00000
     69       2.0923      2.00000
     70       2.1270      2.00000
     71       2.1270      2.00000
     72       2.1270      2.00000
     73       2.1270      2.00000
     74       2.2157      2.00000
     75       2.2157      2.00000
     76       2.2396      2.00000
     77       2.2396      2.00000
     78       2.2396      2.00000
     79       2.2396      2.00000
     80       2.2617      2.00000
     81       2.2617      2.00000
     82       2.5237      2.00000
     83       2.5237      2.00000
     84       2.6675      2.00000
     85       2.6675      2.00000
     86       2.6734      2.00000
     87       2.6734      2.00000
     88       3.0149      2.00000
     89       3.1233      2.00000
     90       3.1233      2.00000
     91       3.2333      2.00000
     92       3.2795      2.00000
     93       3.2795      2.00000
     94       4.0294      2.00000
     95       4.0294      2.00000
     96       4.1021      2.00000
     97       4.1021      2.00000
     98       4.1472      2.00000
     99       4.1472      2.00000
    100       4.2244      2.00000
    101       4.2244      2.00000
    102       4.2463      2.00000
    103       4.2463      2.00000
    104       4.2465      2.00000
    105       4.2465      2.00000
    106       4.6576      2.00000
    107       4.6576      2.00000
    108       4.7069      2.00000
    109       4.7069      2.00000
    110       4.7069      2.00000
    111       4.7069      2.00000
    112       4.7577      2.00000
    113       4.7577      2.00000
    114       4.7597      2.00000
    115       4.7597      2.00000
    116       4.8560      2.00000
    117       4.8560      2.00000
    118       4.8726      2.00000
    119       4.8726      2.00000
    120       4.8726      2.00000
    121       4.8726      2.00000
    122       4.9538      2.00000
    123       4.9538      2.00000
    124       5.0543      2.00000
    125       5.0543      2.00000
    126       6.0390      2.04621
    127       6.1829      2.01535
    128       6.1915      1.99758
    129       6.4913      0.10783
    130       6.6050     -0.07090
    131       6.6050     -0.07090
    132       6.7225     -0.02748
    133       6.7659     -0.01423
    134       6.7659     -0.01423
    135       7.0877     -0.00000
    136       7.0877     -0.00000
    137       7.0877     -0.00000
    138       7.0877     -0.00000
    139       7.2464     -0.00000
    140       7.2464     -0.00000
    141       7.6006     -0.00000
    142       7.6006     -0.00000
    143       7.8052     -0.00000
    144       7.8052     -0.00000
    145       8.3890     -0.00000
    146       8.3891     -0.00000
    147       8.4522     -0.00000
    148       8.4523     -0.00000
    149       8.4527     -0.00000
    150       8.4529     -0.00000
    151       8.5225     -0.00000
    152       8.5253     -0.00000
    153       8.5257     -0.00000
    154       8.6134     -0.00000
    155       8.6419     -0.00000
    156       8.6422     -0.00000
    157       8.6447     -0.00000
    158       8.6467     -0.00000
    159       8.8572     -0.00000
    160       9.1585     -0.00000
    161       9.1912     -0.00000
    162       9.2420     -0.00000

 k-point     2 :       0.5000   -0.0000    0.0000
  band No.  band energies     occupation 
      1      -5.8137      2.00000
      2      -5.8137      2.00000
      3      -4.7364      2.00000
      4      -4.7364      2.00000
      5      -4.7076      2.00000
      6      -4.7076      2.00000
      7      -4.7076      2.00000
      8      -4.7076      2.00000
      9      -4.6773      2.00000
     10      -4.6773      2.00000
     11      -3.8587      2.00000
     12      -3.8587      2.00000
     13      -3.8587      2.00000
     14      -3.8587      2.00000
     15      -3.7765      2.00000
     16      -3.7765      2.00000
     17      -3.7765      2.00000
     18      -3.7765      2.00000
     19      -3.6664      2.00000
     20      -3.6664      2.00000
     21      -2.9584      2.00000
     22      -2.9584      2.00000
     23      -2.8745      2.00000
     24      -2.8745      2.00000
     25      -2.8745      2.00000
     26      -2.8745      2.00000
     27      -2.7884      2.00000
     28      -2.7884      2.00000
     29      -1.7696      2.00000
     30      -1.7696      2.00000
     31      -1.7369      2.00000
     32      -1.7369      2.00000
     33      -1.6217      2.00000
     34      -1.6217      2.00000
     35      -1.5921      2.00000
     36      -1.5921      2.00000
     37      -0.5757      2.00000
     38      -0.5757      2.00000
     39      -0.5055      2.00000
     40      -0.5055      2.00000
     41      -0.5055      2.00000
     42      -0.5055      2.00000
     43      -0.4402      2.00000
     44      -0.4402      2.00000
     45      -0.4329      2.00000
     46      -0.4329      2.00000
     47      -0.4329      2.00000
     48      -0.4329      2.00000
     49      -0.4190      2.00000
     50      -0.4190      2.00000
     51      -0.4190      2.00000
     52      -0.4190      2.00000
     53       0.2350      2.00000
     54       0.2350      2.00000
     55       1.7346      2.00000
     56       1.7346      2.00000
     57       1.7376      2.00000
     58       1.7376      2.00000
     59       1.7376      2.00000
     60       1.7376      2.00000
     61       1.7411      2.00000
     62       1.7411      2.00000
     63       1.8076      2.00000
     64       1.8076      2.00000
     65       1.8274      2.00000
     66       1.8274      2.00000
     67       1.8274      2.00000
     68       1.8274      2.00000
     69       1.8539      2.00000
     70       1.8539      2.00000
     71       2.4780      2.00000
     72       2.4780      2.00000
     73       2.5215      2.00000
     74       2.5215      2.00000
     75       2.5565      2.00000
     76       2.5565      2.00000
     77       2.6018      2.00000
     78       2.6018      2.00000
     79       3.2624      2.00000
     80       3.2624      2.00000
     81       3.3051      2.00000
     82       3.3051      2.00000
     83       3.3051      2.00000
     84       3.3051      2.00000
     85       3.3280      2.00000
     86       3.3280      2.00000
     87       3.3387      2.00000
     88       3.3387      2.00000
     89       3.3608      2.00000
     90       3.3608      2.00000
     91       3.3608      2.00000
     92       3.3608      2.00000
     93       3.3918      2.00000
     94       3.3918      2.00000
     95       3.4420      2.00000
     96       3.4420      2.00000
     97       3.4420      2.00000
     98       3.4420      2.00000
     99       3.5255      2.00000
    100       3.5255      2.00000
    101       3.5261      2.00000
    102       3.5261      2.00000
    103       3.5454      2.00000
    104       3.5454      2.00000
[...]
 -0.000  -0.000   4.173   0.000  -0.000   7.773   0.000  -0.000
  0.001   0.002   0.000   4.173   0.000   0.000   7.773   0.000
 -0.000  -0.000  -0.000   0.000   4.173  -0.000   0.000   7.773
 -0.000  -0.000   7.773   0.000  -0.000  14.492   0.000  -0.000
  0.002   0.003   0.000   7.773   0.000   0.000  14.492   0.000
 -0.000  -0.000  -0.000   0.000   7.773  -0.000   0.000  14.492
 total augmentation occupancy for first ion, spin component:           1
  6.204  -2.433   0.000  -0.054  -0.000  -0.000   0.020  -0.000
 -2.433   1.063  -0.000   0.027   0.000   0.000  -0.010  -0.000
  0.000  -0.000   3.045  -0.000  -0.008  -0.688   0.000  -0.001
 -0.054   0.027  -0.000   3.046  -0.000   0.000  -0.688  -0.000
 -0.000   0.000  -0.008  -0.000   3.084  -0.001  -0.000  -0.702
 -0.000   0.000  -0.688   0.000  -0.001   0.164  -0.000   0.000
  0.020  -0.010   0.000  -0.688  -0.000  -0.000   0.165  -0.000
 -0.000  -0.000  -0.001  -0.000  -0.702   0.000  -0.000   0.169


------------------------ aborting loop because EDIFF is reached ----------------------------------------


    CHARGE:  cpu time      0.2471: real time      0.2541
    FORLOC:  cpu time      0.0206: real time      0.0211
    FORNL :  cpu time      0.6769: real time      0.7062
    STRESS:  cpu time      2.1145: real time      2.1816
    FORCOR:  cpu time      0.0862: real time      0.0878
    FORHAR:  cpu time      0.0344: real time      0.0350
    MIXING:  cpu time      0.0041: real time      0.0041
    OFIELD:  cpu time      0.0000: real time      0.0000

  FORCE on cell =-STRESS in cart. coord.  units (eV):
  Direction    XX          YY          ZZ          XY          YZ          ZX
  --------------------------------------------------------------------------------------
  Alpha Z   111.27450   111.27450   111.27450
  Ewald   -2420.65106 -2487.70671 -2487.46916   -12.73469     0.00000    -0.00000
  Hartree   159.03836   148.21710   147.99750    -8.26748    -0.00000    -0.00000
  E(xc)    -824.60752  -823.97417  -824.01419     0.10851    -0.00000    -0.00000
  Local    -968.85782  -887.60862  -888.08980    22.99188    -0.00000     0.00000
  n-local  2511.79515  2501.14411  2501.81712    -0.96447     0.00000    -0.00000
  augment  -368.95882  -368.96158  -368.99924     0.71388     0.00000     0.00000
  Kinetic  1819.50744  1841.05251  1840.29250   -12.91173    -0.00000    -0.00000
  Fock        0.00000     0.00000     0.00000     0.00000     0.00000     0.00000
  -------------------------------------------------------------------------------------
  Total      18.54023    33.43715    32.80924   -11.06410     0.00000     0.00000
  in kB      23.97215    43.23356    42.42169   -14.30566     0.00000     0.00000
  external pressure =       36.54 kB  Pullay stress =        0.00 kB


 VOLUME and BASIS-vectors are now :
 -----------------------------------------------------------------------------
  energy-cutoff  :      400.00
  volume of cell :     1239.14
      direct lattice vectors                 reciprocal lattice vectors
    10.883967607  0.106706016  0.000000000     0.091887268 -0.000918877  0.000000000
     0.106706016 10.670556576  0.000000000    -0.000918877  0.093725013  0.000000000
     0.000000000  0.000000000 10.670556576     0.000000000  0.000000000  0.093715824

  length of vectors
    10.884490666 10.671090095 10.670556576     0.091891862  0.093729517  0.093715824


 FORCES acting on ions
    electron-ion (+dipol)            ewald-force                    non-local-force                 convergence-correction
 -----------------------------------------------------------------------------------------------
   0.148E-08 -.137E-10 -.167E+01   0.167E-13 -.202E-13 0.119E+01   0.193E-20 -.278E-20 0.480E+00   -.106E-12 0.280E-13 0.209E-04
   0.148E-08 -.137E-10 -.167E+01   0.147E-13 -.200E-13 0.119E+01   0.548E-21 -.391E-21 0.480E+00   0.119E-12 0.700E-13 0.209E-04
   0.148E-08 -.137E-10 -.167E+01   0.622E-14 -.107E-13 0.119E+01   0.293E-21 -.743E-21 0.480E+00   -.823E-13 -.165E-13 0.209E-04
   0.148E-08 -.137E-10 -.167E+01   -.888E-15 -.711E-14 0.119E+01   -.231E-20 0.822E-21 0.480E+00   0.916E-13 -.779E-13 0.209E-04
   0.148E-08 -.137E-10 -.167E+01   0.400E-14 -.133E-13 0.119E+01   0.316E-21 -.367E-21 0.480E+00   0.102E-12 -.323E-13 0.209E-04
   0.148E-08 -.137E-10 -.167E+01   -.222E-14 -.169E-13 0.119E+01   -.342E-21 -.979E-21 0.480E+00   -.111E-12 0.726E-13 0.209E-04
   0.148E-08 -.133E-10 -.167E+01   0.622E-14 -.142E-13 0.119E+01   0.111E-20 -.176E-20 0.480E+00   0.842E-13 0.247E-13 0.209E-04
   0.148E-08 -.141E-10 -.167E+01   -.711E-14 -.355E-14 0.119E+01   0.105E-20 0.143E-21 0.480E+00   -.773E-13 -.788E-13 0.209E-04
   -.113E-09 -.364E-09 0.167E+01   0.195E-13 -.213E-13 -.119E+01   -.247E-21 0.102E-20 -.480E+00   -.111E-13 -.114E-14 -.209E-04
   -.113E-09 -.364E-09 0.167E+01   0.160E-13 -.213E-13 -.119E+01   -.349E-20 0.199E-20 -.480E+00   -.173E-13 0.114E-13 -.209E-04
   -.113E-09 -.365E-09 0.167E+01   0.120E-13 -.195E-13 -.119E+01   0.191E-20 -.532E-21 -.480E+00   0.455E-13 -.144E-14 -.209E-04
   -.113E-09 -.364E-09 0.167E+01   0.888E-14 -.231E-13 -.119E+01   0.299E-21 0.431E-20 -.480E+00   -.123E-13 -.141E-13 -.209E-04
   -.113E-09 -.365E-09 0.167E+01   0.240E-13 -.244E-13 -.119E+01   0.607E-21 -.164E-20 -.480E+00   0.625E-14 0.285E-13 -.209E-04
   -.113E-09 -.363E-09 0.167E+01   0.888E-14 -.213E-13 -.119E+01   0.758E-21 0.369E-20 -.480E+00   0.224E-13 0.939E-14 -.209E-04
   -.113E-09 -.364E-09 0.167E+01   0.222E-13 -.155E-13 -.119E+01   -.200E-21 0.380E-20 -.480E+00   -.634E-13 -.246E-13 -.209E-04
   -.113E-09 -.365E-09 0.167E+01   0.355E-14 -.266E-13 -.119E+01   -.183E-20 0.131E-21 -.480E+00   0.248E-13 -.685E-14 -.209E-04
   0.148E-08 -.137E-10 -.167E+01   0.488E-14 0.577E-14 0.119E+01   0.306E-20 0.140E-20 0.480E+00   0.447E-13 0.318E-13 0.209E-04
   0.148E-08 -.137E-10 -.167E+01   -.577E-14 0.222E-14 0.119E+01   -.173E-21 -.420E-20 0.480E+00   -.305E-13 0.104E-12 0.209E-04
   0.148E-08 -.137E-10 -.167E+01   0.142E-13 -.200E-14 0.119E+01   -.326E-20 -.197E-20 0.480E+00   0.213E-13 -.435E-13 0.209E-04
   0.148E-08 -.137E-10 -.167E+01   0.000E+00 0.444E-14 0.119E+01   -.487E-20 -.200E-20 0.480E+00   -.135E-13 -.112E-12 0.209E-04
   0.148E-08 -.139E-10 -.167E+01   0.102E-13 -.178E-14 0.119E+01   -.160E-20 -.221E-20 0.480E+00   -.302E-13 -.187E-13 0.209E-04
   0.148E-08 -.137E-10 -.167E+01   0.488E-14 0.124E-13 0.119E+01   -.145E-20 -.197E-20 0.480E+00   0.282E-13 0.805E-13 0.209E-04
   0.148E-08 -.134E-10 -.167E+01   0.888E-14 0.488E-14 0.119E+01   0.984E-21 0.178E-20 0.480E+00   -.132E-13 0.385E-15 0.209E-04
   0.148E-08 -.142E-10 -.167E+01   0.711E-14 0.355E-14 0.119E+01   0.104E-20 -.275E-20 0.480E+00   0.187E-13 -.763E-13 0.209E-04
   -.113E-09 -.364E-09 0.167E+01   0.266E-14 -.980E-14 -.119E+01   0.146E-20 0.284E-22 -.480E+00   0.229E-13 0.506E-13 -.209E-04
   -.113E-09 -.365E-09 0.167E+01   0.977E-14 -.107E-13 -.119E+01   -.145E-20 0.159E-20 -.480E+00   -.158E-13 0.481E-13 -.209E-04
   -.113E-09 -.364E-09 0.167E+01   0.000E+00 0.125E-15 -.119E+01   0.232E-20 -.880E-21 -.480E+00   0.330E-14 -.409E-13 -.209E-04
   -.113E-09 -.364E-09 0.167E+01   0.711E-14 -.152E-13 -.119E+01   -.277E-20 0.235E-21 -.480E+00   0.145E-14 -.446E-13 -.209E-04
   -.113E-09 -.364E-09 0.167E+01   -.977E-14 -.625E-14 -.119E+01   0.424E-21 0.283E-21 -.480E+00   -.164E-13 0.921E-13 -.209E-04
   -.113E-09 -.364E-09 0.167E+01   0.115E-13 -.625E-14 -.119E+01   -.142E-20 0.478E-21 -.480E+00   0.463E-14 0.737E-13 -.209E-04
   -.113E-09 -.365E-09 0.167E+01   0.888E-14 -.141E-13 -.119E+01   0.656E-21 0.352E-20 -.480E+00   0.195E-14 -.675E-13 -.209E-04
   -.113E-09 -.364E-09 0.167E+01   0.888E-14 -.791E-14 -.119E+01   -.180E-20 0.206E-20 -.480E+00   -.580E-14 -.719E-13 -.209E-04
   0.148E-08 -.137E-10 -.167E+01   -.533E-14 0.400E-14 0.119E+01   0.553E-21 0.598E-21 0.480E+00   0.723E-13 0.288E-13 0.209E-04
   0.148E-08 -.137E-10 -.167E+01   -.129E-13 0.666E-14 0.119E+01   0.234E-20 0.321E-20 0.480E+00   -.296E-13 0.377E-13 0.209E-04
   0.148E-08 -.137E-10 -.167E+01   -.209E-13 0.104E-13 0.119E+01   -.879E-21 0.124E-20 0.480E+00   0.337E-13 -.303E-13 0.209E-04
   0.148E-08 -.137E-10 -.167E+01   -.888E-14 0.102E-13 0.119E+01   -.108E-20 0.176E-20 0.480E+00   -.685E-13 -.473E-13 0.209E-04
   0.148E-08 -.138E-10 -.167E+01   -.511E-14 0.799E-14 0.119E+01   -.142E-20 0.191E-20 0.480E+00   -.900E-13 0.111E-13 0.209E-04
   0.148E-08 -.137E-10 -.167E+01   -.400E-14 0.977E-14 0.119E+01   0.376E-21 0.458E-20 0.480E+00   0.407E-13 0.498E-13 0.209E-04
   0.148E-08 -.141E-10 -.167E+01   -.444E-14 0.169E-13 0.119E+01   0.155E-20 0.704E-21 0.480E+00   -.360E-13 -.558E-14 0.209E-04
   0.148E-08 -.127E-10 -.167E+01   0.107E-13 0.178E-13 0.119E+01   0.337E-20 0.384E-20 0.480E+00   0.587E-13 -.621E-13 0.209E-04
   -.113E-09 -.364E-09 0.167E+01   -.604E-14 0.000E+00 -.119E+01   -.188E-20 -.273E-20 -.480E+00   0.108E-12 -.110E-13 -.209E-04
   -.113E-09 -.364E-09 0.167E+01   -.111E-13 0.000E+00 -.119E+01   0.757E-21 -.784E-21 -.480E+00   -.135E-12 0.312E-13 -.209E-04
   -.113E-09 -.364E-09 0.167E+01   -.561E-14 0.355E-14 -.119E+01   -.144E-20 0.224E-21 -.480E+00   0.138E-12 -.123E-14 -.209E-04
   -.113E-09 -.364E-09 0.167E+01   -.738E-14 0.711E-14 -.119E+01   0.307E-20 -.126E-20 -.480E+00   -.104E-12 -.326E-13 -.209E-04
   -.113E-09 -.365E-09 0.167E+01   0.130E-14 -.355E-14 -.119E+01   -.238E-20 -.139E-20 -.480E+00   -.118E-12 -.294E-13 -.209E-04
   -.113E-09 -.363E-09 0.167E+01   0.330E-14 0.355E-14 -.119E+01   0.371E-20 -.771E-21 -.480E+00   0.131E-12 0.493E-13 -.209E-04
   -.113E-09 -.364E-09 0.167E+01   -.713E-14 -.711E-14 -.119E+01   -.129E-20 -.151E-20 -.480E+00   -.153E-12 0.199E-13 -.209E-04
   -.113E-09 -.365E-09 0.167E+01   0.130E-14 -.355E-14 -.119E+01   0.996E-22 -.257E-21 -.480E+00   0.110E-12 -.425E-13 -.209E-04
   0.148E-08 -.139E-10 -.167E+01   -.162E-13 0.229E-13 0.119E+01   -.227E-21 -.915E-21 0.480E+00   -.976E-13 0.406E-13 0.209E-04
   0.148E-08 -.135E-10 -.167E+01   -.115E-13 0.355E-13 0.119E+01   0.396E-21 0.231E-20 0.480E+00   0.805E-13 0.461E-13 0.209E-04
   0.148E-08 -.135E-10 -.167E+01   -.577E-14 0.226E-13 0.119E+01   0.105E-21 0.465E-20 0.480E+00   -.470E-13 -.482E-13 0.209E-04
   0.148E-08 -.139E-10 -.167E+01   -.444E-14 0.369E-13 0.119E+01   0.261E-20 0.197E-21 0.480E+00   0.818E-13 -.548E-13 0.209E-04
   0.148E-08 -.146E-10 -.167E+01   -.202E-13 0.142E-13 0.119E+01   -.531E-21 0.246E-20 0.480E+00   0.985E-13 0.140E-13 0.209E-04
   0.148E-08 -.130E-10 -.167E+01   -.222E-13 0.195E-13 0.119E+01   0.690E-21 0.961E-21 0.480E+00   -.923E-13 0.821E-13 0.209E-04
   0.148E-08 -.136E-10 -.167E+01   -.129E-13 0.178E-13 0.119E+01   -.995E-22 0.680E-21 0.480E+00   0.506E-13 -.323E-13 0.209E-04
   0.148E-08 -.134E-10 -.167E+01   -.711E-14 0.249E-13 0.119E+01   -.194E-21 0.321E-20 0.480E+00   -.889E-13 -.812E-13 0.209E-04
   -.113E-09 -.364E-09 0.167E+01   -.120E-13 0.121E-13 -.119E+01   0.108E-20 -.197E-20 -.480E+00   -.340E-13 0.410E-13 -.209E-04
   -.113E-09 -.364E-09 0.167E+01   0.113E-14 0.102E-13 -.119E+01   0.882E-21 -.145E-20 -.480E+00   0.411E-13 0.119E-12 -.209E-04
   -.113E-09 -.364E-09 0.167E+01   -.815E-14 0.626E-14 -.119E+01   -.403E-20 0.401E-21 -.480E+00   -.578E-13 -.335E-13 -.209E-04
   -.113E-09 -.364E-09 0.167E+01   0.474E-14 0.275E-14 -.119E+01   -.224E-20 -.547E-20 -.480E+00   0.450E-13 -.116E-12 -.209E-04
   -.113E-09 -.366E-09 0.167E+01   -.146E-14 0.137E-13 -.119E+01   -.379E-20 -.194E-20 -.480E+00   0.346E-13 -.250E-13 -.209E-04
   -.113E-09 -.364E-09 0.167E+01   0.762E-14 0.840E-14 -.119E+01   -.276E-21 -.620E-20 -.480E+00   -.586E-13 0.120E-12 -.209E-04
   -.113E-09 -.365E-09 0.167E+01   -.868E-14 0.183E-13 -.119E+01   0.175E-20 -.245E-20 -.480E+00   0.625E-13 0.282E-13 -.209E-04
   -.113E-09 -.364E-09 0.167E+01   0.684E-14 0.412E-14 -.119E+01   0.353E-20 -.212E-20 -.480E+00   -.626E-13 -.111E-12 -.209E-04
 -----------------------------------------------------------------------------------------------
   0.436E-07 -.121E-07 0.146E-04   0.435E-13 0.341E-13 -.542E-13   -.333E-20 0.381E-20 0.983E-14   -.497E-13 -.469E-13 0.175E-09
 
 
 POSITION                                       TOTAL-FORCE (eV/Angst)
 -----------------------------------------------------------------------------------
      0.00000      0.00000      0.00819        -0.000000      0.000000      0.000107
      0.00000      0.00000      5.34347        -0.000000      0.000000      0.000107
      0.05335      5.33528      0.00819        -0.000000      0.000000      0.000107
      0.05335      5.33528      5.34347        -0.000000      0.000000      0.000107
      5.44198      0.05335      0.00819        -0.000000     -0.000000      0.000107
      5.44198      0.05335      5.34347        -0.000000     -0.000000      0.000107
      5.49534      5.38863      0.00819        -0.000000     -0.000000      0.000107
      5.49534      5.38863      5.34347        -0.000000     -0.000000      0.000107
      4.12150      4.04147      1.32563         0.000000      0.000000     -0.000107
      4.12150      4.04147      6.66091         0.000000      0.000000     -0.000107
      4.17486      9.37675      1.32563         0.000000     -0.000000     -0.000107
      4.17486      9.37675      6.66091         0.000000     -0.000000     -0.000107
      9.56349      4.09483      1.32563         0.000000      0.000000     -0.000107
      9.56349      4.09483      6.66091         0.000000      0.000000     -0.000107
      9.61684      9.43010      1.32563         0.000000     -0.000000     -0.000107
      9.61684      9.43010      6.66091        -0.000000     -0.000000     -0.000107
      0.02668      2.66764      2.67583        -0.000000      0.000000      0.000107
      0.02668      2.66764      8.01111        -0.000000      0.000000      0.000107
      0.08003      8.00292      2.67583        -0.000000      0.000000      0.000107
      0.08003      8.00292      8.01111        -0.000000      0.000000      0.000107
      5.46866      2.72099      2.67583        -0.000000     -0.000000      0.000107
      5.46866      2.72099      8.01111        -0.000000     -0.000000      0.000107
      5.52201      8.05627      2.67583        -0.000000     -0.000000      0.000107
      5.52201      8.05627      8.01111        -0.000000     -0.000000      0.000107
      4.09483      1.37383      3.99327         0.000000     -0.000000     -0.000107
      4.09483      1.37383      9.32855         0.000000     -0.000000     -0.000107
      4.14818      6.70911      3.99327         0.000000      0.000000     -0.000107
      4.14818      6.70911      9.32855         0.000000     -0.000000     -0.000107
      9.53681      1.42719      3.99327         0.000000      0.000000     -0.000107
      9.53681      1.42719      9.32855         0.000000      0.000000     -0.000107
      9.59016      6.76247      3.99327         0.000000      0.000000     -0.000107
      9.59016      6.76247      9.32855         0.000000      0.000000     -0.000107
      2.72099      0.02668      2.67583         0.000000     -0.000000      0.000107
      2.72099      0.02668      8.01111         0.000000     -0.000000      0.000107
      2.77434      5.36195      2.67583         0.000000      0.000000      0.000107
      2.77434      5.36195      8.01111         0.000000      0.000000      0.000107
      8.16298      0.08003      2.67583         0.000000     -0.000000      0.000107
      8.16298      0.08003      8.01111         0.000000      0.000000      0.000107
      8.21633      5.41531      2.67583         0.000000      0.000000      0.000107
      8.21633      5.41531      8.01111         0.000000      0.000000      0.000107
      1.40051      4.01480      3.99327        -0.000000     -0.000000     -0.000107
      1.40051      4.01480      9.32855        -0.000000     -0.000000     -0.000107
      1.45386      9.35008      3.99327        -0.000000     -0.000000     -0.000107
      1.45386      9.35008      9.32855        -0.000000     -0.000000     -0.000107
      6.84249      4.06815      3.99327        -0.000000      0.000000     -0.000107
      6.84249      4.06815      9.32855        -0.000000      0.000000     -0.000107
      6.89585      9.40343      3.99327        -0.000000      0.000000     -0.000107
      6.89585      9.40343      9.32855        -0.000000      0.000000     -0.000107
      2.74767      2.69432      0.00819         0.000000     -0.000000      0.000107
      2.74767      2.69432      5.34347         0.000000      0.000000      0.000107
      2.80102      8.02959      0.00819         0.000000     -0.000000      0.000107
      2.80102      8.02959      5.34347         0.000000      0.000000      0.000107
      8.18965      2.74767      0.00819         0.000000     -0.000000      0.000107
      8.18965      2.74767      5.34347         0.000000     -0.000000      0.000107
      8.24301      8.08295      0.00819         0.000000      0.000000      0.000107
      8.24301      8.08295      5.34347         0.000000     -0.000000      0.000107
      1.37383      1.34716      1.32563        -0.000000     -0.000000     -0.000107
      1.37383      1.34716      6.66091        -0.000000     -0.000000     -0.000107
      1.42719      6.68244      1.32563        -0.000000     -0.000000     -0.000107
      1.42719      6.68244      6.66091        -0.000000     -0.000000     -0.000107
      6.81582      1.40051      1.32563        -0.000000      0.000000     -0.000107
      6.81582      1.40051      6.66091        -0.000000      0.000000     -0.000107
      6.86917      6.73579      1.32563        -0.000000      0.000000     -0.000107
      6.86917      6.73579      6.66091        -0.000000      0.000000     -0.000107
 -----------------------------------------------------------------------------------
    total drift:                                0.000000     -0.000000      0.000015


--------------------------------------------------------------------------------------------------------



  FREE ENERGIE OF THE ION-ELECTRON SYSTEM (eV)
  ---------------------------------------------------
  free  energy   TOTEN  =      -366.90822958 eV

  energy  without entropy=     -366.92554867  energy(sigma->0) =     -366.91400261
 
 d Force = 0.7477774E-02[-0.199E-04, 0.150E-01]  d Energy = 0.7481062E-02-0.329E-05
 d Force =-0.2090927E+00[-0.222E+00,-0.196E+00]  d Ewald  =-0.2090921E+00-0.597E-06


--------------------------------------------------------------------------------------------------------


    POTLOK:  cpu time      0.1439: real time      0.1472


--------------------------------------------------------------------------------------------------------




--------------------------------------------------------------------------------------------------------


  
 reached required accuracy - stopping structural energy minimisation
     LOOP+:  cpu time     12.9414: real time     13.3000
    4ORBIT:  cpu time      0.0000: real time      0.0000

 total amount of memory used by VASP MPI-rank0    79868. kBytes
=======================================================================

   base      :      30000. kBytes
   nonlr-proj:       4680. kBytes
   fftplans  :      18113. kBytes
   grid      :       6881. kBytes
   one-center:         18. kBytes
   wavefun   :      20176. kBytes
 
  
  
 General timing and accounting informations for this job:
 ========================================================
  
                  Total CPU time used (sec):       59.956
                            User time (sec):       56.689
                          System time (sec):        3.267
                         Elapsed time (sec):       63.929
  
                   Maximum memory used (kb):      408516.
                   Average memory used (kb):          N/A
  
                          Minor page faults:        96291
                          Major page faults:            0
                 Voluntary context switches:         9621
