Si64                                    
           1
    10.883968    0.106706    0.000000
     0.106706   10.670557    0.000000
     0.000000    0.000000   10.670557
   Si
    64
Direct configuration=     1
   0.00000000  0.00000000  0.00000000
   0.00000000  0.00000000  0.50000000
   0.00000000  0.50000000  0.00000000
   0.00000000  0.50000000  0.50000000
   0.50000000  0.00000000  0.00000000
   0.50000000  0.00000000  0.50000000
   0.50000000  0.50000000  0.00000000
   0.50000000  0.50000000  0.50000000
   0.37500000  0.37500000  0.12500000
   0.37500000  0.37500000  0.62500000
   0.37500000  0.87500000  0.12500000
   0.37500000  0.87500000  0.62500000
   0.87500000  0.37500000  0.12500000
   0.87500000  0.37500000  0.62500000
   0.87500000  0.87500000  0.12500000
   0.87500000  0.87500000  0.62500000
   0.00000000  0.25000000  0.25000000
   0.00000000  0.25000000  0.75000000
   0.00000000  0.75000000  0.25000000
   0.00000000  0.75000000  0.75000000
   0.50000000  0.25000000  0.25000000
   0.50000000  0.25000000  0.75000000
   0.50000000  0.75000000  0.25000000
   0.50000000  0.75000000  0.75000000
   0.37500000  0.12500000  0.37500000
   0.37500000  0.12500000  0.87500000
   0.37500000  0.62500000  0.37500000
   0.37500000  0.62500000  0.87500000
   0.87500000  0.12500000  0.37500000
   0.87500000  0.12500000  0.87500000
   0.87500000  0.62500000  0.37500000
   0.87500000  0.62500000  0.87500000
   0.25000000  0.00000000  0.25000000
   0.25000000  0.00000000  0.75000000
   0.25000000  0.50000000  0.25000000
   0.25000000  0.50000000  0.75000000
   0.75000000  0.00000000  0.25000000
   0.75000000  0.00000000  0.75000000
   0.75000000  0.50000000  0.25000000
   0.75000000  0.50000000  0.75000000
   0.12500000  0.37500000  0.37500000
   0.12500000  0.37500000  0.87500000
   0.12500000  0.87500000  0.37500000
   0.12500000  0.87500000  0.87500000
   0.62500000  0.37500000  0.37500000
   0.62500000  0.37500000  0.87500000
   0.62500000  0.87500000  0.37500000
   0.62500000  0.87500000  0.87500000
   0.25000000  0.25000000  0.00000000
   0.25000000  0.25000000  0.50000000
   0.25000000  0.75000000  0.00000000
   0.25000000  0.75000000  0.50000000
   0.75000000  0.25000000  0.00000000
   0.75000000  0.25000000  0.50000000
   0.75000000  0.75000000  0.00000000
   0.75000000  0.75000000  0.50000000
   0.12500000  0.12500000  0.12500000
   0.12500000  0.12500000  0.62500000
   0.12500000  0.62500000  0.12500000
   0.12500000  0.62500000  0.62500000
   0.62500000  0.12500000  0.12500000
   0.62500000  0.12500000  0.62500000
   0.62500000  0.62500000  0.12500000
   0.62500000  0.62500000  0.62500000
Direct configuration=     2
   1.00000000  1.00000000  0.00104015
   1.00000000  1.00000000  0.50104015
   1.00000000  0.50000000  0.00104015
   1.00000000  0.50000000  0.50104015
   0.50000000  0.00000000  0.00104015
   0.50000000  0.00000000  0.50104015
   0.50000000  0.50000000  0.00104015
   0.50000000  0.50000000  0.50104015
   0.37500000  0.37500000  0.12395985
   0.37500000  0.37500000  0.62395985
   0.37500000  0.87500000  0.12395985
   0.37500000  0.87500000  0.62395985
   0.87500000  0.37500000  0.12395985
   0.87500000  0.37500000  0.62395985
   0.87500000  0.87500000  0.12395985
   0.87500000  0.87500000  0.62395985
   1.00000000  0.25000000  0.25104015
   1.00000000  0.25000000  0.75104015
   1.00000000  0.75000000  0.25104015
   1.00000000  0.75000000  0.75104015
   0.50000000  0.25000000  0.25104015
   0.50000000  0.25000000  0.75104015
   0.50000000  0.75000000  0.25104015
   0.50000000  0.75000000  0.75104015
   0.37500000  0.12500000  0.37395985
   0.37500000  0.12500000  0.87395985
   0.37500000  0.62500000  0.37395985
   0.37500000  0.62500000  0.87395985
   0.87500000  0.12500000  0.37395985
   0.87500000  0.12500000  0.87395985
   0.87500000  0.62500000  0.37395985
   0.87500000  0.62500000  0.87395985
   0.25000000  1.00000000  0.25104015
   0.25000000  1.00000000  0.75104015
   0.25000000  0.50000000  0.25104015
   0.25000000  0.50000000  0.75104015
   0.75000000  0.00000000  0.25104015
   0.75000000  0.00000000  0.75104015
   0.75000000  0.50000000  0.25104015
   0.75000000  0.50000000  0.75104015
   0.12500000  0.37500000  0.37395985
   0.12500000  0.37500000  0.87395985
   0.12500000  0.87500000  0.37395985
   0.12500000  0.87500000  0.87395985
   0.62500000  0.37500000  0.37395985
   0.62500000  0.37500000  0.87395985
   0.62500000  0.87500000  0.37395985
   0.62500000  0.87500000  0.87395985
   0.25000000  0.25000000  0.00104015
   0.25000000  0.25000000  0.50104015
   0.25000000  0.75000000  0.00104015
   0.25000000  0.75000000  0.50104015
   0.75000000  0.25000000  0.00104015
   0.75000000  0.25000000  0.50104015
   0.75000000  0.75000000  0.00104015
   0.75000000  0.75000000  0.50104015
   0.12500000  0.12500000  0.12395985
   0.12500000  0.12500000  0.62395985
   0.12500000  0.62500000  0.12395985
   0.12500000  0.62500000  0.62395985
   0.62500000  0.12500000  0.12395985
   0.62500000  0.12500000  0.62395985
   0.62500000  0.62500000  0.12395985
   0.62500000  0.62500000  0.62395985
Direct configuration=     3
   0.00000000  0.00000000  0.00076736
   0.00000000  0.00000000  0.50076736
   0.00000000  0.50000000  0.00076736
   0.00000000  0.50000000  0.50076736
   0.50000000  0.00000000  0.00076736
   0.50000000  0.00000000  0.50076736
   0.50000000  0.50000000  0.00076736
   0.50000000  0.50000000  0.50076736
   0.37500000  0.37500000  0.12423264
   0.37500000  0.37500000  0.62423264
   0.37500000  0.87500000  0.12423264
   0.37500000  0.87500000  0.62423264
   0.87500000  0.37500000  0.12423264
   0.87500000  0.37500000  0.62423264
   0.87500000  0.87500000  0.12423264
   0.87500000  0.87500000  0.62423264
   0.00000000  0.25000000  0.25076736
   0.00000000  0.25000000  0.75076736
   0.00000000  0.75000000  0.25076736
   0.00000000  0.75000000  0.75076736
   0.50000000  0.25000000  0.25076736
   0.50000000  0.25000000  0.75076736
   0.50000000  0.75000000  0.25076736
   0.50000000  0.75000000  0.75076736
   0.37500000  0.12500000  0.37423264
   0.37500000  0.12500000  0.87423264
   0.37500000  0.62500000  0.37423264
   0.37500000  0.62500000  0.87423264
   0.87500000  0.12500000  0.37423264
   0.87500000  0.12500000  0.87423264
   0.87500000  0.62500000  0.37423264
   0.87500000  0.62500000  0.87423264
   0.25000000  0.00000000  0.25076736
   0.25000000  0.00000000  0.75076736
   0.25000000  0.50000000  0.25076736
   0.25000000  0.50000000  0.75076736
   0.75000000  0.00000000  0.25076736
   0.75000000  0.00000000  0.75076736
   0.75000000  0.50000000  0.25076736
   0.75000000  0.50000000  0.75076736
   0.12500000  0.37500000  0.37423264
   0.12500000  0.37500000  0.87423264
   0.12500000  0.87500000  0.37423264
   0.12500000  0.87500000  0.87423264
   0.62500000  0.37500000  0.37423264
   0.62500000  0.37500000  0.87423264
   0.62500000  0.87500000  0.37423264
   0.62500000  0.87500000  0.87423264
   0.25000000  0.25000000  0.00076736
   0.25000000  0.25000000  0.50076736
   0.25000000  0.75000000  0.00076736
   0.25000000  0.75000000  0.50076736
   0.75000000  0.25000000  0.00076736
   0.75000000  0.25000000  0.50076736
   0.75000000  0.75000000  0.00076736
   0.75000000  0.75000000  0.50076736
   0.12500000  0.12500000  0.12423264
   0.12500000  0.12500000  0.62423264
   0.12500000  0.62500000  0.12423264
   0.12500000  0.62500000  0.62423264
   0.62500000  0.12500000  0.12423264
   0.62500000  0.12500000  0.62423264
   0.62500000  0.62500000  0.12423264
   0.62500000  0.62500000  0.62423264
