  64  64   0   0
  0.1907852E+02  0.1072394E-08  0.1067059E-08  0.1067056E-08  0.5000000E-15
  1.000000000000000E-004
  CAR 
 Si64                                    
     11.78026953     -8.03907045  301      6.55036503      1.00000000
     -8.039  0.0000E+00  0.0000E+00
     -7.973  0.0000E+00  0.0000E+00
     -7.907  0.0000E+00  0.0000E+00
     -7.841  0.0000E+00  0.0000E+00
     -7.775  0.0000E+00  0.0000E+00
     -7.709  0.0000E+00  0.0000E+00
     -7.643 -0.1713E-28 -0.1132E-29
     -7.577 -0.2925E-26 -0.1943E-27
     -7.511 -0.4024E-24 -0.2678E-25
     -7.444 -0.4442E-22 -0.2961E-23
     -7.378 -0.3930E-20 -0.2626E-21
     -7.312 -0.2788E-18 -0.1868E-19
     -7.246 -0.1584E-16 -0.1065E-17
     -7.180 -0.7000E-15 -0.4731E-16
     -7.114 -0.2536E-13 -0.1723E-14
     -7.048 -0.7353E-12 -0.5030E-13
     -6.982 -0.1702E-10 -0.1174E-11
     -6.916 -0.3138E-09 -0.2191E-10
     -6.850 -0.4604E-08 -0.3261E-09
     -6.784 -0.5359E-07 -0.3867E-08
     -6.718 -0.4931E-06 -0.3644E-07
     -6.652 -0.3567E-05 -0.2721E-06
     -6.586 -0.2013E-04 -0.1602E-05
     -6.520 -0.8752E-04 -0.7384E-05
     -6.454 -0.2863E-03 -0.2630E-04
     -6.387 -0.6722E-03 -0.7071E-04
     -6.321 -0.9909E-03 -0.1362E-03
     -6.255 -0.3562E-03 -0.1597E-03
     -6.189  0.2271E-02 -0.9682E-05
     -6.123  0.6474E-02  0.4180E-03
     -6.057  0.1013E-01  0.1087E-02
     -5.991  0.1357E-01  0.1984E-02
     -5.925  0.2350E-01  0.3536E-02
     -5.859  0.4643E-01  0.6604E-02
     -5.793  0.7541E-01  0.1159E-01
     -5.727  0.9402E-01  0.1780E-01
     -5.661  0.1016E+00  0.2451E-01
     -5.595  0.1204E+00  0.3247E-01
     -5.529  0.1611E+00  0.4311E-01
     -5.463  0.1959E+00  0.5605E-01
     -5.396  0.1926E+00  0.6877E-01
     -5.330  0.1611E+00  0.7941E-01
     -5.264  0.1373E+00  0.8848E-01
     -5.198  0.1300E+00  0.9707E-01
     -5.132  0.1175E+00  0.1048E+00
     -5.066  0.9200E-01  0.1109E+00
     -5.000  0.7147E-01  0.1156E+00
     -4.934  0.7004E-01  0.1203E+00
     -4.868  0.8971E-01  0.1262E+00
     -4.802  0.1428E+00  0.1356E+00
     -4.736  0.2416E+00  0.1516E+00
     -4.670  0.3556E+00  0.1751E+00
     -4.604  0.4260E+00  0.2032E+00
     -4.538  0.4409E+00  0.2323E+00
     -4.472  0.4423E+00  0.2616E+00
     -4.406  0.4393E+00  0.2906E+00
     -4.339  0.3828E+00  0.3159E+00
     -4.273  0.2503E+00  0.3324E+00
     -4.207  0.9632E-01  0.3388E+00
     -4.141 -0.5582E-02  0.3384E+00
     -4.075 -0.2431E-01  0.3368E+00
     -4.009  0.3521E-01  0.3391E+00
     -3.943  0.1575E+00  0.3495E+00
     -3.877  0.3147E+00  0.3703E+00
     -3.811  0.4555E+00  0.4004E+00
     -3.745  0.5188E+00  0.4347E+00
     -3.679  0.4760E+00  0.4661E+00
     -3.613  0.3613E+00  0.4900E+00
     -3.547  0.2510E+00  0.5066E+00
     -3.481  0.2135E+00  0.5207E+00
     -3.415  0.2781E+00  0.5391E+00
     -3.348  0.4218E+00  0.5669E+00
     -3.282  0.5748E+00  0.6049E+00
     -3.216  0.6651E+00  0.6488E+00
     -3.150  0.6720E+00  0.6932E+00
     -3.084  0.6239E+00  0.7345E+00
     -3.018  0.5515E+00  0.7709E+00
     -2.952  0.4715E+00  0.8020E+00
     -2.886  0.4130E+00  0.8293E+00
     -2.820  0.4043E+00  0.8560E+00
     -2.754  0.4162E+00  0.8835E+00
     -2.688  0.3738E+00  0.9082E+00
     -2.622  0.2508E+00  0.9248E+00
     -2.556  0.1051E+00  0.9317E+00
     -2.490  0.6055E-02  0.9321E+00
     -2.424 -0.3105E-01  0.9301E+00
     -2.358 -0.2759E-01  0.9283E+00
     -2.291  0.4226E-02  0.9286E+00
     -2.225  0.6691E-01  0.9330E+00
     -2.159  0.1466E+00  0.9427E+00
     -2.093  0.1983E+00  0.9558E+00
     -2.027  0.1812E+00  0.9677E+00
     -1.961  0.1046E+00  0.9746E+00
     -1.895  0.2882E-01  0.9765E+00
     -1.829  0.2318E-01  0.9781E+00
     -1.763  0.1269E+00  0.9865E+00
     -1.697  0.3225E+00  0.1008E+01
     -1.631  0.5255E+00  0.1042E+01
     -1.565  0.6219E+00  0.1084E+01
     -1.499  0.5520E+00  0.1120E+01
     -1.433  0.3603E+00  0.1144E+01
     -1.367  0.1570E+00  0.1154E+01
     -1.300  0.3577E-01  0.1157E+01
     -1.234  0.2685E-01  0.1158E+01
     -1.168  0.9901E-01  0.1165E+01
     -1.102  0.1846E+00  0.1177E+01
     -1.036  0.2198E+00  0.1192E+01
     -0.970  0.1930E+00  0.1204E+01
     -0.904  0.1598E+00  0.1215E+01
     -0.838  0.1911E+00  0.1228E+01
     -0.772  0.2887E+00  0.1247E+01
     -0.706  0.3656E+00  0.1271E+01
     -0.640  0.3426E+00  0.1293E+01
     -0.574  0.2650E+00  0.1311E+01
     -0.508  0.2805E+00  0.1329E+01
     -0.442  0.4831E+00  0.1361E+01
     -0.376  0.7969E+00  0.1414E+01
     -0.310  0.1023E+01  0.1482E+01
     -0.243  0.9994E+00  0.1548E+01
     -0.177  0.7281E+00  0.1596E+01
     -0.111  0.3638E+00  0.1620E+01
     -0.045  0.8306E-01  0.1625E+01
      0.021 -0.2626E-01  0.1624E+01
      0.087  0.2952E-01  0.1625E+01
      0.153  0.1883E+00  0.1638E+01
      0.219  0.3503E+00  0.1661E+01
      0.285  0.4148E+00  0.1688E+01
      0.351  0.3533E+00  0.1712E+01
      0.417  0.2293E+00  0.1727E+01
      0.483  0.1283E+00  0.1735E+01
      0.549  0.9484E-01  0.1742E+01
      0.615  0.1385E+00  0.1751E+01
      0.681  0.2522E+00  0.1767E+01
      0.748  0.3988E+00  0.1794E+01
      0.814  0.5043E+00  0.1827E+01
      0.880  0.4962E+00  0.1860E+01
      0.946  0.3669E+00  0.1884E+01
      1.012  0.1880E+00  0.1897E+01
      1.078  0.4877E-01  0.1900E+01
      1.144 -0.1495E-01  0.1899E+01
      1.210 -0.2505E-01  0.1897E+01
      1.276 -0.1869E-01  0.1896E+01
      1.342 -0.1777E-01  0.1895E+01
      1.408 -0.2511E-01  0.1893E+01
      1.474 -0.2537E-01  0.1891E+01
      1.540  0.1573E-01  0.1892E+01
      1.606  0.1344E+00  0.1901E+01
      1.672  0.3284E+00  0.1923E+01
      1.738  0.5346E+00  0.1958E+01
      1.805  0.6692E+00  0.2003E+01
      1.871  0.6904E+00  0.2048E+01
      1.937  0.6134E+00  0.2089E+01
      2.003  0.4879E+00  0.2121E+01
      2.069  0.3842E+00  0.2146E+01
      2.135  0.3605E+00  0.2170E+01
      2.201  0.4020E+00  0.2197E+01
      2.267  0.4202E+00  0.2224E+01
      2.333  0.3579E+00  0.2248E+01
      2.399  0.2840E+00  0.2267E+01
      2.465  0.3552E+00  0.2290E+01
      2.531  0.6636E+00  0.2334E+01
      2.597  0.1111E+01  0.2408E+01
      2.663  0.1441E+01  0.2503E+01
      2.729  0.1424E+01  0.2597E+01
      2.796  0.1055E+01  0.2667E+01
      2.862  0.5505E+00  0.2703E+01
      2.928  0.1517E+00  0.2713E+01
      2.994 -0.5087E-01  0.2710E+01
      3.060 -0.1039E+00  0.2703E+01
      3.126 -0.6503E-01  0.2698E+01
      3.192  0.7172E-01  0.2703E+01
      3.258  0.3333E+00  0.2725E+01
      3.324  0.6798E+00  0.2770E+01
      3.390  0.9960E+00  0.2836E+01
      3.456  0.1184E+01  0.2914E+01
      3.522  0.1231E+01  0.2995E+01
      3.588  0.1175E+01  0.3073E+01
      3.654  0.1047E+01  0.3142E+01
      3.720  0.8710E+00  0.3200E+01
      3.786  0.7018E+00  0.3246E+01
      3.853  0.6283E+00  0.3288E+01
      3.919  0.6854E+00  0.3333E+01
      3.985  0.7684E+00  0.3384E+01
      4.051  0.7172E+00  0.3431E+01
      4.117  0.5134E+00  0.3465E+01
      4.183  0.3183E+00  0.3486E+01
      4.249  0.2868E+00  0.3505E+01
      4.315  0.4060E+00  0.3532E+01
      4.381  0.5455E+00  0.3568E+01
      4.447  0.6162E+00  0.3609E+01
      4.513  0.6331E+00  0.3650E+01
      4.579  0.6419E+00  0.3693E+01
      4.645  0.6510E+00  0.3736E+01
      4.711  0.6594E+00  0.3779E+01
      4.777  0.6938E+00  0.3825E+01
      4.844  0.7751E+00  0.3876E+01
      4.910  0.8669E+00  0.3934E+01
      4.976  0.8803E+00  0.3992E+01
      5.042  0.7446E+00  0.4041E+01
      5.108  0.4831E+00  0.4073E+01
      5.174  0.2114E+00  0.4087E+01
      5.240  0.5435E-01  0.4090E+01
      5.306  0.6626E-01  0.4095E+01
      5.372  0.2089E+00  0.4109E+01
      5.438  0.3746E+00  0.4133E+01
      5.504  0.4451E+00  0.4163E+01
      5.570  0.3730E+00  0.4187E+01
      5.636  0.2132E+00  0.4202E+01
      5.702  0.6563E-01  0.4206E+01
      5.768 -0.4297E-02  0.4206E+01
      5.834  0.1201E-01  0.4206E+01
      5.901  0.8577E-01  0.4212E+01
      5.967  0.1664E+00  0.4223E+01
      6.033  0.2010E+00  0.4236E+01
      6.099  0.1713E+00  0.4248E+01
      6.165  0.1098E+00  0.4255E+01
      6.231  0.6210E-01  0.4259E+01
      6.297  0.4185E-01  0.4262E+01
      6.363  0.3169E-01  0.4264E+01
      6.429  0.1740E-01  0.4265E+01
      6.495  0.7610E-02  0.4266E+01
      6.561  0.2375E-01  0.4267E+01
      6.627  0.7596E-01  0.4272E+01
      6.693  0.1451E+00  0.4282E+01
      6.759  0.1891E+00  0.4294E+01
      6.825  0.1764E+00  0.4306E+01
      6.891  0.1142E+00  0.4313E+01
      6.958  0.4072E-01  0.4316E+01
      7.024 -0.5026E-02  0.4316E+01
      7.090  0.1665E-02  0.4316E+01
      7.156  0.6908E-01  0.4320E+01
      7.222  0.1755E+00  0.4332E+01
      7.288  0.2610E+00  0.4349E+01
      7.354  0.2695E+00  0.4367E+01
      7.420  0.2192E+00  0.4382E+01
      7.486  0.2038E+00  0.4395E+01
      7.552  0.2905E+00  0.4414E+01
      7.618  0.4261E+00  0.4442E+01
      7.684  0.4793E+00  0.4474E+01
      7.750  0.3835E+00  0.4499E+01
      7.816  0.2090E+00  0.4513E+01
      7.882  0.9566E-01  0.4519E+01
      7.949  0.1455E+00  0.4529E+01
      8.015  0.3670E+00  0.4553E+01
      8.081  0.6562E+00  0.4597E+01
      8.147  0.8355E+00  0.4652E+01
      8.213  0.7865E+00  0.4704E+01
      8.279  0.5720E+00  0.4742E+01
      8.345  0.3832E+00  0.4767E+01
      8.411  0.3580E+00  0.4791E+01
      8.477  0.4967E+00  0.4823E+01
      8.543  0.7374E+00  0.4872E+01
      8.609  0.1024E+01  0.4940E+01
      8.675  0.1265E+01  0.5023E+01
      8.741  0.1321E+01  0.5111E+01
      8.807  0.1120E+01  0.5185E+01
      8.873  0.7535E+00  0.5234E+01
      8.939  0.4096E+00  0.5261E+01
      9.006  0.2139E+00  0.5276E+01
      9.072  0.1643E+00  0.5286E+01
      9.138  0.1995E+00  0.5300E+01
      9.204  0.2719E+00  0.5318E+01
      9.270  0.3406E+00  0.5340E+01
      9.336  0.3513E+00  0.5363E+01
      9.402  0.2753E+00  0.5381E+01
      9.468  0.1495E+00  0.5391E+01
      9.534  0.4350E-01  0.5394E+01
      9.600 -0.4432E-02  0.5394E+01
      9.666 -0.3787E-02  0.5394E+01
      9.732  0.1569E-01  0.5395E+01
      9.798  0.2990E-01  0.5397E+01
      9.864  0.2944E-01  0.5399E+01
      9.930  0.1841E-01  0.5400E+01
      9.997  0.6497E-02  0.5400E+01
     10.063 -0.2028E-03  0.5400E+01
     10.129 -0.1843E-02  0.5400E+01
     10.195 -0.1286E-02  0.5400E+01
     10.261 -0.5460E-03  0.5400E+01
     10.327 -0.1655E-03  0.5400E+01
     10.393 -0.3771E-04  0.5400E+01
     10.459 -0.6619E-05  0.5400E+01
     10.525 -0.9065E-06  0.5400E+01
     10.591 -0.9764E-07  0.5400E+01
     10.657 -0.8316E-08  0.5400E+01
     10.723 -0.5621E-09  0.5400E+01
     10.789 -0.3022E-10  0.5400E+01
     10.855 -0.1295E-11  0.5400E+01
     10.921 -0.4431E-13  0.5400E+01
     10.987 -0.1218E-14  0.5400E+01
     11.054 -0.2801E-16  0.5400E+01
     11.120  0.0000E+00  0.5400E+01
     11.186  0.0000E+00  0.5400E+01
     11.252  0.0000E+00  0.5400E+01
     11.318  0.0000E+00  0.5400E+01
     11.384  0.0000E+00  0.5400E+01
     11.450  0.0000E+00  0.5400E+01
     11.516  0.0000E+00  0.5400E+01
     11.582  0.0000E+00  0.5400E+01
     11.648  0.0000E+00  0.5400E+01
     11.714  0.0000E+00  0.5400E+01
     11.780  0.0000E+00  0.5400E+01
