       N       E                     dE             d eps       ncg     rms          rms(c)
DAV:   1     0.569963903829E+03    0.56996E+03   -0.84704E+04  2592   0.107E+03
DAV:   2    -0.310545675070E+03   -0.88051E+03   -0.83513E+03  3104   0.174E+02
DAV:   3    -0.373165868510E+03   -0.62620E+02   -0.61487E+02  3136   0.412E+01
DAV:   4    -0.374732061907E+03   -0.15662E+01   -0.15558E+01  3120   0.796E+00
DAV:   5    -0.374780575319E+03   -0.48513E-01   -0.48413E-01  3102   0.130E+00    0.299E+01
RMM:   6    -0.369058324752E+03    0.57223E+01   -0.29559E+00  2592   0.270E+00    0.181E+01
RMM:   7    -0.366522538548E+03    0.25358E+01   -0.74951E+00  2647   0.430E+00    0.109E+00
RMM:   8    -0.366561261907E+03   -0.38723E-01   -0.70147E-01  2616   0.163E+00    0.522E-01
RMM:   9    -0.366583578870E+03   -0.22317E-01   -0.21027E-01  2676   0.800E-01    0.595E-01
RMM:  10    -0.366587364527E+03   -0.37857E-02   -0.35737E-02  2728   0.373E-01    0.762E-01
RMM:  11    -0.366583684308E+03    0.36802E-02   -0.12235E-02  2592   0.224E-01    0.726E-01
RMM:  12    -0.366583773735E+03   -0.89427E-04   -0.18365E-03  2613   0.101E-01    0.745E-01
RMM:  13    -0.366583821492E+03   -0.47758E-04   -0.33659E-04  2741   0.411E-02    0.790E-01
RMM:  14    -0.366583743002E+03    0.78491E-04   -0.10519E-04  2600   0.250E-02    0.546E-01
RMM:  15    -0.366583896147E+03   -0.15315E-03   -0.66080E-05  2598   0.155E-02    0.481E-01
RMM:  16    -0.366584015346E+03   -0.11920E-03   -0.34133E-05  2592   0.137E-02    0.356E-01
RMM:  17    -0.366584077382E+03   -0.62036E-04   -0.29120E-05  2592   0.129E-02    0.168E-01
RMM:  18    -0.366584090972E+03   -0.13589E-04   -0.84690E-06  2592   0.734E-03    0.518E-02
RMM:  19    -0.366584094109E+03   -0.31370E-05   -0.22653E-06  1637   0.369E-03    0.100E-02
RMM:  20    -0.366584094752E+03   -0.64332E-06   -0.57462E-07  1566   0.174E-03
   1 F= -.36658409E+03 E0= -.36659508E+03  d E =-.366584E+03
       N       E                     dE             d eps       ncg     rms          rms(c)
DAV:   1    -0.366586546519E+03   -0.24524E-02   -0.15253E-01  2968   0.751E-01    0.176E-01
RMM:   2    -0.366587299017E+03   -0.75250E-03   -0.78050E-03  2593   0.187E-01    0.706E-02
RMM:   3    -0.366587408136E+03   -0.10912E-03   -0.12349E-03  2645   0.832E-02    0.296E-02
RMM:   4    -0.366587406437E+03    0.16985E-05   -0.16386E-04  2647   0.344E-02    0.104E-02
RMM:   5    -0.366587407683E+03   -0.12459E-05   -0.28942E-05  2637   0.137E-02    0.233E-03
RMM:   6    -0.366587408390E+03   -0.70738E-06   -0.70500E-06  2138   0.609E-03    0.423E-04
RMM:   7    -0.366587408480E+03   -0.90162E-07   -0.95587E-07  1566   0.225E-03    0.513E-04
RMM:   8    -0.366587408500E+03   -0.19684E-07   -0.22324E-07  1338   0.106E-03
   2 F= -.36658741E+03 E0= -.36659817E+03  d E =-.331375E-02
       N       E                     dE             d eps       ncg     rms          rms(c)
DAV:   1    -0.366588076253E+03   -0.66777E-03   -0.13744E-02  2952   0.225E-01    0.526E-02
RMM:   2    -0.366588142866E+03   -0.66613E-04   -0.68795E-04  2592   0.558E-02    0.212E-02
RMM:   3    -0.366588152365E+03   -0.94989E-05   -0.10692E-04  2643   0.248E-02    0.884E-03
RMM:   4    -0.366588152291E+03    0.73842E-07   -0.14240E-05  2620   0.102E-02    0.315E-03
RMM:   5    -0.366588152403E+03   -0.11235E-06   -0.25115E-06  1752   0.404E-03    0.705E-04
RMM:   6    -0.366588152449E+03   -0.46199E-07   -0.52978E-07  1511   0.173E-03    0.164E-04
RMM:   7    -0.366588152461E+03   -0.11289E-07   -0.12465E-07  1066   0.841E-04    0.171E-04
RMM:   8    -0.366588152465E+03   -0.41518E-08   -0.24232E-08   681   0.532E-04
   3 F= -.36658815E+03 E0= -.36659901E+03  d E =-.405771E-02
