       N       E                     dE             d eps       ncg     rms          rms(c)
DAV:   1     0.566979900369E+03    0.56698E+03   -0.84597E+04  2592   0.107E+03
DAV:   2    -0.310810073664E+03   -0.87779E+03   -0.83209E+03  3096   0.174E+02
DAV:   3    -0.373262188944E+03   -0.62452E+02   -0.61275E+02  3160   0.411E+01
DAV:   4    -0.374844708670E+03   -0.15825E+01   -0.15711E+01  3104   0.791E+00
DAV:   5    -0.374895488550E+03   -0.50780E-01   -0.50691E-01  3094   0.132E+00    0.297E+01
RMM:   6    -0.369286236641E+03    0.56093E+01   -0.28831E+00  2592   0.266E+00    0.179E+01
RMM:   7    -0.366790154055E+03    0.24961E+01   -0.73457E+00  2654   0.424E+00    0.107E+00
RMM:   8    -0.366828201127E+03   -0.38047E-01   -0.67567E-01  2614   0.161E+00    0.513E-01
RMM:   9    -0.366849767759E+03   -0.21567E-01   -0.20207E-01  2674   0.788E-01    0.589E-01
RMM:  10    -0.366853305283E+03   -0.35375E-02   -0.34452E-02  2730   0.368E-01    0.734E-01
RMM:  11    -0.366850005721E+03    0.32996E-02   -0.11531E-02  2592   0.219E-01    0.775E-01
RMM:  12    -0.366850027066E+03   -0.21345E-04   -0.17984E-03  2609   0.101E-01    0.836E-01
RMM:  13    -0.366850091313E+03   -0.64247E-04   -0.34902E-04  2754   0.417E-02    0.869E-01
RMM:  14    -0.366849697539E+03    0.39377E-03   -0.17717E-04  2592   0.308E-02    0.803E-01
RMM:  15    -0.366849937055E+03   -0.23952E-03   -0.90907E-05  2596   0.172E-02    0.756E-01
RMM:  16    -0.366850217814E+03   -0.28076E-03   -0.65177E-05  2592   0.184E-02    0.600E-01
RMM:  17    -0.366850345097E+03   -0.12728E-03   -0.38565E-05  2592   0.146E-02    0.406E-01
RMM:  18    -0.366850405987E+03   -0.60890E-04   -0.14974E-05  2592   0.974E-03    0.233E-01
RMM:  19    -0.366850445374E+03   -0.39388E-04   -0.14481E-05  2596   0.915E-03    0.804E-02
RMM:  20    -0.366850457150E+03   -0.11776E-04   -0.76988E-06  2490   0.662E-03    0.161E-02
RMM:  21    -0.366850459181E+03   -0.20301E-05   -0.17669E-06  1568   0.307E-03    0.176E-02
RMM:  22    -0.366850459864E+03   -0.68372E-06   -0.29231E-07  1552   0.112E-03
   1 F= -.36685046E+03 E0= -.36686126E+03  d E =-.366850E+03
       N       E                     dE             d eps       ncg     rms          rms(c)
DAV:   1    -0.366852805784E+03   -0.23466E-02   -0.14316E-01  2960   0.726E-01    0.169E-01
RMM:   2    -0.366853516929E+03   -0.71114E-03   -0.73822E-03  2593   0.181E-01    0.681E-02
RMM:   3    -0.366853622633E+03   -0.10570E-03   -0.11801E-03  2650   0.809E-02    0.287E-02
RMM:   4    -0.366853621004E+03    0.16294E-05   -0.15394E-04  2646   0.334E-02    0.993E-03
RMM:   5    -0.366853622249E+03   -0.12447E-05   -0.27383E-05  2639   0.133E-02    0.229E-03
RMM:   6    -0.366853622921E+03   -0.67258E-06   -0.65993E-06  2135   0.590E-03    0.367E-04
RMM:   7    -0.366853623008E+03   -0.86804E-07   -0.87653E-07  1552   0.217E-03    0.411E-04
RMM:   8    -0.366853623026E+03   -0.18237E-07   -0.21518E-07  1335   0.103E-03
   2 F= -.36685362E+03 E0= -.36686418E+03  d E =-.316316E-02
       N       E                     dE             d eps       ncg     rms          rms(c)
DAV:   1    -0.366854218187E+03   -0.59518E-03   -0.12406E-02  2960   0.214E-01    0.496E-02
RMM:   2    -0.366854278777E+03   -0.60589E-04   -0.62594E-04  2592   0.530E-02    0.201E-02
RMM:   3    -0.366854287631E+03   -0.88539E-05   -0.97872E-05  2645   0.236E-02    0.839E-03
RMM:   4    -0.366854287581E+03    0.49891E-07   -0.12936E-05  2611   0.976E-03    0.294E-03
RMM:   5    -0.366854287689E+03   -0.10866E-06   -0.23035E-06  1710   0.388E-03    0.688E-04
RMM:   6    -0.366854287734E+03   -0.44120E-07   -0.48500E-07  1500   0.165E-03    0.157E-04
RMM:   7    -0.366854287746E+03   -0.12153E-07   -0.11493E-07  1036   0.814E-04    0.163E-04
RMM:   8    -0.366854287748E+03   -0.23192E-08   -0.21462E-08   650   0.520E-04
   3 F= -.36685429E+03 E0= -.36686495E+03  d E =-.382788E-02
