<?xml version="1.0" encoding="ISO-8859-1"?>
<modeling>
 <generator>
  <i name="program" type="string">vasp </i>
  <i name="version" type="string">6.4.3  </i>
  <i name="subversion" type="string">19Mar24 (build Oct 21 2024 22:36:34) complex                          parallel </i>
  <i name="platform" type="string">LinuxIFC </i>
  <i name="date" type="string">2024 11 01 </i>
  <i name="time" type="string">22:50:56 </i>
 </generator>
 <incar>
  <i type="string" name="SYSTEM">Si64</i>
  <i type="int" name="ISTART">     0</i>
  <i type="string" name="PREC">Accurate</i>
  <i type="string" name="ALGO">Fast</i>
  <i type="logical" name="ADDGRID"> T  </i>
  <i type="int" name="ICHARG">     2</i>
  <i type="int" name="NELM">    60</i>
  <i type="int" name="NELMIN">     8</i>
  <i type="int" name="IBRION">     2</i>
  <i name="EDIFF">      0.00000100</i>
  <i name="EDIFFG">     -0.01000000</i>
  <i type="int" name="NSW">    60</i>
  <i type="int" name="ISIF">     2</i>
  <i name="ENCUT">    400.00000000</i>
  <i type="string" name="LREAL">Auto</i>
  <i type="int" name="ISMEAR">     1</i>
  <i name="SIGMA">      0.20000000</i>
  <i type="logical" name="LWAVE"> F  </i>
  <i type="logical" name="LCHARG"> F  </i>
  <i type="logical" name="GGA_COMPAT"> F  </i>
  <i type="string" name="GGA">PS</i>
 </incar>
 <primitive_cell>
  <structure name="primitive_cell" >
   <crystal>
    <varray name="basis" >
     <v>      -2.66939739       0.00670700      -2.68281140 </v>
     <v>      -2.66939739       0.00670700       2.68281140 </v>
     <v>       2.66269039       2.67610440      -0.00000000 </v>
    </varray>
    <i name="volume">     38.42561126 </i>
    <varray name="rec_basis" >
     <v>      -0.18684110       0.18590455      -0.18637166 </v>
     <v>      -0.18684110       0.18590455       0.18637166 </v>
     <v>       0.00093654       0.37274565       0.00000000 </v>
    </varray>
   </crystal>
   <varray name="positions" >
    <v>       0.00000000       0.00000000       0.00000000 </v>
    <v>       0.75000000       0.25000000       0.50000000 </v>
   </varray>
  </structure>
  <varray name="primitive_index" >
   <v type="int" >        1 </v>
   <v type="int" >       15 </v>
  </varray>
 </primitive_cell>
 <kpoints>
  <generation param="Gamma">
   <v type="int" name="divisions">       2        2        2 </v>
   <v name="usershift">      0.00000000       0.00000000       0.00000000 </v>
   <v name="genvec1">      0.50000000       0.00000000       0.00000000 </v>
   <v name="genvec2">      0.00000000       0.50000000       0.00000000 </v>
   <v name="genvec3">      0.00000000       0.00000000       0.50000000 </v>
   <v name="shift">      0.00000000       0.00000000       0.00000000 </v>
  </generation>
  <varray name="kpointlist" >
   <v>       0.00000000       0.00000000       0.00000000 </v>
   <v>       0.50000000       0.00000000       0.00000000 </v>
   <v>      -0.00000000       0.50000000       0.00000000 </v>
   <v>       0.50000000       0.50000000       0.00000000 </v>
   <v>       0.00000000       0.00000000       0.50000000 </v>
   <v>       0.50000000       0.00000000       0.50000000 </v>
   <v>      -0.00000000       0.50000000       0.50000000 </v>
   <v>       0.50000000       0.50000000       0.50000000 </v>
  </varray>
  <varray name="weights" >
   <v>       0.12500000 </v>
   <v>       0.12500000 </v>
   <v>       0.12500000 </v>
   <v>       0.12500000 </v>
   <v>       0.12500000 </v>
   <v>       0.12500000 </v>
   <v>       0.12500000 </v>
   <v>       0.12500000 </v>
  </varray>
 </kpoints>
 <parameters>
  <separator name="general" >
   <i type="string" name="SYSTEM">Si64</i>
   <i type="logical" name="LCOMPAT"> F  </i>
  </separator>
  <separator name="electronic" >
   <i type="string" name="PREC">accura</i>
   <i name="ENMAX">    400.00000000</i>
   <i name="ENAUG">    322.06900000</i>
   <i name="EDIFF">      0.00000100</i>
   <i type="int" name="IALGO">    68</i>
   <i type="int" name="IWAVPR">    11</i>
   <i type="int" name="NBANDS">   162</i>
   <i type="int" name="NBANDSLOW">    -1</i>
   <i type="int" name="NBANDSHIGH">    -1</i>
   <i name="NELECT">    256.00000000</i>
   <i type="int" name="TURBO">     0</i>
   <i type="int" name="IRESTART">     0</i>
   <i type="int" name="NREBOOT">     0</i>
   <i type="int" name="NMIN">     0</i>
   <i name="EREF">      0.00000000</i>
   <separator name="electronic smearing" >
    <i type="int" name="ISMEAR">     1</i>
    <i name="SIGMA">      0.20000000</i>
    <i name="KSPACING">      0.50000000</i>
    <i type="logical" name="KGAMMA"> T  </i>
    <i type="logical" name="KBLOWUP"> T  </i>
   </separator>
   <separator name="electronic projectors" >
    <i type="logical" name="LREAL"> T  </i>
    <v name="ROPT">     -0.00025000</v>
    <i type="int" name="LMAXPAW">  -100</i>
    <i type="int" name="LMAXMIX">     2</i>
    <i type="logical" name="NLSPLINE"> F  </i>
   </separator>
   <separator name="electronic startup" >
    <i type="int" name="ISTART">     0</i>
    <i type="int" name="ICHARG">     2</i>
    <i type="int" name="INIWAV">     1</i>
   </separator>
   <separator name="electronic spin" >
    <i type="int" name="ISPIN">     1</i>
    <i type="logical" name="LNONCOLLINEAR"> F  </i>
    <v name="MAGMOM">      1.00000000      1.00000000      1.00000000      1.00000000      1.00000000      1.00000000      1.00000000      1.00000000      1.00000000      1.00000000      1.00000000      1.00000000      1.00000000      1.00000000      1.00000000      1.00000000      1.00000000      1.00000000      1.00000000      1.00000000
      1.00000000      1.00000000      1.00000000      1.00000000      1.00000000      1.00000000      1.00000000      1.00000000      1.00000000      1.00000000      1.00000000      1.00000000      1.00000000      1.00000000      1.00000000      1.00000000      1.00000000      1.00000000      1.00000000      1.00000000
      1.00000000      1.00000000      1.00000000      1.00000000      1.00000000      1.00000000      1.00000000      1.00000000      1.00000000      1.00000000      1.00000000      1.00000000      1.00000000      1.00000000      1.00000000      1.00000000      1.00000000      1.00000000      1.00000000      1.00000000
      1.00000000      1.00000000      1.00000000      1.00000000</v>
    <i name="NUPDOWN">     -1.00000000</i>
    <i type="logical" name="LSORBIT"> F  </i>
    <v name="SAXIS">      0.00000000      0.00000000      1.00000000</v>
    <i type="logical" name="LSPIRAL"> F  </i>
    <v name="QSPIRAL">      0.00000000      0.00000000      0.00000000</v>
    <i type="logical" name="LZEROZ"> F  </i>
   </separator>
   <separator name="electronic exchange-correlation" >
    <i type="logical" name="LASPH"> F  </i>
   </separator>
   <separator name="electronic convergence" >
    <i type="int" name="NELM">    60</i>
    <i type="int" name="NELMDL">    -5</i>
    <i type="int" name="NELMIN">     8</i>
    <i name="ENINI">    400.00000000</i>
    <separator name="electronic convergence detail" >
     <i type="logical" name="LDIAG"> T  </i>
     <i type="logical" name="LSUBROT"> F  </i>
     <i name="WEIMIN">      0.00100000</i>
     <i name="EBREAK">      0.00000000</i>
     <i name="DEPER">      0.30000000</i>
     <i type="int" name="NRMM">     4</i>
     <i name="TIME">      0.40000000</i>
    </separator>
   </separator>
   <separator name="electronic mixer" >
    <i name="AMIX">      0.40000000</i>
    <i name="BMIX">      1.00000000</i>
    <i name="AMIN">      0.10000000</i>
    <i name="AMIX_MAG">      1.60000000</i>
    <i name="BMIX_MAG">      1.00000000</i>
    <separator name="electronic mixer details" >
     <i type="int" name="IMIX">     4</i>
     <i type="logical" name="MIXFIRST"> F  </i>
     <i type="int" name="MAXMIX">   -45</i>
     <i name="WC">    100.00000000</i>
     <i type="int" name="INIMIX">     1</i>
     <i type="int" name="MIXPRE">     1</i>
     <i type="int" name="MREMOVE">     5</i>
    </separator>
   </separator>
   <separator name="electronic dipolcorrection" >
    <i type="logical" name="LDIPOL"> F  </i>
    <i type="logical" name="LMONO"> F  </i>
    <i type="int" name="IDIPOL">     0</i>
    <i name="EPSILON">      1.00000000</i>
    <v name="DIPOL">   -100.00000000   -100.00000000   -100.00000000</v>
    <i name="EFIELD">      0.00000000</i>
    <i type="logical" name="LVACPOTAV"> F  </i>
   </separator>
  </separator>
  <separator name="grids" >
   <i type="int" name="NGX">    70</i>
   <i type="int" name="NGY">    70</i>
   <i type="int" name="NGZ">    70</i>
   <i type="int" name="NGXF">   140</i>
   <i type="int" name="NGYF">   140</i>
   <i type="int" name="NGZF">   140</i>
   <i type="logical" name="ADDGRID"> T  </i>
  </separator>
  <separator name="ionic" >
   <i type="int" name="NSW">    60</i>
   <i type="int" name="IBRION">     2</i>
   <i type="int" name="MDALGO">     0</i>
   <i type="int" name="ISIF">     2</i>
   <i name="PSTRESS">      0.00000000</i>
   <i name="EDIFFG">     -0.01000000</i>
   <i type="int" name="NFREE">     1</i>
   <i name="POTIM">      0.50000000</i>
   <i name="SMASS">     -3.00000000</i>
   <i name="SCALEE">      1.00000000</i>
  </separator>
  <separator name="ionic md" >
   <i name="TEBEG">      0.00010000</i>
   <i name="TEEND">      0.00010000</i>
   <i type="int" name="NBLOCK">     1</i>
   <i type="int" name="KBLOCK">    60</i>
   <i type="int" name="NPACO">   256</i>
   <i name="APACO">     10.00000000</i>
  </separator>
  <separator name="symmetry" >
   <i type="int" name="ISYM">     2</i>
   <i name="SYMPREC">      0.00001000</i>
  </separator>
  <separator name="dos" >
   <i type="int" name="LORBIT">     0</i>
   <v name="RWIGS">     -1.00000000</v>
   <i type="int" name="NEDOS">   301</i>
   <i name="EMIN">     10.00000000</i>
   <i name="EMAX">    -10.00000000</i>
   <i name="EFERMI">      0.00000000</i>
  </separator>
  <separator name="writing" >
   <i type="int" name="NWRITE">     2</i>
   <i type="logical" name="LWAVE"> F  </i>
   <i type="logical" name="LDOWNSAMPLE"> F  </i>
   <i type="logical" name="LCHARG"> F  </i>
   <i type="logical" name="LPARD"> F  </i>
   <i type="logical" name="LVTOT"> F  </i>
   <i type="logical" name="LVHAR"> F  </i>
   <i type="logical" name="LELF"> F  </i>
   <i type="logical" name="LOPTICS"> F  </i>
   <v name="STM">      0.00000000      0.00000000      0.00000000      0.00000000      0.00000000      0.00000000      0.00000000</v>
  </separator>
  <separator name="performance" >
   <i type="int" name="NPAR">     2</i>
   <i type="int" name="NSIM">     4</i>
   <i type="int" name="NBLK">    -1</i>
   <i type="logical" name="LPLANE"> T  </i>
   <i type="logical" name="LSCALAPACK"> T  </i>
   <i type="logical" name="LSCAAWARE"> F  </i>
   <i type="logical" name="LSCALU"> F  </i>
   <i type="logical" name="LASYNC"> F  </i>
   <i type="logical" name="LORBITALREAL"> F  </i>
  </separator>
  <separator name="miscellaneous" >
   <i type="int" name="IDIOT">     3</i>
   <i type="int" name="PHON_NSTRUCT">    -1</i>
   <i type="logical" name="LMUSIC"> F  </i>
   <v name="POMASS">     28.08500000</v>
   <v name="DARWINR">      0.00000000</v>
   <v name="DARWINV">      1.00000000</v>
   <i type="logical" name="LCORR"> T  </i>
  </separator>
  <i type="logical" name="GGA_COMPAT"> F  </i>
  <i type="logical" name="LBERRY"> F  </i>
  <i type="int" name="ICORELEVEL">     0</i>
  <i type="logical" name="LDAU"> F  </i>
  <i type="int" name="I_CONSTRAINED_M">     0</i>
  <separator name="electronic exchange-correlation" >
   <i type="string" name="GGA    ">PS</i>
   <i type="string" name="XC_C">1</i>
   <i type="int" name="VOSKOWN">     0</i>
   <i type="logical" name="LHFCALC"> F  </i>
   <i type="string" name="PRECFOCK"></i>
   <i type="logical" name="LSYMGRAD"> F  </i>
   <i type="logical" name="LHFONE"> F  </i>
   <i type="logical" name="LRHFCALC"> F  </i>
   <i type="logical" name="LTHOMAS"> F  </i>
   <i type="logical" name="LMODELHF"> F  </i>
   <i type="logical" name="LFOCKACE"> F  </i>
   <i name="ENCUT4O">     -1.00000000</i>
   <i type="int" name="EXXOEP">     0</i>
   <i type="int" name="FOURORBIT">     0</i>
   <i name="AEXX">      0.00000000</i>
   <i name="HFALPHA">      0.00000000</i>
   <i name="MCALPHA">      0.00000000</i>
   <i name="ALDAX">      1.00000000</i>
   <i name="AGGAX">      1.00000000</i>
   <i name="AMGGAX">      1.00000000</i>
   <i name="ALDAC">      1.00000000</i>
   <i name="AGGAC">      1.00000000</i>
   <i name="AMGGAC">      1.00000000</i>
   <i type="int" name="NKREDX">     1</i>
   <i type="int" name="NKREDY">     1</i>
   <i type="int" name="NKREDZ">     1</i>
   <i type="logical" name="SHIFTRED"> F  </i>
   <i type="logical" name="ODDONLY"> F  </i>
   <i type="logical" name="EVENONLY"> F  </i>
   <i type="int" name="LMAXFOCK">     0</i>
   <i type="int" name="NMAXFOCKAE">     0</i>
   <i type="logical" name="LFOCKAEDFT"> F  </i>
   <i name="HFSCREEN">      0.00000000</i>
   <i name="HFSCREENC">      0.00000000</i>
   <i type="int" name="NBANDSGWLOW">     0</i>
  </separator>
  <separator name="vdW DFT" >
   <i type="logical" name="LUSE_VDW"> F  </i>
   <i type="int" name="IVDW_NL">    -1</i>
   <i type="logical" name="LSPIN_VDW"> F  </i>
   <i name="ZAB_VDW">     -0.84910000</i>
   <i name="GAMMA_VDW">      1.39626340</i>
   <i name="ALPHA_VDW">      0.00000000</i>
   <i name="PARAM1">      0.12340000</i>
   <i name="PARAM2">      1.00000000</i>
   <i name="BPARAM">      6.30000000</i>
   <i name="CPARAM">      0.00930000</i>
  </separator>
  <separator name="model GW" >
   <i type="int" name="MODEL_GW">     0</i>
   <i name="MODEL_EPS0">     11.52768338</i>
   <i name="MODEL_ALPHA">      1.00000000</i>
  </separator>
  <separator name="linear response parameters" >
   <i type="logical" name="LEPSILON"> F  </i>
   <i type="logical" name="LRPA"> F  </i>
   <i type="logical" name="LNABLA"> F  </i>
   <i type="logical" name="LVEL"> F  </i>
   <i name="CSHIFT">      0.10000000</i>
   <i name="OMEGAMAX">     -1.00000000</i>
   <i name="DEG_THRESHOLD">      0.00200000</i>
   <i name="RTIME">     -0.10000000</i>
   <i name="WPLASMAI">      0.00000000</i>
   <v name="DFIELD">      0.00000000      0.00000000      0.00000000</v>
   <v name="WPLASMA">      0.00000000      0.00000000      0.00000000      0.00000000      0.00000000      0.00000000      0.00000000      0.00000000      0.00000000</v>
  </separator>
  <separator name="orbital magnetization" >
   <i type="logical" name="NUCIND"> F  </i>
   <v name="MAGPOS">      0.00000000      0.00000000      0.00000000</v>
   <i type="logical" name="LNICSALL"> T  </i>
   <i type="logical" name="ORBITALMAG"> F  </i>
   <i type="logical" name="LMAGBLOCH"> F  </i>
   <i type="logical" name="LCHIMAG"> F  </i>
   <i type="logical" name="LGAUGE"> T  </i>
   <i type="int" name="MAGATOM">     0</i>
   <v name="MAGDIPOL">      0.00000000      0.00000000      0.00000000</v>
   <v name="AVECCONST">      0.00000000      0.00000000      0.00000000</v>
  </separator>
  <separator name="response functions" >
   <i type="logical" name="LALL_IN_ONE"> F  </i>
   <i type="int" name="IALL_IN_ONE">    -1</i>
   <i type="int" name="NBANDS_WAVE">    -1</i>
   <i type="logical" name="LFINITE_TEMPERATURE"> F  </i>
   <i type="logical" name="LADDER"> F  </i>
   <i type="logical" name="LRPAFORCE"> F  </i>
   <i type="logical" name="LFXC"> F  </i>
   <i type="logical" name="LHARTREE"> T  </i>
   <i type="int" name="IBSE">     0</i>
   <v type="int" name="KPOINT">    -1     0     0     0</v>
   <i type="logical" name="LTCTC"> F  </i>
   <i type="logical" name="LTCTE"> F  </i>
   <i type="logical" name="LTETE"> F  </i>
   <i type="logical" name="LTRIPLET"> F  </i>
   <i type="logical" name="LFXCEPS"> F  </i>
   <i type="logical" name="LFXHEG"> F  </i>
   <i type="int" name="NATURALO">     2</i>
   <i type="logical" name="LHOLEGF"> F  </i>
   <i type="logical" name="L2ORDER"> F  </i>
   <i type="logical" name="LDMP1"> F  </i>
   <i type="logical" name="LMP2LT"> F  </i>
   <i type="logical" name="LSMP2LT"> F  </i>
   <i type="logical" name="LGWLF"> F  </i>
   <i name="ENCUTGW">     -1.60000002</i>
   <i name="ENCUTGWSOFT">     -1.60000002</i>
   <i name="ENCUTLF">     -1.00000000</i>
   <i type="logical" name="ESF_SPLINES"> F  </i>
   <i name="ESF_CONV">      0.01000000</i>
   <i type="int" name="ESF_NINTER">    15</i>
   <i type="int" name="LMAXMP2">    -1</i>
   <i name="SCISSOR">      0.00000000</i>
   <i type="int" name="NOMEGA">     0</i>
   <i type="int" name="NOMEGAR">     0</i>
   <i type="int" name="NBANDSGW">    -1</i>
   <i type="int" name="NBANDSO">    -1</i>
   <i type="int" name="NBANDSV">    -1</i>
   <i type="int" name="NELMGW">     1</i>
   <i type="int" name="NELMHF">     1</i>
   <i type="int" name="DIM">     3</i>
   <i type="int" name="IESPILON">     4</i>
   <i type="int" name="ANTIRES">     0</i>
   <i name="OMEGAMAX">    -30.00000000</i>
   <i name="OMEGAMIN">    -30.00000000</i>
   <i name="OMEGATL">   -200.00000000</i>
   <i type="int" name="OMEGAGRID">     0</i>
   <i name="CSHIFT">     -0.10000000</i>
   <i type="logical" name="LSELFENERGY"> F  </i>
   <i type="logical" name="LSPECTRAL"> F  </i>
   <i type="logical" name="LSPECTRALGW"> F  </i>
   <i type="logical" name="LSINGLES"> F  </i>
   <i type="logical" name="LFERMIGW"> F  </i>
   <i type="logical" name="ODDONLYGW"> F  </i>
   <i type="logical" name="EVENONLYGW"> F  </i>
   <i type="int" name="NKREDLFX">     1</i>
   <i type="int" name="NKREDLFY">     1</i>
   <i type="int" name="NKREDLFZ">     1</i>
   <i type="int" name="MAXMEM">  2800</i>
   <i type="int" name="TELESCOPE">     0</i>
   <i type="int" name="NTAUPAR">    -1</i>
   <i type="int" name="NOMEGAPAR">    -1</i>
   <i name="DAMP_NEWTON">      0.80000001</i>
   <i name="LAMBDA">      1.00000000</i>
  </separator>
  <separator name="External order field" >
   <i name="OFIELD_KAPPA">      0.00000000</i>
   <v name="OFIELD_K">      0.00000000      0.00000000      0.00000000</v>
   <i name="OFIELD_Q6_NEAR">      0.00000000</i>
   <i name="OFIELD_Q6_FAR">      0.00000000</i>
   <i name="OFIELD_A">      0.00000000</i>
  </separator>
  <separator name="optional k-points parameters" >
   <i type="int" name="KPOINTS_OPT_MODE">     1</i>
   <i type="logical" name="LKPOINTS_OPT"> F  </i>
  </separator>
 </parameters>
 <atominfo>
  <atoms>      64 </atoms>
  <types>       1 </types>
  <array name="atoms" >
   <dimension dim="1">ion</dimension>
   <field type="string">element</field>
   <field type="int">atomtype</field>
   <set>
    <rc><c>Si</c><c>   1</c></rc>
    <rc><c>Si</c><c>   1</c></rc>
    <rc><c>Si</c><c>   1</c></rc>
    <rc><c>Si</c><c>   1</c></rc>
    <rc><c>Si</c><c>   1</c></rc>
    <rc><c>Si</c><c>   1</c></rc>
    <rc><c>Si</c><c>   1</c></rc>
    <rc><c>Si</c><c>   1</c></rc>
    <rc><c>Si</c><c>   1</c></rc>
    <rc><c>Si</c><c>   1</c></rc>
    <rc><c>Si</c><c>   1</c></rc>
    <rc><c>Si</c><c>   1</c></rc>
    <rc><c>Si</c><c>   1</c></rc>
    <rc><c>Si</c><c>   1</c></rc>
    <rc><c>Si</c><c>   1</c></rc>
    <rc><c>Si</c><c>   1</c></rc>
    <rc><c>Si</c><c>   1</c></rc>
    <rc><c>Si</c><c>   1</c></rc>
    <rc><c>Si</c><c>   1</c></rc>
    <rc><c>Si</c><c>   1</c></rc>
    <rc><c>Si</c><c>   1</c></rc>
    <rc><c>Si</c><c>   1</c></rc>
    <rc><c>Si</c><c>   1</c></rc>
    <rc><c>Si</c><c>   1</c></rc>
    <rc><c>Si</c><c>   1</c></rc>
    <rc><c>Si</c><c>   1</c></rc>
    <rc><c>Si</c><c>   1</c></rc>
    <rc><c>Si</c><c>   1</c></rc>
    <rc><c>Si</c><c>   1</c></rc>
    <rc><c>Si</c><c>   1</c></rc>
    <rc><c>Si</c><c>   1</c></rc>
    <rc><c>Si</c><c>   1</c></rc>
    <rc><c>Si</c><c>   1</c></rc>
    <rc><c>Si</c><c>   1</c></rc>
    <rc><c>Si</c><c>   1</c></rc>
    <rc><c>Si</c><c>   1</c></rc>
    <rc><c>Si</c><c>   1</c></rc>
    <rc><c>Si</c><c>   1</c></rc>
    <rc><c>Si</c><c>   1</c></rc>
    <rc><c>Si</c><c>   1</c></rc>
    <rc><c>Si</c><c>   1</c></rc>
    <rc><c>Si</c><c>   1</c></rc>
    <rc><c>Si</c><c>   1</c></rc>
    <rc><c>Si</c><c>   1</c></rc>
    <rc><c>Si</c><c>   1</c></rc>
    <rc><c>Si</c><c>   1</c></rc>
    <rc><c>Si</c><c>   1</c></rc>
    <rc><c>Si</c><c>   1</c></rc>
    <rc><c>Si</c><c>   1</c></rc>
    <rc><c>Si</c><c>   1</c></rc>
    <rc><c>Si</c><c>   1</c></rc>
    <rc><c>Si</c><c>   1</c></rc>
    <rc><c>Si</c><c>   1</c></rc>
    <rc><c>Si</c><c>   1</c></rc>
    <rc><c>Si</c><c>   1</c></rc>
    <rc><c>Si</c><c>   1</c></rc>
    <rc><c>Si</c><c>   1</c></rc>
    <rc><c>Si</c><c>   1</c></rc>
    <rc><c>Si</c><c>   1</c></rc>
    <rc><c>Si</c><c>   1</c></rc>
    <rc><c>Si</c><c>   1</c></rc>
    <rc><c>Si</c><c>   1</c></rc>
    <rc><c>Si</c><c>   1</c></rc>
    <rc><c>Si</c><c>   1</c></rc>
   </set>
  </array>
  <array name="atomtypes" >
   <dimension dim="1">type</dimension>
   <field type="int">atomspertype</field>
   <field type="string">element</field>
   <field>mass</field>
   <field>valence</field>
   <field type="string">pseudopotential</field>
   <set>
    <rc><c>  64</c><c>Si</c><c>     28.08500000</c><c>      4.00000000</c><c>  PAW_PBE Si 05Jan2001                  </c></rc>
   </set>
  </array>
 </atominfo>
 <structure name="initialpos" >
  <crystal>
   <varray name="basis" >
    <v>      10.67758958      -0.02682800       0.00000000 </v>
    <v>      -0.02682800      10.73124558       0.00000000 </v>
    <v>       0.00000000       0.00000000      10.73124558 </v>
   </varray>
   <i name="volume">   1229.61956047 </i>
   <varray name="rec_basis" >
    <v>       0.09365468       0.00023414       0.00000000 </v>
    <v>       0.00023414       0.09318641       0.00000000 </v>
    <v>       0.00000000       0.00000000       0.09318583 </v>
   </varray>
  </crystal>
  <varray name="positions" >
   <v>       0.00000000       0.00000000       0.00000000 </v>
   <v>       0.00000000       0.00000000       0.50000000 </v>
   <v>       0.00000000       0.50000000       0.00000000 </v>
   <v>       0.00000000       0.50000000       0.50000000 </v>
   <v>       0.50000000       0.00000000       0.00000000 </v>
   <v>       0.50000000       0.00000000       0.50000000 </v>
   <v>       0.50000000       0.50000000       0.00000000 </v>
   <v>       0.50000000       0.50000000       0.50000000 </v>
   <v>       0.37500000       0.37500000       0.12500000 </v>
   <v>       0.37500000       0.37500000       0.62500000 </v>
   <v>       0.37500000       0.87500000       0.12500000 </v>
   <v>       0.37500000       0.87500000       0.62500000 </v>
   <v>       0.87500000       0.37500000       0.12500000 </v>
   <v>       0.87500000       0.37500000       0.62500000 </v>
   <v>       0.87500000       0.87500000       0.12500000 </v>
   <v>       0.87500000       0.87500000       0.62500000 </v>
   <v>       0.00000000       0.25000000       0.25000000 </v>
   <v>       0.00000000       0.25000000       0.75000000 </v>
   <v>       0.00000000       0.75000000       0.25000000 </v>
   <v>       0.00000000       0.75000000       0.75000000 </v>
   <v>       0.50000000       0.25000000       0.25000000 </v>
   <v>       0.50000000       0.25000000       0.75000000 </v>
   <v>       0.50000000       0.75000000       0.25000000 </v>
   <v>       0.50000000       0.75000000       0.75000000 </v>
   <v>       0.37500000       0.12500000       0.37500000 </v>
   <v>       0.37500000       0.12500000       0.87500000 </v>
   <v>       0.37500000       0.62500000       0.37500000 </v>
   <v>       0.37500000       0.62500000       0.87500000 </v>
   <v>       0.87500000       0.12500000       0.37500000 </v>
   <v>       0.87500000       0.12500000       0.87500000 </v>
   <v>       0.87500000       0.62500000       0.37500000 </v>
   <v>       0.87500000       0.62500000       0.87500000 </v>
   <v>       0.25000000       0.00000000       0.25000000 </v>
   <v>       0.25000000       0.00000000       0.75000000 </v>
   <v>       0.25000000       0.50000000       0.25000000 </v>
   <v>       0.25000000       0.50000000       0.75000000 </v>
   <v>       0.75000000       0.00000000       0.25000000 </v>
   <v>       0.75000000       0.00000000       0.75000000 </v>
   <v>       0.75000000       0.50000000       0.25000000 </v>
   <v>       0.75000000       0.50000000       0.75000000 </v>
   <v>       0.12500000       0.37500000       0.37500000 </v>
   <v>       0.12500000       0.37500000       0.87500000 </v>
   <v>       0.12500000       0.87500000       0.37500000 </v>
   <v>       0.12500000       0.87500000       0.87500000 </v>
   <v>       0.62500000       0.37500000       0.37500000 </v>
   <v>       0.62500000       0.37500000       0.87500000 </v>
   <v>       0.62500000       0.87500000       0.37500000 </v>
   <v>       0.62500000       0.87500000       0.87500000 </v>
   <v>       0.25000000       0.25000000       0.00000000 </v>
   <v>       0.25000000       0.25000000       0.50000000 </v>
   <v>       0.25000000       0.75000000       0.00000000 </v>
   <v>       0.25000000       0.75000000       0.50000000 </v>
   <v>       0.75000000       0.25000000       0.00000000 </v>
   <v>       0.75000000       0.25000000       0.50000000 </v>
   <v>       0.75000000       0.75000000       0.00000000 </v>
   <v>       0.75000000       0.75000000       0.50000000 </v>
   <v>       0.12500000       0.12500000       0.12500000 </v>
   <v>       0.12500000       0.12500000       0.62500000 </v>
   <v>       0.12500000       0.62500000       0.12500000 </v>
   <v>       0.12500000       0.62500000       0.62500000 </v>
   <v>       0.62500000       0.12500000       0.12500000 </v>
   <v>       0.62500000       0.12500000       0.62500000 </v>
   <v>       0.62500000       0.62500000       0.12500000 </v>
   <v>       0.62500000       0.62500000       0.62500000 </v>
  </varray>
 </structure>
 <calculation>
  <scstep>
   <time name="dav">    1.26    1.35</time>
   <time name="total">    1.45    1.56</time>
   <energy>
    <i name="alphaZ">    112.13564601 </i>
    <i name="ewald">  -7414.17499233 </i>
    <i name="hartreedc">   -332.72043560 </i>
    <i name="XCdc">   -553.73031816 </i>
    <i name="pawpsdc">   5598.62625415 </i>
    <i name="pawaedc">  -4492.17844134 </i>
    <i name="eentropy">      0.00559151 </i>
    <i name="bandstr">   1084.22073514 </i>
    <i name="atom">   6564.79586099 </i>
    <i name="e_fr_energy">    566.97990037 </i>
    <i name="e_wo_entrp">    566.97430886 </i>
    <i name="e_0_energy">    566.97803653 </i>
   </energy>
  </scstep>
  <scstep>
   <time name="dav">    1.32    1.33</time>
   <time name="total">    1.32    1.34</time>
   <energy>
    <i name="e_fr_energy">   -310.81007366 </i>
    <i name="e_wo_entrp">   -310.82863369 </i>
    <i name="e_0_energy">   -310.81626034 </i>
   </energy>
  </scstep>
  <scstep>
   <time name="dav">    1.36    1.37</time>
   <time name="total">    1.36    1.37</time>
   <energy>
    <i name="e_fr_energy">   -373.26218894 </i>
    <i name="e_wo_entrp">   -373.26935021 </i>
    <i name="e_0_energy">   -373.26457603 </i>
   </energy>
  </scstep>
  <scstep>
   <time name="dav">    1.30    1.31</time>
   <time name="total">    1.30    1.32</time>
   <energy>
    <i name="e_fr_energy">   -374.84470867 </i>
    <i name="e_wo_entrp">   -374.85281460 </i>
    <i name="e_0_energy">   -374.84741065 </i>
   </energy>
  </scstep>
  <scstep>
   <time name="dav">    1.30    1.32</time>
   <time name="total">    1.56    1.59</time>
   <energy>
    <i name="e_fr_energy">   -374.89548855 </i>
    <i name="e_wo_entrp">   -374.90370269 </i>
    <i name="e_0_energy">   -374.89822660 </i>
   </energy>
  </scstep>
  <scstep>
   <time name="diag">    0.14    0.14</time>
   <time name="diis">    0.70    0.70</time>
   <time name="orth">    0.02    0.02</time>
   <time name="total">    1.25    1.28</time>
   <energy>
    <i name="e_fr_energy">   -369.28623664 </i>
    <i name="e_wo_entrp">   -369.29641017 </i>
    <i name="e_0_energy">   -369.28962782 </i>
   </energy>
  </scstep>
  <scstep>
   <time name="diag">    0.14    0.14</time>
   <time name="diis">    0.70    0.70</time>
   <time name="orth">    0.02    0.02</time>
   <time name="total">    1.26    1.27</time>
   <energy>
    <i name="e_fr_energy">   -366.79015406 </i>
    <i name="e_wo_entrp">   -366.82359550 </i>
    <i name="e_0_energy">   -366.80130120 </i>
   </energy>
  </scstep>
  <scstep>
   <time name="diag">    0.14    0.14</time>
   <time name="diis">    0.71    0.71</time>
   <time name="orth">    0.02    0.02</time>
   <time name="total">    1.27    1.28</time>
   <energy>
    <i name="e_fr_energy">   -366.82820113 </i>
    <i name="e_wo_entrp">   -366.86083804 </i>
    <i name="e_0_energy">   -366.83908010 </i>
   </energy>
  </scstep>
  <scstep>
   <time name="diag">    0.14    0.14</time>
   <time name="diis">    0.71    0.71</time>
   <time name="orth">    0.02    0.02</time>
   <time name="total">    1.26    1.28</time>
   <energy>
    <i name="e_fr_energy">   -366.84976776 </i>
    <i name="e_wo_entrp">   -366.88282849 </i>
    <i name="e_0_energy">   -366.86078800 </i>
   </energy>
  </scstep>
  <scstep>
   <time name="diag">    0.13    0.13</time>
   <time name="diis">    0.72    0.72</time>
   <time name="orth">    0.02    0.02</time>
   <time name="total">    1.27    1.29</time>
   <energy>
    <i name="e_fr_energy">   -366.85330528 </i>
    <i name="e_wo_entrp">   -366.88637158 </i>
    <i name="e_0_energy">   -366.86432738 </i>
   </energy>
  </scstep>
  <scstep>
   <time name="diag">    0.13    0.13</time>
   <time name="diis">    0.69    0.69</time>
   <time name="orth">    0.02    0.02</time>
   <time name="total">    1.24    1.26</time>
   <energy>
    <i name="e_fr_energy">   -366.85000572 </i>
    <i name="e_wo_entrp">   -366.88251066 </i>
    <i name="e_0_energy">   -366.86084070 </i>
   </energy>
  </scstep>
  <scstep>
   <time name="diag">    0.14    0.14</time>
   <time name="diis">    0.69    0.69</time>
   <time name="orth">    0.02    0.02</time>
   <time name="total">    1.25    1.27</time>
   <energy>
    <i name="e_fr_energy">   -366.85002707 </i>
    <i name="e_wo_entrp">   -366.88250306 </i>
    <i name="e_0_energy">   -366.86085240 </i>
   </energy>
  </scstep>
  <scstep>
   <time name="diag">    0.13    0.13</time>
   <time name="diis">    0.73    0.73</time>
   <time name="orth">    0.02    0.02</time>
   <time name="total">    1.28    1.30</time>
   <energy>
    <i name="e_fr_energy">   -366.85009131 </i>
    <i name="e_wo_entrp">   -366.88256900 </i>
    <i name="e_0_energy">   -366.86091721 </i>
   </energy>
  </scstep>
  <scstep>
   <time name="diag">    0.13    0.13</time>
   <time name="diis">    0.70    0.70</time>
   <time name="orth">    0.02    0.02</time>
   <time name="total">    1.25    1.27</time>
   <energy>
    <i name="e_fr_energy">   -366.84969754 </i>
    <i name="e_wo_entrp">   -366.88215702 </i>
    <i name="e_0_energy">   -366.86051737 </i>
   </energy>
  </scstep>
  <scstep>
   <time name="diag">    0.13    0.13</time>
   <time name="diis">    0.69    0.69</time>
   <time name="orth">    0.02    0.02</time>
   <time name="total">    1.24    1.26</time>
   <energy>
    <i name="e_fr_energy">   -366.84993705 </i>
    <i name="e_wo_entrp">   -366.88234980 </i>
    <i name="e_0_energy">   -366.86074130 </i>
   </energy>
  </scstep>
  <scstep>
   <time name="diag">    0.14    0.14</time>
   <time name="diis">    0.70    0.70</time>
   <time name="orth">    0.02    0.02</time>
   <time name="total">    1.25    1.27</time>
   <energy>
    <i name="e_fr_energy">   -366.85021781 </i>
    <i name="e_wo_entrp">   -366.88264354 </i>
    <i name="e_0_energy">   -366.86102639 </i>
   </energy>
  </scstep>
  <scstep>
   <time name="diag">    0.13    0.13</time>
   <time name="diis">    0.69    0.69</time>
   <time name="orth">    0.02    0.02</time>
   <time name="total">    1.24    1.26</time>
   <energy>
    <i name="e_fr_energy">   -366.85034510 </i>
    <i name="e_wo_entrp">   -366.88277250 </i>
    <i name="e_0_energy">   -366.86115423 </i>
   </energy>
  </scstep>
  <scstep>
   <time name="diag">    0.13    0.13</time>
   <time name="diis">    0.68    0.72</time>
   <time name="orth">    0.02    0.02</time>
   <time name="total">    1.24    1.28</time>
   <energy>
    <i name="e_fr_energy">   -366.85040599 </i>
    <i name="e_wo_entrp">   -366.88282345 </i>
    <i name="e_0_energy">   -366.86121181 </i>
   </energy>
  </scstep>
  <scstep>
   <time name="diag">    0.14    0.14</time>
   <time name="diis">    0.69    0.69</time>
   <time name="orth">    0.02    0.02</time>
   <time name="total">    1.25    1.27</time>
   <energy>
    <i name="e_fr_energy">   -366.85044537 </i>
    <i name="e_wo_entrp">   -366.88285133 </i>
    <i name="e_0_energy">   -366.86124736 </i>
   </energy>
  </scstep>
  <scstep>
   <time name="diag">    0.13    0.13</time>
   <time name="diis">    0.66    0.67</time>
   <time name="orth">    0.02    0.02</time>
   <time name="total">    1.21    1.23</time>
   <energy>
    <i name="e_fr_energy">   -366.85045715 </i>
    <i name="e_wo_entrp">   -366.88285613 </i>
    <i name="e_0_energy">   -366.86125681 </i>
   </energy>
  </scstep>
  <scstep>
   <time name="diag">    0.13    0.13</time>
   <time name="diis">    0.45    0.45</time>
   <time name="orth">    0.02    0.02</time>
   <time name="total">    1.00    1.02</time>
   <energy>
    <i name="e_fr_energy">   -366.85045918 </i>
    <i name="e_wo_entrp">   -366.88285698 </i>
    <i name="e_0_energy">   -366.86125845 </i>
   </energy>
  </scstep>
  <scstep>
   <time name="diag">    0.13    0.13</time>
   <time name="diis">    0.44    0.44</time>
   <time name="orth">    0.02    0.02</time>
   <time name="total">    0.74    0.76</time>
   <energy>
    <i name="alphaZ">    112.13564601 </i>
    <i name="ewald">  -7414.17499233 </i>
    <i name="hartreedc">   -452.95297992 </i>
    <i name="XCdc">   -533.38577354 </i>
    <i name="pawpsdc">  30377.07157789 </i>
    <i name="pawaedc"> -29278.56029733 </i>
    <i name="eentropy">      0.03239787 </i>
    <i name="bandstr">    258.18810050 </i>
    <i name="atom">   6564.79586099 </i>
    <i name="e_fr_energy">   -366.85045986 </i>
    <i name="e_wo_entrp">   -366.88285773 </i>
    <i name="e_0_energy">   -366.86125915 </i>
   </energy>
  </scstep>
  <structure>
   <crystal>
    <varray name="basis" >
     <v>      10.67758958      -0.02682800       0.00000000 </v>
     <v>      -0.02682800      10.73124558       0.00000000 </v>
     <v>       0.00000000       0.00000000      10.73124558 </v>
    </varray>
    <i name="volume">   1229.61956047 </i>
    <varray name="rec_basis" >
     <v>       0.09365468       0.00023414       0.00000000 </v>
     <v>       0.00023414       0.09318641       0.00000000 </v>
     <v>       0.00000000       0.00000000       0.09318583 </v>
    </varray>
   </crystal>
   <varray name="positions" >
    <v>       0.00000000       0.00000000       0.00000000 </v>
    <v>       0.00000000       0.00000000       0.50000000 </v>
    <v>       0.00000000       0.50000000       0.00000000 </v>
    <v>       0.00000000       0.50000000       0.50000000 </v>
    <v>       0.50000000       0.00000000       0.00000000 </v>
    <v>       0.50000000       0.00000000       0.50000000 </v>
    <v>       0.50000000       0.50000000       0.00000000 </v>
    <v>       0.50000000       0.50000000       0.50000000 </v>
    <v>       0.37500000       0.37500000       0.12500000 </v>
    <v>       0.37500000       0.37500000       0.62500000 </v>
    <v>       0.37500000       0.87500000       0.12500000 </v>
    <v>       0.37500000       0.87500000       0.62500000 </v>
    <v>       0.87500000       0.37500000       0.12500000 </v>
    <v>       0.87500000       0.37500000       0.62500000 </v>
    <v>       0.87500000       0.87500000       0.12500000 </v>
    <v>       0.87500000       0.87500000       0.62500000 </v>
    <v>       0.00000000       0.25000000       0.25000000 </v>
    <v>       0.00000000       0.25000000       0.75000000 </v>
    <v>       0.00000000       0.75000000       0.25000000 </v>
    <v>       0.00000000       0.75000000       0.75000000 </v>
    <v>       0.50000000       0.25000000       0.25000000 </v>
    <v>       0.50000000       0.25000000       0.75000000 </v>
    <v>       0.50000000       0.75000000       0.25000000 </v>
    <v>       0.50000000       0.75000000       0.75000000 </v>
    <v>       0.37500000       0.12500000       0.37500000 </v>
    <v>       0.37500000       0.12500000       0.87500000 </v>
    <v>       0.37500000       0.62500000       0.37500000 </v>
    <v>       0.37500000       0.62500000       0.87500000 </v>
    <v>       0.87500000       0.12500000       0.37500000 </v>
    <v>       0.87500000       0.12500000       0.87500000 </v>
    <v>       0.87500000       0.62500000       0.37500000 </v>
    <v>       0.87500000       0.62500000       0.87500000 </v>
    <v>       0.25000000       0.00000000       0.25000000 </v>
    <v>       0.25000000       0.00000000       0.75000000 </v>
    <v>       0.25000000       0.50000000       0.25000000 </v>
    <v>       0.25000000       0.50000000       0.75000000 </v>
    <v>       0.75000000       0.00000000       0.25000000 </v>
    <v>       0.75000000       0.00000000       0.75000000 </v>
    <v>       0.75000000       0.50000000       0.25000000 </v>
    <v>       0.75000000       0.50000000       0.75000000 </v>
    <v>       0.12500000       0.37500000       0.37500000 </v>
    <v>       0.12500000       0.37500000       0.87500000 </v>
    <v>       0.12500000       0.87500000       0.37500000 </v>
    <v>       0.12500000       0.87500000       0.87500000 </v>
    <v>       0.62500000       0.37500000       0.37500000 </v>
    <v>       0.62500000       0.37500000       0.87500000 </v>
    <v>       0.62500000       0.87500000       0.37500000 </v>
    <v>       0.62500000       0.87500000       0.87500000 </v>
    <v>       0.25000000       0.25000000       0.00000000 </v>
    <v>       0.25000000       0.25000000       0.50000000 </v>
    <v>       0.25000000       0.75000000       0.00000000 </v>
    <v>       0.25000000       0.75000000       0.50000000 </v>
    <v>       0.75000000       0.25000000       0.00000000 </v>
    <v>       0.75000000       0.25000000       0.50000000 </v>
    <v>       0.75000000       0.75000000       0.00000000 </v>
    <v>       0.75000000       0.75000000       0.50000000 </v>
    <v>       0.12500000       0.12500000       0.12500000 </v>
    <v>       0.12500000       0.12500000       0.62500000 </v>
    <v>       0.12500000       0.62500000       0.12500000 </v>
    <v>       0.12500000       0.62500000       0.62500000 </v>
    <v>       0.62500000       0.12500000       0.12500000 </v>
    <v>       0.62500000       0.12500000       0.62500000 </v>
    <v>       0.62500000       0.62500000       0.12500000 </v>
    <v>       0.62500000       0.62500000       0.62500000 </v>
   </varray>
  </structure>
  <varray name="forces" >
   <v>       0.00000000       0.00000000      -0.05932710 </v>
   <v>       0.00000000      -0.00000000      -0.05932710 </v>
   <v>      -0.00000000      -0.00000000      -0.05932710 </v>
   <v>      -0.00000000      -0.00000000      -0.05932710 </v>
   <v>       0.00000000      -0.00000000      -0.05932710 </v>
   <v>       0.00000000       0.00000000      -0.05932710 </v>
   <v>      -0.00000000      -0.00000000      -0.05932710 </v>
   <v>      -0.00000000      -0.00000000      -0.05932710 </v>
   <v>      -0.00000000       0.00000000       0.05932710 </v>
   <v>      -0.00000000      -0.00000000       0.05932710 </v>
   <v>      -0.00000000      -0.00000000       0.05932710 </v>
   <v>      -0.00000000      -0.00000000       0.05932710 </v>
   <v>       0.00000000       0.00000000       0.05932710 </v>
   <v>      -0.00000000       0.00000000       0.05932710 </v>
   <v>      -0.00000000       0.00000000       0.05932710 </v>
   <v>       0.00000000       0.00000000       0.05932710 </v>
   <v>       0.00000000      -0.00000000      -0.05932710 </v>
   <v>       0.00000000       0.00000000      -0.05932710 </v>
   <v>      -0.00000000      -0.00000000      -0.05932710 </v>
   <v>      -0.00000000       0.00000000      -0.05932710 </v>
   <v>       0.00000000       0.00000000      -0.05932710 </v>
   <v>       0.00000000       0.00000000      -0.05932710 </v>
   <v>      -0.00000000       0.00000000      -0.05932710 </v>
   <v>      -0.00000000       0.00000000      -0.05932710 </v>
   <v>      -0.00000000      -0.00000000       0.05932710 </v>
   <v>      -0.00000000      -0.00000000       0.05932710 </v>
   <v>       0.00000000       0.00000000       0.05932710 </v>
   <v>       0.00000000       0.00000000       0.05932710 </v>
   <v>      -0.00000000      -0.00000000       0.05932710 </v>
   <v>      -0.00000000      -0.00000000       0.05932710 </v>
   <v>       0.00000000      -0.00000000       0.05932710 </v>
   <v>       0.00000000      -0.00000000       0.05932710 </v>
   <v>       0.00000000      -0.00000000      -0.05932710 </v>
   <v>       0.00000000      -0.00000000      -0.05932710 </v>
   <v>      -0.00000000      -0.00000000      -0.05932710 </v>
   <v>      -0.00000000      -0.00000000      -0.05932710 </v>
   <v>       0.00000000       0.00000000      -0.05932710 </v>
   <v>       0.00000000       0.00000000      -0.05932710 </v>
   <v>      -0.00000000       0.00000000      -0.05932710 </v>
   <v>      -0.00000000      -0.00000000      -0.05932710 </v>
   <v>      -0.00000000      -0.00000000       0.05932710 </v>
   <v>      -0.00000000       0.00000000       0.05932710 </v>
   <v>       0.00000000      -0.00000000       0.05932710 </v>
   <v>       0.00000000       0.00000000       0.05932710 </v>
   <v>      -0.00000000       0.00000000       0.05932710 </v>
   <v>      -0.00000000       0.00000000       0.05932710 </v>
   <v>       0.00000000      -0.00000000       0.05932710 </v>
   <v>      -0.00000000      -0.00000000       0.05932710 </v>
   <v>       0.00000000       0.00000000      -0.05932710 </v>
   <v>      -0.00000000       0.00000000      -0.05932710 </v>
   <v>      -0.00000000       0.00000000      -0.05932710 </v>
   <v>      -0.00000000      -0.00000000      -0.05932710 </v>
   <v>       0.00000000      -0.00000000      -0.05932710 </v>
   <v>       0.00000000       0.00000000      -0.05932710 </v>
   <v>      -0.00000000       0.00000000      -0.05932710 </v>
   <v>      -0.00000000       0.00000000      -0.05932710 </v>
   <v>       0.00000000       0.00000000       0.05932710 </v>
   <v>       0.00000000      -0.00000000       0.05932710 </v>
   <v>       0.00000000       0.00000000       0.05932710 </v>
   <v>       0.00000000       0.00000000       0.05932710 </v>
   <v>      -0.00000000      -0.00000000       0.05932710 </v>
   <v>      -0.00000000      -0.00000000       0.05932710 </v>
   <v>      -0.00000000       0.00000000       0.05932710 </v>
   <v>       0.00000000       0.00000000       0.05932710 </v>
  </varray>
  <varray name="stress" >
   <v>      48.31106787       5.81868593       0.00000000 </v>
   <v>       5.81868593      44.11734795       0.00000000 </v>
   <v>       0.00000000       0.00000000      44.10102405 </v>
  </varray>
  <energy>
   <i name="e_fr_energy">   -366.85045986 </i>
   <i name="e_wo_entrp">   -366.88285773 </i>
   <i name="e_0_energy">   -366.86125915 </i>
  </energy>
  <time name="totalsc">   31.14   31.71</time>
 </calculation>
 <calculation>
  <scstep>
   <time name="dav">    1.25    1.26</time>
   <time name="total">    1.65    1.65</time>
   <energy>
    <i name="alphaZ">    112.13564601 </i>
    <i name="ewald">  -7414.23587853 </i>
    <i name="hartreedc">   -452.91964310 </i>
    <i name="XCdc">   -533.38646251 </i>
    <i name="pawpsdc">  30386.32924864 </i>
    <i name="pawaedc"> -29287.81776718 </i>
    <i name="eentropy">      0.03162416 </i>
    <i name="bandstr">    258.21456572 </i>
    <i name="atom">   6564.79586099 </i>
    <i name="e_fr_energy">   -366.85280578 </i>
    <i name="e_wo_entrp">   -366.88442995 </i>
    <i name="e_0_energy">   -366.86334717 </i>
   </energy>
  </scstep>
  <scstep>
   <time name="diag">    0.13    0.13</time>
   <time name="diis">    0.69    0.69</time>
   <time name="orth">    0.02    0.02</time>
   <time name="total">    1.23    1.25</time>
   <energy>
    <i name="e_fr_energy">   -366.85351693 </i>
    <i name="e_wo_entrp">   -366.88513438 </i>
    <i name="e_0_energy">   -366.86405608 </i>
   </energy>
  </scstep>
  <scstep>
   <time name="diag">    0.13    0.13</time>
   <time name="diis">    0.71    0.71</time>
   <time name="orth">    0.02    0.02</time>
   <time name="total">    1.26    1.28</time>
   <energy>
    <i name="e_fr_energy">   -366.85362263 </i>
    <i name="e_wo_entrp">   -366.88526930 </i>
    <i name="e_0_energy">   -366.86417152 </i>
   </energy>
  </scstep>
  <scstep>
   <time name="diag">    0.13    0.13</time>
   <time name="diis">    0.69    0.70</time>
   <time name="orth">    0.02    0.02</time>
   <time name="total">    1.24    1.27</time>
   <energy>
    <i name="e_fr_energy">   -366.85362100 </i>
    <i name="e_wo_entrp">   -366.88529573 </i>
    <i name="e_0_energy">   -366.86417925 </i>
   </energy>
  </scstep>
  <scstep>
   <time name="diag">    0.13    0.13</time>
   <time name="diis">    0.70    0.70</time>
   <time name="orth">    0.02    0.02</time>
   <time name="total">    1.26    1.27</time>
   <energy>
    <i name="e_fr_energy">   -366.85362225 </i>
    <i name="e_wo_entrp">   -366.88530726 </i>
    <i name="e_0_energy">   -366.86418392 </i>
   </energy>
  </scstep>
  <scstep>
   <time name="diag">    0.14    0.14</time>
   <time name="diis">    0.61    0.62</time>
   <time name="orth">    0.02    0.02</time>
   <time name="total">    1.17    1.19</time>
   <energy>
    <i name="e_fr_energy">   -366.85362292 </i>
    <i name="e_wo_entrp">   -366.88530758 </i>
    <i name="e_0_energy">   -366.86418447 </i>
   </energy>
  </scstep>
  <scstep>
   <time name="diag">    0.13    0.13</time>
   <time name="diis">    0.45    0.45</time>
   <time name="orth">    0.02    0.02</time>
   <time name="total">    1.00    1.02</time>
   <energy>
    <i name="e_fr_energy">   -366.85362301 </i>
    <i name="e_wo_entrp">   -366.88530748 </i>
    <i name="e_0_energy">   -366.86418450 </i>
   </energy>
  </scstep>
  <scstep>
   <time name="diag">    0.13    0.13</time>
   <time name="diis">    0.42    0.42</time>
   <time name="orth">    0.02    0.02</time>
   <time name="total">    0.72    0.74</time>
   <energy>
    <i name="alphaZ">    112.13564601 </i>
    <i name="ewald">  -7414.23587853 </i>
    <i name="hartreedc">   -452.89345789 </i>
    <i name="XCdc">   -533.39011762 </i>
    <i name="pawpsdc">  30384.38339994 </i>
    <i name="pawaedc"> -29285.87034165 </i>
    <i name="eentropy">      0.03168451 </i>
    <i name="bandstr">    258.18958122 </i>
    <i name="atom">   6564.79586099 </i>
    <i name="e_fr_energy">   -366.85362303 </i>
    <i name="e_wo_entrp">   -366.88530753 </i>
    <i name="e_0_energy">   -366.86418453 </i>
   </energy>
  </scstep>
  <structure>
   <crystal>
    <varray name="basis" >
     <v>      10.67758958      -0.02682800       0.00000000 </v>
     <v>      -0.02682800      10.73124558       0.00000000 </v>
     <v>       0.00000000       0.00000000      10.73124558 </v>
    </varray>
    <i name="volume">   1229.61956047 </i>
    <varray name="rec_basis" >
     <v>       0.09365468       0.00023414       0.00000000 </v>
     <v>       0.00023414       0.09318641       0.00000000 </v>
     <v>       0.00000000       0.00000000       0.09318583 </v>
    </varray>
   </crystal>
   <varray name="positions" >
    <v>       0.00000000       0.00000000       0.99973329 </v>
    <v>       0.00000000       1.00000000       0.49973329 </v>
    <v>       1.00000000       0.50000000       0.99973329 </v>
    <v>       1.00000000       0.50000000       0.49973329 </v>
    <v>       0.50000000       1.00000000       0.99973329 </v>
    <v>       0.50000000       0.00000000       0.49973329 </v>
    <v>       0.50000000       0.50000000       0.99973329 </v>
    <v>       0.50000000       0.50000000       0.49973329 </v>
    <v>       0.37500000       0.37500000       0.12526671 </v>
    <v>       0.37500000       0.37500000       0.62526671 </v>
    <v>       0.37500000       0.87500000       0.12526671 </v>
    <v>       0.37500000       0.87500000       0.62526671 </v>
    <v>       0.87500000       0.37500000       0.12526671 </v>
    <v>       0.87500000       0.37500000       0.62526671 </v>
    <v>       0.87500000       0.87500000       0.12526671 </v>
    <v>       0.87500000       0.87500000       0.62526671 </v>
    <v>       0.00000000       0.25000000       0.24973329 </v>
    <v>       0.00000000       0.25000000       0.74973329 </v>
    <v>       1.00000000       0.75000000       0.24973329 </v>
    <v>       1.00000000       0.75000000       0.74973329 </v>
    <v>       0.50000000       0.25000000       0.24973329 </v>
    <v>       0.50000000       0.25000000       0.74973329 </v>
    <v>       0.50000000       0.75000000       0.24973329 </v>
    <v>       0.50000000       0.75000000       0.74973329 </v>
    <v>       0.37500000       0.12500000       0.37526671 </v>
    <v>       0.37500000       0.12500000       0.87526671 </v>
    <v>       0.37500000       0.62500000       0.37526671 </v>
    <v>       0.37500000       0.62500000       0.87526671 </v>
    <v>       0.87500000       0.12500000       0.37526671 </v>
    <v>       0.87500000       0.12500000       0.87526671 </v>
    <v>       0.87500000       0.62500000       0.37526671 </v>
    <v>       0.87500000       0.62500000       0.87526671 </v>
    <v>       0.25000000       1.00000000       0.24973329 </v>
    <v>       0.25000000       1.00000000       0.74973329 </v>
    <v>       0.25000000       0.50000000       0.24973329 </v>
    <v>       0.25000000       0.50000000       0.74973329 </v>
    <v>       0.75000000       0.00000000       0.24973329 </v>
    <v>       0.75000000       0.00000000       0.74973329 </v>
    <v>       0.75000000       0.50000000       0.24973329 </v>
    <v>       0.75000000       0.50000000       0.74973329 </v>
    <v>       0.12500000       0.37500000       0.37526671 </v>
    <v>       0.12500000       0.37500000       0.87526671 </v>
    <v>       0.12500000       0.87500000       0.37526671 </v>
    <v>       0.12500000       0.87500000       0.87526671 </v>
    <v>       0.62500000       0.37500000       0.37526671 </v>
    <v>       0.62500000       0.37500000       0.87526671 </v>
    <v>       0.62500000       0.87500000       0.37526671 </v>
    <v>       0.62500000       0.87500000       0.87526671 </v>
    <v>       0.25000000       0.25000000       0.99973329 </v>
    <v>       0.25000000       0.25000000       0.49973329 </v>
    <v>       0.25000000       0.75000000       0.99973329 </v>
    <v>       0.25000000       0.75000000       0.49973329 </v>
    <v>       0.75000000       0.25000000       0.99973329 </v>
    <v>       0.75000000       0.25000000       0.49973329 </v>
    <v>       0.75000000       0.75000000       0.99973329 </v>
    <v>       0.75000000       0.75000000       0.49973329 </v>
    <v>       0.12500000       0.12500000       0.12526671 </v>
    <v>       0.12500000       0.12500000       0.62526671 </v>
    <v>       0.12500000       0.62500000       0.12526671 </v>
    <v>       0.12500000       0.62500000       0.62526671 </v>
    <v>       0.62500000       0.12500000       0.12526671 </v>
    <v>       0.62500000       0.12500000       0.62526671 </v>
    <v>       0.62500000       0.62500000       0.12526671 </v>
    <v>       0.62500000       0.62500000       0.62526671 </v>
   </varray>
  </structure>
  <varray name="forces" >
   <v>       0.00000000      -0.00000000       0.02471709 </v>
   <v>       0.00000000      -0.00000000       0.02471709 </v>
   <v>      -0.00000000       0.00000000       0.02471709 </v>
   <v>      -0.00000000      -0.00000000       0.02471709 </v>
   <v>       0.00000000      -0.00000000       0.02471709 </v>
   <v>      -0.00000000      -0.00000000       0.02471709 </v>
   <v>      -0.00000000      -0.00000000       0.02471709 </v>
   <v>      -0.00000000      -0.00000000       0.02471709 </v>
   <v>      -0.00000000       0.00000000      -0.02471709 </v>
   <v>      -0.00000000      -0.00000000      -0.02471709 </v>
   <v>       0.00000000      -0.00000000      -0.02471709 </v>
   <v>       0.00000000       0.00000000      -0.02471709 </v>
   <v>      -0.00000000       0.00000000      -0.02471709 </v>
   <v>       0.00000000       0.00000000      -0.02471709 </v>
   <v>       0.00000000       0.00000000      -0.02471709 </v>
   <v>       0.00000000       0.00000000      -0.02471709 </v>
   <v>       0.00000000       0.00000000       0.02471709 </v>
   <v>       0.00000000       0.00000000       0.02471709 </v>
   <v>      -0.00000000      -0.00000000       0.02471709 </v>
   <v>      -0.00000000      -0.00000000       0.02471709 </v>
   <v>       0.00000000       0.00000000       0.02471709 </v>
   <v>      -0.00000000      -0.00000000       0.02471709 </v>
   <v>      -0.00000000       0.00000000       0.02471709 </v>
   <v>      -0.00000000       0.00000000       0.02471709 </v>
   <v>       0.00000000      -0.00000000      -0.02471709 </v>
   <v>       0.00000000      -0.00000000      -0.02471709 </v>
   <v>       0.00000000      -0.00000000      -0.02471709 </v>
   <v>      -0.00000000      -0.00000000      -0.02471709 </v>
   <v>       0.00000000      -0.00000000      -0.02471709 </v>
   <v>      -0.00000000      -0.00000000      -0.02471709 </v>
   <v>      -0.00000000      -0.00000000      -0.02471709 </v>
   <v>      -0.00000000      -0.00000000      -0.02471709 </v>
   <v>       0.00000000      -0.00000000       0.02471709 </v>
   <v>       0.00000000      -0.00000000       0.02471709 </v>
   <v>       0.00000000       0.00000000       0.02471709 </v>
   <v>      -0.00000000       0.00000000       0.02471709 </v>
   <v>       0.00000000       0.00000000       0.02471709 </v>
   <v>       0.00000000       0.00000000       0.02471709 </v>
   <v>      -0.00000000      -0.00000000       0.02471709 </v>
   <v>      -0.00000000      -0.00000000       0.02471709 </v>
   <v>       0.00000000       0.00000000      -0.02471709 </v>
   <v>      -0.00000000      -0.00000000      -0.02471709 </v>
   <v>       0.00000000       0.00000000      -0.02471709 </v>
   <v>      -0.00000000      -0.00000000      -0.02471709 </v>
   <v>      -0.00000000       0.00000000      -0.02471709 </v>
   <v>      -0.00000000       0.00000000      -0.02471709 </v>
   <v>       0.00000000      -0.00000000      -0.02471709 </v>
   <v>       0.00000000      -0.00000000      -0.02471709 </v>
   <v>       0.00000000       0.00000000       0.02471709 </v>
   <v>       0.00000000       0.00000000       0.02471709 </v>
   <v>       0.00000000       0.00000000       0.02471709 </v>
   <v>      -0.00000000       0.00000000       0.02471709 </v>
   <v>       0.00000000       0.00000000       0.02471709 </v>
   <v>       0.00000000      -0.00000000       0.02471709 </v>
   <v>      -0.00000000       0.00000000       0.02471709 </v>
   <v>       0.00000000       0.00000000       0.02471709 </v>
   <v>       0.00000000       0.00000000      -0.02471709 </v>
   <v>      -0.00000000      -0.00000000      -0.02471709 </v>
   <v>      -0.00000000      -0.00000000      -0.02471709 </v>
   <v>      -0.00000000       0.00000000      -0.02471709 </v>
   <v>      -0.00000000      -0.00000000      -0.02471709 </v>
   <v>       0.00000000      -0.00000000      -0.02471709 </v>
   <v>      -0.00000000      -0.00000000      -0.02471709 </v>
   <v>      -0.00000000       0.00000000      -0.02471709 </v>
  </varray>
  <varray name="stress" >
   <v>      48.30948283       2.98563970       0.00000000 </v>
   <v>       2.98563964      44.11583008       0.00000000 </v>
   <v>       0.00000000       0.00000000      44.05595560 </v>
  </varray>
  <energy>
   <i name="e_fr_energy">   -366.85362303 </i>
   <i name="e_wo_entrp">   -366.88530753 </i>
   <i name="e_0_energy">   -366.86418453 </i>
  </energy>
  <time name="totalsc">   13.15   13.32</time>
 </calculation>
 <calculation>
  <scstep>
   <time name="dav">    1.28    1.29</time>
   <time name="total">    1.68    1.68</time>
   <energy>
    <i name="alphaZ">    112.13564601 </i>
    <i name="ewald">  -7414.22072503 </i>
    <i name="hartreedc">   -452.90243724 </i>
    <i name="XCdc">   -533.38970833 </i>
    <i name="pawpsdc">  30384.33936010 </i>
    <i name="pawaedc"> -29285.82629873 </i>
    <i name="eentropy">      0.03199562 </i>
    <i name="bandstr">    258.18208842 </i>
    <i name="atom">   6564.79586099 </i>
    <i name="e_fr_energy">   -366.85421819 </i>
    <i name="e_wo_entrp">   -366.88621381 </i>
    <i name="e_0_energy">   -366.86488339 </i>
   </energy>
  </scstep>
  <scstep>
   <time name="diag">    0.13    0.13</time>
   <time name="diis">    0.69    0.69</time>
   <time name="orth">    0.02    0.02</time>
   <time name="total">    1.24    1.25</time>
   <energy>
    <i name="e_fr_energy">   -366.85427878 </i>
    <i name="e_wo_entrp">   -366.88627559 </i>
    <i name="e_0_energy">   -366.86494438 </i>
   </energy>
  </scstep>
  <scstep>
   <time name="diag">    0.13    0.13</time>
   <time name="diis">    0.71    0.71</time>
   <time name="orth">    0.02    0.02</time>
   <time name="total">    1.26    1.28</time>
   <energy>
    <i name="e_fr_energy">   -366.85428763 </i>
    <i name="e_wo_entrp">   -366.88627799 </i>
    <i name="e_0_energy">   -366.86495108 </i>
   </energy>
  </scstep>
  <scstep>
   <time name="diag">    0.13    0.13</time>
   <time name="diis">    0.69    0.69</time>
   <time name="orth">    0.02    0.02</time>
   <time name="total">    1.24    1.26</time>
   <energy>
    <i name="e_fr_energy">   -366.85428758 </i>
    <i name="e_wo_entrp">   -366.88627181 </i>
    <i name="e_0_energy">   -366.86494899 </i>
   </energy>
  </scstep>
  <scstep>
   <time name="diag">    0.13    0.13</time>
   <time name="diis">    0.48    0.48</time>
   <time name="orth">    0.02    0.02</time>
   <time name="total">    1.03    1.05</time>
   <energy>
    <i name="e_fr_energy">   -366.85428769 </i>
    <i name="e_wo_entrp">   -366.88626956 </i>
    <i name="e_0_energy">   -366.86494831 </i>
   </energy>
  </scstep>
  <scstep>
   <time name="diag">    0.13    0.13</time>
   <time name="diis">    0.44    0.44</time>
   <time name="orth">    0.02    0.02</time>
   <time name="total">    0.99    1.01</time>
   <energy>
    <i name="e_fr_energy">   -366.85428773 </i>
    <i name="e_wo_entrp">   -366.88626970 </i>
    <i name="e_0_energy">   -366.86494839 </i>
   </energy>
  </scstep>
  <scstep>
   <time name="diag">    0.13    0.13</time>
   <time name="diis">    0.38    0.38</time>
   <time name="orth">    0.02    0.02</time>
   <time name="total">    0.93    0.95</time>
   <energy>
    <i name="e_fr_energy">   -366.85428775 </i>
    <i name="e_wo_entrp">   -366.88626973 </i>
    <i name="e_0_energy">   -366.86494841 </i>
   </energy>
  </scstep>
  <scstep>
   <time name="diag">    0.13    0.13</time>
   <time name="diis">    0.33    0.33</time>
   <time name="orth">    0.02    0.02</time>
   <time name="total">    0.63    0.65</time>
   <energy>
    <i name="alphaZ">    112.13564601 </i>
    <i name="ewald">  -7414.22072503 </i>
    <i name="hartreedc">   -452.90589821 </i>
    <i name="XCdc">   -533.38915293 </i>
    <i name="pawpsdc">  30385.06296800 </i>
    <i name="pawaedc"> -29286.55024215 </i>
    <i name="eentropy">      0.03198199 </i>
    <i name="bandstr">    258.18527359 </i>
    <i name="atom">   6564.79586099 </i>
    <i name="e_fr_energy">   -366.85428775 </i>
    <i name="e_wo_entrp">   -366.88626973 </i>
    <i name="e_0_energy">   -366.86494841 </i>
   </energy>
  </scstep>
  <structure>
   <crystal>
    <varray name="basis" >
     <v>      10.67758958      -0.02682800       0.00000000 </v>
     <v>      -0.02682800      10.73124558       0.00000000 </v>
     <v>       0.00000000       0.00000000      10.73124558 </v>
    </varray>
    <i name="volume">   1229.61956047 </i>
    <varray name="rec_basis" >
     <v>       0.09365468       0.00023414       0.00000000 </v>
     <v>       0.00023414       0.09318641       0.00000000 </v>
     <v>       0.00000000       0.00000000       0.09318583 </v>
    </varray>
   </crystal>
   <varray name="positions" >
    <v>       0.00000000       0.00000000       0.99981173 </v>
    <v>       0.00000000       0.00000000       0.49981173 </v>
    <v>       0.00000000       0.50000000       0.99981173 </v>
    <v>       0.00000000       0.50000000       0.49981173 </v>
    <v>       0.50000000       0.00000000       0.99981173 </v>
    <v>       0.50000000       0.00000000       0.49981173 </v>
    <v>       0.50000000       0.50000000       0.99981173 </v>
    <v>       0.50000000       0.50000000       0.49981173 </v>
    <v>       0.37500000       0.37500000       0.12518827 </v>
    <v>       0.37500000       0.37500000       0.62518827 </v>
    <v>       0.37500000       0.87500000       0.12518827 </v>
    <v>       0.37500000       0.87500000       0.62518827 </v>
    <v>       0.87500000       0.37500000       0.12518827 </v>
    <v>       0.87500000       0.37500000       0.62518827 </v>
    <v>       0.87500000       0.87500000       0.12518827 </v>
    <v>       0.87500000       0.87500000       0.62518827 </v>
    <v>       0.00000000       0.25000000       0.24981173 </v>
    <v>       0.00000000       0.25000000       0.74981173 </v>
    <v>       0.00000000       0.75000000       0.24981173 </v>
    <v>       0.00000000       0.75000000       0.74981173 </v>
    <v>       0.50000000       0.25000000       0.24981173 </v>
    <v>       0.50000000       0.25000000       0.74981173 </v>
    <v>       0.50000000       0.75000000       0.24981173 </v>
    <v>       0.50000000       0.75000000       0.74981173 </v>
    <v>       0.37500000       0.12500000       0.37518827 </v>
    <v>       0.37500000       0.12500000       0.87518827 </v>
    <v>       0.37500000       0.62500000       0.37518827 </v>
    <v>       0.37500000       0.62500000       0.87518827 </v>
    <v>       0.87500000       0.12500000       0.37518827 </v>
    <v>       0.87500000       0.12500000       0.87518827 </v>
    <v>       0.87500000       0.62500000       0.37518827 </v>
    <v>       0.87500000       0.62500000       0.87518827 </v>
    <v>       0.25000000       0.00000000       0.24981173 </v>
    <v>       0.25000000       0.00000000       0.74981173 </v>
    <v>       0.25000000       0.50000000       0.24981173 </v>
    <v>       0.25000000       0.50000000       0.74981173 </v>
    <v>       0.75000000       0.00000000       0.24981173 </v>
    <v>       0.75000000       0.00000000       0.74981173 </v>
    <v>       0.75000000       0.50000000       0.24981173 </v>
    <v>       0.75000000       0.50000000       0.74981173 </v>
    <v>       0.12500000       0.37500000       0.37518827 </v>
    <v>       0.12500000       0.37500000       0.87518827 </v>
    <v>       0.12500000       0.87500000       0.37518827 </v>
    <v>       0.12500000       0.87500000       0.87518827 </v>
    <v>       0.62500000       0.37500000       0.37518827 </v>
    <v>       0.62500000       0.37500000       0.87518827 </v>
    <v>       0.62500000       0.87500000       0.37518827 </v>
    <v>       0.62500000       0.87500000       0.87518827 </v>
    <v>       0.25000000       0.25000000       0.99981173 </v>
    <v>       0.25000000       0.25000000       0.49981173 </v>
    <v>       0.25000000       0.75000000       0.99981173 </v>
    <v>       0.25000000       0.75000000       0.49981173 </v>
    <v>       0.75000000       0.25000000       0.99981173 </v>
    <v>       0.75000000       0.25000000       0.49981173 </v>
    <v>       0.75000000       0.75000000       0.99981173 </v>
    <v>       0.75000000       0.75000000       0.49981173 </v>
    <v>       0.12500000       0.12500000       0.12518827 </v>
    <v>       0.12500000       0.12500000       0.62518827 </v>
    <v>       0.12500000       0.62500000       0.12518827 </v>
    <v>       0.12500000       0.62500000       0.62518827 </v>
    <v>       0.62500000       0.12500000       0.12518827 </v>
    <v>       0.62500000       0.12500000       0.62518827 </v>
    <v>       0.62500000       0.62500000       0.12518827 </v>
    <v>       0.62500000       0.62500000       0.62518827 </v>
   </varray>
  </structure>
  <varray name="forces" >
   <v>      -0.00000000       0.00000000      -0.00010373 </v>
   <v>      -0.00000000       0.00000000      -0.00010373 </v>
   <v>       0.00000000      -0.00000000      -0.00010373 </v>
   <v>       0.00000000      -0.00000000      -0.00010373 </v>
   <v>       0.00000000      -0.00000000      -0.00010373 </v>
   <v>       0.00000000      -0.00000000      -0.00010373 </v>
   <v>      -0.00000000       0.00000000      -0.00010373 </v>
   <v>      -0.00000000      -0.00000000      -0.00010373 </v>
   <v>      -0.00000000       0.00000000       0.00010373 </v>
   <v>      -0.00000000       0.00000000       0.00010373 </v>
   <v>       0.00000000      -0.00000000       0.00010373 </v>
   <v>       0.00000000      -0.00000000       0.00010373 </v>
   <v>      -0.00000000       0.00000000       0.00010373 </v>
   <v>      -0.00000000      -0.00000000       0.00010373 </v>
   <v>       0.00000000       0.00000000       0.00010373 </v>
   <v>       0.00000000       0.00000000       0.00010373 </v>
   <v>       0.00000000       0.00000000      -0.00010373 </v>
   <v>       0.00000000      -0.00000000      -0.00010373 </v>
   <v>      -0.00000000       0.00000000      -0.00010373 </v>
   <v>      -0.00000000       0.00000000      -0.00010373 </v>
   <v>       0.00000000       0.00000000      -0.00010373 </v>
   <v>       0.00000000       0.00000000      -0.00010373 </v>
   <v>       0.00000000      -0.00000000      -0.00010373 </v>
   <v>      -0.00000000      -0.00000000      -0.00010373 </v>
   <v>       0.00000000      -0.00000000       0.00010373 </v>
   <v>       0.00000000      -0.00000000       0.00010373 </v>
   <v>      -0.00000000       0.00000000       0.00010373 </v>
   <v>      -0.00000000       0.00000000       0.00010373 </v>
   <v>       0.00000000      -0.00000000       0.00010373 </v>
   <v>       0.00000000      -0.00000000       0.00010373 </v>
   <v>      -0.00000000      -0.00000000       0.00010373 </v>
   <v>      -0.00000000       0.00000000       0.00010373 </v>
   <v>      -0.00000000       0.00000000      -0.00010373 </v>
   <v>       0.00000000       0.00000000      -0.00010373 </v>
   <v>      -0.00000000      -0.00000000      -0.00010373 </v>
   <v>      -0.00000000      -0.00000000      -0.00010373 </v>
   <v>       0.00000000      -0.00000000      -0.00010373 </v>
   <v>       0.00000000      -0.00000000      -0.00010373 </v>
   <v>      -0.00000000       0.00000000      -0.00010373 </v>
   <v>       0.00000000       0.00000000      -0.00010373 </v>
   <v>      -0.00000000       0.00000000       0.00010373 </v>
   <v>      -0.00000000       0.00000000       0.00010373 </v>
   <v>       0.00000000      -0.00000000       0.00010373 </v>
   <v>       0.00000000      -0.00000000       0.00010373 </v>
   <v>      -0.00000000      -0.00000000       0.00010373 </v>
   <v>      -0.00000000       0.00000000       0.00010373 </v>
   <v>       0.00000000       0.00000000       0.00010373 </v>
   <v>      -0.00000000       0.00000000       0.00010373 </v>
   <v>       0.00000000      -0.00000000      -0.00010373 </v>
   <v>       0.00000000       0.00000000      -0.00010373 </v>
   <v>      -0.00000000      -0.00000000      -0.00010373 </v>
   <v>      -0.00000000       0.00000000      -0.00010373 </v>
   <v>       0.00000000       0.00000000      -0.00010373 </v>
   <v>      -0.00000000       0.00000000      -0.00010373 </v>
   <v>       0.00000000      -0.00000000      -0.00010373 </v>
   <v>       0.00000000      -0.00000000      -0.00010373 </v>
   <v>       0.00000000      -0.00000000       0.00010373 </v>
   <v>       0.00000000      -0.00000000       0.00010373 </v>
   <v>      -0.00000000       0.00000000       0.00010373 </v>
   <v>      -0.00000000       0.00000000       0.00010373 </v>
   <v>       0.00000000      -0.00000000       0.00010373 </v>
   <v>       0.00000000      -0.00000000       0.00010373 </v>
   <v>       0.00000000       0.00000000       0.00010373 </v>
   <v>      -0.00000000      -0.00000000       0.00010373 </v>
  </varray>
  <varray name="stress" >
   <v>      48.31012308       3.82525270       0.00000000 </v>
   <v>       3.82525272      44.11853826       0.00000000 </v>
   <v>       0.00000000       0.00000000      44.07712274 </v>
  </varray>
  <energy>
   <i name="e_fr_energy">   -366.85428775 </i>
   <i name="e_wo_entrp">   -366.88626973 </i>
   <i name="e_0_energy">   -366.86494841 </i>
  </energy>
  <time name="totalsc">   12.45   12.59</time>
  <eigenvalues>
   <array>
    <dimension dim="1">band</dimension>
    <dimension dim="2">kpoint</dimension>
    <dimension dim="3">spin</dimension>
    <field>eigene</field>
    <field>occ</field>
    <set>
     <set comment="spin 1">
      <set comment="kpoint 1">
       <r>   -6.0628    1.0000 </r>
       <r>   -4.9408    1.0000 </r>
       <r>   -4.9408    1.0000 </r>
       <r>   -4.9408    1.0000 </r>
       <r>   -4.9408    1.0000 </r>
       <r>   -4.9311    1.0000 </r>
       <r>   -4.9311    1.0000 </r>
       <r>   -3.9386    1.0000 </r>
       <r>   -3.9386    1.0000 </r>
       <r>   -3.9333    1.0000 </r>
       <r>   -3.9333    1.0000 </r>
       <r>   -3.9333    1.0000 </r>
       <r>   -3.9333    1.0000 </r>
       <r>   -3.9263    1.0000 </r>
       <r>   -3.9263    1.0000 </r>
       <r>   -3.9263    1.0000 </r>
       <r>   -3.9263    1.0000 </r>
       <r>   -3.9140    1.0000 </r>
       <r>   -3.9140    1.0000 </r>
       <r>   -3.6185    1.0000 </r>
       <r>   -3.6185    1.0000 </r>
       <r>   -3.5929    1.0000 </r>
       <r>   -3.5929    1.0000 </r>
       <r>   -1.7678    1.0000 </r>
       <r>   -1.7598    1.0000 </r>
       <r>   -1.7598    1.0000 </r>
       <r>   -1.7521    1.0000 </r>
       <r>   -1.7282    1.0000 </r>
       <r>   -1.7282    1.0000 </r>
       <r>   -1.5798    1.0000 </r>
       <r>   -1.5798    1.0000 </r>
       <r>   -1.5690    1.0000 </r>
       <r>   -1.5690    1.0000 </r>
       <r>   -1.5556    1.0000 </r>
       <r>   -1.5556    1.0000 </r>
       <r>   -1.5556    1.0000 </r>
       <r>   -1.5556    1.0000 </r>
       <r>   -1.5528    1.0000 </r>
       <r>   -1.5528    1.0000 </r>
       <r>   -1.5423    1.0000 </r>
       <r>   -1.5423    1.0000 </r>
       <r>   -1.0050    1.0000 </r>
       <r>   -1.0050    1.0000 </r>
       <r>   -0.9928    1.0000 </r>
       <r>   -0.9928    1.0000 </r>
       <r>    0.6353    1.0000 </r>
       <r>    0.6353    1.0000 </r>
       <r>    0.6391    1.0000 </r>
       <r>    0.6391    1.0000 </r>
       <r>    0.6391    1.0000 </r>
       <r>    0.6391    1.0000 </r>
       <r>    0.6431    1.0000 </r>
       <r>    0.6431    1.0000 </r>
       <r>    0.6581    1.0000 </r>
       <r>    0.6581    1.0000 </r>
       <r>    0.6581    1.0000 </r>
       <r>    0.6581    1.0000 </r>
       <r>    2.1214    1.0000 </r>
       <r>    2.1214    1.0000 </r>
       <r>    2.1243    1.0000 </r>
       <r>    2.1243    1.0000 </r>
       <r>    2.1307    1.0000 </r>
       <r>    2.1307    1.0000 </r>
       <r>    2.1307    1.0000 </r>
       <r>    2.1307    1.0000 </r>
       <r>    2.1339    1.0000 </r>
       <r>    2.1339    1.0000 </r>
       <r>    2.1372    1.0000 </r>
       <r>    2.1372    1.0000 </r>
       <r>    2.2361    1.0000 </r>
       <r>    2.2361    1.0000 </r>
       <r>    2.2410    1.0000 </r>
       <r>    2.2410    1.0000 </r>
       <r>    2.2410    1.0000 </r>
       <r>    2.2410    1.0000 </r>
       <r>    2.2454    1.0000 </r>
       <r>    2.2454    1.0000 </r>
       <r>    2.2699    1.0000 </r>
       <r>    2.2699    1.0000 </r>
       <r>    2.2699    1.0000 </r>
       <r>    2.2699    1.0000 </r>
       <r>    2.6916    1.0000 </r>
       <r>    2.6916    1.0000 </r>
       <r>    2.6919    1.0000 </r>
       <r>    2.6919    1.0000 </r>
       <r>    2.7291    1.0000 </r>
       <r>    2.7291    1.0000 </r>
       <r>    3.2065    1.0000 </r>
       <r>    3.2065    1.0000 </r>
       <r>    3.2113    1.0000 </r>
       <r>    3.2465    1.0000 </r>
       <r>    3.2465    1.0000 </r>
       <r>    3.2819    1.0000 </r>
       <r>    4.2073    1.0000 </r>
       <r>    4.2073    1.0000 </r>
       <r>    4.2102    1.0000 </r>
       <r>    4.2102    1.0000 </r>
       <r>    4.2103    1.0000 </r>
       <r>    4.2103    1.0000 </r>
       <r>    4.2355    1.0000 </r>
       <r>    4.2355    1.0000 </r>
       <r>    4.2468    1.0000 </r>
       <r>    4.2468    1.0000 </r>
       <r>    4.2753    1.0000 </r>
       <r>    4.2753    1.0000 </r>
       <r>    4.8064    1.0000 </r>
       <r>    4.8064    1.0000 </r>
       <r>    4.8064    1.0000 </r>
       <r>    4.8064    1.0000 </r>
       <r>    4.8229    1.0000 </r>
       <r>    4.8229    1.0000 </r>
       <r>    4.8478    1.0000 </r>
       <r>    4.8478    1.0000 </r>
       <r>    4.8478    1.0000 </r>
       <r>    4.8478    1.0000 </r>
       <r>    4.8731    1.0000 </r>
       <r>    4.8731    1.0000 </r>
       <r>    4.9417    1.0000 </r>
       <r>    4.9417    1.0000 </r>
       <r>    4.9623    1.0000 </r>
       <r>    4.9623    1.0000 </r>
       <r>    4.9853    1.0000 </r>
       <r>    4.9853    1.0000 </r>
       <r>    5.0244    1.0000 </r>
       <r>    5.0244    1.0000 </r>
       <r>    6.1919    1.0280 </r>
       <r>    6.2063    1.0310 </r>
       <r>    6.2570    1.0349 </r>
       <r>    6.6946   -0.0273 </r>
       <r>    6.6946   -0.0273 </r>
       <r>    6.6964   -0.0280 </r>
       <r>    6.7355   -0.0355 </r>
       <r>    6.7355   -0.0355 </r>
       <r>    6.7748   -0.0309 </r>
       <r>    7.1833   -0.0000 </r>
       <r>    7.1833   -0.0000 </r>
       <r>    7.2236   -0.0000 </r>
       <r>    7.2236   -0.0000 </r>
       <r>    7.2240   -0.0000 </r>
       <r>    7.2240   -0.0000 </r>
       <r>    7.8021   -0.0000 </r>
       <r>    7.8021   -0.0000 </r>
       <r>    7.8538   -0.0000 </r>
       <r>    7.8538   -0.0000 </r>
       <r>    8.5687   -0.0000 </r>
       <r>    8.5687   -0.0000 </r>
       <r>    8.5687   -0.0000 </r>
       <r>    8.5687   -0.0000 </r>
       <r>    8.5888   -0.0000 </r>
       <r>    8.5888   -0.0000 </r>
       <r>    8.6166   -0.0000 </r>
       <r>    8.6166   -0.0000 </r>
       <r>    8.6166   -0.0000 </r>
       <r>    8.6166   -0.0000 </r>
       <r>    8.6445   -0.0000 </r>
       <r>    8.6445   -0.0000 </r>
       <r>    8.7172   -0.0000 </r>
       <r>    8.7536   -0.0000 </r>
       <r>    8.7771   -0.0000 </r>
       <r>    9.2196   -0.0000 </r>
       <r>    9.2201   -0.0000 </r>
       <r>    9.2275   -0.0000 </r>
      </set>
      <set comment="kpoint 2">
       <r>   -5.7773    1.0000 </r>
       <r>   -5.7773    1.0000 </r>
       <r>   -4.6864    1.0000 </r>
       <r>   -4.6864    1.0000 </r>
       <r>   -4.6800    1.0000 </r>
       <r>   -4.6800    1.0000 </r>
       <r>   -4.6800    1.0000 </r>
       <r>   -4.6800    1.0000 </r>
       <r>   -4.6736    1.0000 </r>
       <r>   -4.6736    1.0000 </r>
       <r>   -3.7953    1.0000 </r>
       <r>   -3.7953    1.0000 </r>
       <r>   -3.7953    1.0000 </r>
       <r>   -3.7953    1.0000 </r>
       <r>   -3.7796    1.0000 </r>
       <r>   -3.7796    1.0000 </r>
       <r>   -3.7796    1.0000 </r>
       <r>   -3.7796    1.0000 </r>
       <r>   -3.5579    1.0000 </r>
       <r>   -3.5579    1.0000 </r>
       <r>   -2.8103    1.0000 </r>
       <r>   -2.8103    1.0000 </r>
       <r>   -2.7942    1.0000 </r>
       <r>   -2.7942    1.0000 </r>
       <r>   -2.7942    1.0000 </r>
       <r>   -2.7942    1.0000 </r>
       <r>   -2.7781    1.0000 </r>
       <r>   -2.7781    1.0000 </r>
       <r>   -1.6786    1.0000 </r>
       <r>   -1.6786    1.0000 </r>
       <r>   -1.6785    1.0000 </r>
       <r>   -1.6785    1.0000 </r>
       <r>   -1.6588    1.0000 </r>
       <r>   -1.6588    1.0000 </r>
       <r>   -1.6585    1.0000 </r>
       <r>   -1.6585    1.0000 </r>
       <r>   -0.4668    1.0000 </r>
       <r>   -0.4668    1.0000 </r>
       <r>   -0.4628    1.0000 </r>
       <r>   -0.4628    1.0000 </r>
       <r>   -0.4628    1.0000 </r>
       <r>   -0.4628    1.0000 </r>
       <r>   -0.4591    1.0000 </r>
       <r>   -0.4591    1.0000 </r>
       <r>   -0.3598    1.0000 </r>
       <r>   -0.3598    1.0000 </r>
       <r>   -0.3598    1.0000 </r>
       <r>   -0.3598    1.0000 </r>
       <r>   -0.3403    1.0000 </r>
       <r>   -0.3403    1.0000 </r>
       <r>   -0.3403    1.0000 </r>
       <r>   -0.3403    1.0000 </r>
       <r>    0.4306    1.0000 </r>
       <r>    0.4306    1.0000 </r>
       <r>    1.7294    1.0000 </r>
       <r>    1.7294    1.0000 </r>
       <r>    1.7317    1.0000 </r>
       <r>    1.7317    1.0000 </r>
       <r>    1.7317    1.0000 </r>
       <r>    1.7317    1.0000 </r>
       <r>    1.7339    1.0000 </r>
       <r>    1.7339    1.0000 </r>
       <r>    1.8655    1.0000 </r>
       <r>    1.8655    1.0000 </r>
       <r>    1.8719    1.0000 </r>
       <r>    1.8719    1.0000 </r>
       <r>    1.8719    1.0000 </r>
       <r>    1.8719    1.0000 </r>
       <r>    1.8791    1.0000 </r>
       <r>    1.8791    1.0000 </r>
       <r>    2.5878    1.0000 </r>
       <r>    2.5878    1.0000 </r>
       <r>    2.6087    1.0000 </r>
       <r>    2.6087    1.0000 </r>
       <r>    2.6136    1.0000 </r>
       <r>    2.6136    1.0000 </r>
       <r>    2.6347    1.0000 </r>
       <r>    2.6347    1.0000 </r>
       <r>    3.3384    1.0000 </r>
       <r>    3.3384    1.0000 </r>
       <r>    3.3463    1.0000 </r>
       <r>    3.3463    1.0000 </r>
       <r>    3.3463    1.0000 </r>
       <r>    3.3463    1.0000 </r>
       <r>    3.3536    1.0000 </r>
       <r>    3.3536    1.0000 </r>
       <r>    3.4624    1.0000 </r>
       <r>    3.4624    1.0000 </r>
       <r>    3.4625    1.0000 </r>
       <r>    3.4625    1.0000 </r>
       <r>    3.4871    1.0000 </r>
       <r>    3.4871    1.0000 </r>
       <r>    3.5052    1.0000 </r>
       <r>    3.5052    1.0000 </r>
       <r>    3.5052    1.0000 </r>
       <r>    3.5052    1.0000 </r>
       <r>    3.5235    1.0000 </r>
       <r>    3.5235    1.0000 </r>
       <r>    3.6580    1.0000 </r>
       <r>    3.6580    1.0000 </r>
       <r>    3.6580    1.0000 </r>
       <r>    3.6580    1.0000 </r>
       <r>    3.6964    1.0000 </r>
       <r>    3.6964    1.0000 </r>
       <r>    3.6964    1.0000 </r>
       <r>    3.6964    1.0000 </r>
       <r>    4.7165    1.0000 </r>
       <r>    4.7165    1.0000 </r>
       <r>    4.7297    1.0000 </r>
       <r>    4.7297    1.0000 </r>
       <r>    4.7297    1.0000 </r>
       <r>    4.7297    1.0000 </r>
       <r>    4.7432    1.0000 </r>
       <r>    4.7432    1.0000 </r>
       <r>    4.8701    1.0000 </r>
       <r>    4.8701    1.0000 </r>
       <r>    4.8701    1.0000 </r>
       <r>    4.8701    1.0000 </r>
       <r>    4.8837    1.0000 </r>
       <r>    4.8837    1.0000 </r>
       <r>    4.8837    1.0000 </r>
       <r>    4.8837    1.0000 </r>
       <r>    4.9385    1.0000 </r>
       <r>    4.9385    1.0000 </r>
[...]
      </set>
     </set>
    </set>
   </array>
  </eigenvalues>
  <separator name="orbital magnetization" >
   <v name="MAGDIPOLOUT">      0.00000000      0.00000000      0.00000000</v>
  </separator>
  <dos>
   <i name="efermi">      6.49019342 </i>
   <total>
    <array>
     <dimension dim="1">gridpoints</dimension>
     <dimension dim="2">spin</dimension>
     <field>energy</field>
     <field>total</field>
     <field>integrated</field>
     <set>
      <set comment="spin 1">
       <r>    -8.0628     0.0000     0.0000 </r>
       <r>    -7.9969     0.0000     0.0000 </r>
       <r>    -7.9310     0.0000     0.0000 </r>
       <r>    -7.8650     0.0000     0.0000 </r>
       <r>    -7.7991     0.0000     0.0000 </r>
       <r>    -7.7332     0.0000     0.0000 </r>
       <r>    -7.6673    -0.0000    -0.0000 </r>
       <r>    -7.6014    -0.0000    -0.0000 </r>
       <r>    -7.5355    -0.0000    -0.0000 </r>
       <r>    -7.4696    -0.0000    -0.0000 </r>
       <r>    -7.4037    -0.0000    -0.0000 </r>
       <r>    -7.3378    -0.0000    -0.0000 </r>
       <r>    -7.2719    -0.0000    -0.0000 </r>
       <r>    -7.2060    -0.0000    -0.0000 </r>
       <r>    -7.1401    -0.0000    -0.0000 </r>
       <r>    -7.0742    -0.0000    -0.0000 </r>
       <r>    -7.0083    -0.0000    -0.0000 </r>
       <r>    -6.9424    -0.0000    -0.0000 </r>
       <r>    -6.8765    -0.0000    -0.0000 </r>
       <r>    -6.8106    -0.0000    -0.0000 </r>
       <r>    -6.7447    -0.0000    -0.0000 </r>
       <r>    -6.6788    -0.0002    -0.0000 </r>
       <r>    -6.6129    -0.0011    -0.0001 </r>
       <r>    -6.5470    -0.0049    -0.0004 </r>
       <r>    -6.4811    -0.0162    -0.0015 </r>
       <r>    -6.4152    -0.0388    -0.0040 </r>
       <r>    -6.3493    -0.0594    -0.0079 </r>
       <r>    -6.2834    -0.0277    -0.0098 </r>
       <r>    -6.2175     0.1196    -0.0019 </r>
       <r>    -6.1516     0.3667     0.0223 </r>
       <r>    -6.0857     0.5923     0.0613 </r>
       <r>    -6.0198     0.8000     0.1140 </r>
       <r>    -5.9538     1.3672     0.2041 </r>
       <r>    -5.8879     2.6972     0.3819 </r>
       <r>    -5.8220     4.4347     0.6742 </r>
       <r>    -5.7561     5.6147     1.0442 </r>
       <r>    -5.6902     6.1196     1.4475 </r>
       <r>    -5.6243     7.2133     1.9229 </r>
       <r>    -5.5584     9.5945     2.5552 </r>
       <r>    -5.4925    11.7260     3.3280 </r>
       <r>    -5.4266    11.6482     4.0956 </r>
       <r>    -5.3607     9.8236     4.7430 </r>
       <r>    -5.2948     8.3528     5.2935 </r>
       <r>    -5.2289     7.8474     5.8107 </r>
       <r>    -5.1630     7.0944     6.2782 </r>
       <r>    -5.0971     5.5816     6.6461 </r>
       <r>    -5.0312     4.3323     6.9316 </r>
       <r>    -4.9653     4.2188     7.2096 </r>
       <r>    -4.8994     5.4141     7.5664 </r>
       <r>    -4.8335     8.6433     8.1360 </r>
       <r>    -4.7676    14.5904     9.0976 </r>
       <r>    -4.7017    21.4256    10.5096 </r>
       <r>    -4.6358    25.6915    12.2028 </r>
       <r>    -4.5699    26.6854    13.9614 </r>
       <r>    -4.5040    26.7933    15.7272 </r>
       <r>    -4.4381    26.4779    17.4722 </r>
       <r>    -4.3722    22.8768    18.9798 </r>
       <r>    -4.3063    14.8112    19.9559 </r>
       <r>    -4.2404     5.5973    20.3248 </r>
       <r>    -4.1745    -0.4045    20.2982 </r>
       <r>    -4.1086    -1.3574    20.2087 </r>
       <r>    -4.0427     2.4544    20.3705 </r>
       <r>    -3.9767    10.0652    21.0338 </r>
       <r>    -3.9108    19.6537    22.3290 </r>
       <r>    -3.8449    27.9612    24.1718 </r>
       <r>    -3.7790    31.3173    26.2357 </r>
       <r>    -3.7131    28.2591    28.0981 </r>
       <r>    -3.6472    21.1645    29.4929 </r>
       <r>    -3.5813    14.7174    30.4628 </r>
       <r>    -3.5154    12.9273    31.3147 </r>
       <r>    -3.4495    17.3385    32.4574 </r>
       <r>    -3.3836    26.2939    34.1903 </r>
       <r>    -3.3177    35.4331    36.5254 </r>
       <r>    -3.2518    40.5692    39.1991 </r>
       <r>    -3.1859    40.7069    41.8818 </r>
       <r>    -3.1200    37.5768    44.3582 </r>
       <r>    -3.0541    32.9155    46.5275 </r>
       <r>    -2.9882    27.9184    48.3674 </r>
       <r>    -2.9223    24.6049    49.9889 </r>
       <r>    -2.8564    24.3923    51.5965 </r>
       <r>    -2.7905    24.8952    53.2372 </r>
       <r>    -2.7246    21.6520    54.6641 </r>
       <r>    -2.6587    13.8233    55.5751 </r>
       <r>    -2.5928     5.2855    55.9234 </r>
       <r>    -2.5269    -0.1384    55.9143 </r>
       <r>    -2.4610    -1.9554    55.7854 </r>
       <r>    -2.3951    -1.4531    55.6897 </r>
       <r>    -2.3292     0.8185    55.7436 </r>
       <r>    -2.2633     4.9199    56.0678 </r>
       <r>    -2.1974     9.6222    56.7020 </r>
       <r>    -2.1315    12.0576    57.4966 </r>
       <r>    -2.0656    10.1929    58.1684 </r>
       <r>    -1.9996     5.2738    58.5159 </r>
       <r>    -1.9337     1.2208    58.5964 </r>
       <r>    -1.8678     2.0192    58.7295 </r>
       <r>    -1.8019     9.5153    59.3566 </r>
       <r>    -1.7360    21.9025    60.8000 </r>
       <r>    -1.6701    33.4502    63.0045 </r>
       <r>    -1.6042    37.4761    65.4743 </r>
       <r>    -1.5383    31.4634    67.5478 </r>
       <r>    -1.4724    19.2010    68.8132 </r>
       <r>    -1.4065     7.5437    69.3104 </r>
       <r>    -1.3406     1.5199    69.4106 </r>
       <r>    -1.2747     2.1171    69.5501 </r>
       <r>    -1.2088     6.8562    70.0019 </r>
       <r>    -1.1429    11.5405    70.7625 </r>
       <r>    -1.0770    12.8312    71.6081 </r>
       <r>    -1.0111    10.8183    72.3211 </r>
       <r>    -0.9452     9.1697    72.9254 </r>
       <r>    -0.8793    11.6822    73.6953 </r>
       <r>    -0.8134    17.7734    74.8666 </r>
       <r>    -0.7475    22.1117    76.3238 </r>
       <r>    -0.6816    20.6303    77.6834 </r>
       <r>    -0.6157    16.7172    78.7852 </r>
       <r>    -0.5498    18.9175    80.0319 </r>
       <r>    -0.4839    31.6972    82.1208 </r>
       <r>    -0.4180    49.7184    85.3975 </r>
       <r>    -0.3521    61.4344    89.4462 </r>
       <r>    -0.2862    58.1804    93.2805 </r>
       <r>    -0.2203    40.9786    95.9811 </r>
       <r>    -0.1544    19.3773    97.2581 </r>
       <r>    -0.0884     3.7280    97.5038 </r>
       <r>    -0.0225    -1.1192    97.4301 </r>
       <r>     0.0434     3.8762    97.6855 </r>
       <r>     0.1093    14.0637    98.6124 </r>
       <r>     0.1752    22.7580   100.1122 </r>
       <r>     0.2411    24.5616   101.7309 </r>
       <r>     0.3070    19.3952   103.0091 </r>
       <r>     0.3729    11.9194   103.7946 </r>
       <r>     0.4388     6.7431   104.2390 </r>
       <r>     0.5047     5.7607   104.6187 </r>
       <r>     0.5706     9.1987   105.2249 </r>
       <r>     0.6365    16.3875   106.3049 </r>
       <r>     0.7024    24.8611   107.9433 </r>
       <r>     0.7683    30.2528   109.9371 </r>
       <r>     0.8342    28.7458   111.8315 </r>
       <r>     0.9001    20.4861   113.1816 </r>
       <r>     0.9660     9.9813   113.8394 </r>
       <r>     1.0319     2.2406   113.9871 </r>
       <r>     1.0978    -1.0620   113.9171 </r>
       <r>     1.1637    -1.4378   113.8223 </r>
       <r>     1.2296    -1.0175   113.7553 </r>
       <r>     1.2955    -0.9751   113.6910 </r>
       <r>     1.3614    -1.4660   113.5944 </r>
       <r>     1.4273    -1.6924   113.4829 </r>
       <r>     1.4932     0.2934   113.5022 </r>
       <r>     1.5591     6.8862   113.9560 </r>
       <r>     1.6250    18.6682   115.1863 </r>
       <r>     1.6909    32.5280   117.3300 </r>
       <r>     1.7568    42.8743   120.1556 </r>
       <r>     1.8227    45.2712   123.1391 </r>
       <r>     1.8887    39.2362   125.7249 </r>
       <r>     1.9546    28.7922   127.6224 </r>
       <r>     2.0205    20.6270   128.9818 </r>
       <r>     2.0864    19.3728   130.2585 </r>
       <r>     2.1523    23.1173   131.7820 </r>
       <r>     2.2182    25.1443   133.4391 </r>
       <r>     2.2841    21.6676   134.8671 </r>
       <r>     2.3500    17.2873   136.0064 </r>
       <r>     2.4159    21.7567   137.4402 </r>
       <r>     2.4818    40.5670   140.1137 </r>
       <r>     2.5477    67.6614   144.5728 </r>
       <r>     2.6136    87.3815   150.3316 </r>
       <r>     2.6795    85.9159   155.9937 </r>
       <r>     2.7454    63.0731   160.1505 </r>
       <r>     2.8113    32.2519   162.2760 </r>
       <r>     2.8772     8.2165   162.8175 </r>
       <r>     2.9431    -3.6604   162.5762 </r>
       <r>     3.0090    -6.4639   162.1502 </r>
       <r>     3.0749    -3.8143   161.8988 </r>
       <r>     3.1408     4.6465   162.2051 </r>
       <r>     3.2067    20.5654   163.5604 </r>
       <r>     3.2726    41.6443   166.3049 </r>
       <r>     3.3385    61.1095   170.3322 </r>
       <r>     3.4044    72.9148   175.1375 </r>
       <r>     3.4703    75.7762   180.1314 </r>
       <r>     3.5362    71.6705   184.8548 </r>
       <r>     3.6021    62.7543   188.9905 </r>
       <r>     3.6680    51.1677   192.3626 </r>
       <r>     3.7339    40.8765   195.0565 </r>
       <r>     3.7998    37.1984   197.5080 </r>
       <r>     3.8658    41.3282   200.2317 </r>
       <r>     3.9317    46.0785   203.2684 </r>
       <r>     3.9976    42.1929   206.0491 </r>
       <r>     4.0635    29.8385   208.0155 </r>
       <r>     4.1294    19.2070   209.2813 </r>
       <r>     4.1953    18.6593   210.5110 </r>
       <r>     4.2612    26.1547   212.2347 </r>
       <r>     4.3271    33.6869   214.4548 </r>
       <r>     4.3930    36.9122   216.8874 </r>
       <r>     4.4589    37.6067   219.3658 </r>
       <r>     4.5248    38.3780   221.8951 </r>
       <r>     4.5907    39.2771   224.4836 </r>
       <r>     4.6566    40.2464   227.1360 </r>
       <r>     4.7225    43.0157   229.9708 </r>
       <r>     4.7884    48.4498   233.1638 </r>
       <r>     4.8543    53.5403   236.6923 </r>
       <r>     4.9202    52.6186   240.1601 </r>
       <r>     4.9861    42.3142   242.9487 </r>
       <r>     5.0520    25.5367   244.6317 </r>
       <r>     5.1179     9.9532   245.2876 </r>
       <r>     5.1838     2.4504   245.4491 </r>
       <r>     5.2497     5.0964   245.7850 </r>
       <r>     5.3156    14.5849   246.7462 </r>
       <r>     5.3815    23.9660   248.3256 </r>
       <r>     5.4474    26.5978   250.0785 </r>
       <r>     5.5133    20.8428   251.4521 </r>
       <r>     5.5792    10.9347   252.1727 </r>
       <r>     5.6451     2.7879   252.3565 </r>
       <r>     5.7110    -0.3226   252.3352 </r>
       <r>     5.7770     1.5755   252.4390 </r>
       <r>     5.8429     6.3760   252.8592 </r>
       <r>     5.9088    10.8034   253.5712 </r>
       <r>     5.9747    11.9431   254.3583 </r>
       <r>     6.0406     9.4706   254.9825 </r>
       <r>     6.1065     5.7983   255.3646 </r>
       <r>     6.1724     3.3602   255.5860 </r>
       <r>     6.2383     2.4106   255.7449 </r>
       <r>     6.3042     1.7721   255.8617 </r>
       <r>     6.3701     0.8353   255.9167 </r>
       <r>     6.4360     0.2964   255.9363 </r>
       <r>     6.5019     1.3936   256.0281 </r>
       <r>     6.5678     4.6185   256.3325 </r>
       <r>     6.6337     8.7719   256.9106 </r>
       <r>     6.6996    11.3581   257.6591 </r>
       <r>     6.7655    10.5350   258.3534 </r>
       <r>     6.8314     6.7840   258.8005 </r>
       <r>     6.8973     2.4029   258.9589 </r>
       <r>     6.9632    -0.2643   258.9414 </r>
       <r>     7.0291     0.2737   258.9595 </r>
       <r>     7.0950     4.4694   259.2540 </r>
       <r>     7.1609    10.8721   259.9705 </r>
       <r>     7.2268    15.7823   261.0106 </r>
       <r>     7.2927    15.9963   262.0649 </r>
       <r>     7.3586    12.9211   262.9164 </r>
       <r>     7.4245    12.2661   263.7248 </r>
       <r>     7.4904    17.7790   264.8965 </r>
       <r>     7.5563    25.9435   266.6062 </r>
       <r>     7.6222    28.9523   268.5143 </r>
       <r>     7.6881    23.1457   270.0397 </r>
       <r>     7.7541    12.8848   270.8888 </r>
       <r>     7.8200     6.3892   271.3099 </r>
       <r>     7.8859     9.7016   271.9493 </r>
       <r>     7.9518    23.2348   273.4805 </r>
       <r>     8.0177    40.3809   276.1417 </r>
       <r>     8.0836    50.3273   279.4585 </r>
       <r>     8.1495    46.7446   282.5391 </r>
       <r>     8.2154    34.3389   284.8022 </r>
       <r>     8.2813    24.2634   286.4012 </r>
       <r>     8.3472    23.7305   287.9651 </r>
       <r>     8.4131    32.5158   290.1080 </r>
       <r>     8.4790    47.3179   293.2264 </r>
       <r>     8.5449    64.1569   297.4546 </r>
       <r>     8.6108    76.3814   302.4884 </r>
       <r>     8.6767    76.2639   307.5144 </r>
       <r>     8.7426    61.9350   311.5962 </r>
       <r>     8.8085    40.4664   314.2630 </r>
       <r>     8.8744    22.1247   315.7211 </r>
       <r>     8.9403    12.3832   316.5372 </r>
       <r>     9.0062    10.0867   317.2020 </r>
       <r>     9.0721    11.8908   317.9856 </r>
       <r>     9.1380    15.8371   319.0293 </r>
       <r>     9.2039    20.0207   320.3488 </r>
       <r>     9.2698    21.0587   321.7366 </r>
       <r>     9.3357    16.8208   322.8451 </r>
       <r>     9.4016     9.3350   323.4604 </r>
       <r>     9.4675     2.8673   323.6493 </r>
       <r>     9.5334    -0.1214   323.6413 </r>
       <r>     9.5993    -0.1368   323.6323 </r>
       <r>     9.6652     0.9949   323.6979 </r>
       <r>     9.7312     1.7868   323.8156 </r>
       <r>     9.7971     1.6991   323.9276 </r>
       <r>     9.8630     1.0210   323.9949 </r>
       <r>     9.9289     0.3336   324.0169 </r>
       <r>     9.9948    -0.0320   324.0148 </r>
       <r>    10.0607    -0.1103   324.0075 </r>
       <r>    10.1266    -0.0726   324.0027 </r>
       <r>    10.1925    -0.0299   324.0007 </r>
       <r>    10.2584    -0.0089   324.0002 </r>
       <r>    10.3243    -0.0020   324.0000 </r>
       <r>    10.3902    -0.0003   324.0000 </r>
       <r>    10.4561    -0.0000   324.0000 </r>
       <r>    10.5220    -0.0000   324.0000 </r>
       <r>    10.5879    -0.0000   324.0000 </r>
       <r>    10.6538    -0.0000   324.0000 </r>
       <r>    10.7197    -0.0000   324.0000 </r>
       <r>    10.7856    -0.0000   324.0000 </r>
       <r>    10.8515    -0.0000   324.0000 </r>
       <r>    10.9174    -0.0000   324.0000 </r>
       <r>    10.9833    -0.0000   324.0000 </r>
       <r>    11.0492     0.0000   324.0000 </r>
       <r>    11.1151     0.0000   324.0000 </r>
       <r>    11.1810     0.0000   324.0000 </r>
       <r>    11.2469     0.0000   324.0000 </r>
       <r>    11.3128     0.0000   324.0000 </r>
       <r>    11.3787     0.0000   324.0000 </r>
       <r>    11.4446     0.0000   324.0000 </r>
       <r>    11.5105     0.0000   324.0000 </r>
       <r>    11.5764     0.0000   324.0000 </r>
       <r>    11.6424     0.0000   324.0000 </r>
       <r>    11.7083     0.0000   324.0000 </r>
      </set>
     </set>
    </array>
   </total>
  </dos>
 </calculation>
 <structure name="finalpos" >
  <crystal>
   <varray name="basis" >
    <v>      10.67758958      -0.02682800       0.00000000 </v>
    <v>      -0.02682800      10.73124558       0.00000000 </v>
    <v>       0.00000000       0.00000000      10.73124558 </v>
   </varray>
   <i name="volume">   1229.61956047 </i>
   <varray name="rec_basis" >
    <v>       0.09365468       0.00023414       0.00000000 </v>
    <v>       0.00023414       0.09318641       0.00000000 </v>
    <v>       0.00000000       0.00000000       0.09318583 </v>
   </varray>
  </crystal>
  <varray name="positions" >
   <v>       0.00000000       0.00000000       0.99981173 </v>
   <v>       0.00000000       0.00000000       0.49981173 </v>
   <v>       0.00000000       0.50000000       0.99981173 </v>
   <v>       0.00000000       0.50000000       0.49981173 </v>
   <v>       0.50000000       0.00000000       0.99981173 </v>
   <v>       0.50000000       0.00000000       0.49981173 </v>
   <v>       0.50000000       0.50000000       0.99981173 </v>
   <v>       0.50000000       0.50000000       0.49981173 </v>
   <v>       0.37500000       0.37500000       0.12518827 </v>
   <v>       0.37500000       0.37500000       0.62518827 </v>
   <v>       0.37500000       0.87500000       0.12518827 </v>
   <v>       0.37500000       0.87500000       0.62518827 </v>
   <v>       0.87500000       0.37500000       0.12518827 </v>
   <v>       0.87500000       0.37500000       0.62518827 </v>
   <v>       0.87500000       0.87500000       0.12518827 </v>
   <v>       0.87500000       0.87500000       0.62518827 </v>
   <v>       0.00000000       0.25000000       0.24981173 </v>
   <v>       0.00000000       0.25000000       0.74981173 </v>
   <v>       0.00000000       0.75000000       0.24981173 </v>
   <v>       0.00000000       0.75000000       0.74981173 </v>
   <v>       0.50000000       0.25000000       0.24981173 </v>
   <v>       0.50000000       0.25000000       0.74981173 </v>
   <v>       0.50000000       0.75000000       0.24981173 </v>
   <v>       0.50000000       0.75000000       0.74981173 </v>
   <v>       0.37500000       0.12500000       0.37518827 </v>
   <v>       0.37500000       0.12500000       0.87518827 </v>
   <v>       0.37500000       0.62500000       0.37518827 </v>
   <v>       0.37500000       0.62500000       0.87518827 </v>
   <v>       0.87500000       0.12500000       0.37518827 </v>
   <v>       0.87500000       0.12500000       0.87518827 </v>
   <v>       0.87500000       0.62500000       0.37518827 </v>
   <v>       0.87500000       0.62500000       0.87518827 </v>
   <v>       0.25000000       0.00000000       0.24981173 </v>
   <v>       0.25000000       0.00000000       0.74981173 </v>
   <v>       0.25000000       0.50000000       0.24981173 </v>
   <v>       0.25000000       0.50000000       0.74981173 </v>
   <v>       0.75000000       0.00000000       0.24981173 </v>
   <v>       0.75000000       0.00000000       0.74981173 </v>
   <v>       0.75000000       0.50000000       0.24981173 </v>
   <v>       0.75000000       0.50000000       0.74981173 </v>
   <v>       0.12500000       0.37500000       0.37518827 </v>
   <v>       0.12500000       0.37500000       0.87518827 </v>
   <v>       0.12500000       0.87500000       0.37518827 </v>
   <v>       0.12500000       0.87500000       0.87518827 </v>
   <v>       0.62500000       0.37500000       0.37518827 </v>
   <v>       0.62500000       0.37500000       0.87518827 </v>
   <v>       0.62500000       0.87500000       0.37518827 </v>
   <v>       0.62500000       0.87500000       0.87518827 </v>
   <v>       0.25000000       0.25000000       0.99981173 </v>
   <v>       0.25000000       0.25000000       0.49981173 </v>
   <v>       0.25000000       0.75000000       0.99981173 </v>
   <v>       0.25000000       0.75000000       0.49981173 </v>
   <v>       0.75000000       0.25000000       0.99981173 </v>
   <v>       0.75000000       0.25000000       0.49981173 </v>
   <v>       0.75000000       0.75000000       0.99981173 </v>
   <v>       0.75000000       0.75000000       0.49981173 </v>
   <v>       0.12500000       0.12500000       0.12518827 </v>
   <v>       0.12500000       0.12500000       0.62518827 </v>
   <v>       0.12500000       0.62500000       0.12518827 </v>
   <v>       0.12500000       0.62500000       0.62518827 </v>
   <v>       0.62500000       0.12500000       0.12518827 </v>
   <v>       0.62500000       0.12500000       0.62518827 </v>
   <v>       0.62500000       0.62500000       0.12518827 </v>
   <v>       0.62500000       0.62500000       0.62518827 </v>
  </varray>
 </structure>
</modeling>
