Si64                                    
           1
    10.677590   -0.026828    0.000000
    -0.026828   10.731246    0.000000
     0.000000    0.000000   10.731246
   Si
    64
Direct configuration=     1
   0.00000000  0.00000000  0.00000000
   0.00000000  0.00000000  0.50000000
   0.00000000  0.50000000  0.00000000
   0.00000000  0.50000000  0.50000000
   0.50000000  0.00000000  0.00000000
   0.50000000  0.00000000  0.50000000
   0.50000000  0.50000000  0.00000000
   0.50000000  0.50000000  0.50000000
   0.37500000  0.37500000  0.12500000
   0.37500000  0.37500000  0.62500000
   0.37500000  0.87500000  0.12500000
   0.37500000  0.87500000  0.62500000
   0.87500000  0.37500000  0.12500000
   0.87500000  0.37500000  0.62500000
   0.87500000  0.87500000  0.12500000
   0.87500000  0.87500000  0.62500000
   0.00000000  0.25000000  0.25000000
   0.00000000  0.25000000  0.75000000
   0.00000000  0.75000000  0.25000000
   0.00000000  0.75000000  0.75000000
   0.50000000  0.25000000  0.25000000
   0.50000000  0.25000000  0.75000000
   0.50000000  0.75000000  0.25000000
   0.50000000  0.75000000  0.75000000
   0.37500000  0.12500000  0.37500000
   0.37500000  0.12500000  0.87500000
   0.37500000  0.62500000  0.37500000
   0.37500000  0.62500000  0.87500000
   0.87500000  0.12500000  0.37500000
   0.87500000  0.12500000  0.87500000
   0.87500000  0.62500000  0.37500000
   0.87500000  0.62500000  0.87500000
   0.25000000  0.00000000  0.25000000
   0.25000000  0.00000000  0.75000000
   0.25000000  0.50000000  0.25000000
   0.25000000  0.50000000  0.75000000
   0.75000000  0.00000000  0.25000000
   0.75000000  0.00000000  0.75000000
   0.75000000  0.50000000  0.25000000
   0.75000000  0.50000000  0.75000000
   0.12500000  0.37500000  0.37500000
   0.12500000  0.37500000  0.87500000
   0.12500000  0.87500000  0.37500000
   0.12500000  0.87500000  0.87500000
   0.62500000  0.37500000  0.37500000
   0.62500000  0.37500000  0.87500000
   0.62500000  0.87500000  0.37500000
   0.62500000  0.87500000  0.87500000
   0.25000000  0.25000000  0.00000000
   0.25000000  0.25000000  0.50000000
   0.25000000  0.75000000  0.00000000
   0.25000000  0.75000000  0.50000000
   0.75000000  0.25000000  0.00000000
   0.75000000  0.25000000  0.50000000
   0.75000000  0.75000000  0.00000000
   0.75000000  0.75000000  0.50000000
   0.12500000  0.12500000  0.12500000
   0.12500000  0.12500000  0.62500000
   0.12500000  0.62500000  0.12500000
   0.12500000  0.62500000  0.62500000
   0.62500000  0.12500000  0.12500000
   0.62500000  0.12500000  0.62500000
   0.62500000  0.62500000  0.12500000
   0.62500000  0.62500000  0.62500000
Direct configuration=     2
   0.00000000  0.00000000  0.99973329
   0.00000000  1.00000000  0.49973329
   1.00000000  0.50000000  0.99973329
   1.00000000  0.50000000  0.49973329
   0.50000000  1.00000000  0.99973329
   0.50000000  0.00000000  0.49973329
   0.50000000  0.50000000  0.99973329
   0.50000000  0.50000000  0.49973329
   0.37500000  0.37500000  0.12526671
   0.37500000  0.37500000  0.62526671
   0.37500000  0.87500000  0.12526671
   0.37500000  0.87500000  0.62526671
   0.87500000  0.37500000  0.12526671
   0.87500000  0.37500000  0.62526671
   0.87500000  0.87500000  0.12526671
   0.87500000  0.87500000  0.62526671
   0.00000000  0.25000000  0.24973329
   0.00000000  0.25000000  0.74973329
   1.00000000  0.75000000  0.24973329
   1.00000000  0.75000000  0.74973329
   0.50000000  0.25000000  0.24973329
   0.50000000  0.25000000  0.74973329
   0.50000000  0.75000000  0.24973329
   0.50000000  0.75000000  0.74973329
   0.37500000  0.12500000  0.37526671
   0.37500000  0.12500000  0.87526671
   0.37500000  0.62500000  0.37526671
   0.37500000  0.62500000  0.87526671
   0.87500000  0.12500000  0.37526671
   0.87500000  0.12500000  0.87526671
   0.87500000  0.62500000  0.37526671
   0.87500000  0.62500000  0.87526671
   0.25000000  1.00000000  0.24973329
   0.25000000  1.00000000  0.74973329
   0.25000000  0.50000000  0.24973329
   0.25000000  0.50000000  0.74973329
   0.75000000  0.00000000  0.24973329
   0.75000000  0.00000000  0.74973329
   0.75000000  0.50000000  0.24973329
   0.75000000  0.50000000  0.74973329
   0.12500000  0.37500000  0.37526671
   0.12500000  0.37500000  0.87526671
   0.12500000  0.87500000  0.37526671
   0.12500000  0.87500000  0.87526671
   0.62500000  0.37500000  0.37526671
   0.62500000  0.37500000  0.87526671
   0.62500000  0.87500000  0.37526671
   0.62500000  0.87500000  0.87526671
   0.25000000  0.25000000  0.99973329
   0.25000000  0.25000000  0.49973329
   0.25000000  0.75000000  0.99973329
   0.25000000  0.75000000  0.49973329
   0.75000000  0.25000000  0.99973329
   0.75000000  0.25000000  0.49973329
   0.75000000  0.75000000  0.99973329
   0.75000000  0.75000000  0.49973329
   0.12500000  0.12500000  0.12526671
   0.12500000  0.12500000  0.62526671
   0.12500000  0.62500000  0.12526671
   0.12500000  0.62500000  0.62526671
   0.62500000  0.12500000  0.12526671
   0.62500000  0.12500000  0.62526671
   0.62500000  0.62500000  0.12526671
   0.62500000  0.62500000  0.62526671
Direct configuration=     3
   0.00000000  0.00000000  0.99981173
   0.00000000  0.00000000  0.49981173
   0.00000000  0.50000000  0.99981173
   0.00000000  0.50000000  0.49981173
   0.50000000  0.00000000  0.99981173
   0.50000000  0.00000000  0.49981173
   0.50000000  0.50000000  0.99981173
   0.50000000  0.50000000  0.49981173
   0.37500000  0.37500000  0.12518827
   0.37500000  0.37500000  0.62518827
   0.37500000  0.87500000  0.12518827
   0.37500000  0.87500000  0.62518827
   0.87500000  0.37500000  0.12518827
   0.87500000  0.37500000  0.62518827
   0.87500000  0.87500000  0.12518827
   0.87500000  0.87500000  0.62518827
   0.00000000  0.25000000  0.24981173
   0.00000000  0.25000000  0.74981173
   0.00000000  0.75000000  0.24981173
   0.00000000  0.75000000  0.74981173
   0.50000000  0.25000000  0.24981173
   0.50000000  0.25000000  0.74981173
   0.50000000  0.75000000  0.24981173
   0.50000000  0.75000000  0.74981173
   0.37500000  0.12500000  0.37518827
   0.37500000  0.12500000  0.87518827
   0.37500000  0.62500000  0.37518827
   0.37500000  0.62500000  0.87518827
   0.87500000  0.12500000  0.37518827
   0.87500000  0.12500000  0.87518827
   0.87500000  0.62500000  0.37518827
   0.87500000  0.62500000  0.87518827
   0.25000000  0.00000000  0.24981173
   0.25000000  0.00000000  0.74981173
   0.25000000  0.50000000  0.24981173
   0.25000000  0.50000000  0.74981173
   0.75000000  0.00000000  0.24981173
   0.75000000  0.00000000  0.74981173
   0.75000000  0.50000000  0.24981173
   0.75000000  0.50000000  0.74981173
   0.12500000  0.37500000  0.37518827
   0.12500000  0.37500000  0.87518827
   0.12500000  0.87500000  0.37518827
   0.12500000  0.87500000  0.87518827
   0.62500000  0.37500000  0.37518827
   0.62500000  0.37500000  0.87518827
   0.62500000  0.87500000  0.37518827
   0.62500000  0.87500000  0.87518827
   0.25000000  0.25000000  0.99981173
   0.25000000  0.25000000  0.49981173
   0.25000000  0.75000000  0.99981173
   0.25000000  0.75000000  0.49981173
   0.75000000  0.25000000  0.99981173
   0.75000000  0.25000000  0.49981173
   0.75000000  0.75000000  0.99981173
   0.75000000  0.75000000  0.49981173
   0.12500000  0.12500000  0.12518827
   0.12500000  0.12500000  0.62518827
   0.12500000  0.62500000  0.12518827
   0.12500000  0.62500000  0.62518827
   0.62500000  0.12500000  0.12518827
   0.62500000  0.12500000  0.62518827
   0.62500000  0.62500000  0.12518827
   0.62500000  0.62500000  0.62518827
