  64  64   0   0
  0.2013400E+02  0.1088187E-08  0.1088187E-08  0.1088187E-08  0.5000000E-15
  1.000000000000000E-004
  CAR 
 Si64                                    
     11.33349506     -8.17390770  301      6.21097267      1.00000000
     -8.174  0.0000E+00  0.0000E+00
     -8.109  0.0000E+00  0.0000E+00
     -8.044  0.0000E+00  0.0000E+00
     -7.979  0.0000E+00  0.0000E+00
     -7.914  0.0000E+00  0.0000E+00
     -7.849  0.0000E+00  0.0000E+00
     -7.784 -0.1058E-28 -0.6883E-30
     -7.719 -0.1703E-26 -0.1114E-27
     -7.654 -0.2225E-24 -0.1458E-25
     -7.589 -0.2347E-22 -0.1541E-23
     -7.524 -0.1999E-20 -0.1316E-21
     -7.459 -0.1375E-18 -0.9070E-20
     -7.394 -0.7624E-17 -0.5048E-18
     -7.329 -0.3304E-15 -0.2199E-16
     -7.264 -0.1189E-13 -0.7949E-15
     -7.199 -0.3437E-12 -0.2314E-13
     -7.134 -0.7988E-11 -0.5426E-12
     -7.068 -0.1491E-09 -0.1024E-10
     -7.003 -0.2230E-08 -0.1553E-09
     -6.938 -0.2668E-07 -0.1890E-08
     -6.873 -0.2545E-06 -0.1844E-07
     -6.808 -0.1927E-05 -0.1437E-06
     -6.743 -0.1150E-04 -0.8914E-06
     -6.678 -0.5356E-04 -0.4374E-05
     -6.613 -0.1913E-03 -0.1682E-04
     -6.548 -0.5073E-03 -0.4980E-04
     -6.483 -0.9239E-03 -0.1099E-03
     -6.418 -0.8632E-03 -0.1660E-03
     -6.353  0.7156E-03 -0.1195E-03
     -6.288  0.4201E-02  0.1537E-03
     -6.223  0.8253E-02  0.6904E-03
     -6.158  0.1191E-01  0.1465E-02
     -6.093  0.1911E-01  0.2708E-02
     -6.028  0.3702E-01  0.5115E-02
     -5.963  0.6476E-01  0.9326E-02
     -5.898  0.8919E-01  0.1513E-01
     -5.833  0.1024E+00  0.2178E-01
     -5.768  0.1181E+00  0.2946E-01
     -5.703  0.1523E+00  0.3937E-01
     -5.638  0.1908E+00  0.5177E-01
     -5.573  0.2012E+00  0.6485E-01
     -5.508  0.1782E+00  0.7644E-01
     -5.443  0.1505E+00  0.8623E-01
     -5.378  0.1364E+00  0.9510E-01
     -5.313  0.1235E+00  0.1031E+00
     -5.248  0.9990E-01  0.1096E+00
     -5.183  0.7706E-01  0.1146E+00
     -5.118  0.7135E-01  0.1193E+00
     -5.053  0.8984E-01  0.1251E+00
     -4.988  0.1433E+00  0.1344E+00
     -4.923  0.2406E+00  0.1501E+00
     -4.858  0.3554E+00  0.1732E+00
     -4.793  0.4352E+00  0.2015E+00
     -4.728  0.4627E+00  0.2316E+00
     -4.663  0.4668E+00  0.2619E+00
     -4.598  0.4536E+00  0.2914E+00
     -4.533  0.3846E+00  0.3164E+00
     -4.468  0.2462E+00  0.3324E+00
     -4.402  0.9235E-01  0.3384E+00
     -4.337 -0.6187E-02  0.3380E+00
     -4.272 -0.1631E-01  0.3370E+00
     -4.207  0.5980E-01  0.3409E+00
     -4.142  0.2028E+00  0.3541E+00
     -4.077  0.3722E+00  0.3783E+00
     -4.012  0.5025E+00  0.4109E+00
     -3.947  0.5329E+00  0.4456E+00
     -3.882  0.4550E+00  0.4752E+00
     -3.817  0.3260E+00  0.4964E+00
     -3.752  0.2297E+00  0.5113E+00
     -3.687  0.2274E+00  0.5261E+00
     -3.622  0.3322E+00  0.5477E+00
     -3.557  0.5006E+00  0.5802E+00
     -3.492  0.6525E+00  0.6227E+00
     -3.427  0.7255E+00  0.6698E+00
     -3.362  0.7117E+00  0.7161E+00
     -3.297  0.6378E+00  0.7576E+00
     -3.232  0.5351E+00  0.7924E+00
     -3.167  0.4437E+00  0.8212E+00
     -3.102  0.4059E+00  0.8476E+00
     -3.037  0.4143E+00  0.8746E+00
     -2.972  0.3977E+00  0.9004E+00
     -2.907  0.3014E+00  0.9200E+00
     -2.842  0.1556E+00  0.9301E+00
     -2.777  0.3417E-01  0.9324E+00
     -2.712 -0.2495E-01  0.9307E+00
     -2.647 -0.3124E-01  0.9287E+00
     -2.582 -0.5362E-03  0.9287E+00
     -2.517  0.6289E-01  0.9328E+00
     -2.452  0.1434E+00  0.9421E+00
     -2.387  0.1978E+00  0.9549E+00
     -2.322  0.1852E+00  0.9670E+00
     -2.257  0.1107E+00  0.9742E+00
     -2.192  0.3084E-01  0.9762E+00
     -2.127  0.1615E-01  0.9772E+00
     -2.062  0.1125E+00  0.9846E+00
     -1.997  0.3103E+00  0.1005E+01
     -1.932  0.5272E+00  0.1039E+01
     -1.867  0.6416E+00  0.1081E+01
     -1.801  0.5810E+00  0.1119E+01
     -1.736  0.3851E+00  0.1144E+01
     -1.671  0.1698E+00  0.1155E+01
     -1.606  0.3734E-01  0.1157E+01
     -1.541  0.2019E-01  0.1158E+01
     -1.476  0.8553E-01  0.1164E+01
     -1.411  0.1655E+00  0.1175E+01
     -1.346  0.1984E+00  0.1188E+01
     -1.281  0.1706E+00  0.1199E+01
     -1.216  0.1259E+00  0.1207E+01
     -1.151  0.1280E+00  0.1215E+01
     -1.086  0.2052E+00  0.1229E+01
     -1.021  0.3189E+00  0.1249E+01
     -0.956  0.3916E+00  0.1275E+01
     -0.891  0.3917E+00  0.1300E+01
     -0.826  0.3827E+00  0.1325E+01
     -0.761  0.4611E+00  0.1355E+01
     -0.696  0.6520E+00  0.1397E+01
     -0.631  0.8708E+00  0.1454E+01
     -0.566  0.9719E+00  0.1517E+01
     -0.501  0.8515E+00  0.1573E+01
     -0.436  0.5463E+00  0.1608E+01
     -0.371  0.2237E+00  0.1623E+01
     -0.306  0.5131E-01  0.1626E+01
     -0.241  0.8091E-01  0.1631E+01
     -0.176  0.2359E+00  0.1647E+01
     -0.111  0.3781E+00  0.1671E+01
     -0.046  0.4058E+00  0.1698E+01
      0.019  0.3198E+00  0.1718E+01
      0.084  0.1981E+00  0.1731E+01
      0.149  0.1122E+00  0.1739E+01
      0.214  0.8769E-01  0.1744E+01
      0.279  0.1238E+00  0.1752E+01
      0.344  0.2110E+00  0.1766E+01
      0.409  0.3287E+00  0.1787E+01
      0.474  0.4373E+00  0.1816E+01
      0.539  0.4804E+00  0.1847E+01
      0.604  0.4168E+00  0.1874E+01
      0.669  0.2677E+00  0.1892E+01
      0.734  0.1104E+00  0.1899E+01
      0.799  0.1091E-01  0.1899E+01
      0.865 -0.2242E-01  0.1898E+01
      0.930 -0.2015E-01  0.1897E+01
      0.995 -0.1159E-01  0.1896E+01
      1.060 -0.1014E-01  0.1895E+01
      1.125 -0.1965E-01  0.1894E+01
      1.190 -0.3758E-01  0.1892E+01
      1.255 -0.4277E-01  0.1889E+01
      1.320  0.1920E-01  0.1890E+01
      1.385  0.2146E+00  0.1904E+01
      1.450  0.5420E+00  0.1939E+01
      1.515  0.8641E+00  0.1995E+01
      1.580  0.9752E+00  0.2059E+01
      1.645  0.7927E+00  0.2110E+01
      1.710  0.4605E+00  0.2140E+01
      1.775  0.2204E+00  0.2155E+01
      1.840  0.1943E+00  0.2167E+01
      1.905  0.3086E+00  0.2187E+01
      1.970  0.4019E+00  0.2214E+01
      2.035  0.3849E+00  0.2239E+01
      2.100  0.3191E+00  0.2259E+01
      2.165  0.3669E+00  0.2283E+01
      2.230  0.6460E+00  0.2325E+01
      2.295  0.1092E+01  0.2396E+01
      2.360  0.1457E+01  0.2491E+01
      2.425  0.1487E+01  0.2588E+01
      2.490  0.1139E+01  0.2662E+01
      2.555  0.6185E+00  0.2702E+01
      2.620  0.1840E+00  0.2714E+01
      2.685 -0.4726E-01  0.2711E+01
      2.750 -0.1139E+00  0.2703E+01
      2.815 -0.8361E-01  0.2698E+01
      2.880  0.4041E-01  0.2701E+01
      2.945  0.2962E+00  0.2720E+01
      3.010  0.6720E+00  0.2764E+01
      3.075  0.1061E+01  0.2833E+01
      3.140  0.1323E+01  0.2919E+01
      3.205  0.1387E+01  0.3009E+01
      3.270  0.1281E+01  0.3092E+01
      3.335  0.1076E+01  0.3162E+01
      3.400  0.8387E+00  0.3217E+01
      3.466  0.6478E+00  0.3259E+01
      3.531  0.5914E+00  0.3297E+01
      3.596  0.6748E+00  0.3341E+01
      3.661  0.7606E+00  0.3390E+01
      3.726  0.6967E+00  0.3436E+01
      3.791  0.5081E+00  0.3469E+01
      3.856  0.3719E+00  0.3493E+01
      3.921  0.3980E+00  0.3519E+01
      3.986  0.5125E+00  0.3552E+01
      4.051  0.5836E+00  0.3590E+01
      4.116  0.5883E+00  0.3628E+01
      4.181  0.5959E+00  0.3667E+01
      4.246  0.6402E+00  0.3709E+01
      4.311  0.6933E+00  0.3754E+01
      4.376  0.7456E+00  0.3802E+01
      4.441  0.8251E+00  0.3856E+01
      4.506  0.9224E+00  0.3916E+01
      4.571  0.9537E+00  0.3978E+01
      4.636  0.8322E+00  0.4032E+01
      4.701  0.5655E+00  0.4069E+01
      4.766  0.2646E+00  0.4086E+01
      4.831  0.6218E-01  0.4090E+01
      4.896  0.2941E-01  0.4092E+01
      4.961  0.1511E+00  0.4102E+01
      5.026  0.3356E+00  0.4124E+01
      5.091  0.4549E+00  0.4153E+01
      5.156  0.4257E+00  0.4181E+01
      5.221  0.2743E+00  0.4199E+01
      5.286  0.1051E+00  0.4206E+01
      5.351  0.8427E-02  0.4206E+01
      5.416  0.9748E-02  0.4207E+01
      5.481  0.8064E-01  0.4212E+01
      5.546  0.1642E+00  0.4223E+01
      5.611  0.2027E+00  0.4236E+01
      5.676  0.1754E+00  0.4247E+01
      5.741  0.1140E+00  0.4255E+01
      5.806  0.6545E-01  0.4259E+01
      5.871  0.4541E-01  0.4262E+01
      5.936  0.3693E-01  0.4264E+01
      6.001  0.2271E-01  0.4266E+01
      6.066  0.3877E-02  0.4266E+01
      6.132 -0.5894E-02  0.4266E+01
      6.197  0.8716E-02  0.4266E+01
      6.262  0.5587E-01  0.4270E+01
      6.327  0.1247E+00  0.4278E+01
      6.392  0.1811E+00  0.4290E+01
      6.457  0.1886E+00  0.4302E+01
      6.522  0.1401E+00  0.4311E+01
      6.587  0.6527E-01  0.4315E+01
      6.652  0.7528E-02  0.4316E+01
      6.717  0.2805E-03  0.4316E+01
      6.782  0.5752E-01  0.4320E+01
      6.847  0.1615E+00  0.4330E+01
      6.912  0.2542E+00  0.4347E+01
      6.977  0.2730E+00  0.4364E+01
      7.042  0.2224E+00  0.4379E+01
      7.107  0.1931E+00  0.4391E+01
      7.172  0.2738E+00  0.4409E+01
      7.237  0.4367E+00  0.4438E+01
      7.302  0.5422E+00  0.4473E+01
      7.367  0.4778E+00  0.4504E+01
      7.432  0.2781E+00  0.4522E+01
      7.497  0.1021E+00  0.4529E+01
      7.562  0.1102E+00  0.4536E+01
      7.627  0.3491E+00  0.4558E+01
      7.692  0.6980E+00  0.4604E+01
      7.757  0.9316E+00  0.4664E+01
      7.822  0.9029E+00  0.4723E+01
      7.887  0.6838E+00  0.4768E+01
      7.952  0.4919E+00  0.4800E+01
      8.017  0.4899E+00  0.4831E+01
      8.082  0.6793E+00  0.4876E+01
      8.147  0.9429E+00  0.4937E+01
      8.212  0.1135E+01  0.5011E+01
      8.277  0.1159E+01  0.5086E+01
      8.342  0.1013E+01  0.5152E+01
      8.407  0.7727E+00  0.5202E+01
      8.472  0.5250E+00  0.5236E+01
      8.537  0.3319E+00  0.5258E+01
      8.602  0.2225E+00  0.5272E+01
      8.667  0.1892E+00  0.5285E+01
      8.733  0.2090E+00  0.5298E+01
      8.798  0.2678E+00  0.5316E+01
      8.863  0.3384E+00  0.5338E+01
      8.928  0.3613E+00  0.5361E+01
      8.993  0.2937E+00  0.5380E+01
      9.058  0.1657E+00  0.5391E+01
      9.123  0.5247E-01  0.5394E+01
      9.188  0.3180E-03  0.5395E+01
      9.253  0.4906E-03  0.5395E+01
      9.318  0.1875E-01  0.5396E+01
      9.383  0.2900E-01  0.5398E+01
      9.448  0.2467E-01  0.5399E+01
      9.513  0.1295E-01  0.5400E+01
      9.578  0.3093E-02  0.5400E+01
      9.643 -0.1282E-02  0.5400E+01
      9.708 -0.1757E-02  0.5400E+01
      9.773 -0.1000E-02  0.5400E+01
      9.838 -0.3809E-03  0.5400E+01
      9.903 -0.1069E-03  0.5400E+01
      9.968 -0.2298E-04  0.5400E+01
     10.033 -0.3852E-05  0.5400E+01
     10.098 -0.5089E-06  0.5400E+01
     10.163 -0.5336E-07  0.5400E+01
     10.228 -0.4460E-08  0.5400E+01
     10.293 -0.2981E-09  0.5400E+01
     10.358 -0.1597E-10  0.5400E+01
     10.423 -0.6872E-12  0.5400E+01
     10.488 -0.2376E-13  0.5400E+01
     10.553 -0.6545E-15  0.5400E+01
     10.618 -0.2846E-16  0.5400E+01
     10.683  0.0000E+00  0.5400E+01
     10.748  0.0000E+00  0.5400E+01
     10.813  0.0000E+00  0.5400E+01
     10.878  0.0000E+00  0.5400E+01
     10.943  0.0000E+00  0.5400E+01
     11.008  0.0000E+00  0.5400E+01
     11.073  0.0000E+00  0.5400E+01
     11.138  0.0000E+00  0.5400E+01
     11.203  0.0000E+00  0.5400E+01
     11.268  0.0000E+00  0.5400E+01
     11.333  0.0000E+00  0.5400E+01
