       N       E                     dE             d eps       ncg     rms          rms(c)
DAV:   1     0.555804707810E+03    0.55580E+03   -0.83694E+04  1296   0.106E+03
DAV:   2    -0.309906729313E+03   -0.86571E+03   -0.82147E+03  1536   0.172E+02
DAV:   3    -0.372982226243E+03   -0.63075E+02   -0.61823E+02  1568   0.409E+01
DAV:   4    -0.374664277786E+03   -0.16821E+01   -0.16700E+01  1552   0.800E+00
DAV:   5    -0.374715560020E+03   -0.51282E-01   -0.51178E-01  1510   0.132E+00    0.279E+01
RMM:   6    -0.369822199438E+03    0.48934E+01   -0.24101E+00  1296   0.242E+00    0.168E+01
RMM:   7    -0.367570632286E+03    0.22516E+01   -0.62841E+00  1322   0.391E+00    0.931E-01
RMM:   8    -0.367608697552E+03   -0.38065E-01   -0.55290E-01  1310   0.148E+00    0.480E-01
RMM:   9    -0.367626680108E+03   -0.17983E-01   -0.16517E-01  1322   0.726E-01    0.564E-01
RMM:  10    -0.367629569675E+03   -0.28896E-02   -0.28950E-02  1354   0.344E-01    0.682E-01
RMM:  11    -0.367628071929E+03    0.14977E-02   -0.95577E-03  1296   0.203E-01    0.819E-01
RMM:  12    -0.367627955941E+03    0.11599E-03   -0.17209E-03  1304   0.978E-02    0.981E-01
RMM:  13    -0.367628101844E+03   -0.14590E-03   -0.33053E-04  1368   0.421E-02    0.956E-01
RMM:  14    -0.367626376640E+03    0.17252E-02   -0.67685E-04  1296   0.575E-02    0.151E+00
RMM:  15    -0.367626156066E+03    0.22057E-03   -0.16016E-04  1299   0.257E-02    0.166E+00
RMM:  16    -0.367626243713E+03   -0.87648E-04   -0.20131E-05  1338   0.954E-03    0.162E+00
RMM:  17    -0.367627310177E+03   -0.10665E-02   -0.16341E-04  1350   0.268E-02    0.104E+00
RMM:  18    -0.367628459247E+03   -0.11491E-02   -0.57836E-04  1747   0.535E-02    0.293E-01
RMM:  19    -0.367628593290E+03   -0.13404E-03   -0.17536E-04  1324   0.278E-02    0.366E-02
RMM:  20    -0.367628600875E+03   -0.75845E-05   -0.46774E-05  1300   0.130E-02    0.337E-03
RMM:  21    -0.367628601367E+03   -0.49242E-06   -0.66531E-06  1076   0.503E-03
   1 F= -.35958595E+03 E0= -.35959433E+03  d E =-.359586E+03
       N       E                     dE             d eps       ncg     rms          rms(c)
DAV:   1    -0.367570011002E+03    0.58590E-01   -0.32519E+00  1428   0.311E+00    0.183E+00
RMM:   2    -0.367506906841E+03    0.63104E-01   -0.10173E-01  1296   0.605E-01    0.109E+00
RMM:   3    -0.367473551563E+03    0.33355E-01   -0.78690E-02  1296   0.483E-01    0.200E-01
RMM:   4    -0.367474415938E+03   -0.86437E-03   -0.72656E-03  1296   0.200E-01    0.223E-01
RMM:   5    -0.367474571693E+03   -0.15576E-03   -0.14976E-03  1322   0.840E-02    0.299E-01
RMM:   6    -0.367474732665E+03   -0.16097E-03   -0.57619E-04  1296   0.508E-02    0.218E-01
RMM:   7    -0.367474635177E+03    0.97488E-04   -0.15158E-04  1296   0.277E-02    0.662E-02
RMM:   8    -0.367474623388E+03    0.11790E-04   -0.23681E-05  1299   0.133E-02    0.609E-02
RMM:   9    -0.367474608775E+03    0.14612E-04   -0.94174E-06  1296   0.648E-03    0.352E-02
RMM:  10    -0.367474601123E+03    0.76522E-05   -0.18874E-05  1296   0.742E-03    0.343E-03
RMM:  11    -0.367474601261E+03   -0.13771E-06   -0.19579E-06   782   0.275E-03
   2 F= -.35961536E+03 E0= -.35962483E+03  d E =-.294131E-01
       N       E                     dE             d eps       ncg     rms          rms(c)
DAV:   1    -0.367607434002E+03   -0.13283E+00   -0.58137E-01  1392   0.131E+00    0.769E-01
RMM:   2    -0.367595882190E+03    0.11552E-01   -0.17443E-02  1296   0.253E-01    0.459E-01
RMM:   3    -0.367589633440E+03    0.62488E-02   -0.14198E-02  1296   0.204E-01    0.845E-02
RMM:   4    -0.367589770539E+03   -0.13710E-03   -0.12801E-03  1296   0.843E-02    0.929E-02
RMM:   5    -0.367589799297E+03   -0.28758E-04   -0.25692E-04  1322   0.352E-02    0.117E-01
RMM:   6    -0.367589793756E+03    0.55411E-05   -0.12140E-04  1296   0.219E-02    0.115E-01
RMM:   7    -0.367589749094E+03    0.44662E-04   -0.28685E-05  1296   0.122E-02    0.523E-02
RMM:   8    -0.367589746785E+03    0.23094E-05   -0.48650E-06  1072   0.606E-03    0.495E-02
RMM:   9    -0.367589742015E+03    0.47700E-05   -0.19499E-06   764   0.298E-03    0.363E-02
RMM:  10    -0.367589736681E+03    0.53336E-05   -0.69751E-06  1296   0.435E-03    0.984E-03
RMM:  11    -0.367589736359E+03    0.32188E-06   -0.11849E-06   755   0.193E-03
   3 F= -.35965292E+03 E0= -.35966190E+03  d E =-.669725E-01
