<?xml version="1.0" encoding="ISO-8859-1"?>
<modeling>
 <generator>
  <i name="program" type="string">vasp </i>
  <i name="version" type="string">6.4.3  </i>
  <i name="subversion" type="string">19Mar24 (build Oct 21 2024 22:36:34) complex                          parallel </i>
  <i name="platform" type="string">LinuxIFC </i>
  <i name="date" type="string">2024 11 01 </i>
  <i name="time" type="string">22:36:19 </i>
 </generator>
 <incar>
  <i type="string" name="SYSTEM">Si64</i>
  <i type="int" name="ISTART">     0</i>
  <i type="string" name="PREC">Accurate</i>
  <i type="string" name="ALGO">Fast</i>
  <i type="logical" name="ADDGRID"> T  </i>
  <i type="int" name="ICHARG">     2</i>
  <i type="int" name="NELM">    60</i>
  <i type="int" name="NELMIN">     8</i>
  <i type="int" name="IBRION">     2</i>
  <i name="EDIFF">      0.00000100</i>
  <i name="EDIFFG">     -0.01000000</i>
  <i type="int" name="NSW">    60</i>
  <i type="int" name="ISIF">     3</i>
  <i name="ENCUT">    400.00000000</i>
  <i type="string" name="LREAL">Auto</i>
  <i type="int" name="ISMEAR">     1</i>
  <i name="SIGMA">      0.20000000</i>
  <i name="PSTRESS">     10.00000000</i>
  <i type="logical" name="LWAVE"> F  </i>
  <i type="logical" name="LCHARG"> F  </i>
  <i type="logical" name="GGA_COMPAT"> F  </i>
  <i type="string" name="GGA">PS</i>
 </incar>
 <primitive_cell>
  <structure name="primitive_cell" >
   <crystal>
    <varray name="basis" >
     <v>       2.72046633      -2.72046633       0.00000000 </v>
     <v>       2.72046633       0.00000000       2.72046633 </v>
     <v>       0.00000000      -2.72046633       2.72046633 </v>
    </varray>
    <i name="volume">     40.26800000 </i>
    <varray name="rec_basis" >
     <v>       0.18379202      -0.18379202      -0.18379202 </v>
     <v>       0.18379202       0.18379202       0.18379202 </v>
     <v>      -0.18379202      -0.18379202       0.18379202 </v>
    </varray>
   </crystal>
   <varray name="positions" >
    <v>       0.00000000       0.00000000       0.00000000 </v>
    <v>       0.75000000       0.75000000       0.75000000 </v>
   </varray>
  </structure>
  <varray name="primitive_index" >
   <v type="int" >        1 </v>
   <v type="int" >       30 </v>
  </varray>
 </primitive_cell>
 <kpoints>
  <generation param="Gamma">
   <v type="int" name="divisions">       2        2        2 </v>
   <v name="usershift">      0.00000000       0.00000000       0.00000000 </v>
   <v name="genvec1">      0.50000000       0.00000000       0.00000000 </v>
   <v name="genvec2">      0.00000000       0.50000000       0.00000000 </v>
   <v name="genvec3">      0.00000000       0.00000000       0.50000000 </v>
   <v name="shift">      0.00000000       0.00000000       0.00000000 </v>
  </generation>
  <varray name="kpointlist" >
   <v>       0.00000000       0.00000000       0.00000000 </v>
   <v>       0.50000000       0.00000000       0.00000000 </v>
   <v>       0.50000000       0.50000000       0.00000000 </v>
   <v>       0.50000000       0.50000000       0.50000000 </v>
  </varray>
  <varray name="weights" >
   <v>       0.12500000 </v>
   <v>       0.37500000 </v>
   <v>       0.37500000 </v>
   <v>       0.12500000 </v>
  </varray>
 </kpoints>
 <parameters>
  <separator name="general" >
   <i type="string" name="SYSTEM">Si64</i>
   <i type="logical" name="LCOMPAT"> F  </i>
  </separator>
  <separator name="electronic" >
   <i type="string" name="PREC">accura</i>
   <i name="ENMAX">    400.00000000</i>
   <i name="ENAUG">    322.06900000</i>
   <i name="EDIFF">      0.00000100</i>
   <i type="int" name="IALGO">    68</i>
   <i type="int" name="IWAVPR">    11</i>
   <i type="int" name="NBANDS">   162</i>
   <i type="int" name="NBANDSLOW">    -1</i>
   <i type="int" name="NBANDSHIGH">    -1</i>
   <i name="NELECT">    256.00000000</i>
   <i type="int" name="TURBO">     0</i>
   <i type="int" name="IRESTART">     0</i>
   <i type="int" name="NREBOOT">     0</i>
   <i type="int" name="NMIN">     0</i>
   <i name="EREF">      0.00000000</i>
   <separator name="electronic smearing" >
    <i type="int" name="ISMEAR">     1</i>
    <i name="SIGMA">      0.20000000</i>
    <i name="KSPACING">      0.50000000</i>
    <i type="logical" name="KGAMMA"> T  </i>
    <i type="logical" name="KBLOWUP"> T  </i>
   </separator>
   <separator name="electronic projectors" >
    <i type="logical" name="LREAL"> T  </i>
    <v name="ROPT">     -0.00025000</v>
    <i type="int" name="LMAXPAW">  -100</i>
    <i type="int" name="LMAXMIX">     2</i>
    <i type="logical" name="NLSPLINE"> F  </i>
   </separator>
   <separator name="electronic startup" >
    <i type="int" name="ISTART">     0</i>
    <i type="int" name="ICHARG">     2</i>
    <i type="int" name="INIWAV">     1</i>
   </separator>
   <separator name="electronic spin" >
    <i type="int" name="ISPIN">     1</i>
    <i type="logical" name="LNONCOLLINEAR"> F  </i>
    <v name="MAGMOM">      1.00000000      1.00000000      1.00000000      1.00000000      1.00000000      1.00000000      1.00000000      1.00000000      1.00000000      1.00000000      1.00000000      1.00000000      1.00000000      1.00000000      1.00000000      1.00000000      1.00000000      1.00000000      1.00000000      1.00000000
      1.00000000      1.00000000      1.00000000      1.00000000      1.00000000      1.00000000      1.00000000      1.00000000      1.00000000      1.00000000      1.00000000      1.00000000      1.00000000      1.00000000      1.00000000      1.00000000      1.00000000      1.00000000      1.00000000      1.00000000
      1.00000000      1.00000000      1.00000000      1.00000000      1.00000000      1.00000000      1.00000000      1.00000000      1.00000000      1.00000000      1.00000000      1.00000000      1.00000000      1.00000000      1.00000000      1.00000000      1.00000000      1.00000000      1.00000000      1.00000000
      1.00000000      1.00000000      1.00000000      1.00000000</v>
    <i name="NUPDOWN">     -1.00000000</i>
    <i type="logical" name="LSORBIT"> F  </i>
    <v name="SAXIS">      0.00000000      0.00000000      1.00000000</v>
    <i type="logical" name="LSPIRAL"> F  </i>
    <v name="QSPIRAL">      0.00000000      0.00000000      0.00000000</v>
    <i type="logical" name="LZEROZ"> F  </i>
   </separator>
   <separator name="electronic exchange-correlation" >
    <i type="logical" name="LASPH"> F  </i>
   </separator>
   <separator name="electronic convergence" >
    <i type="int" name="NELM">    60</i>
    <i type="int" name="NELMDL">    -5</i>
    <i type="int" name="NELMIN">     8</i>
    <i name="ENINI">    400.00000000</i>
    <separator name="electronic convergence detail" >
     <i type="logical" name="LDIAG"> T  </i>
     <i type="logical" name="LSUBROT"> F  </i>
     <i name="WEIMIN">      0.00100000</i>
     <i name="EBREAK">      0.00000000</i>
     <i name="DEPER">      0.30000000</i>
     <i type="int" name="NRMM">     4</i>
     <i name="TIME">      0.40000000</i>
    </separator>
   </separator>
   <separator name="electronic mixer" >
    <i name="AMIX">      0.40000000</i>
    <i name="BMIX">      1.00000000</i>
    <i name="AMIN">      0.10000000</i>
    <i name="AMIX_MAG">      1.60000000</i>
    <i name="BMIX_MAG">      1.00000000</i>
    <separator name="electronic mixer details" >
     <i type="int" name="IMIX">     4</i>
     <i type="logical" name="MIXFIRST"> F  </i>
     <i type="int" name="MAXMIX">   -45</i>
     <i name="WC">    100.00000000</i>
     <i type="int" name="INIMIX">     1</i>
     <i type="int" name="MIXPRE">     1</i>
     <i type="int" name="MREMOVE">     5</i>
    </separator>
   </separator>
   <separator name="electronic dipolcorrection" >
    <i type="logical" name="LDIPOL"> F  </i>
    <i type="logical" name="LMONO"> F  </i>
    <i type="int" name="IDIPOL">     0</i>
    <i name="EPSILON">      1.00000000</i>
    <v name="DIPOL">   -100.00000000   -100.00000000   -100.00000000</v>
    <i name="EFIELD">      0.00000000</i>
    <i type="logical" name="LVACPOTAV"> F  </i>
   </separator>
  </separator>
  <separator name="grids" >
   <i type="int" name="NGX">    72</i>
   <i type="int" name="NGY">    72</i>
   <i type="int" name="NGZ">    72</i>
   <i type="int" name="NGXF">   144</i>
   <i type="int" name="NGYF">   144</i>
   <i type="int" name="NGZF">   144</i>
   <i type="logical" name="ADDGRID"> T  </i>
  </separator>
  <separator name="ionic" >
   <i type="int" name="NSW">    60</i>
   <i type="int" name="IBRION">     2</i>
   <i type="int" name="MDALGO">     0</i>
   <i type="int" name="ISIF">     3</i>
   <i name="PSTRESS">     10.00000000</i>
   <i name="EDIFFG">     -0.01000000</i>
   <i type="int" name="NFREE">     1</i>
   <i name="POTIM">      0.50000000</i>
   <i name="SMASS">     -3.00000000</i>
   <i name="SCALEE">      1.00000000</i>
  </separator>
  <separator name="ionic md" >
   <i name="TEBEG">      0.00010000</i>
   <i name="TEEND">      0.00010000</i>
   <i type="int" name="NBLOCK">     1</i>
   <i type="int" name="KBLOCK">    60</i>
   <i type="int" name="NPACO">   256</i>
   <i name="APACO">     10.00000000</i>
  </separator>
  <separator name="symmetry" >
   <i type="int" name="ISYM">     2</i>
   <i name="SYMPREC">      0.00001000</i>
  </separator>
  <separator name="dos" >
   <i type="int" name="LORBIT">     0</i>
   <v name="RWIGS">     -1.00000000</v>
   <i type="int" name="NEDOS">   301</i>
   <i name="EMIN">     10.00000000</i>
   <i name="EMAX">    -10.00000000</i>
   <i name="EFERMI">      0.00000000</i>
  </separator>
  <separator name="writing" >
   <i type="int" name="NWRITE">     2</i>
   <i type="logical" name="LWAVE"> F  </i>
   <i type="logical" name="LDOWNSAMPLE"> F  </i>
   <i type="logical" name="LCHARG"> F  </i>
   <i type="logical" name="LPARD"> F  </i>
   <i type="logical" name="LVTOT"> F  </i>
   <i type="logical" name="LVHAR"> F  </i>
   <i type="logical" name="LELF"> F  </i>
   <i type="logical" name="LOPTICS"> F  </i>
   <v name="STM">      0.00000000      0.00000000      0.00000000      0.00000000      0.00000000      0.00000000      0.00000000</v>
  </separator>
  <separator name="performance" >
   <i type="int" name="NPAR">     2</i>
   <i type="int" name="NSIM">     4</i>
   <i type="int" name="NBLK">    -1</i>
   <i type="logical" name="LPLANE"> T  </i>
   <i type="logical" name="LSCALAPACK"> T  </i>
   <i type="logical" name="LSCAAWARE"> F  </i>
   <i type="logical" name="LSCALU"> F  </i>
   <i type="logical" name="LASYNC"> F  </i>
   <i type="logical" name="LORBITALREAL"> F  </i>
  </separator>
  <separator name="miscellaneous" >
   <i type="int" name="IDIOT">     3</i>
   <i type="int" name="PHON_NSTRUCT">    -1</i>
   <i type="logical" name="LMUSIC"> F  </i>
   <v name="POMASS">     28.08500000</v>
   <v name="DARWINR">      0.00000000</v>
   <v name="DARWINV">      1.00000000</v>
   <i type="logical" name="LCORR"> T  </i>
  </separator>
  <i type="logical" name="GGA_COMPAT"> F  </i>
  <i type="logical" name="LBERRY"> F  </i>
  <i type="int" name="ICORELEVEL">     0</i>
  <i type="logical" name="LDAU"> F  </i>
  <i type="int" name="I_CONSTRAINED_M">     0</i>
  <separator name="electronic exchange-correlation" >
   <i type="string" name="GGA    ">PS</i>
   <i type="string" name="XC_C">1</i>
   <i type="int" name="VOSKOWN">     0</i>
   <i type="logical" name="LHFCALC"> F  </i>
   <i type="string" name="PRECFOCK"></i>
   <i type="logical" name="LSYMGRAD"> F  </i>
   <i type="logical" name="LHFONE"> F  </i>
   <i type="logical" name="LRHFCALC"> F  </i>
   <i type="logical" name="LTHOMAS"> F  </i>
   <i type="logical" name="LMODELHF"> F  </i>
   <i type="logical" name="LFOCKACE"> F  </i>
   <i name="ENCUT4O">     -1.00000000</i>
   <i type="int" name="EXXOEP">     0</i>
   <i type="int" name="FOURORBIT">     0</i>
   <i name="AEXX">      0.00000000</i>
   <i name="HFALPHA">      0.00000000</i>
   <i name="MCALPHA">      0.00000000</i>
   <i name="ALDAX">      1.00000000</i>
   <i name="AGGAX">      1.00000000</i>
   <i name="AMGGAX">      1.00000000</i>
   <i name="ALDAC">      1.00000000</i>
   <i name="AGGAC">      1.00000000</i>
   <i name="AMGGAC">      1.00000000</i>
   <i type="int" name="NKREDX">     1</i>
   <i type="int" name="NKREDY">     1</i>
   <i type="int" name="NKREDZ">     1</i>
   <i type="logical" name="SHIFTRED"> F  </i>
   <i type="logical" name="ODDONLY"> F  </i>
   <i type="logical" name="EVENONLY"> F  </i>
   <i type="int" name="LMAXFOCK">     0</i>
   <i type="int" name="NMAXFOCKAE">     0</i>
   <i type="logical" name="LFOCKAEDFT"> F  </i>
   <i name="HFSCREEN">      0.00000000</i>
   <i name="HFSCREENC">      0.00000000</i>
   <i type="int" name="NBANDSGWLOW">     0</i>
  </separator>
  <separator name="vdW DFT" >
   <i type="logical" name="LUSE_VDW"> F  </i>
   <i type="int" name="IVDW_NL">    -1</i>
   <i type="logical" name="LSPIN_VDW"> F  </i>
   <i name="ZAB_VDW">     -0.84910000</i>
   <i name="GAMMA_VDW">      1.39626340</i>
   <i name="ALPHA_VDW">      0.00000000</i>
   <i name="PARAM1">      0.12340000</i>
   <i name="PARAM2">      1.00000000</i>
   <i name="BPARAM">      6.30000000</i>
   <i name="CPARAM">      0.00930000</i>
  </separator>
  <separator name="model GW" >
   <i type="int" name="MODEL_GW">     0</i>
   <i name="MODEL_EPS0">     12.08040000</i>
   <i name="MODEL_ALPHA">      1.00000000</i>
  </separator>
  <separator name="linear response parameters" >
   <i type="logical" name="LEPSILON"> F  </i>
   <i type="logical" name="LRPA"> F  </i>
   <i type="logical" name="LNABLA"> F  </i>
   <i type="logical" name="LVEL"> F  </i>
   <i name="CSHIFT">      0.10000000</i>
   <i name="OMEGAMAX">     -1.00000000</i>
   <i name="DEG_THRESHOLD">      0.00200000</i>
   <i name="RTIME">     -0.10000000</i>
   <i name="WPLASMAI">      0.00000000</i>
   <v name="DFIELD">      0.00000000      0.00000000      0.00000000</v>
   <v name="WPLASMA">      0.00000000      0.00000000      0.00000000      0.00000000      0.00000000      0.00000000      0.00000000      0.00000000      0.00000000</v>
  </separator>
  <separator name="orbital magnetization" >
   <i type="logical" name="NUCIND"> F  </i>
   <v name="MAGPOS">      0.00000000      0.00000000      0.00000000</v>
   <i type="logical" name="LNICSALL"> T  </i>
   <i type="logical" name="ORBITALMAG"> F  </i>
   <i type="logical" name="LMAGBLOCH"> F  </i>
   <i type="logical" name="LCHIMAG"> F  </i>
   <i type="logical" name="LGAUGE"> T  </i>
   <i type="int" name="MAGATOM">     0</i>
   <v name="MAGDIPOL">      0.00000000      0.00000000      0.00000000</v>
   <v name="AVECCONST">      0.00000000      0.00000000      0.00000000</v>
  </separator>
  <separator name="response functions" >
   <i type="logical" name="LALL_IN_ONE"> F  </i>
   <i type="int" name="IALL_IN_ONE">    -1</i>
   <i type="int" name="NBANDS_WAVE">    -1</i>
   <i type="logical" name="LFINITE_TEMPERATURE"> F  </i>
   <i type="logical" name="LADDER"> F  </i>
   <i type="logical" name="LRPAFORCE"> F  </i>
   <i type="logical" name="LFXC"> F  </i>
   <i type="logical" name="LHARTREE"> T  </i>
   <i type="int" name="IBSE">     0</i>
   <v type="int" name="KPOINT">    -1     0     0     0</v>
   <i type="logical" name="LTCTC"> F  </i>
   <i type="logical" name="LTCTE"> F  </i>
   <i type="logical" name="LTETE"> F  </i>
   <i type="logical" name="LTRIPLET"> F  </i>
   <i type="logical" name="LFXCEPS"> F  </i>
   <i type="logical" name="LFXHEG"> F  </i>
   <i type="int" name="NATURALO">     2</i>
   <i type="logical" name="LHOLEGF"> F  </i>
   <i type="logical" name="L2ORDER"> F  </i>
   <i type="logical" name="LDMP1"> F  </i>
   <i type="logical" name="LMP2LT"> F  </i>
   <i type="logical" name="LSMP2LT"> F  </i>
   <i type="logical" name="LGWLF"> F  </i>
   <i name="ENCUTGW">     -1.60000002</i>
   <i name="ENCUTGWSOFT">     -1.60000002</i>
   <i name="ENCUTLF">     -1.00000000</i>
   <i type="logical" name="ESF_SPLINES"> F  </i>
   <i name="ESF_CONV">      0.01000000</i>
   <i type="int" name="ESF_NINTER">    15</i>
   <i type="int" name="LMAXMP2">    -1</i>
   <i name="SCISSOR">      0.00000000</i>
   <i type="int" name="NOMEGA">     0</i>
   <i type="int" name="NOMEGAR">     0</i>
   <i type="int" name="NBANDSGW">    -1</i>
   <i type="int" name="NBANDSO">    -1</i>
   <i type="int" name="NBANDSV">    -1</i>
   <i type="int" name="NELMGW">     1</i>
   <i type="int" name="NELMHF">     1</i>
   <i type="int" name="DIM">     3</i>
   <i type="int" name="IESPILON">     4</i>
   <i type="int" name="ANTIRES">     0</i>
   <i name="OMEGAMAX">    -30.00000000</i>
   <i name="OMEGAMIN">    -30.00000000</i>
   <i name="OMEGATL">   -200.00000000</i>
   <i type="int" name="OMEGAGRID">     0</i>
   <i name="CSHIFT">     -0.10000000</i>
   <i type="logical" name="LSELFENERGY"> F  </i>
   <i type="logical" name="LSPECTRAL"> F  </i>
   <i type="logical" name="LSPECTRALGW"> F  </i>
   <i type="logical" name="LSINGLES"> F  </i>
   <i type="logical" name="LFERMIGW"> F  </i>
   <i type="logical" name="ODDONLYGW"> F  </i>
   <i type="logical" name="EVENONLYGW"> F  </i>
   <i type="int" name="NKREDLFX">     1</i>
   <i type="int" name="NKREDLFY">     1</i>
   <i type="int" name="NKREDLFZ">     1</i>
   <i type="int" name="MAXMEM">  2800</i>
   <i type="int" name="TELESCOPE">     0</i>
   <i type="int" name="NTAUPAR">    -1</i>
   <i type="int" name="NOMEGAPAR">    -1</i>
   <i name="DAMP_NEWTON">      0.80000001</i>
   <i name="LAMBDA">      1.00000000</i>
  </separator>
  <separator name="External order field" >
   <i name="OFIELD_KAPPA">      0.00000000</i>
   <v name="OFIELD_K">      0.00000000      0.00000000      0.00000000</v>
   <i name="OFIELD_Q6_NEAR">      0.00000000</i>
   <i name="OFIELD_Q6_FAR">      0.00000000</i>
   <i name="OFIELD_A">      0.00000000</i>
  </separator>
  <separator name="optional k-points parameters" >
   <i type="int" name="KPOINTS_OPT_MODE">     1</i>
   <i type="logical" name="LKPOINTS_OPT"> F  </i>
  </separator>
 </parameters>
 <atominfo>
  <atoms>      64 </atoms>
  <types>       1 </types>
  <array name="atoms" >
   <dimension dim="1">ion</dimension>
   <field type="string">element</field>
   <field type="int">atomtype</field>
   <set>
    <rc><c>Si</c><c>   1</c></rc>
    <rc><c>Si</c><c>   1</c></rc>
    <rc><c>Si</c><c>   1</c></rc>
    <rc><c>Si</c><c>   1</c></rc>
    <rc><c>Si</c><c>   1</c></rc>
    <rc><c>Si</c><c>   1</c></rc>
    <rc><c>Si</c><c>   1</c></rc>
    <rc><c>Si</c><c>   1</c></rc>
    <rc><c>Si</c><c>   1</c></rc>
    <rc><c>Si</c><c>   1</c></rc>
    <rc><c>Si</c><c>   1</c></rc>
    <rc><c>Si</c><c>   1</c></rc>
    <rc><c>Si</c><c>   1</c></rc>
    <rc><c>Si</c><c>   1</c></rc>
    <rc><c>Si</c><c>   1</c></rc>
    <rc><c>Si</c><c>   1</c></rc>
    <rc><c>Si</c><c>   1</c></rc>
    <rc><c>Si</c><c>   1</c></rc>
    <rc><c>Si</c><c>   1</c></rc>
    <rc><c>Si</c><c>   1</c></rc>
    <rc><c>Si</c><c>   1</c></rc>
    <rc><c>Si</c><c>   1</c></rc>
    <rc><c>Si</c><c>   1</c></rc>
    <rc><c>Si</c><c>   1</c></rc>
    <rc><c>Si</c><c>   1</c></rc>
    <rc><c>Si</c><c>   1</c></rc>
    <rc><c>Si</c><c>   1</c></rc>
    <rc><c>Si</c><c>   1</c></rc>
    <rc><c>Si</c><c>   1</c></rc>
    <rc><c>Si</c><c>   1</c></rc>
    <rc><c>Si</c><c>   1</c></rc>
    <rc><c>Si</c><c>   1</c></rc>
    <rc><c>Si</c><c>   1</c></rc>
    <rc><c>Si</c><c>   1</c></rc>
    <rc><c>Si</c><c>   1</c></rc>
    <rc><c>Si</c><c>   1</c></rc>
    <rc><c>Si</c><c>   1</c></rc>
    <rc><c>Si</c><c>   1</c></rc>
    <rc><c>Si</c><c>   1</c></rc>
    <rc><c>Si</c><c>   1</c></rc>
    <rc><c>Si</c><c>   1</c></rc>
    <rc><c>Si</c><c>   1</c></rc>
    <rc><c>Si</c><c>   1</c></rc>
    <rc><c>Si</c><c>   1</c></rc>
    <rc><c>Si</c><c>   1</c></rc>
    <rc><c>Si</c><c>   1</c></rc>
    <rc><c>Si</c><c>   1</c></rc>
    <rc><c>Si</c><c>   1</c></rc>
    <rc><c>Si</c><c>   1</c></rc>
    <rc><c>Si</c><c>   1</c></rc>
    <rc><c>Si</c><c>   1</c></rc>
    <rc><c>Si</c><c>   1</c></rc>
    <rc><c>Si</c><c>   1</c></rc>
    <rc><c>Si</c><c>   1</c></rc>
    <rc><c>Si</c><c>   1</c></rc>
    <rc><c>Si</c><c>   1</c></rc>
    <rc><c>Si</c><c>   1</c></rc>
    <rc><c>Si</c><c>   1</c></rc>
    <rc><c>Si</c><c>   1</c></rc>
    <rc><c>Si</c><c>   1</c></rc>
    <rc><c>Si</c><c>   1</c></rc>
    <rc><c>Si</c><c>   1</c></rc>
    <rc><c>Si</c><c>   1</c></rc>
    <rc><c>Si</c><c>   1</c></rc>
   </set>
  </array>
  <array name="atomtypes" >
   <dimension dim="1">type</dimension>
   <field type="int">atomspertype</field>
   <field type="string">element</field>
   <field>mass</field>
   <field>valence</field>
   <field type="string">pseudopotential</field>
   <set>
    <rc><c>  64</c><c>Si</c><c>     28.08500000</c><c>      4.00000000</c><c>  PAW_PBE Si 05Jan2001                  </c></rc>
   </set>
  </array>
 </atominfo>
 <structure name="initialpos" >
  <crystal>
   <varray name="basis" >
    <v>      10.88186531       0.00000000       0.00000000 </v>
    <v>       0.00000000      10.88186531       0.00000000 </v>
    <v>       0.00000000       0.00000000      10.88186531 </v>
   </varray>
   <i name="volume">   1288.57600000 </i>
   <varray name="rec_basis" >
    <v>       0.09189601       0.00000000       0.00000000 </v>
    <v>       0.00000000       0.09189601       0.00000000 </v>
    <v>       0.00000000       0.00000000       0.09189601 </v>
   </varray>
  </crystal>
  <varray name="positions" >
   <v>       0.00000000       0.00000000       0.00000000 </v>
   <v>       0.00000000       0.00000000       0.50000000 </v>
   <v>       0.00000000       0.50000000       0.00000000 </v>
   <v>       0.00000000       0.50000000       0.50000000 </v>
   <v>       0.50000000       0.00000000       0.00000000 </v>
   <v>       0.50000000       0.00000000       0.50000000 </v>
   <v>       0.50000000       0.50000000       0.00000000 </v>
   <v>       0.50000000       0.50000000       0.50000000 </v>
   <v>       0.37500000       0.37500000       0.12500000 </v>
   <v>       0.37500000       0.37500000       0.62500000 </v>
   <v>       0.37500000       0.87500000       0.12500000 </v>
   <v>       0.37500000       0.87500000       0.62500000 </v>
   <v>       0.87500000       0.37500000       0.12500000 </v>
   <v>       0.87500000       0.37500000       0.62500000 </v>
   <v>       0.87500000       0.87500000       0.12500000 </v>
   <v>       0.87500000       0.87500000       0.62500000 </v>
   <v>       0.00000000       0.25000000       0.25000000 </v>
   <v>       0.00000000       0.25000000       0.75000000 </v>
   <v>       0.00000000       0.75000000       0.25000000 </v>
   <v>       0.00000000       0.75000000       0.75000000 </v>
   <v>       0.50000000       0.25000000       0.25000000 </v>
   <v>       0.50000000       0.25000000       0.75000000 </v>
   <v>       0.50000000       0.75000000       0.25000000 </v>
   <v>       0.50000000       0.75000000       0.75000000 </v>
   <v>       0.37500000       0.12500000       0.37500000 </v>
   <v>       0.37500000       0.12500000       0.87500000 </v>
   <v>       0.37500000       0.62500000       0.37500000 </v>
   <v>       0.37500000       0.62500000       0.87500000 </v>
   <v>       0.87500000       0.12500000       0.37500000 </v>
   <v>       0.87500000       0.12500000       0.87500000 </v>
   <v>       0.87500000       0.62500000       0.37500000 </v>
   <v>       0.87500000       0.62500000       0.87500000 </v>
   <v>       0.25000000       0.00000000       0.25000000 </v>
   <v>       0.25000000       0.00000000       0.75000000 </v>
   <v>       0.25000000       0.50000000       0.25000000 </v>
   <v>       0.25000000       0.50000000       0.75000000 </v>
   <v>       0.75000000       0.00000000       0.25000000 </v>
   <v>       0.75000000       0.00000000       0.75000000 </v>
   <v>       0.75000000       0.50000000       0.25000000 </v>
   <v>       0.75000000       0.50000000       0.75000000 </v>
   <v>       0.12500000       0.37500000       0.37500000 </v>
   <v>       0.12500000       0.37500000       0.87500000 </v>
   <v>       0.12500000       0.87500000       0.37500000 </v>
   <v>       0.12500000       0.87500000       0.87500000 </v>
   <v>       0.62500000       0.37500000       0.37500000 </v>
   <v>       0.62500000       0.37500000       0.87500000 </v>
   <v>       0.62500000       0.87500000       0.37500000 </v>
   <v>       0.62500000       0.87500000       0.87500000 </v>
   <v>       0.25000000       0.25000000       0.00000000 </v>
   <v>       0.25000000       0.25000000       0.50000000 </v>
   <v>       0.25000000       0.75000000       0.00000000 </v>
   <v>       0.25000000       0.75000000       0.50000000 </v>
   <v>       0.75000000       0.25000000       0.00000000 </v>
   <v>       0.75000000       0.25000000       0.50000000 </v>
   <v>       0.75000000       0.75000000       0.00000000 </v>
   <v>       0.75000000       0.75000000       0.50000000 </v>
   <v>       0.12500000       0.12500000       0.12500000 </v>
   <v>       0.12500000       0.12500000       0.62500000 </v>
   <v>       0.12500000       0.62500000       0.12500000 </v>
   <v>       0.12500000       0.62500000       0.62500000 </v>
   <v>       0.62500000       0.12500000       0.12500000 </v>
   <v>       0.62500000       0.12500000       0.62500000 </v>
   <v>       0.62500000       0.62500000       0.12500000 </v>
   <v>       0.62500000       0.62500000       0.62500000 </v>
  </varray>
 </structure>
 <calculation>
  <scstep>
   <time name="dav">    0.72    0.78</time>
   <time name="total">    0.91    0.99</time>
   <energy>
    <i name="alphaZ">    107.00508449 </i>
    <i name="ewald">  -7299.33766899 </i>
    <i name="hartreedc">   -354.93841849 </i>
    <i name="XCdc">   -559.26310674 </i>
    <i name="pawpsdc">   5598.62625415 </i>
    <i name="pawaedc">  -4492.17844134 </i>
    <i name="eentropy">     -0.01043342 </i>
    <i name="bandstr">    991.10557716 </i>
    <i name="atom">   6564.79586099 </i>
    <i name="e_fr_energy">    555.80470781 </i>
    <i name="e_wo_entrp">    555.81514123 </i>
    <i name="e_0_energy">    555.80818562 </i>
   </energy>
  </scstep>
  <scstep>
   <time name="dav">    0.70    0.71</time>
   <time name="total">    0.71    0.71</time>
   <energy>
    <i name="e_fr_energy">   -309.90672931 </i>
    <i name="e_wo_entrp">   -309.91137530 </i>
    <i name="e_0_energy">   -309.90827798 </i>
   </energy>
  </scstep>
  <scstep>
   <time name="dav">    0.70    0.71</time>
   <time name="total">    0.70    0.71</time>
   <energy>
    <i name="e_fr_energy">   -372.98222624 </i>
    <i name="e_wo_entrp">   -372.98961977 </i>
    <i name="e_0_energy">   -372.98469075 </i>
   </energy>
  </scstep>
  <scstep>
   <time name="dav">    0.69    0.70</time>
   <time name="total">    0.69    0.70</time>
   <energy>
    <i name="e_fr_energy">   -374.66427779 </i>
    <i name="e_wo_entrp">   -374.67279055 </i>
    <i name="e_0_energy">   -374.66711538 </i>
   </energy>
  </scstep>
  <scstep>
   <time name="dav">    0.68    0.69</time>
   <time name="total">    0.95    0.97</time>
   <energy>
    <i name="e_fr_energy">   -374.71556002 </i>
    <i name="e_wo_entrp">   -374.72408616 </i>
    <i name="e_0_energy">   -374.71840207 </i>
   </energy>
  </scstep>
  <scstep>
   <time name="diag">    0.07    0.07</time>
   <time name="diis">    0.38    0.38</time>
   <time name="orth">    0.01    0.01</time>
   <time name="total">    0.87    0.89</time>
   <energy>
    <i name="e_fr_energy">   -369.82219944 </i>
    <i name="e_wo_entrp">   -369.83081356 </i>
    <i name="e_0_energy">   -369.82507081 </i>
   </energy>
  </scstep>
  <scstep>
   <time name="diag">    0.07    0.07</time>
   <time name="diis">    0.36    0.37</time>
   <time name="orth">    0.01    0.01</time>
   <time name="total">    0.86    0.90</time>
   <energy>
    <i name="e_fr_energy">   -367.57063229 </i>
    <i name="e_wo_entrp">   -367.59894196 </i>
    <i name="e_0_energy">   -367.58006885 </i>
   </energy>
  </scstep>
  <scstep>
   <time name="diag">    0.07    0.07</time>
   <time name="diis">    0.38    0.38</time>
   <time name="orth">    0.01    0.01</time>
   <time name="total">    0.86    0.88</time>
   <energy>
    <i name="e_fr_energy">   -367.60869755 </i>
    <i name="e_wo_entrp">   -367.63424223 </i>
    <i name="e_0_energy">   -367.61721245 </i>
   </energy>
  </scstep>
  <scstep>
   <time name="diag">    0.07    0.07</time>
   <time name="diis">    0.38    0.38</time>
   <time name="orth">    0.01    0.01</time>
   <time name="total">    0.87    0.88</time>
   <energy>
    <i name="e_fr_energy">   -367.62668011 </i>
    <i name="e_wo_entrp">   -367.65278200 </i>
    <i name="e_0_energy">   -367.63538074 </i>
   </energy>
  </scstep>
  <scstep>
   <time name="diag">    0.07    0.07</time>
   <time name="diis">    0.38    0.38</time>
   <time name="orth">    0.01    0.01</time>
   <time name="total">    0.86    0.88</time>
   <energy>
    <i name="e_fr_energy">   -367.62956968 </i>
    <i name="e_wo_entrp">   -367.65566326 </i>
    <i name="e_0_energy">   -367.63826754 </i>
   </energy>
  </scstep>
  <scstep>
   <time name="diag">    0.07    0.07</time>
   <time name="diis">    0.37    0.37</time>
   <time name="orth">    0.01    0.01</time>
   <time name="total">    0.86    0.87</time>
   <energy>
    <i name="e_fr_energy">   -367.62807193 </i>
    <i name="e_wo_entrp">   -367.65337496 </i>
    <i name="e_0_energy">   -367.63650627 </i>
   </energy>
  </scstep>
  <scstep>
   <time name="diag">    0.07    0.07</time>
   <time name="diis">    0.37    0.37</time>
   <time name="orth">    0.01    0.01</time>
   <time name="total">    0.86    0.87</time>
   <energy>
    <i name="e_fr_energy">   -367.62795594 </i>
    <i name="e_wo_entrp">   -367.65321549 </i>
    <i name="e_0_energy">   -367.63637579 </i>
   </energy>
  </scstep>
  <scstep>
   <time name="diag">    0.07    0.07</time>
   <time name="diis">    0.39    0.39</time>
   <time name="orth">    0.01    0.01</time>
   <time name="total">    0.89    0.89</time>
   <energy>
    <i name="e_fr_energy">   -367.62810184 </i>
    <i name="e_wo_entrp">   -367.65336043 </i>
    <i name="e_0_energy">   -367.63652137 </i>
   </energy>
  </scstep>
  <scstep>
   <time name="diag">    0.07    0.07</time>
   <time name="diis">    0.36    0.37</time>
   <time name="orth">    0.01    0.01</time>
   <time name="total">    0.85    0.87</time>
   <energy>
    <i name="e_fr_energy">   -367.62637664 </i>
    <i name="e_wo_entrp">   -367.65167116 </i>
    <i name="e_0_energy">   -367.63480815 </i>
   </energy>
  </scstep>
  <scstep>
   <time name="diag">    0.07    0.07</time>
   <time name="diis">    0.36    0.37</time>
   <time name="orth">    0.01    0.01</time>
   <time name="total">    0.85    0.87</time>
   <energy>
    <i name="e_fr_energy">   -367.62615607 </i>
    <i name="e_wo_entrp">   -367.65140965 </i>
    <i name="e_0_energy">   -367.63457393 </i>
   </energy>
  </scstep>
  <scstep>
   <time name="diag">    0.07    0.07</time>
   <time name="diis">    0.38    0.38</time>
   <time name="orth">    0.01    0.01</time>
   <time name="total">    0.87    0.88</time>
   <energy>
    <i name="e_fr_energy">   -367.62624371 </i>
    <i name="e_wo_entrp">   -367.65149527 </i>
    <i name="e_0_energy">   -367.63466090 </i>
   </energy>
  </scstep>
  <scstep>
   <time name="diag">    0.07    0.07</time>
   <time name="diis">    0.38    0.38</time>
   <time name="orth">    0.01    0.01</time>
   <time name="total">    0.87    0.88</time>
   <energy>
    <i name="e_fr_energy">   -367.62731018 </i>
    <i name="e_wo_entrp">   -367.65248280 </i>
    <i name="e_0_energy">   -367.63570105 </i>
   </energy>
  </scstep>
  <scstep>
   <time name="diag">    0.07    0.07</time>
   <time name="diis">    0.50    0.51</time>
   <time name="orth">    0.01    0.01</time>
   <time name="total">    0.99    1.01</time>
   <energy>
    <i name="e_fr_energy">   -367.62845925 </i>
    <i name="e_wo_entrp">   -367.65357716 </i>
    <i name="e_0_energy">   -367.63683189 </i>
   </energy>
  </scstep>
  <scstep>
   <time name="diag">    0.07    0.07</time>
   <time name="diis">    0.38    0.38</time>
   <time name="orth">    0.01    0.01</time>
   <time name="total">    0.86    0.88</time>
   <energy>
    <i name="e_fr_energy">   -367.62859329 </i>
    <i name="e_wo_entrp">   -367.65373310 </i>
    <i name="e_0_energy">   -367.63697323 </i>
   </energy>
  </scstep>
  <scstep>
   <time name="diag">    0.07    0.07</time>
   <time name="diis">    0.36    0.37</time>
   <time name="orth">    0.01    0.01</time>
   <time name="total">    0.85    0.86</time>
   <energy>
    <i name="e_fr_energy">   -367.62860087 </i>
    <i name="e_wo_entrp">   -367.65376080 </i>
    <i name="e_0_energy">   -367.63698752 </i>
   </energy>
  </scstep>
  <scstep>
   <time name="diag">    0.07    0.07</time>
   <time name="diis">    0.31    0.31</time>
   <time name="orth">    0.01    0.01</time>
   <time name="total">    0.55    0.56</time>
   <energy>
    <i name="alphaZ">    107.00508449 </i>
    <i name="ewald">  -7299.33766899 </i>
    <i name="hartreedc">   -470.21391388 </i>
    <i name="XCdc">   -539.85343208 </i>
    <i name="pawpsdc">  27437.90387706 </i>
    <i name="pawaedc"> -26338.20286794 </i>
    <i name="eentropy">      0.02516416 </i>
    <i name="bandstr">    170.24929481 </i>
    <i name="atom">   6564.79586099 </i>
    <i name="e_fr_energy">   -367.62860137 </i>
    <i name="e_wo_entrp">   -367.65376553 </i>
    <i name="e_0_energy">   -367.63698942 </i>
   </energy>
  </scstep>
  <structure>
   <crystal>
    <varray name="basis" >
     <v>      10.88186531       0.00000000       0.00000000 </v>
     <v>       0.00000000      10.88186531       0.00000000 </v>
     <v>       0.00000000       0.00000000      10.88186531 </v>
    </varray>
    <i name="volume">   1288.57600000 </i>
    <varray name="rec_basis" >
     <v>       0.09189601       0.00000000       0.00000000 </v>
     <v>       0.00000000       0.09189601       0.00000000 </v>
     <v>       0.00000000       0.00000000       0.09189601 </v>
    </varray>
   </crystal>
   <varray name="positions" >
    <v>       0.00000000       0.00000000       0.00000000 </v>
    <v>       0.00000000       0.00000000       0.50000000 </v>
    <v>       0.00000000       0.50000000       0.00000000 </v>
    <v>       0.00000000       0.50000000       0.50000000 </v>
    <v>       0.50000000       0.00000000       0.00000000 </v>
    <v>       0.50000000       0.00000000       0.50000000 </v>
    <v>       0.50000000       0.50000000       0.00000000 </v>
    <v>       0.50000000       0.50000000       0.50000000 </v>
    <v>       0.37500000       0.37500000       0.12500000 </v>
    <v>       0.37500000       0.37500000       0.62500000 </v>
    <v>       0.37500000       0.87500000       0.12500000 </v>
    <v>       0.37500000       0.87500000       0.62500000 </v>
    <v>       0.87500000       0.37500000       0.12500000 </v>
    <v>       0.87500000       0.37500000       0.62500000 </v>
    <v>       0.87500000       0.87500000       0.12500000 </v>
    <v>       0.87500000       0.87500000       0.62500000 </v>
    <v>       0.00000000       0.25000000       0.25000000 </v>
    <v>       0.00000000       0.25000000       0.75000000 </v>
    <v>       0.00000000       0.75000000       0.25000000 </v>
    <v>       0.00000000       0.75000000       0.75000000 </v>
    <v>       0.50000000       0.25000000       0.25000000 </v>
    <v>       0.50000000       0.25000000       0.75000000 </v>
    <v>       0.50000000       0.75000000       0.25000000 </v>
    <v>       0.50000000       0.75000000       0.75000000 </v>
    <v>       0.37500000       0.12500000       0.37500000 </v>
    <v>       0.37500000       0.12500000       0.87500000 </v>
    <v>       0.37500000       0.62500000       0.37500000 </v>
    <v>       0.37500000       0.62500000       0.87500000 </v>
    <v>       0.87500000       0.12500000       0.37500000 </v>
    <v>       0.87500000       0.12500000       0.87500000 </v>
    <v>       0.87500000       0.62500000       0.37500000 </v>
    <v>       0.87500000       0.62500000       0.87500000 </v>
    <v>       0.25000000       0.00000000       0.25000000 </v>
    <v>       0.25000000       0.00000000       0.75000000 </v>
    <v>       0.25000000       0.50000000       0.25000000 </v>
    <v>       0.25000000       0.50000000       0.75000000 </v>
    <v>       0.75000000       0.00000000       0.25000000 </v>
    <v>       0.75000000       0.00000000       0.75000000 </v>
    <v>       0.75000000       0.50000000       0.25000000 </v>
    <v>       0.75000000       0.50000000       0.75000000 </v>
    <v>       0.12500000       0.37500000       0.37500000 </v>
    <v>       0.12500000       0.37500000       0.87500000 </v>
    <v>       0.12500000       0.87500000       0.37500000 </v>
    <v>       0.12500000       0.87500000       0.87500000 </v>
    <v>       0.62500000       0.37500000       0.37500000 </v>
    <v>       0.62500000       0.37500000       0.87500000 </v>
    <v>       0.62500000       0.87500000       0.37500000 </v>
    <v>       0.62500000       0.87500000       0.87500000 </v>
    <v>       0.25000000       0.25000000       0.00000000 </v>
    <v>       0.25000000       0.25000000       0.50000000 </v>
    <v>       0.25000000       0.75000000       0.00000000 </v>
    <v>       0.25000000       0.75000000       0.50000000 </v>
    <v>       0.75000000       0.25000000       0.00000000 </v>
    <v>       0.75000000       0.25000000       0.50000000 </v>
    <v>       0.75000000       0.75000000       0.00000000 </v>
    <v>       0.75000000       0.75000000       0.50000000 </v>
    <v>       0.12500000       0.12500000       0.12500000 </v>
    <v>       0.12500000       0.12500000       0.62500000 </v>
    <v>       0.12500000       0.62500000       0.12500000 </v>
    <v>       0.12500000       0.62500000       0.62500000 </v>
    <v>       0.62500000       0.12500000       0.12500000 </v>
    <v>       0.62500000       0.12500000       0.62500000 </v>
    <v>       0.62500000       0.62500000       0.12500000 </v>
    <v>       0.62500000       0.62500000       0.62500000 </v>
   </varray>
  </structure>
  <varray name="forces" >
   <v>      -0.00000000       0.00000000       0.00000000 </v>
   <v>       0.00000000       0.00000000       0.00000000 </v>
   <v>       0.00000000      -0.00000000       0.00000000 </v>
   <v>      -0.00000000      -0.00000000       0.00000000 </v>
   <v>      -0.00000000       0.00000000       0.00000000 </v>
   <v>      -0.00000000       0.00000000       0.00000000 </v>
   <v>       0.00000000      -0.00000000      -0.00000000 </v>
   <v>      -0.00000000       0.00000000       0.00000000 </v>
   <v>       0.00000000      -0.00000000      -0.00000000 </v>
   <v>       0.00000000      -0.00000000      -0.00000000 </v>
   <v>       0.00000000      -0.00000000      -0.00000000 </v>
   <v>      -0.00000000       0.00000000      -0.00000000 </v>
   <v>       0.00000000      -0.00000000      -0.00000000 </v>
   <v>       0.00000000      -0.00000000      -0.00000000 </v>
   <v>      -0.00000000       0.00000000       0.00000000 </v>
   <v>       0.00000000      -0.00000000      -0.00000000 </v>
   <v>      -0.00000000       0.00000000       0.00000000 </v>
   <v>      -0.00000000       0.00000000       0.00000000 </v>
   <v>      -0.00000000      -0.00000000      -0.00000000 </v>
   <v>      -0.00000000       0.00000000       0.00000000 </v>
   <v>       0.00000000      -0.00000000       0.00000000 </v>
   <v>      -0.00000000       0.00000000      -0.00000000 </v>
   <v>      -0.00000000       0.00000000       0.00000000 </v>
   <v>       0.00000000       0.00000000      -0.00000000 </v>
   <v>       0.00000000       0.00000000      -0.00000000 </v>
   <v>       0.00000000      -0.00000000      -0.00000000 </v>
   <v>       0.00000000      -0.00000000      -0.00000000 </v>
   <v>       0.00000000       0.00000000      -0.00000000 </v>
   <v>       0.00000000      -0.00000000      -0.00000000 </v>
   <v>       0.00000000      -0.00000000      -0.00000000 </v>
   <v>       0.00000000       0.00000000      -0.00000000 </v>
   <v>      -0.00000000       0.00000000       0.00000000 </v>
   <v>      -0.00000000       0.00000000       0.00000000 </v>
   <v>      -0.00000000       0.00000000       0.00000000 </v>
   <v>      -0.00000000       0.00000000       0.00000000 </v>
   <v>      -0.00000000      -0.00000000       0.00000000 </v>
   <v>       0.00000000       0.00000000       0.00000000 </v>
   <v>      -0.00000000       0.00000000       0.00000000 </v>
   <v>      -0.00000000      -0.00000000       0.00000000 </v>
   <v>       0.00000000       0.00000000       0.00000000 </v>
   <v>       0.00000000      -0.00000000      -0.00000000 </v>
   <v>       0.00000000      -0.00000000      -0.00000000 </v>
   <v>      -0.00000000       0.00000000      -0.00000000 </v>
   <v>       0.00000000      -0.00000000       0.00000000 </v>
   <v>      -0.00000000      -0.00000000      -0.00000000 </v>
   <v>       0.00000000      -0.00000000      -0.00000000 </v>
   <v>       0.00000000      -0.00000000      -0.00000000 </v>
   <v>      -0.00000000       0.00000000      -0.00000000 </v>
   <v>      -0.00000000      -0.00000000       0.00000000 </v>
   <v>      -0.00000000       0.00000000       0.00000000 </v>
   <v>      -0.00000000       0.00000000       0.00000000 </v>
   <v>      -0.00000000       0.00000000       0.00000000 </v>
   <v>      -0.00000000       0.00000000       0.00000000 </v>
   <v>       0.00000000      -0.00000000       0.00000000 </v>
   <v>      -0.00000000       0.00000000       0.00000000 </v>
   <v>      -0.00000000      -0.00000000      -0.00000000 </v>
   <v>      -0.00000000      -0.00000000      -0.00000000 </v>
   <v>       0.00000000      -0.00000000      -0.00000000 </v>
   <v>       0.00000000      -0.00000000      -0.00000000 </v>
   <v>       0.00000000       0.00000000      -0.00000000 </v>
   <v>       0.00000000      -0.00000000      -0.00000000 </v>
   <v>       0.00000000      -0.00000000      -0.00000000 </v>
   <v>       0.00000000      -0.00000000      -0.00000000 </v>
   <v>      -0.00000000      -0.00000000       0.00000000 </v>
  </varray>
  <varray name="stress" >
   <v>      -2.63543698       0.00000000       0.00000000 </v>
   <v>       0.00000000      -2.63543698       0.00000000 </v>
   <v>       0.00000000       0.00000000      -2.63543698 </v>
  </varray>
  <energy>
   <i name="e_fr_energy">   -359.58594606 </i>
   <i name="e_wo_entrp">   -359.61111022 </i>
   <i name="e_0_energy">   -359.59433412 </i>
  </energy>
  <time name="totalsc">   20.74   21.15</time>
 </calculation>
 <calculation>
  <scstep>
   <time name="dav">    0.66    0.67</time>
   <time name="total">    1.06    1.08</time>
   <energy>
    <i name="alphaZ">    109.50229045 </i>
    <i name="ewald">  -7355.68378588 </i>
    <i name="hartreedc">   -473.84184744 </i>
    <i name="XCdc">   -536.52049533 </i>
    <i name="pawpsdc">  27435.40205521 </i>
    <i name="pawaedc"> -26335.70089854 </i>
    <i name="eentropy">      0.03181522 </i>
    <i name="bandstr">    224.44499431 </i>
    <i name="atom">   6564.79586099 </i>
    <i name="e_fr_energy">   -367.57001100 </i>
    <i name="e_wo_entrp">   -367.60182622 </i>
    <i name="e_0_energy">   -367.58061608 </i>
   </energy>
  </scstep>
  <scstep>
   <time name="diag">    0.07    0.07</time>
   <time name="diis">    0.37    0.37</time>
   <time name="orth">    0.01    0.01</time>
   <time name="total">    0.86    0.88</time>
   <energy>
    <i name="e_fr_energy">   -367.50690684 </i>
    <i name="e_wo_entrp">   -367.53723994 </i>
    <i name="e_0_energy">   -367.51701787 </i>
   </energy>
  </scstep>
  <scstep>
   <time name="diag">    0.07    0.07</time>
   <time name="diis">    0.36    0.37</time>
   <time name="orth">    0.01    0.01</time>
   <time name="total">    0.85    0.87</time>
   <energy>
    <i name="e_fr_energy">   -367.47355156 </i>
    <i name="e_wo_entrp">   -367.50176302 </i>
    <i name="e_0_energy">   -367.48295538 </i>
   </energy>
  </scstep>
  <scstep>
   <time name="diag">    0.07    0.07</time>
   <time name="diis">    0.36    0.37</time>
   <time name="orth">    0.01    0.01</time>
   <time name="total">    0.85    0.87</time>
   <energy>
    <i name="e_fr_energy">   -367.47441594 </i>
    <i name="e_wo_entrp">   -367.50273906 </i>
    <i name="e_0_energy">   -367.48385698 </i>
   </energy>
  </scstep>
  <scstep>
   <time name="diag">    0.07    0.07</time>
   <time name="diis">    0.38    0.38</time>
   <time name="orth">    0.01    0.01</time>
   <time name="total">    0.87    0.88</time>
   <energy>
    <i name="e_fr_energy">   -367.47457169 </i>
    <i name="e_wo_entrp">   -367.50287428 </i>
    <i name="e_0_energy">   -367.48400589 </i>
   </energy>
  </scstep>
  <scstep>
   <time name="diag">    0.07    0.07</time>
   <time name="diis">    0.37    0.37</time>
   <time name="orth">    0.01    0.01</time>
   <time name="total">    0.85    0.87</time>
   <energy>
    <i name="e_fr_energy">   -367.47473267 </i>
    <i name="e_wo_entrp">   -367.50296402 </i>
    <i name="e_0_energy">   -367.48414312 </i>
   </energy>
  </scstep>
  <scstep>
   <time name="diag">    0.07    0.07</time>
   <time name="diis">    0.37    0.37</time>
   <time name="orth">    0.01    0.01</time>
   <time name="total">    0.85    0.87</time>
   <energy>
    <i name="e_fr_energy">   -367.47463518 </i>
    <i name="e_wo_entrp">   -367.50298022 </i>
    <i name="e_0_energy">   -367.48408353 </i>
   </energy>
  </scstep>
  <scstep>
   <time name="diag">    0.07    0.07</time>
   <time name="diis">    0.36    0.36</time>
   <time name="orth">    0.01    0.01</time>
   <time name="total">    0.86    0.87</time>
   <energy>
    <i name="e_fr_energy">   -367.47462339 </i>
    <i name="e_wo_entrp">   -367.50298334 </i>
    <i name="e_0_energy">   -367.48407670 </i>
   </energy>
  </scstep>
  <scstep>
   <time name="diag">    0.07    0.07</time>
   <time name="diis">    0.37    0.37</time>
   <time name="orth">    0.01    0.01</time>
   <time name="total">    0.86    0.87</time>
   <energy>
    <i name="e_fr_energy">   -367.47460878 </i>
    <i name="e_wo_entrp">   -367.50299285 </i>
    <i name="e_0_energy">   -367.48407013 </i>
   </energy>
  </scstep>
  <scstep>
   <time name="diag">    0.07    0.07</time>
   <time name="diis">    0.37    0.37</time>
   <time name="orth">    0.01    0.01</time>
   <time name="total">    0.85    0.87</time>
   <energy>
    <i name="e_fr_energy">   -367.47460112 </i>
    <i name="e_wo_entrp">   -367.50301852 </i>
    <i name="e_0_energy">   -367.48407359 </i>
   </energy>
  </scstep>
  <scstep>
   <time name="diag">    0.07    0.07</time>
   <time name="diis">    0.24    0.24</time>
   <time name="orth">    0.01    0.01</time>
   <time name="total">    0.47    0.49</time>
   <energy>
    <i name="alphaZ">    109.50229045 </i>
    <i name="ewald">  -7355.68378588 </i>
    <i name="hartreedc">   -461.64138819 </i>
    <i name="XCdc">   -536.68506310 </i>
    <i name="pawpsdc">  28836.60055745 </i>
    <i name="pawaedc"> -27737.47102728 </i>
    <i name="eentropy">      0.02841796 </i>
    <i name="bandstr">    213.07953633 </i>
    <i name="atom">   6564.79586099 </i>
    <i name="e_fr_energy">   -367.47460126 </i>
    <i name="e_wo_entrp">   -367.50301922 </i>
    <i name="e_0_energy">   -367.48407392 </i>
   </energy>
  </scstep>
  <structure>
   <crystal>
    <varray name="basis" >
     <v>      10.79850788       0.00000000       0.00000000 </v>
     <v>       0.00000000      10.79850788       0.00000000 </v>
     <v>       0.00000000       0.00000000      10.79850788 </v>
    </varray>
    <i name="volume">   1259.18995106 </i>
    <varray name="rec_basis" >
     <v>       0.09260539      -0.00000000       0.00000000 </v>
     <v>      -0.00000000       0.09260539      -0.00000000 </v>
     <v>      -0.00000000      -0.00000000       0.09260539 </v>
    </varray>
   </crystal>
   <varray name="positions" >
    <v>       1.00000000       0.00000000       0.00000000 </v>
    <v>       0.00000000       0.00000000       0.50000000 </v>
    <v>       0.00000000       0.50000000       0.00000000 </v>
    <v>       1.00000000       0.50000000       0.50000000 </v>
    <v>       0.50000000       0.00000000       0.00000000 </v>
    <v>       0.50000000       0.00000000       0.50000000 </v>
    <v>       0.50000000       0.50000000       1.00000000 </v>
    <v>       0.50000000       0.50000000       0.50000000 </v>
    <v>       0.37500000       0.37500000       0.12500000 </v>
    <v>       0.37500000       0.37500000       0.62500000 </v>
    <v>       0.37500000       0.87500000       0.12500000 </v>
    <v>       0.37500000       0.87500000       0.62500000 </v>
    <v>       0.87500000       0.37500000       0.12500000 </v>
    <v>       0.87500000       0.37500000       0.62500000 </v>
    <v>       0.87500000       0.87500000       0.12500000 </v>
    <v>       0.87500000       0.87500000       0.62500000 </v>
    <v>       1.00000000       0.25000000       0.25000000 </v>
    <v>       1.00000000       0.25000000       0.75000000 </v>
    <v>       1.00000000       0.75000000       0.25000000 </v>
    <v>       1.00000000       0.75000000       0.75000000 </v>
    <v>       0.50000000       0.25000000       0.25000000 </v>
    <v>       0.50000000       0.25000000       0.75000000 </v>
    <v>       0.50000000       0.75000000       0.25000000 </v>
    <v>       0.50000000       0.75000000       0.75000000 </v>
    <v>       0.37500000       0.12500000       0.37500000 </v>
    <v>       0.37500000       0.12500000       0.87500000 </v>
    <v>       0.37500000       0.62500000       0.37500000 </v>
    <v>       0.37500000       0.62500000       0.87500000 </v>
    <v>       0.87500000       0.12500000       0.37500000 </v>
    <v>       0.87500000       0.12500000       0.87500000 </v>
    <v>       0.87500000       0.62500000       0.37500000 </v>
    <v>       0.87500000       0.62500000       0.87500000 </v>
    <v>       0.25000000       0.00000000       0.25000000 </v>
    <v>       0.25000000       0.00000000       0.75000000 </v>
    <v>       0.25000000       0.50000000       0.25000000 </v>
    <v>       0.25000000       0.50000000       0.75000000 </v>
    <v>       0.75000000       0.00000000       0.25000000 </v>
    <v>       0.75000000       0.00000000       0.75000000 </v>
    <v>       0.75000000       0.50000000       0.25000000 </v>
    <v>       0.75000000       0.50000000       0.75000000 </v>
    <v>       0.12500000       0.37500000       0.37500000 </v>
    <v>       0.12500000       0.37500000       0.87500000 </v>
    <v>       0.12500000       0.87500000       0.37500000 </v>
    <v>       0.12500000       0.87500000       0.87500000 </v>
    <v>       0.62500000       0.37500000       0.37500000 </v>
    <v>       0.62500000       0.37500000       0.87500000 </v>
    <v>       0.62500000       0.87500000       0.37500000 </v>
    <v>       0.62500000       0.87500000       0.87500000 </v>
    <v>       0.25000000       0.25000000       0.00000000 </v>
    <v>       0.25000000       0.25000000       0.50000000 </v>
    <v>       0.25000000       0.75000000       0.00000000 </v>
    <v>       0.25000000       0.75000000       0.50000000 </v>
    <v>       0.75000000       0.25000000       0.00000000 </v>
    <v>       0.75000000       0.25000000       0.50000000 </v>
    <v>       0.75000000       0.75000000       0.00000000 </v>
    <v>       0.75000000       0.75000000       0.50000000 </v>
    <v>       0.12500000       0.12500000       0.12500000 </v>
    <v>       0.12500000       0.12500000       0.62500000 </v>
    <v>       0.12500000       0.62500000       0.12500000 </v>
    <v>       0.12500000       0.62500000       0.62500000 </v>
    <v>       0.62500000       0.12500000       0.12500000 </v>
    <v>       0.62500000       0.12500000       0.62500000 </v>
    <v>       0.62500000       0.62500000       0.12500000 </v>
    <v>       0.62500000       0.62500000       0.62500000 </v>
   </varray>
  </structure>
  <varray name="forces" >
   <v>       0.00000000      -0.00000000       0.00000000 </v>
   <v>      -0.00000000       0.00000000      -0.00000000 </v>
   <v>       0.00000000      -0.00000000      -0.00000000 </v>
   <v>       0.00000000      -0.00000000       0.00000000 </v>
   <v>      -0.00000000       0.00000000       0.00000000 </v>
   <v>      -0.00000000      -0.00000000       0.00000000 </v>
   <v>       0.00000000       0.00000000       0.00000000 </v>
   <v>      -0.00000000      -0.00000000       0.00000000 </v>
   <v>      -0.00000000       0.00000000       0.00000000 </v>
   <v>       0.00000000       0.00000000       0.00000000 </v>
   <v>       0.00000000       0.00000000       0.00000000 </v>
   <v>       0.00000000       0.00000000      -0.00000000 </v>
   <v>       0.00000000       0.00000000      -0.00000000 </v>
   <v>      -0.00000000       0.00000000      -0.00000000 </v>
   <v>      -0.00000000       0.00000000      -0.00000000 </v>
   <v>      -0.00000000       0.00000000      -0.00000000 </v>
   <v>      -0.00000000       0.00000000       0.00000000 </v>
   <v>       0.00000000      -0.00000000       0.00000000 </v>
   <v>       0.00000000      -0.00000000      -0.00000000 </v>
   <v>       0.00000000      -0.00000000       0.00000000 </v>
   <v>       0.00000000       0.00000000       0.00000000 </v>
   <v>      -0.00000000       0.00000000       0.00000000 </v>
   <v>       0.00000000      -0.00000000       0.00000000 </v>
   <v>       0.00000000      -0.00000000      -0.00000000 </v>
   <v>      -0.00000000       0.00000000      -0.00000000 </v>
   <v>       0.00000000       0.00000000       0.00000000 </v>
   <v>       0.00000000      -0.00000000      -0.00000000 </v>
   <v>      -0.00000000      -0.00000000      -0.00000000 </v>
   <v>       0.00000000       0.00000000       0.00000000 </v>
   <v>      -0.00000000       0.00000000      -0.00000000 </v>
   <v>      -0.00000000       0.00000000      -0.00000000 </v>
   <v>       0.00000000      -0.00000000      -0.00000000 </v>
   <v>      -0.00000000      -0.00000000       0.00000000 </v>
   <v>      -0.00000000       0.00000000      -0.00000000 </v>
   <v>      -0.00000000      -0.00000000      -0.00000000 </v>
   <v>       0.00000000      -0.00000000       0.00000000 </v>
   <v>      -0.00000000       0.00000000       0.00000000 </v>
   <v>      -0.00000000      -0.00000000       0.00000000 </v>
   <v>       0.00000000      -0.00000000       0.00000000 </v>
   <v>      -0.00000000      -0.00000000       0.00000000 </v>
   <v>       0.00000000       0.00000000      -0.00000000 </v>
   <v>      -0.00000000      -0.00000000      -0.00000000 </v>
   <v>       0.00000000       0.00000000      -0.00000000 </v>
   <v>      -0.00000000       0.00000000      -0.00000000 </v>
   <v>      -0.00000000      -0.00000000      -0.00000000 </v>
   <v>       0.00000000       0.00000000      -0.00000000 </v>
   <v>      -0.00000000       0.00000000      -0.00000000 </v>
   <v>      -0.00000000       0.00000000       0.00000000 </v>
   <v>       0.00000000      -0.00000000       0.00000000 </v>
   <v>      -0.00000000      -0.00000000       0.00000000 </v>
   <v>      -0.00000000      -0.00000000       0.00000000 </v>
   <v>       0.00000000       0.00000000       0.00000000 </v>
   <v>       0.00000000      -0.00000000       0.00000000 </v>
   <v>      -0.00000000      -0.00000000       0.00000000 </v>
   <v>       0.00000000      -0.00000000       0.00000000 </v>
   <v>       0.00000000      -0.00000000       0.00000000 </v>
   <v>       0.00000000       0.00000000      -0.00000000 </v>
   <v>      -0.00000000       0.00000000       0.00000000 </v>
   <v>       0.00000000      -0.00000000      -0.00000000 </v>
   <v>      -0.00000000       0.00000000      -0.00000000 </v>
   <v>      -0.00000000       0.00000000       0.00000000 </v>
   <v>      -0.00000000       0.00000000      -0.00000000 </v>
   <v>      -0.00000000      -0.00000000      -0.00000000 </v>
   <v>       0.00000000      -0.00000000      -0.00000000 </v>
  </varray>
  <varray name="stress" >
   <v>      20.11953281       0.00000000       0.00000000 </v>
   <v>       0.00000000      20.11953281      -0.00000000 </v>
   <v>      -0.00000000      -0.00000000      20.11953281 </v>
  </varray>
  <energy>
   <i name="e_fr_energy">   -359.61535917 </i>
   <i name="e_wo_entrp">   -359.64377713 </i>
   <i name="e_0_energy">   -359.62483182 </i>
  </energy>
  <time name="totalsc">   12.38   12.59</time>
 </calculation>
 <calculation>
  <scstep>
   <time name="dav">    0.66    0.66</time>
   <time name="total">    1.06    1.06</time>
   <energy>
    <i name="alphaZ">    108.43199735 </i>
    <i name="ewald">  -7331.64006476 </i>
    <i name="hartreedc">   -460.13404270 </i>
    <i name="XCdc">   -538.11275402 </i>
    <i name="pawpsdc">  28837.53650776 </i>
    <i name="pawaedc"> -27738.40692638 </i>
    <i name="eentropy">      0.02555968 </i>
    <i name="bandstr">    189.89642807 </i>
    <i name="atom">   6564.79586099 </i>
    <i name="e_fr_energy">   -367.60743400 </i>
    <i name="e_wo_entrp">   -367.63299369 </i>
    <i name="e_0_energy">   -367.61595390 </i>
   </energy>
  </scstep>
  <scstep>
   <time name="diag">    0.08    0.09</time>
   <time name="diis">    0.36    0.37</time>
   <time name="orth">    0.01    0.01</time>
   <time name="total">    0.87    0.90</time>
   <energy>
    <i name="e_fr_energy">   -367.59588219 </i>
    <i name="e_wo_entrp">   -367.62206126 </i>
    <i name="e_0_energy">   -367.60460855 </i>
   </energy>
  </scstep>
  <scstep>
   <time name="diag">    0.07    0.07</time>
   <time name="diis">    0.37    0.37</time>
   <time name="orth">    0.01    0.01</time>
   <time name="total">    0.85    0.88</time>
   <energy>
    <i name="e_fr_energy">   -367.58963344 </i>
    <i name="e_wo_entrp">   -367.61666320 </i>
    <i name="e_0_energy">   -367.59864336 </i>
   </energy>
  </scstep>
  <scstep>
   <time name="diag">    0.07    0.07</time>
   <time name="diis">    0.36    0.36</time>
   <time name="orth">    0.01    0.01</time>
   <time name="total">    0.85    0.86</time>
   <energy>
    <i name="e_fr_energy">   -367.58977054 </i>
    <i name="e_wo_entrp">   -367.61675362 </i>
    <i name="e_0_energy">   -367.59876490 </i>
   </energy>
  </scstep>
  <scstep>
   <time name="diag">    0.07    0.07</time>
   <time name="diis">    0.38    0.38</time>
   <time name="orth">    0.01    0.01</time>
   <time name="total">    0.86    0.88</time>
   <energy>
    <i name="e_fr_energy">   -367.58979930 </i>
    <i name="e_wo_entrp">   -367.61678541 </i>
    <i name="e_0_energy">   -367.59879467 </i>
   </energy>
  </scstep>
  <scstep>
   <time name="diag">    0.07    0.07</time>
   <time name="diis">    0.36    0.38</time>
   <time name="orth">    0.01    0.01</time>
   <time name="total">    0.85    0.88</time>
   <energy>
    <i name="e_fr_energy">   -367.58979376 </i>
    <i name="e_wo_entrp">   -367.61682587 </i>
    <i name="e_0_energy">   -367.59880446 </i>
   </energy>
  </scstep>
  <scstep>
   <time name="diag">    0.07    0.07</time>
   <time name="diis">    0.36    0.36</time>
   <time name="orth">    0.01    0.01</time>
   <time name="total">    0.85    0.86</time>
   <energy>
    <i name="e_fr_energy">   -367.58974909 </i>
    <i name="e_wo_entrp">   -367.61673709 </i>
    <i name="e_0_energy">   -367.59874509 </i>
   </energy>
  </scstep>
  <scstep>
   <time name="diag">    0.07    0.07</time>
   <time name="diis">    0.31    0.32</time>
   <time name="orth">    0.01    0.01</time>
   <time name="total">    0.80    0.82</time>
   <energy>
    <i name="e_fr_energy">   -367.58974678 </i>
    <i name="e_wo_entrp">   -367.61672823 </i>
    <i name="e_0_energy">   -367.59874060 </i>
   </energy>
  </scstep>
  <scstep>
   <time name="diag">    0.07    0.07</time>
   <time name="diis">    0.24    0.24</time>
   <time name="orth">    0.01    0.01</time>
   <time name="total">    0.73    0.75</time>
   <energy>
    <i name="e_fr_energy">   -367.58974201 </i>
    <i name="e_wo_entrp">   -367.61671254 </i>
    <i name="e_0_energy">   -367.59873219 </i>
   </energy>
  </scstep>
  <scstep>
   <time name="diag">    0.07    0.07</time>
   <time name="diis">    0.38    0.39</time>
   <time name="orth">    0.01    0.01</time>
   <time name="total">    0.87    0.89</time>
   <energy>
    <i name="e_fr_energy">   -367.58973668 </i>
    <i name="e_wo_entrp">   -367.61668646 </i>
    <i name="e_0_energy">   -367.59871994 </i>
   </energy>
  </scstep>
  <scstep>
   <time name="diag">    0.07    0.07</time>
   <time name="diis">    0.24    0.24</time>
   <time name="orth">    0.01    0.01</time>
   <time name="total">    0.46    0.48</time>
   <energy>
    <i name="alphaZ">    108.43199735 </i>
    <i name="ewald">  -7331.64006476 </i>
    <i name="hartreedc">   -465.30157815 </i>
    <i name="XCdc">   -538.03489447 </i>
    <i name="pawpsdc">  28230.71738829 </i>
    <i name="pawaedc"> -27131.34135343 </i>
    <i name="eentropy">      0.02694568 </i>
    <i name="bandstr">    194.75596214 </i>
    <i name="atom">   6564.79586099 </i>
    <i name="e_fr_energy">   -367.58973636 </i>
    <i name="e_wo_entrp">   -367.61668204 </i>
    <i name="e_0_energy">   -367.59871825 </i>
   </energy>
  </scstep>
  <structure>
   <crystal>
    <varray name="basis" >
     <v>      10.83392101       0.00000000       0.00000000 </v>
     <v>       0.00000000      10.83392101       0.00000000 </v>
     <v>       0.00000000       0.00000000      10.83392101 </v>
    </varray>
    <i name="volume">   1271.61896048 </i>
    <varray name="rec_basis" >
     <v>       0.09230269      -0.00000000       0.00000000 </v>
     <v>      -0.00000000       0.09230269      -0.00000000 </v>
     <v>      -0.00000000      -0.00000000       0.09230269 </v>
    </varray>
   </crystal>
   <varray name="positions" >
    <v>       0.00000000       0.00000000       0.00000000 </v>
    <v>       0.00000000       0.00000000       0.50000000 </v>
    <v>       0.00000000       0.50000000       0.00000000 </v>
    <v>       0.00000000       0.50000000       0.50000000 </v>
    <v>       0.50000000       0.00000000       0.00000000 </v>
    <v>       0.50000000       0.00000000       0.50000000 </v>
    <v>       0.50000000       0.50000000       0.00000000 </v>
    <v>       0.50000000       0.50000000       0.50000000 </v>
    <v>       0.37500000       0.37500000       0.12500000 </v>
    <v>       0.37500000       0.37500000       0.62500000 </v>
    <v>       0.37500000       0.87500000       0.12500000 </v>
    <v>       0.37500000       0.87500000       0.62500000 </v>
    <v>       0.87500000       0.37500000       0.12500000 </v>
    <v>       0.87500000       0.37500000       0.62500000 </v>
    <v>       0.87500000       0.87500000       0.12500000 </v>
    <v>       0.87500000       0.87500000       0.62500000 </v>
    <v>       0.00000000       0.25000000       0.25000000 </v>
    <v>       0.00000000       0.25000000       0.75000000 </v>
    <v>       0.00000000       0.75000000       0.25000000 </v>
    <v>       0.00000000       0.75000000       0.75000000 </v>
    <v>       0.50000000       0.25000000       0.25000000 </v>
    <v>       0.50000000       0.25000000       0.75000000 </v>
    <v>       0.50000000       0.75000000       0.25000000 </v>
    <v>       0.50000000       0.75000000       0.75000000 </v>
    <v>       0.37500000       0.12500000       0.37500000 </v>
    <v>       0.37500000       0.12500000       0.87500000 </v>
    <v>       0.37500000       0.62500000       0.37500000 </v>
    <v>       0.37500000       0.62500000       0.87500000 </v>
    <v>       0.87500000       0.12500000       0.37500000 </v>
    <v>       0.87500000       0.12500000       0.87500000 </v>
    <v>       0.87500000       0.62500000       0.37500000 </v>
    <v>       0.87500000       0.62500000       0.87500000 </v>
    <v>       0.25000000       0.00000000       0.25000000 </v>
    <v>       0.25000000       0.00000000       0.75000000 </v>
    <v>       0.25000000       0.50000000       0.25000000 </v>
    <v>       0.25000000       0.50000000       0.75000000 </v>
    <v>       0.75000000       0.00000000       0.25000000 </v>
    <v>       0.75000000       0.00000000       0.75000000 </v>
    <v>       0.75000000       0.50000000       0.25000000 </v>
    <v>       0.75000000       0.50000000       0.75000000 </v>
    <v>       0.12500000       0.37500000       0.37500000 </v>
    <v>       0.12500000       0.37500000       0.87500000 </v>
    <v>       0.12500000       0.87500000       0.37500000 </v>
    <v>       0.12500000       0.87500000       0.87500000 </v>
    <v>       0.62500000       0.37500000       0.37500000 </v>
    <v>       0.62500000       0.37500000       0.87500000 </v>
    <v>       0.62500000       0.87500000       0.37500000 </v>
    <v>       0.62500000       0.87500000       0.87500000 </v>
    <v>       0.25000000       0.25000000       0.00000000 </v>
    <v>       0.25000000       0.25000000       0.50000000 </v>
    <v>       0.25000000       0.75000000       0.00000000 </v>
    <v>       0.25000000       0.75000000       0.50000000 </v>
    <v>       0.75000000       0.25000000       0.00000000 </v>
    <v>       0.75000000       0.25000000       0.50000000 </v>
    <v>       0.75000000       0.75000000       0.00000000 </v>
    <v>       0.75000000       0.75000000       0.50000000 </v>
    <v>       0.12500000       0.12500000       0.12500000 </v>
    <v>       0.12500000       0.12500000       0.62500000 </v>
    <v>       0.12500000       0.62500000       0.12500000 </v>
    <v>       0.12500000       0.62500000       0.62500000 </v>
    <v>       0.62500000       0.12500000       0.12500000 </v>
    <v>       0.62500000       0.12500000       0.62500000 </v>
    <v>       0.62500000       0.62500000       0.12500000 </v>
    <v>       0.62500000       0.62500000       0.62500000 </v>
   </varray>
  </structure>
  <varray name="forces" >
   <v>      -0.00000000      -0.00000000       0.00000000 </v>
   <v>      -0.00000000      -0.00000000      -0.00000000 </v>
   <v>       0.00000000      -0.00000000      -0.00000000 </v>
   <v>      -0.00000000       0.00000000       0.00000000 </v>
   <v>      -0.00000000      -0.00000000      -0.00000000 </v>
   <v>      -0.00000000      -0.00000000       0.00000000 </v>
   <v>       0.00000000       0.00000000       0.00000000 </v>
   <v>      -0.00000000      -0.00000000       0.00000000 </v>
   <v>      -0.00000000       0.00000000       0.00000000 </v>
   <v>      -0.00000000       0.00000000      -0.00000000 </v>
   <v>       0.00000000      -0.00000000      -0.00000000 </v>
   <v>      -0.00000000       0.00000000       0.00000000 </v>
   <v>      -0.00000000       0.00000000      -0.00000000 </v>
   <v>       0.00000000       0.00000000       0.00000000 </v>
   <v>      -0.00000000       0.00000000      -0.00000000 </v>
   <v>       0.00000000      -0.00000000      -0.00000000 </v>
   <v>      -0.00000000       0.00000000       0.00000000 </v>
   <v>      -0.00000000      -0.00000000      -0.00000000 </v>
   <v>       0.00000000      -0.00000000       0.00000000 </v>
   <v>       0.00000000      -0.00000000       0.00000000 </v>
   <v>      -0.00000000      -0.00000000      -0.00000000 </v>
   <v>       0.00000000       0.00000000       0.00000000 </v>
   <v>      -0.00000000      -0.00000000       0.00000000 </v>
   <v>       0.00000000      -0.00000000       0.00000000 </v>
   <v>       0.00000000      -0.00000000      -0.00000000 </v>
   <v>      -0.00000000       0.00000000       0.00000000 </v>
   <v>       0.00000000       0.00000000      -0.00000000 </v>
   <v>       0.00000000       0.00000000      -0.00000000 </v>
   <v>      -0.00000000       0.00000000       0.00000000 </v>
   <v>      -0.00000000      -0.00000000      -0.00000000 </v>
   <v>       0.00000000       0.00000000      -0.00000000 </v>
   <v>       0.00000000       0.00000000      -0.00000000 </v>
   <v>      -0.00000000      -0.00000000       0.00000000 </v>
   <v>      -0.00000000      -0.00000000      -0.00000000 </v>
   <v>      -0.00000000      -0.00000000      -0.00000000 </v>
   <v>       0.00000000       0.00000000       0.00000000 </v>
   <v>       0.00000000      -0.00000000      -0.00000000 </v>
   <v>      -0.00000000      -0.00000000       0.00000000 </v>
   <v>       0.00000000       0.00000000       0.00000000 </v>
   <v>       0.00000000      -0.00000000       0.00000000 </v>
   <v>       0.00000000       0.00000000      -0.00000000 </v>
   <v>      -0.00000000       0.00000000      -0.00000000 </v>
   <v>       0.00000000       0.00000000       0.00000000 </v>
   <v>      -0.00000000      -0.00000000       0.00000000 </v>
   <v>      -0.00000000       0.00000000       0.00000000 </v>
   <v>       0.00000000       0.00000000      -0.00000000 </v>
   <v>       0.00000000      -0.00000000      -0.00000000 </v>
   <v>       0.00000000       0.00000000       0.00000000 </v>
   <v>      -0.00000000      -0.00000000      -0.00000000 </v>
   <v>       0.00000000       0.00000000       0.00000000 </v>
   <v>      -0.00000000      -0.00000000       0.00000000 </v>
   <v>       0.00000000      -0.00000000      -0.00000000 </v>
   <v>      -0.00000000       0.00000000      -0.00000000 </v>
   <v>      -0.00000000      -0.00000000       0.00000000 </v>
   <v>       0.00000000      -0.00000000      -0.00000000 </v>
   <v>      -0.00000000      -0.00000000       0.00000000 </v>
   <v>      -0.00000000      -0.00000000      -0.00000000 </v>
   <v>      -0.00000000       0.00000000       0.00000000 </v>
   <v>       0.00000000       0.00000000      -0.00000000 </v>
   <v>       0.00000000       0.00000000      -0.00000000 </v>
   <v>      -0.00000000       0.00000000       0.00000000 </v>
   <v>       0.00000000      -0.00000000      -0.00000000 </v>
   <v>       0.00000000       0.00000000      -0.00000000 </v>
   <v>       0.00000000       0.00000000      -0.00000000 </v>
  </varray>
  <varray name="stress" >
   <v>      10.02543924      -0.00000000       0.00000000 </v>
   <v>       0.00000000      10.02543924       0.00000000 </v>
   <v>      -0.00000000       0.00000000      10.02543924 </v>
  </varray>
  <energy>
   <i name="e_fr_energy">   -359.65291853 </i>
   <i name="e_wo_entrp">   -359.67986420 </i>
   <i name="e_0_energy">   -359.66190042 </i>
  </energy>
  <time name="totalsc">   12.04   12.27</time>
  <eigenvalues>
   <array>
    <dimension dim="1">band</dimension>
    <dimension dim="2">kpoint</dimension>
    <dimension dim="3">spin</dimension>
    <field>eigene</field>
    <field>occ</field>
    <set>
     <set comment="spin 1">
      <set comment="kpoint 1">
       <r>   -6.1739    1.0000 </r>
       <r>   -5.0806    1.0000 </r>
       <r>   -5.0806    1.0000 </r>
       <r>   -5.0806    1.0000 </r>
       <r>   -5.0806    1.0000 </r>
       <r>   -5.0806    1.0000 </r>
       <r>   -5.0806    1.0000 </r>
       <r>   -4.1050    1.0000 </r>
       <r>   -4.1050    1.0000 </r>
       <r>   -4.1050    1.0000 </r>
       <r>   -4.1050    1.0000 </r>
       <r>   -4.1050    1.0000 </r>
       <r>   -4.1050    1.0000 </r>
       <r>   -4.1050    1.0000 </r>
       <r>   -4.1050    1.0000 </r>
       <r>   -4.1050    1.0000 </r>
       <r>   -4.1050    1.0000 </r>
       <r>   -4.1050    1.0000 </r>
       <r>   -4.1050    1.0000 </r>
       <r>   -3.8044    1.0000 </r>
       <r>   -3.8044    1.0000 </r>
       <r>   -3.8044    1.0000 </r>
       <r>   -3.8044    1.0000 </r>
       <r>   -1.9849    1.0000 </r>
       <r>   -1.9849    1.0000 </r>
       <r>   -1.9849    1.0000 </r>
       <r>   -1.9849    1.0000 </r>
       <r>   -1.9849    1.0000 </r>
       <r>   -1.9849    1.0000 </r>
       <r>   -1.8112    1.0000 </r>
       <r>   -1.8112    1.0000 </r>
       <r>   -1.8112    1.0000 </r>
       <r>   -1.8112    1.0000 </r>
       <r>   -1.8112    1.0000 </r>
       <r>   -1.8112    1.0000 </r>
       <r>   -1.8112    1.0000 </r>
       <r>   -1.8112    1.0000 </r>
       <r>   -1.8112    1.0000 </r>
       <r>   -1.8112    1.0000 </r>
       <r>   -1.8112    1.0000 </r>
       <r>   -1.8112    1.0000 </r>
       <r>   -1.1822    1.0000 </r>
       <r>   -1.1822    1.0000 </r>
       <r>   -1.1822    1.0000 </r>
       <r>   -1.1822    1.0000 </r>
       <r>    0.3624    1.0000 </r>
       <r>    0.3624    1.0000 </r>
       <r>    0.3624    1.0000 </r>
       <r>    0.3624    1.0000 </r>
       <r>    0.3624    1.0000 </r>
       <r>    0.3624    1.0000 </r>
       <r>    0.3624    1.0000 </r>
       <r>    0.3624    1.0000 </r>
       <r>    0.3624    1.0000 </r>
       <r>    0.3624    1.0000 </r>
       <r>    0.3624    1.0000 </r>
       <r>    0.3624    1.0000 </r>
       <r>    1.9282    1.0000 </r>
       <r>    1.9282    1.0000 </r>
       <r>    1.9282    1.0000 </r>
       <r>    1.9282    1.0000 </r>
       <r>    1.9282    1.0000 </r>
       <r>    1.9282    1.0000 </r>
       <r>    1.9282    1.0000 </r>
       <r>    1.9282    1.0000 </r>
       <r>    1.9282    1.0000 </r>
       <r>    1.9282    1.0000 </r>
       <r>    1.9282    1.0000 </r>
       <r>    1.9282    1.0000 </r>
       <r>    2.0342    1.0000 </r>
       <r>    2.0342    1.0000 </r>
       <r>    2.0342    1.0000 </r>
       <r>    2.0342    1.0000 </r>
       <r>    2.0342    1.0000 </r>
       <r>    2.0342    1.0000 </r>
       <r>    2.0342    1.0000 </r>
       <r>    2.0342    1.0000 </r>
       <r>    2.0342    1.0000 </r>
       <r>    2.0342    1.0000 </r>
       <r>    2.0342    1.0000 </r>
       <r>    2.0342    1.0000 </r>
       <r>    2.3519    1.0000 </r>
       <r>    2.3519    1.0000 </r>
       <r>    2.3519    1.0000 </r>
       <r>    2.3519    1.0000 </r>
       <r>    2.3519    1.0000 </r>
       <r>    2.3519    1.0000 </r>
       <r>    2.9749    1.0000 </r>
       <r>    2.9749    1.0000 </r>
       <r>    2.9749    1.0000 </r>
       <r>    2.9749    1.0000 </r>
       <r>    2.9749    1.0000 </r>
       <r>    2.9749    1.0000 </r>
       <r>    3.9469    1.0000 </r>
       <r>    3.9469    1.0000 </r>
       <r>    3.9469    1.0000 </r>
       <r>    3.9469    1.0000 </r>
       <r>    3.9469    1.0000 </r>
       <r>    3.9469    1.0000 </r>
       <r>    3.9469    1.0000 </r>
       <r>    3.9469    1.0000 </r>
       <r>    3.9469    1.0000 </r>
       <r>    3.9469    1.0000 </r>
       <r>    3.9469    1.0000 </r>
       <r>    3.9469    1.0000 </r>
       <r>    4.5245    1.0000 </r>
       <r>    4.5245    1.0000 </r>
       <r>    4.5245    1.0000 </r>
       <r>    4.5245    1.0000 </r>
       <r>    4.5245    1.0000 </r>
       <r>    4.5245    1.0000 </r>
       <r>    4.5245    1.0000 </r>
       <r>    4.5245    1.0000 </r>
       <r>    4.5245    1.0000 </r>
       <r>    4.5245    1.0000 </r>
       <r>    4.5245    1.0000 </r>
       <r>    4.5245    1.0000 </r>
       <r>    4.6597    1.0000 </r>
       <r>    4.6597    1.0000 </r>
       <r>    4.6597    1.0000 </r>
       <r>    4.6597    1.0000 </r>
       <r>    4.6597    1.0000 </r>
       <r>    4.6597    1.0000 </r>
       <r>    4.6597    1.0000 </r>
       <r>    4.6597    1.0000 </r>
       <r>    5.8703    1.0184 </r>
       <r>    5.8703    1.0184 </r>
       <r>    5.8703    1.0184 </r>
       <r>    6.4429   -0.0347 </r>
       <r>    6.4429   -0.0347 </r>
       <r>    6.4429   -0.0347 </r>
       <r>    6.4429   -0.0347 </r>
       <r>    6.4429   -0.0347 </r>
       <r>    6.4429   -0.0347 </r>
       <r>    6.8955   -0.0000 </r>
       <r>    6.8955   -0.0000 </r>
       <r>    6.8955   -0.0000 </r>
       <r>    6.8955   -0.0000 </r>
       <r>    6.8955   -0.0000 </r>
       <r>    6.8955   -0.0000 </r>
       <r>    7.3621   -0.0000 </r>
       <r>    7.3621   -0.0000 </r>
       <r>    7.3621   -0.0000 </r>
       <r>    7.3621   -0.0000 </r>
       <r>    8.2384   -0.0000 </r>
       <r>    8.2384   -0.0000 </r>
       <r>    8.2384   -0.0000 </r>
       <r>    8.2384   -0.0000 </r>
       <r>    8.2384   -0.0000 </r>
       <r>    8.2384   -0.0000 </r>
       <r>    8.2384   -0.0000 </r>
       <r>    8.2384   -0.0000 </r>
       <r>    8.2384   -0.0000 </r>
       <r>    8.2384   -0.0000 </r>
       <r>    8.2384   -0.0000 </r>
       <r>    8.2384   -0.0000 </r>
       <r>    8.3894   -0.0000 </r>
       <r>    8.3894   -0.0000 </r>
       <r>    8.3894   -0.0000 </r>
       <r>    8.8918   -0.0000 </r>
       <r>    8.8919   -0.0000 </r>
       <r>    8.8920   -0.0000 </r>
      </set>
      <set comment="kpoint 2">
       <r>   -5.8981    1.0000 </r>
       <r>   -5.8981    1.0000 </r>
       <r>   -4.8297    1.0000 </r>
       <r>   -4.8297    1.0000 </r>
       <r>   -4.8297    1.0000 </r>
       <r>   -4.8297    1.0000 </r>
       <r>   -4.8297    1.0000 </r>
       <r>   -4.8297    1.0000 </r>
       <r>   -4.8297    1.0000 </r>
       <r>   -4.8297    1.0000 </r>
       <r>   -3.9701    1.0000 </r>
       <r>   -3.9701    1.0000 </r>
       <r>   -3.9701    1.0000 </r>
       <r>   -3.9701    1.0000 </r>
       <r>   -3.9701    1.0000 </r>
       <r>   -3.9701    1.0000 </r>
       <r>   -3.9701    1.0000 </r>
       <r>   -3.9701    1.0000 </r>
       <r>   -3.7539    1.0000 </r>
       <r>   -3.7539    1.0000 </r>
       <r>   -3.0154    1.0000 </r>
       <r>   -3.0154    1.0000 </r>
       <r>   -3.0154    1.0000 </r>
       <r>   -3.0154    1.0000 </r>
       <r>   -3.0154    1.0000 </r>
       <r>   -3.0154    1.0000 </r>
       <r>   -3.0154    1.0000 </r>
       <r>   -3.0154    1.0000 </r>
       <r>   -1.9025    1.0000 </r>
       <r>   -1.9025    1.0000 </r>
       <r>   -1.9025    1.0000 </r>
       <r>   -1.9025    1.0000 </r>
       <r>   -1.9025    1.0000 </r>
       <r>   -1.9025    1.0000 </r>
       <r>   -1.9025    1.0000 </r>
       <r>   -1.9025    1.0000 </r>
       <r>   -0.7268    1.0000 </r>
       <r>   -0.7268    1.0000 </r>
       <r>   -0.7268    1.0000 </r>
       <r>   -0.7268    1.0000 </r>
       <r>   -0.7268    1.0000 </r>
       <r>   -0.7268    1.0000 </r>
       <r>   -0.7268    1.0000 </r>
       <r>   -0.7268    1.0000 </r>
       <r>   -0.5722    1.0000 </r>
       <r>   -0.5722    1.0000 </r>
       <r>   -0.5722    1.0000 </r>
       <r>   -0.5722    1.0000 </r>
       <r>   -0.5722    1.0000 </r>
       <r>   -0.5722    1.0000 </r>
       <r>   -0.5722    1.0000 </r>
       <r>   -0.5722    1.0000 </r>
       <r>    0.1077    1.0000 </r>
       <r>    0.1077    1.0000 </r>
       <r>    1.5480    1.0000 </r>
       <r>    1.5480    1.0000 </r>
       <r>    1.5480    1.0000 </r>
       <r>    1.5480    1.0000 </r>
       <r>    1.5480    1.0000 </r>
       <r>    1.5480    1.0000 </r>
       <r>    1.5480    1.0000 </r>
       <r>    1.5480    1.0000 </r>
       <r>    1.5640    1.0000 </r>
       <r>    1.5640    1.0000 </r>
       <r>    1.5640    1.0000 </r>
       <r>    1.5640    1.0000 </r>
       <r>    1.5640    1.0000 </r>
       <r>    1.5640    1.0000 </r>
       <r>    1.5640    1.0000 </r>
       <r>    1.5640    1.0000 </r>
       <r>    2.3817    1.0000 </r>
       <r>    2.3817    1.0000 </r>
       <r>    2.3817    1.0000 </r>
       <r>    2.3817    1.0000 </r>
       <r>    2.3817    1.0000 </r>
       <r>    2.3817    1.0000 </r>
       <r>    2.3817    1.0000 </r>
       <r>    2.3817    1.0000 </r>
       <r>    3.0960    1.0000 </r>
       <r>    3.0960    1.0000 </r>
       <r>    3.0960    1.0000 </r>
       <r>    3.0960    1.0000 </r>
[...]
      </set>
     </set>
    </set>
   </array>
  </eigenvalues>
  <separator name="orbital magnetization" >
   <v name="MAGDIPOLOUT">      0.00000000      0.00000000      0.00000000</v>
  </separator>
  <dos>
   <i name="efermi">      6.21097267 </i>
   <total>
    <array>
     <dimension dim="1">gridpoints</dimension>
     <dimension dim="2">spin</dimension>
     <field>energy</field>
     <field>total</field>
     <field>integrated</field>
     <set>
      <set comment="spin 1">
       <r>    -8.1739     0.0000     0.0000 </r>
       <r>    -8.1089     0.0000     0.0000 </r>
       <r>    -8.0439     0.0000     0.0000 </r>
       <r>    -7.9788     0.0000     0.0000 </r>
       <r>    -7.9138     0.0000     0.0000 </r>
       <r>    -7.8488     0.0000     0.0000 </r>
       <r>    -7.7838    -0.0000    -0.0000 </r>
       <r>    -7.7187    -0.0000    -0.0000 </r>
       <r>    -7.6537    -0.0000    -0.0000 </r>
       <r>    -7.5887    -0.0000    -0.0000 </r>
       <r>    -7.5237    -0.0000    -0.0000 </r>
       <r>    -7.4586    -0.0000    -0.0000 </r>
       <r>    -7.3936    -0.0000    -0.0000 </r>
       <r>    -7.3286    -0.0000    -0.0000 </r>
       <r>    -7.2636    -0.0000    -0.0000 </r>
       <r>    -7.1985    -0.0000    -0.0000 </r>
       <r>    -7.1335    -0.0000    -0.0000 </r>
       <r>    -7.0685    -0.0000    -0.0000 </r>
       <r>    -7.0035    -0.0000    -0.0000 </r>
       <r>    -6.9384    -0.0000    -0.0000 </r>
       <r>    -6.8734    -0.0000    -0.0000 </r>
       <r>    -6.8084    -0.0001    -0.0000 </r>
       <r>    -6.7434    -0.0007    -0.0001 </r>
       <r>    -6.6783    -0.0032    -0.0003 </r>
       <r>    -6.6133    -0.0115    -0.0010 </r>
       <r>    -6.5483    -0.0304    -0.0030 </r>
       <r>    -6.4833    -0.0554    -0.0066 </r>
       <r>    -6.4182    -0.0518    -0.0100 </r>
       <r>    -6.3532     0.0429    -0.0072 </r>
       <r>    -6.2882     0.2521     0.0092 </r>
       <r>    -6.2232     0.4952     0.0414 </r>
       <r>    -6.1581     0.7147     0.0879 </r>
       <r>    -6.0931     1.1468     0.1625 </r>
       <r>    -6.0281     2.2209     0.3069 </r>
       <r>    -5.9631     3.8854     0.5595 </r>
       <r>    -5.8980     5.3514     0.9075 </r>
       <r>    -5.8330     6.1448     1.3071 </r>
       <r>    -5.7680     7.0860     1.7678 </r>
       <r>    -5.7030     9.1364     2.3619 </r>
       <r>    -5.6379    11.4486     3.1064 </r>
       <r>    -5.5729    12.0700     3.8912 </r>
       <r>    -5.5079    10.6925     4.5865 </r>
       <r>    -5.4429     9.0307     5.1737 </r>
       <r>    -5.3778     8.1835     5.7058 </r>
       <r>    -5.3128     7.4087     6.1876 </r>
       <r>    -5.2478     5.9937     6.5773 </r>
       <r>    -5.1828     4.6235     6.8780 </r>
       <r>    -5.1177     4.2813     7.1564 </r>
       <r>    -5.0527     5.3907     7.5069 </r>
       <r>    -4.9877     8.5957     8.0658 </r>
       <r>    -4.9227    14.4353     9.0045 </r>
       <r>    -4.8576    21.3270    10.3912 </r>
       <r>    -4.7926    26.1091    12.0890 </r>
       <r>    -4.7276    27.7596    13.8940 </r>
       <r>    -4.6626    28.0056    15.7151 </r>
       <r>    -4.5976    27.2177    17.4849 </r>
       <r>    -4.5325    23.0732    18.9852 </r>
       <r>    -4.4675    14.7726    19.9458 </r>
       <r>    -4.4025     5.5412    20.3061 </r>
       <r>    -4.3375    -0.3712    20.2820 </r>
       <r>    -4.2724    -0.9783    20.2184 </r>
       <r>    -4.2074     3.5880    20.4517 </r>
       <r>    -4.1424    12.1697    21.2430 </r>
       <r>    -4.0774    22.3307    22.6951 </r>
       <r>    -4.0123    30.1481    24.6554 </r>
       <r>    -3.9473    31.9750    26.7346 </r>
       <r>    -3.8823    27.2994    28.5097 </r>
       <r>    -3.8173    19.5584    29.7815 </r>
       <r>    -3.7522    13.7796    30.6775 </r>
       <r>    -3.6872    13.6420    31.5646 </r>
       <r>    -3.6222    19.9292    32.8605 </r>
       <r>    -3.5572    30.0334    34.8134 </r>
       <r>    -3.4921    39.1504    37.3591 </r>
       <r>    -3.4271    43.5322    40.1898 </r>
       <r>    -3.3621    42.7020    42.9665 </r>
       <r>    -3.2971    38.2697    45.4550 </r>
       <r>    -3.2320    32.1087    47.5428 </r>
       <r>    -3.1670    26.6231    49.2740 </r>
       <r>    -3.1020    24.3538    50.8576 </r>
       <r>    -3.0370    24.8559    52.4738 </r>
       <r>    -2.9719    23.8592    54.0253 </r>
       <r>    -2.9069    18.0811    55.2010 </r>
       <r>    -2.8419     9.3348    55.8080 </r>
       <r>    -2.7769     2.0500    55.9413 </r>
       <r>    -2.7118    -1.4972    55.8439 </r>
       <r>    -2.6468    -1.8743    55.7220 </r>
       <r>    -2.5818    -0.0322    55.7199 </r>
       <r>    -2.5168     3.7733    55.9653 </r>
       <r>    -2.4517     8.6015    56.5246 </r>
       <r>    -2.3867    11.8706    57.2965 </r>
       <r>    -2.3217    11.1104    58.0189 </r>
       <r>    -2.2567     6.6439    58.4510 </r>
       <r>    -2.1916     1.8502    58.5713 </r>
       <r>    -2.1266     0.9690    58.6343 </r>
       <r>    -2.0616     6.7503    59.0732 </r>
       <r>    -1.9966    18.6183    60.2839 </r>
       <r>    -1.9315    31.6337    62.3408 </r>
       <r>    -1.8665    38.4952    64.8440 </r>
       <r>    -1.8015    34.8614    67.1108 </r>
       <r>    -1.7365    23.1033    68.6131 </r>
       <r>    -1.6714    10.1903    69.2757 </r>
       <r>    -1.6064     2.2401    69.4214 </r>
       <r>    -1.5414     1.2113    69.5002 </r>
       <r>    -1.4764     5.1320    69.8339 </r>
       <r>    -1.4113     9.9289    70.4795 </r>
       <r>    -1.3463    11.9025    71.2535 </r>
       <r>    -1.2813    10.2363    71.9191 </r>
       <r>    -1.2163     7.5552    72.4103 </r>
       <r>    -1.1512     7.6783    72.9096 </r>
       <r>    -1.0862    12.3113    73.7102 </r>
       <r>    -1.0212    19.1332    74.9543 </r>
       <r>    -0.9562    23.4977    76.4822 </r>
       <r>    -0.8911    23.5046    78.0106 </r>
       <r>    -0.8261    22.9593    79.5035 </r>
       <r>    -0.7611    27.6656    81.3025 </r>
       <r>    -0.6961    39.1182    83.8461 </r>
       <r>    -0.6310    52.2495    87.2436 </r>
       <r>    -0.5660    58.3146    91.0355 </r>
       <r>    -0.5010    51.0882    94.3575 </r>
       <r>    -0.4360    32.7803    96.4890 </r>
       <r>    -0.3709    13.4213    97.3617 </r>
       <r>    -0.3059     3.0783    97.5619 </r>
       <r>    -0.2409     4.8549    97.8776 </r>
       <r>    -0.1759    14.1526    98.7979 </r>
       <r>    -0.1108    22.6886   100.2732 </r>
       <r>    -0.0458    24.3462   101.8563 </r>
       <r>     0.0192    19.1896   103.1041 </r>
       <r>     0.0842    11.8884   103.8771 </r>
       <r>     0.1493     6.7300   104.3147 </r>
       <r>     0.2143     5.2614   104.6569 </r>
       <r>     0.2793     7.4270   105.1398 </r>
       <r>     0.3443    12.6598   105.9630 </r>
       <r>     0.4093    19.7223   107.2454 </r>
       <r>     0.4744    26.2410   108.9518 </r>
       <r>     0.5394    28.8228   110.8259 </r>
       <r>     0.6044    25.0056   112.4519 </r>
       <r>     0.6694    16.0609   113.4963 </r>
       <r>     0.7345     6.6229   113.9269 </r>
       <r>     0.7995     0.6544   113.9695 </r>
       <r>     0.8645    -1.3455   113.8820 </r>
       <r>     0.9295    -1.2088   113.8034 </r>
       <r>     0.9946    -0.6956   113.7582 </r>
       <r>     1.0596    -0.6082   113.7186 </r>
       <r>     1.1246    -1.1790   113.6419 </r>
       <r>     1.1896    -2.2550   113.4953 </r>
       <r>     1.2547    -2.5663   113.3284 </r>
       <r>     1.3197     1.1518   113.4033 </r>
       <r>     1.3847    12.8744   114.2405 </r>
       <r>     1.4497    32.5210   116.3552 </r>
       <r>     1.5148    51.8481   119.7266 </r>
       <r>     1.5798    58.5122   123.5313 </r>
       <r>     1.6448    47.5629   126.6241 </r>
       <r>     1.7098    27.6317   128.4208 </r>
       <r>     1.7749    13.2263   129.2808 </r>
       <r>     1.8399    11.6592   130.0390 </r>
       <r>     1.9049    18.5141   131.2429 </r>
       <r>     1.9699    24.1133   132.8108 </r>
       <r>     2.0350    23.0922   134.3124 </r>
       <r>     2.1000    19.1459   135.5573 </r>
       <r>     2.1650    22.0128   136.9887 </r>
       <r>     2.2300    38.7572   139.5089 </r>
       <r>     2.2951    65.5203   143.7693 </r>
       <r>     2.3601    87.4191   149.4537 </r>
       <r>     2.4251    89.2099   155.2546 </r>
       <r>     2.4901    68.3634   159.6999 </r>
       <r>     2.5552    37.1101   162.1129 </r>
       <r>     2.6202    11.0391   162.8308 </r>
       <r>     2.6852    -2.8358   162.6464 </r>
       <r>     2.7502    -6.8316   162.2021 </r>
       <r>     2.8153    -5.0164   161.8760 </r>
       <r>     2.8803     2.4243   162.0336 </r>
       <r>     2.9453    17.7734   163.1893 </r>
       <r>     3.0103    40.3226   165.8113 </r>
       <r>     3.0754    63.6594   169.9507 </r>
       <r>     3.1404    79.3752   175.1120 </r>
       <r>     3.2054    83.2184   180.5233 </r>
       <r>     3.2704    76.8618   185.5212 </r>
       <r>     3.3355    64.5571   189.7190 </r>
       <r>     3.4005    50.3240   192.9913 </r>
       <r>     3.4655    38.8700   195.5188 </r>
       <r>     3.5305    35.4824   197.8261 </r>
       <r>     3.5956    40.4910   200.4590 </r>
       <r>     3.6606    45.6330   203.4262 </r>
       <r>     3.7256    41.8049   206.1446 </r>
       <r>     3.7906    30.4852   208.1269 </r>
       <r>     3.8557    22.3130   209.5778 </r>
       <r>     3.9207    23.8811   211.1306 </r>
       <r>     3.9857    30.7525   213.1303 </r>
       <r>     4.0507    35.0175   215.4073 </r>
       <r>     4.1158    35.2961   217.7024 </r>
       <r>     4.1808    35.7531   220.0273 </r>
       <r>     4.2458    38.4128   222.5250 </r>
       <r>     4.3108    41.5955   225.2298 </r>
       <r>     4.3759    44.7349   228.1387 </r>
       <r>     4.4409    49.5073   231.3578 </r>
       <r>     4.5059    55.3416   234.9564 </r>
       <r>     4.5709    57.2194   238.6771 </r>
       <r>     4.6360    49.9349   241.9241 </r>
       <r>     4.7010    33.9278   244.1302 </r>
       <r>     4.7660    15.8775   245.1627 </r>
       <r>     4.8310     3.7306   245.4052 </r>
       <r>     4.8961     1.7646   245.5200 </r>
       <r>     4.9611     9.0650   246.1094 </r>
       <r>     5.0261    20.1383   247.4189 </r>
       <r>     5.0911    27.2941   249.1937 </r>
       <r>     5.1562    25.5403   250.8545 </r>
       <r>     5.2212    16.4552   251.9244 </r>
       <r>     5.2862     6.3036   252.3343 </r>
       <r>     5.3512     0.5056   252.3672 </r>
       <r>     5.4162     0.5849   252.4052 </r>
       <r>     5.4813     4.8383   252.7199 </r>
       <r>     5.5463     9.8546   253.3606 </r>
       <r>     5.6113    12.1618   254.1515 </r>
       <r>     5.6763    10.5237   254.8358 </r>
       <r>     5.7414     6.8395   255.2805 </r>
       <r>     5.8064     3.9269   255.5358 </r>
       <r>     5.8714     2.7244   255.7130 </r>
       <r>     5.9364     2.2160   255.8571 </r>
       <r>     6.0015     1.3628   255.9457 </r>
       <r>     6.0665     0.2326   255.9608 </r>
       <r>     6.1315    -0.3537   255.9378 </r>
       <r>     6.1965     0.5230   255.9718 </r>
       <r>     6.2616     3.3519   256.1898 </r>
       <r>     6.3266     7.4807   256.6762 </r>
       <r>     6.3916    10.8657   257.3828 </r>
       <r>     6.4566    11.3148   258.1185 </r>
       <r>     6.5217     8.4036   258.6650 </r>
       <r>     6.5867     3.9164   258.9196 </r>
       <r>     6.6517     0.4517   258.9490 </r>
       <r>     6.7167     0.0168   258.9501 </r>
       <r>     6.7818     3.4513   259.1745 </r>
       <r>     6.8468     9.6880   259.8045 </r>
       <r>     6.9118    15.2492   260.7960 </r>
       <r>     6.9768    16.3793   261.8611 </r>
       <r>     7.0419    13.3413   262.7286 </r>
       <r>     7.1069    11.5861   263.4820 </r>
       <r>     7.1719    16.4274   264.5502 </r>
       <r>     7.2369    26.2004   266.2539 </r>
       <r>     7.3020    32.5329   268.3693 </r>
       <r>     7.3670    28.6662   270.2333 </r>
       <r>     7.4320    16.6872   271.3184 </r>
       <r>     7.4970     6.1247   271.7166 </r>
       <r>     7.5621     6.6121   272.1466 </r>
       <r>     7.6271    20.9464   273.5086 </r>
       <r>     7.6921    41.8819   276.2320 </r>
       <r>     7.7571    55.8939   279.8665 </r>
       <r>     7.8222    54.1729   283.3890 </r>
       <r>     7.8872    41.0279   286.0569 </r>
       <r>     7.9522    29.5147   287.9761 </r>
       <r>     8.0172    29.3964   289.8876 </r>
       <r>     8.0823    40.7588   292.5379 </r>
       <r>     8.1473    56.5749   296.2166 </r>
       <r>     8.2123    68.1048   300.6451 </r>
       <r>     8.2773    69.5281   305.1662 </r>
       <r>     8.3424    60.7778   309.1182 </r>
       <r>     8.4074    46.3596   312.1327 </r>
       <r>     8.4724    31.4981   314.1809 </r>
       <r>     8.5374    19.9159   315.4759 </r>
       <r>     8.6025    13.3488   316.3439 </r>
       <r>     8.6675    11.3491   317.0819 </r>
       <r>     8.7325    12.5425   317.8975 </r>
       <r>     8.7975    16.0698   318.9424 </r>
       <r>     8.8626    20.3067   320.2628 </r>
       <r>     8.9276    21.6807   321.6726 </r>
       <r>     8.9926    17.6208   322.8184 </r>
       <r>     9.0576     9.9401   323.4648 </r>
       <r>     9.1227     3.1480   323.6695 </r>
       <r>     9.1877     0.0191   323.6707 </r>
       <r>     9.2527     0.0294   323.6726 </r>
       <r>     9.3177     1.1251   323.7458 </r>
       <r>     9.3828     1.7399   323.8589 </r>
       <r>     9.4478     1.4803   323.9552 </r>
       <r>     9.5128     0.7773   324.0057 </r>
       <r>     9.5778     0.1856   324.0178 </r>
       <r>     9.6429    -0.0769   324.0128 </r>
       <r>     9.7079    -0.1054   324.0059 </r>
       <r>     9.7729    -0.0600   324.0020 </r>
       <r>     9.8379    -0.0229   324.0005 </r>
       <r>     9.9030    -0.0064   324.0001 </r>
       <r>     9.9680    -0.0014   324.0000 </r>
       <r>    10.0330    -0.0002   324.0000 </r>
       <r>    10.0980    -0.0000   324.0000 </r>
       <r>    10.1631    -0.0000   324.0000 </r>
       <r>    10.2281    -0.0000   324.0000 </r>
       <r>    10.2931    -0.0000   324.0000 </r>
       <r>    10.3581    -0.0000   324.0000 </r>
       <r>    10.4231    -0.0000   324.0000 </r>
       <r>    10.4882    -0.0000   324.0000 </r>
       <r>    10.5532    -0.0000   324.0000 </r>
       <r>    10.6182    -0.0000   324.0000 </r>
       <r>    10.6832     0.0000   324.0000 </r>
       <r>    10.7483     0.0000   324.0000 </r>
       <r>    10.8133     0.0000   324.0000 </r>
       <r>    10.8783     0.0000   324.0000 </r>
       <r>    10.9433     0.0000   324.0000 </r>
       <r>    11.0084     0.0000   324.0000 </r>
       <r>    11.0734     0.0000   324.0000 </r>
       <r>    11.1384     0.0000   324.0000 </r>
       <r>    11.2034     0.0000   324.0000 </r>
       <r>    11.2685     0.0000   324.0000 </r>
       <r>    11.3335     0.0000   324.0000 </r>
      </set>
     </set>
    </array>
   </total>
  </dos>
 </calculation>
 <structure name="finalpos" >
  <crystal>
   <varray name="basis" >
    <v>      10.83392101       0.00000000       0.00000000 </v>
    <v>       0.00000000      10.83392101       0.00000000 </v>
    <v>       0.00000000       0.00000000      10.83392101 </v>
   </varray>
   <i name="volume">   1271.61896048 </i>
   <varray name="rec_basis" >
    <v>       0.09230269      -0.00000000       0.00000000 </v>
    <v>      -0.00000000       0.09230269      -0.00000000 </v>
    <v>      -0.00000000      -0.00000000       0.09230269 </v>
   </varray>
  </crystal>
  <varray name="positions" >
   <v>       0.00000000       0.00000000       0.00000000 </v>
   <v>       0.00000000       0.00000000       0.50000000 </v>
   <v>       0.00000000       0.50000000       0.00000000 </v>
   <v>       0.00000000       0.50000000       0.50000000 </v>
   <v>       0.50000000       0.00000000       0.00000000 </v>
   <v>       0.50000000       0.00000000       0.50000000 </v>
   <v>       0.50000000       0.50000000       0.00000000 </v>
   <v>       0.50000000       0.50000000       0.50000000 </v>
   <v>       0.37500000       0.37500000       0.12500000 </v>
   <v>       0.37500000       0.37500000       0.62500000 </v>
   <v>       0.37500000       0.87500000       0.12500000 </v>
   <v>       0.37500000       0.87500000       0.62500000 </v>
   <v>       0.87500000       0.37500000       0.12500000 </v>
   <v>       0.87500000       0.37500000       0.62500000 </v>
   <v>       0.87500000       0.87500000       0.12500000 </v>
   <v>       0.87500000       0.87500000       0.62500000 </v>
   <v>       0.00000000       0.25000000       0.25000000 </v>
   <v>       0.00000000       0.25000000       0.75000000 </v>
   <v>       0.00000000       0.75000000       0.25000000 </v>
   <v>       0.00000000       0.75000000       0.75000000 </v>
   <v>       0.50000000       0.25000000       0.25000000 </v>
   <v>       0.50000000       0.25000000       0.75000000 </v>
   <v>       0.50000000       0.75000000       0.25000000 </v>
   <v>       0.50000000       0.75000000       0.75000000 </v>
   <v>       0.37500000       0.12500000       0.37500000 </v>
   <v>       0.37500000       0.12500000       0.87500000 </v>
   <v>       0.37500000       0.62500000       0.37500000 </v>
   <v>       0.37500000       0.62500000       0.87500000 </v>
   <v>       0.87500000       0.12500000       0.37500000 </v>
   <v>       0.87500000       0.12500000       0.87500000 </v>
   <v>       0.87500000       0.62500000       0.37500000 </v>
   <v>       0.87500000       0.62500000       0.87500000 </v>
   <v>       0.25000000       0.00000000       0.25000000 </v>
   <v>       0.25000000       0.00000000       0.75000000 </v>
   <v>       0.25000000       0.50000000       0.25000000 </v>
   <v>       0.25000000       0.50000000       0.75000000 </v>
   <v>       0.75000000       0.00000000       0.25000000 </v>
   <v>       0.75000000       0.00000000       0.75000000 </v>
   <v>       0.75000000       0.50000000       0.25000000 </v>
   <v>       0.75000000       0.50000000       0.75000000 </v>
   <v>       0.12500000       0.37500000       0.37500000 </v>
   <v>       0.12500000       0.37500000       0.87500000 </v>
   <v>       0.12500000       0.87500000       0.37500000 </v>
   <v>       0.12500000       0.87500000       0.87500000 </v>
   <v>       0.62500000       0.37500000       0.37500000 </v>
   <v>       0.62500000       0.37500000       0.87500000 </v>
   <v>       0.62500000       0.87500000       0.37500000 </v>
   <v>       0.62500000       0.87500000       0.87500000 </v>
   <v>       0.25000000       0.25000000       0.00000000 </v>
   <v>       0.25000000       0.25000000       0.50000000 </v>
   <v>       0.25000000       0.75000000       0.00000000 </v>
   <v>       0.25000000       0.75000000       0.50000000 </v>
   <v>       0.75000000       0.25000000       0.00000000 </v>
   <v>       0.75000000       0.25000000       0.50000000 </v>
   <v>       0.75000000       0.75000000       0.00000000 </v>
   <v>       0.75000000       0.75000000       0.50000000 </v>
   <v>       0.12500000       0.12500000       0.12500000 </v>
   <v>       0.12500000       0.12500000       0.62500000 </v>
   <v>       0.12500000       0.62500000       0.12500000 </v>
   <v>       0.12500000       0.62500000       0.62500000 </v>
   <v>       0.62500000       0.12500000       0.12500000 </v>
   <v>       0.62500000       0.12500000       0.62500000 </v>
   <v>       0.62500000       0.62500000       0.12500000 </v>
   <v>       0.62500000       0.62500000       0.62500000 </v>
  </varray>
 </structure>
</modeling>
