  64  64   0   0
  0.2016596E+02  0.1099673E-08  0.1083423E-08  0.1083392E-08  0.5000000E-15
  1.000000000000000E-004
  CAR 
 Si64                                    
     11.12975275     -8.22135299  301      6.02856857      1.00000000
     -8.221  0.0000E+00  0.0000E+00
     -8.157  0.0000E+00  0.0000E+00
     -8.092  0.0000E+00  0.0000E+00
     -8.028  0.0000E+00  0.0000E+00
     -7.963  0.0000E+00  0.0000E+00
     -7.899  0.0000E+00  0.0000E+00
     -7.834 -0.8310E-29 -0.5361E-30
     -7.770 -0.1298E-26 -0.8425E-28
     -7.705 -0.1651E-24 -0.1074E-25
     -7.641 -0.1703E-22 -0.1109E-23
     -7.576 -0.1422E-20 -0.9285E-22
     -7.512 -0.9622E-19 -0.6299E-20
     -7.447 -0.5270E-17 -0.3462E-18
     -7.383 -0.2264E-15 -0.1495E-16
     -7.318 -0.8098E-14 -0.5373E-15
     -7.254 -0.2337E-12 -0.1561E-13
     -7.189 -0.5440E-11 -0.3665E-12
     -7.125 -0.1021E-09 -0.6950E-11
     -7.060 -0.1541E-08 -0.1063E-09
     -6.996 -0.1867E-07 -0.1311E-08
     -6.931 -0.1811E-06 -0.1299E-07
     -6.867 -0.1401E-05 -0.1034E-06
     -6.802 -0.8586E-05 -0.6572E-06
     -6.738 -0.4132E-04 -0.3322E-05
     -6.673 -0.1538E-03 -0.1324E-04
     -6.609 -0.4305E-03 -0.4101E-04
     -6.544 -0.8524E-03 -0.9599E-04
     -6.480 -0.9817E-03 -0.1593E-03
     -6.415  0.1451E-03 -0.1500E-03
     -6.351  0.3177E-02  0.5497E-04
     -6.286  0.7212E-02  0.5202E-03
     -6.222  0.1098E-01  0.1229E-02
     -6.157  0.1710E-01  0.2332E-02
     -6.093  0.3239E-01  0.4421E-02
     -6.028  0.5853E-01  0.8197E-02
     -5.964  0.8493E-01  0.1367E-01
     -5.899  0.1012E+00  0.2020E-01
     -5.835  0.1158E+00  0.2767E-01
     -5.770  0.1461E+00  0.3710E-01
     -5.706  0.1854E+00  0.4905E-01
     -5.641  0.2033E+00  0.6217E-01
     -5.577  0.1867E+00  0.7421E-01
     -5.512  0.1583E+00  0.8442E-01
     -5.448  0.1404E+00  0.9348E-01
     -5.383  0.1273E+00  0.1017E+00
     -5.319  0.1054E+00  0.1085E+00
     -5.254  0.8149E-01  0.1137E+00
     -5.190  0.7225E-01  0.1184E+00
     -5.125  0.8736E-01  0.1240E+00
     -5.061  0.1363E+00  0.1328E+00
     -4.996  0.2278E+00  0.1475E+00
     -4.932  0.3420E+00  0.1696E+00
     -4.867  0.4306E+00  0.1974E+00
     -4.803  0.4685E+00  0.2276E+00
     -4.738  0.4747E+00  0.2582E+00
     -4.674  0.4598E+00  0.2879E+00
     -4.609  0.3949E+00  0.3133E+00
     -4.545  0.2645E+00  0.3304E+00
     -4.480  0.1122E+00  0.3376E+00
     -4.416  0.6831E-02  0.3381E+00
     -4.351 -0.1158E-01  0.3373E+00
     -4.287  0.5986E-01  0.3412E+00
     -4.222  0.2009E+00  0.3542E+00
     -4.158  0.3683E+00  0.3779E+00
     -4.093  0.4967E+00  0.4099E+00
     -4.029  0.5287E+00  0.4440E+00
     -3.964  0.4566E+00  0.4735E+00
     -3.900  0.3339E+00  0.4950E+00
     -3.835  0.2407E+00  0.5106E+00
     -3.771  0.2378E+00  0.5259E+00
     -3.706  0.3388E+00  0.5477E+00
     -3.642  0.5034E+00  0.5802E+00
     -3.577  0.6566E+00  0.6226E+00
     -3.513  0.7360E+00  0.6700E+00
     -3.448  0.7254E+00  0.7168E+00
     -3.384  0.6471E+00  0.7586E+00
     -3.319  0.5396E+00  0.7934E+00
     -3.255  0.4498E+00  0.8224E+00
     -3.190  0.4133E+00  0.8491E+00
     -3.126  0.4142E+00  0.8758E+00
     -3.061  0.3880E+00  0.9008E+00
     -2.997  0.2916E+00  0.9196E+00
     -2.932  0.1533E+00  0.9295E+00
     -2.868  0.3737E-01  0.9319E+00
     -2.803 -0.2085E-01  0.9306E+00
     -2.739 -0.2558E-01  0.9289E+00
     -2.674  0.9922E-02  0.9296E+00
     -2.610  0.7608E-01  0.9345E+00
     -2.545  0.1504E+00  0.9442E+00
     -2.481  0.1919E+00  0.9565E+00
     -2.416  0.1706E+00  0.9675E+00
     -2.352  0.1005E+00  0.9740E+00
     -2.287  0.3685E-01  0.9764E+00
     -2.223  0.4167E-01  0.9791E+00
     -2.158  0.1483E+00  0.9887E+00
     -2.094  0.3366E+00  0.1010E+01
     -2.029  0.5265E+00  0.1044E+01
     -1.964  0.6147E+00  0.1084E+01
     -1.900  0.5475E+00  0.1119E+01
     -1.835  0.3653E+00  0.1143E+01
     -1.771  0.1704E+00  0.1154E+01
     -1.706  0.5184E-01  0.1157E+01
     -1.642  0.3683E-01  0.1160E+01
     -1.577  0.9287E-01  0.1166E+01
     -1.513  0.1582E+00  0.1176E+01
     -1.448  0.1814E+00  0.1187E+01
     -1.384  0.1537E+00  0.1197E+01
     -1.319  0.1138E+00  0.1205E+01
     -1.255  0.1169E+00  0.1212E+01
     -1.190  0.1912E+00  0.1225E+01
     -1.126  0.3094E+00  0.1245E+01
     -1.061  0.4041E+00  0.1271E+01
     -0.997  0.4342E+00  0.1299E+01
     -0.932  0.4357E+00  0.1327E+01
     -0.868  0.4880E+00  0.1358E+01
     -0.803  0.6318E+00  0.1399E+01
     -0.739  0.8184E+00  0.1452E+01
     -0.674  0.9263E+00  0.1512E+01
     -0.610  0.8437E+00  0.1566E+01
     -0.545  0.5781E+00  0.1603E+01
     -0.481  0.2755E+00  0.1621E+01
     -0.416  0.1054E+00  0.1628E+01
     -0.352  0.1275E+00  0.1636E+01
     -0.287  0.2645E+00  0.1653E+01
     -0.223  0.3801E+00  0.1678E+01
     -0.158  0.3855E+00  0.1702E+01
     -0.094  0.2925E+00  0.1721E+01
     -0.029  0.1766E+00  0.1733E+01
      0.035  0.1025E+00  0.1739E+01
      0.100  0.9104E-01  0.1745E+01
      0.164  0.1349E+00  0.1754E+01
      0.229  0.2178E+00  0.1768E+01
      0.293  0.3193E+00  0.1789E+01
      0.358  0.4109E+00  0.1815E+01
      0.422  0.4515E+00  0.1844E+01
      0.487  0.4057E+00  0.1870E+01
      0.551  0.2811E+00  0.1888E+01
      0.616  0.1356E+00  0.1897E+01
      0.680  0.3056E-01  0.1899E+01
      0.745 -0.1457E-01  0.1898E+01
      0.809 -0.1983E-01  0.1897E+01
      0.874 -0.1276E-01  0.1896E+01
      0.938 -0.9371E-02  0.1896E+01
      1.003 -0.1601E-01  0.1895E+01
      1.067 -0.3353E-01  0.1892E+01
      1.132 -0.4823E-01  0.1889E+01
      1.196 -0.1394E-01  0.1888E+01
      1.261  0.1397E+00  0.1897E+01
      1.325  0.4390E+00  0.1926E+01
      1.390  0.7831E+00  0.1976E+01
      1.454  0.9722E+00  0.2039E+01
      1.519  0.8773E+00  0.2095E+01
      1.583  0.5768E+00  0.2133E+01
      1.648  0.2890E+00  0.2151E+01
      1.712  0.1762E+00  0.2163E+01
      1.777  0.2332E+00  0.2178E+01
      1.841  0.3380E+00  0.2200E+01
      1.906  0.3809E+00  0.2224E+01
      1.970  0.3619E+00  0.2247E+01
      2.035  0.3906E+00  0.2273E+01
      2.099  0.5843E+00  0.2310E+01
      2.164  0.9383E+00  0.2371E+01
      2.228  0.1289E+01  0.2454E+01
      2.293  0.1423E+01  0.2546E+01
      2.357  0.1241E+01  0.2626E+01
      2.422  0.8339E+00  0.2680E+01
      2.486  0.3983E+00  0.2705E+01
      2.551  0.8786E-01  0.2711E+01
      2.615 -0.6208E-01  0.2707E+01
      2.680 -0.9121E-01  0.2701E+01
      2.744 -0.2183E-01  0.2700E+01
      2.809  0.1769E+00  0.2711E+01
      2.873  0.5270E+00  0.2745E+01
      2.938  0.9523E+00  0.2807E+01
      3.002  0.1289E+01  0.2890E+01
      3.067  0.1409E+01  0.2981E+01
      3.131  0.1321E+01  0.3066E+01
      3.196  0.1119E+01  0.3138E+01
      3.260  0.8976E+00  0.3196E+01
      3.325  0.7159E+00  0.3242E+01
      3.389  0.6212E+00  0.3282E+01
      3.454  0.6324E+00  0.3323E+01
      3.518  0.6961E+00  0.3368E+01
      3.583  0.7096E+00  0.3414E+01
      3.647  0.6245E+00  0.3454E+01
      3.712  0.5062E+00  0.3486E+01
      3.776  0.4556E+00  0.3516E+01
      3.841  0.4900E+00  0.3547E+01
      3.905  0.5412E+00  0.3582E+01
      3.970  0.5569E+00  0.3618E+01
      4.034  0.5585E+00  0.3654E+01
      4.099  0.5951E+00  0.3693E+01
      4.163  0.6837E+00  0.3737E+01
      4.228  0.8011E+00  0.3788E+01
      4.292  0.9057E+00  0.3847E+01
      4.357  0.9536E+00  0.3908E+01
      4.421  0.9113E+00  0.3967E+01
      4.486  0.7722E+00  0.4017E+01
      4.550  0.5636E+00  0.4053E+01
      4.615  0.3419E+00  0.4075E+01
      4.679  0.1745E+00  0.4087E+01
      4.744  0.1118E+00  0.4094E+01
      4.808  0.1591E+00  0.4104E+01
      4.873  0.2696E+00  0.4122E+01
      4.937  0.3657E+00  0.4145E+01
      5.002  0.3815E+00  0.4170E+01
      5.066  0.3029E+00  0.4189E+01
      5.131  0.1763E+00  0.4201E+01
      5.195  0.7312E-01  0.4205E+01
      5.260  0.4054E-01  0.4208E+01
      5.324  0.7645E-01  0.4213E+01
      5.389  0.1398E+00  0.4222E+01
      5.453  0.1809E+00  0.4234E+01
      5.518  0.1735E+00  0.4245E+01
      5.582  0.1287E+00  0.4253E+01
      5.647  0.7876E-01  0.4258E+01
      5.711  0.4701E-01  0.4261E+01
      5.776  0.3302E-01  0.4263E+01
      5.840  0.2361E-01  0.4265E+01
      5.905  0.1187E-01  0.4266E+01
      5.969  0.4372E-02  0.4266E+01
      6.034  0.1371E-01  0.4267E+01
      6.098  0.4576E-01  0.4270E+01
      6.163  0.9197E-01  0.4276E+01
      6.227  0.1330E+00  0.4284E+01
      6.292  0.1512E+00  0.4294E+01
      6.356  0.1394E+00  0.4303E+01
      6.421  0.1037E+00  0.4310E+01
      6.485  0.6228E-01  0.4314E+01
      6.550  0.4134E-01  0.4316E+01
      6.614  0.6048E-01  0.4320E+01
      6.679  0.1158E+00  0.4328E+01
      6.744  0.1793E+00  0.4339E+01
      6.808  0.2201E+00  0.4354E+01
      6.873  0.2319E+00  0.4368E+01
      6.937  0.2404E+00  0.4384E+01
      7.002  0.2819E+00  0.4402E+01
      7.066  0.3648E+00  0.4426E+01
      7.131  0.4467E+00  0.4455E+01
      7.195  0.4621E+00  0.4484E+01
      7.260  0.3888E+00  0.4509E+01
      7.324  0.2863E+00  0.4528E+01
      7.389  0.2537E+00  0.4544E+01
      7.453  0.3417E+00  0.4566E+01
      7.518  0.5112E+00  0.4599E+01
      7.582  0.6748E+00  0.4643E+01
      7.647  0.7657E+00  0.4692E+01
      7.711  0.7713E+00  0.4742E+01
      7.776  0.7307E+00  0.4789E+01
      7.840  0.7101E+00  0.4835E+01
      7.905  0.7555E+00  0.4884E+01
      7.969  0.8512E+00  0.4938E+01
      8.034  0.9320E+00  0.4999E+01
      8.098  0.9462E+00  0.5060E+01
      8.163  0.8939E+00  0.5117E+01
      8.227  0.8043E+00  0.5169E+01
      8.292  0.6952E+00  0.5214E+01
      8.356  0.5733E+00  0.5251E+01
      8.421  0.4555E+00  0.5280E+01
      8.485  0.3674E+00  0.5304E+01
      8.550  0.3204E+00  0.5325E+01
      8.614  0.2995E+00  0.5344E+01
      8.679  0.2754E+00  0.5362E+01
      8.743  0.2267E+00  0.5376E+01
      8.808  0.1544E+00  0.5386E+01
      8.872  0.7932E-01  0.5392E+01
      8.937  0.2689E-01  0.5393E+01
      9.001  0.8369E-02  0.5394E+01
      9.066  0.1481E-01  0.5395E+01
      9.130  0.2656E-01  0.5396E+01
      9.195  0.2891E-01  0.5398E+01
      9.259  0.2042E-01  0.5400E+01
      9.324  0.8769E-02  0.5400E+01
      9.388  0.9446E-03  0.5400E+01
      9.453 -0.1719E-02  0.5400E+01
      9.517 -0.1534E-02  0.5400E+01
      9.582 -0.7578E-03  0.5400E+01
      9.646 -0.2634E-03  0.5400E+01
      9.711 -0.6888E-04  0.5400E+01
      9.775 -0.1396E-04  0.5400E+01
      9.840 -0.2224E-05  0.5400E+01
      9.904 -0.2812E-06  0.5400E+01
      9.969 -0.2838E-07  0.5400E+01
     10.033 -0.2295E-08  0.5400E+01
     10.098 -0.1492E-09  0.5400E+01
     10.162 -0.7808E-11  0.5400E+01
     10.227 -0.3296E-12  0.5400E+01
     10.291 -0.1123E-13  0.5400E+01
     10.356 -0.3155E-15  0.5400E+01
     10.420  0.0000E+00  0.5400E+01
     10.485  0.0000E+00  0.5400E+01
     10.549  0.0000E+00  0.5400E+01
     10.614  0.0000E+00  0.5400E+01
     10.678  0.0000E+00  0.5400E+01
     10.743  0.0000E+00  0.5400E+01
     10.807  0.0000E+00  0.5400E+01
     10.872  0.0000E+00  0.5400E+01
     10.936  0.0000E+00  0.5400E+01
     11.001  0.0000E+00  0.5400E+01
     11.065  0.0000E+00  0.5400E+01
     11.130  0.0000E+00  0.5400E+01
