       N       E                     dE             d eps       ncg     rms          rms(c)
DAV:   1     0.559268575982E+03    0.55927E+03   -0.83678E+04  2592   0.106E+03
DAV:   2    -0.309717214141E+03   -0.86899E+03   -0.82570E+03  3080   0.172E+02
DAV:   3    -0.372837910598E+03   -0.63121E+02   -0.61985E+02  3136   0.410E+01
DAV:   4    -0.374496877761E+03   -0.16590E+01   -0.16462E+01  3144   0.804E+00
DAV:   5    -0.374551460879E+03   -0.54583E-01   -0.54450E-01  3094   0.136E+00    0.279E+01
RMM:   6    -0.369665741227E+03    0.48857E+01   -0.24138E+00  2592   0.242E+00    0.167E+01
RMM:   7    -0.367411545641E+03    0.22542E+01   -0.62025E+00  2626   0.391E+00    0.911E-01
RMM:   8    -0.367458795670E+03   -0.47250E-01   -0.62958E-01  2635   0.150E+00    0.489E-01
RMM:   9    -0.367477619140E+03   -0.18823E-01   -0.17385E-01  2671   0.738E-01    0.567E-01
RMM:  10    -0.367480965623E+03   -0.33465E-02   -0.30302E-02  2743   0.344E-01    0.772E-01
RMM:  11    -0.367479012393E+03    0.19532E-02   -0.10617E-02  2592   0.207E-01    0.609E-01
RMM:  12    -0.367479149174E+03   -0.13678E-03   -0.16911E-03  2600   0.969E-02    0.586E-01
RMM:  13    -0.367479192832E+03   -0.43658E-04   -0.30791E-04  2782   0.390E-02    0.677E-01
RMM:  14    -0.367479241540E+03   -0.48708E-04   -0.85758E-05  2599   0.229E-02    0.311E-01
RMM:  15    -0.367479294485E+03   -0.52945E-04   -0.28729E-05  2646   0.118E-02    0.236E-01
RMM:  16    -0.367479323524E+03   -0.29039E-04   -0.18224E-05  2592   0.986E-03    0.128E-01
RMM:  17    -0.367479333636E+03   -0.10112E-04   -0.10651E-05  2593   0.748E-03    0.304E-02
RMM:  18    -0.367479334613E+03   -0.97741E-06   -0.32287E-06  1820   0.386E-03
   1 F= -.36747933E+03 E0= -.36748832E+03  d E =-.367479E+03
       N       E                     dE             d eps       ncg     rms          rms(c)
DAV:   1    -0.367497468603E+03   -0.18135E-01   -0.82162E-01  2960   0.173E+00    0.382E-01
RMM:   2    -0.367501644481E+03   -0.41759E-02   -0.44051E-02  2592   0.435E-01    0.155E-01
RMM:   3    -0.367502378308E+03   -0.73383E-03   -0.73299E-03  2643   0.199E-01    0.668E-02
RMM:   4    -0.367502395737E+03   -0.17429E-04   -0.10100E-03  2685   0.832E-02    0.235E-02
RMM:   5    -0.367502402873E+03   -0.71361E-05   -0.16893E-04  2671   0.330E-02    0.536E-03
RMM:   6    -0.367502406912E+03   -0.40384E-05   -0.40091E-05  2758   0.145E-02    0.116E-03
RMM:   7    -0.367502407407E+03   -0.49579E-06   -0.51597E-06  1976   0.522E-03    0.942E-04
RMM:   8    -0.367502407508E+03   -0.10015E-06   -0.11404E-06  1597   0.233E-03
   2 F= -.36750241E+03 E0= -.36751115E+03  d E =-.230729E-01
       N       E                     dE             d eps       ncg     rms          rms(c)
DAV:   1    -0.367504216456E+03   -0.18090E-02   -0.40082E-02  2968   0.381E-01    0.844E-02
RMM:   2    -0.367504417359E+03   -0.20090E-03   -0.21036E-03  2592   0.956E-02    0.345E-02
RMM:   3    -0.367504451938E+03   -0.34579E-04   -0.34069E-04  2642   0.435E-02    0.146E-02
RMM:   4    -0.367504453037E+03   -0.10985E-05   -0.46868E-05  2679   0.182E-02    0.512E-03
RMM:   5    -0.367504453475E+03   -0.43824E-06   -0.80047E-06  2295   0.719E-03    0.119E-03
RMM:   6    -0.367504453633E+03   -0.15817E-06   -0.16562E-06  1660   0.311E-03    0.208E-04
RMM:   7    -0.367504453666E+03   -0.32811E-07   -0.34006E-07  1460   0.132E-03    0.145E-04
RMM:   8    -0.367504453676E+03   -0.99135E-08   -0.88663E-08   996   0.692E-04
   3 F= -.36750445E+03 E0= -.36751332E+03  d E =-.251191E-01
