 vasp.6.4.3 19Mar24 (build Oct 21 2024 22:36:34) complex                        
  
 executed on             LinuxIFC date 2024.11.01  22:46:34
 running   96 mpi-ranks, on    1 nodes
 distrk:  each k-point on   24 cores,    4 groups
 distr:  one band on NCORE=  12 cores,    2 groups


--------------------------------------------------------------------------------------------------------


 INCAR:
   SYSTEM = Si64
   ISTART = 0
   ICHARG = 2
   LREAL = Auto
   PREC = Accurate
   LWAVE = .False.
   LCHARG = .False.
   ADDGRID = .True.
   ENCUT = 400
   GGA = PS
   GGA_COMPAT = .FALSE.
   ISMEAR = 1
   SIGMA = 0.2
   NELM = 60
   NELMIN = 8
   EDIFF = 1e-06
   EDIFFG = -0.01
   NSW = 60
   IBRION = 2
   ISIF = 2
   KPAR = 4
   NPAR = 2
   ALGO = Fast

 POTCAR:    PAW_PBE Si 05Jan2001                  
 POTCAR:    PAW_PBE Si 05Jan2001                  
   VRHFIN =Si: s2p2                                                                                 
   LEXCH  = PE                                                                                      
   EATOM  =   103.0669 eV,    7.5752 Ry                                                             
                                                                                                    
   TITEL  = PAW_PBE Si 05Jan2001                                                                    
   LULTRA =        F    use ultrasoft PP ?                                                          
   IUNSCR =        1    unscreen: 0-lin 1-nonlin 2-no                                               
   RPACOR =    1.500    partial core radius                                                         
   POMASS =   28.085; ZVAL   =    4.000    mass and valenz                                          
   RCORE  =    1.900    outmost cutoff radius                                                       
   RWIGS  =    2.480; RWIGS  =    1.312    wigner-seitz radius (au A)                               
   ENMAX  =  245.345; ENMIN  =  184.009 eV                                                          
   ICORE  =        2    local potential                                                             
   LCOR   =        T    correct aug charges                                                         
   LPAW   =        T    paw PP                                                                      
   EAUG   =  322.069                                                                                
   DEXC   =    0.000                                                                                
   RMAX   =    1.950    core radius for proj-oper                                                   
   RAUG   =    1.300    factor for augmentation sphere                                              
   RDEP   =    1.993    radius for radial grids                                                     
   RDEPT  =    1.837    core radius for aug-charge                                                  
                                                                                                    
   Atomic configuration                                                                             
    6 entries                                                                                       
     n  l   j            E        occ.                                                              
     1  0  0.50     -1785.8828   2.0000                                                             
     2  0  0.50      -139.4969   2.0000                                                             
     2  1  1.50       -95.5546   6.0000                                                             
     3  0  0.50       -10.8127   2.0000                                                             
     3  1  0.50        -4.0811   2.0000                                                             
     3  2  1.50        -4.0817   0.0000                                                             
   Description                                                                                      
     l       E           TYP  RCUT    TYP  RCUT                                                     
     0    -10.8127223     23  1.900                                                                 
     0     -7.6451159     23  1.900                                                                 
     1     -4.0811372     23  1.900                                                                 
     1      2.4879257     23  1.900                                                                 
     2     -4.0817478      7  1.900                                                                 
  local pseudopotential read in
  partial core-charges read in
  partial kinetic energy density read in
  atomic valenz-charges read in
  non local Contribution for L=           0  read in
    real space projection operators read in
  non local Contribution for L=           0  read in
    real space projection operators read in
  non local Contribution for L=           1  read in
    real space projection operators read in
  non local Contribution for L=           1  read in
    real space projection operators read in
    PAW grid and wavefunctions read in
 
   number of l-projection  operators is LMAX  =           4
   number of lm-projection operators is LMMAX =           8
 
 Optimization of the real space projectors (new method)

 maximal supplied QI-value         = 19.84
 optimisation between [QCUT,QGAM] = [ 10.12, 20.44] = [ 28.68,116.96] Ry 
 Optimized for a Real-space Cutoff    1.38 Angstroem

   l    n(q)    QCUT    max X(q) W(low)/X(q) W(high)/X(q)  e(spline) 
   0      8    10.119   159.560    0.58E-04    0.11E-03    0.54E-07
   0      8    10.119   115.863    0.56E-04    0.11E-03    0.54E-07
   1      8    10.119    88.339    0.22E-03    0.17E-03    0.19E-06
   1      8    10.119    48.592    0.22E-03    0.17E-03    0.18E-06
 -----------------------------------------------------------------------------
|                                                                             |
|               ----> ADVICE to this user running VASP <----                  |
|                                                                             |
|     You enforced a specific xc type in the INCAR file but a different       |
|     type was found in the POTCAR file.                                      |
|     I HOPE YOU KNOW WHAT YOU ARE DOING!                                     |
|                                                                             |
 -----------------------------------------------------------------------------

  PAW_PBE Si 05Jan2001                  :
 energy of atom  1       EATOM= -103.0669
 kinetic energy error for atom=    0.0012 (will be added to EATOM!!)
 
 
 POSCAR: Si8
  positions in direct lattice
  velocities in cartesian coordinates


 exchange-correlation table for PS
   RHO(1)=    0.500       N(1)  =     2000
   RHO(2)=  100.500       N(2)  =     4000
 


--------------------------------------------------------------------------------------------------------


 ion  position               nearest neighbor table
   1  0.000  0.000  0.000-  30 2.35  44 2.35  15 2.37  57 2.37
   2  0.000  0.000  0.500-  29 2.35  43 2.35  16 2.37  58 2.37
   3  0.000  0.500  0.000-  32 2.35  42 2.35  13 2.37  59 2.37
   4  0.000  0.500  0.500-  31 2.35  41 2.35  14 2.37  60 2.37
   5  0.500  0.000  0.000-  26 2.35  48 2.35  11 2.37  61 2.37
   6  0.500  0.000  0.500-  25 2.35  47 2.35  12 2.37  62 2.37
   7  0.500  0.500  0.000-  28 2.35  46 2.35   9 2.37  63 2.37
   8  0.500  0.500  0.500-  27 2.35  45 2.35  10 2.37  64 2.37
   9  0.375  0.375  0.125-  21 2.35  35 2.35   7 2.37  49 2.37
  10  0.375  0.375  0.625-  22 2.35  36 2.35   8 2.37  50 2.37
  11  0.375  0.875  0.125-  23 2.35  33 2.35   5 2.37  51 2.37
  12  0.375  0.875  0.625-  24 2.35  34 2.35   6 2.37  52 2.37
  13  0.875  0.375  0.125-  17 2.35  39 2.35   3 2.37  53 2.37
  14  0.875  0.375  0.625-  18 2.35  40 2.35   4 2.37  54 2.37
  15  0.875  0.875  0.125-  19 2.35  37 2.35   1 2.37  55 2.37
  16  0.875  0.875  0.625-  20 2.35  38 2.35   2 2.37  56 2.37
  17  0.000  0.250  0.250-  13 2.35  57 2.35  41 2.37  29 2.37
  18  0.000  0.250  0.750-  14 2.35  58 2.35  42 2.37  30 2.37
  19  0.000  0.750  0.250-  15 2.35  59 2.35  43 2.37  31 2.37
  20  0.000  0.750  0.750-  16 2.35  60 2.35  44 2.37  32 2.37
  21  0.500  0.250  0.250-   9 2.35  61 2.35  45 2.37  25 2.37
  22  0.500  0.250  0.750-  10 2.35  62 2.35  46 2.37  26 2.37
  23  0.500  0.750  0.250-  11 2.35  63 2.35  47 2.37  27 2.37
  24  0.500  0.750  0.750-  12 2.35  64 2.35  48 2.37  28 2.37
  25  0.375  0.125  0.375-   6 2.35  50 2.35  33 2.37  21 2.37
  26  0.375  0.125  0.875-   5 2.35  49 2.35  34 2.37  22 2.37
  27  0.375  0.625  0.375-   8 2.35  52 2.35  35 2.37  23 2.37
  28  0.375  0.625  0.875-   7 2.35  51 2.35  36 2.37  24 2.37
  29  0.875  0.125  0.375-   2 2.35  54 2.35  37 2.37  17 2.37
  30  0.875  0.125  0.875-   1 2.35  53 2.35  38 2.37  18 2.37
  31  0.875  0.625  0.375-   4 2.35  56 2.35  39 2.37  19 2.37
  32  0.875  0.625  0.875-   3 2.35  55 2.35  40 2.37  20 2.37
  33  0.250  0.000  0.250-  11 2.35  57 2.35  43 2.37  25 2.37
  34  0.250  0.000  0.750-  12 2.35  58 2.35  44 2.37  26 2.37
  35  0.250  0.500  0.250-   9 2.35  59 2.35  41 2.37  27 2.37
  36  0.250  0.500  0.750-  10 2.35  60 2.35  42 2.37  28 2.37
  37  0.750  0.000  0.250-  15 2.35  61 2.35  47 2.37  29 2.37
  38  0.750  0.000  0.750-  16 2.35  62 2.35  48 2.37  30 2.37
  39  0.750  0.500  0.250-  13 2.35  63 2.35  45 2.37  31 2.37
  40  0.750  0.500  0.750-  14 2.35  64 2.35  46 2.37  32 2.37
  41  0.125  0.375  0.375-   4 2.35  50 2.35  35 2.37  17 2.37
  42  0.125  0.375  0.875-   3 2.35  49 2.35  36 2.37  18 2.37
  43  0.125  0.875  0.375-   2 2.35  52 2.35  33 2.37  19 2.37
  44  0.125  0.875  0.875-   1 2.35  51 2.35  34 2.37  20 2.37
  45  0.625  0.375  0.375-   8 2.35  54 2.35  39 2.37  21 2.37
  46  0.625  0.375  0.875-   7 2.35  53 2.35  40 2.37  22 2.37
  47  0.625  0.875  0.375-   6 2.35  56 2.35  37 2.37  23 2.37
  48  0.625  0.875  0.875-   5 2.35  55 2.35  38 2.37  24 2.37
  49  0.250  0.250  0.000-  26 2.35  42 2.35   9 2.37  57 2.37
  50  0.250  0.250  0.500-  25 2.35  41 2.35  10 2.37  58 2.37
  51  0.250  0.750  0.000-  28 2.35  44 2.35  11 2.37  59 2.37
  52  0.250  0.750  0.500-  27 2.35  43 2.35  12 2.37  60 2.37
  53  0.750  0.250  0.000-  30 2.35  46 2.35  13 2.37  61 2.37
  54  0.750  0.250  0.500-  29 2.35  45 2.35  14 2.37  62 2.37
  55  0.750  0.750  0.000-  32 2.35  48 2.35  15 2.37  63 2.37
  56  0.750  0.750  0.500-  31 2.35  47 2.35  16 2.37  64 2.37
  57  0.125  0.125  0.125-  17 2.35  33 2.35   1 2.37  49 2.37
  58  0.125  0.125  0.625-  18 2.35  34 2.35   2 2.37  50 2.37
  59  0.125  0.625  0.125-  19 2.35  35 2.35   3 2.37  51 2.37
  60  0.125  0.625  0.625-  20 2.35  36 2.35   4 2.37  52 2.37
  61  0.625  0.125  0.125-  21 2.35  37 2.35   5 2.37  53 2.37
  62  0.625  0.125  0.625-  22 2.35  38 2.35   6 2.37  54 2.37
  63  0.625  0.625  0.125-  23 2.35  39 2.35   7 2.37  55 2.37
  64  0.625  0.625  0.625-  24 2.35  40 2.35   8 2.37  56 2.37
 
  LATTYP: Found a simple monoclinic cell.
 ALAT       =    10.8342252967
 B/A-ratio  =     0.9999718765
 C/A-ratio  =     1.0149991824
 COS(beta)  =    -0.0148882653
  
  Lattice vectors:
  
 A1 = (   0.0812540120,  10.8339206000,   0.0000000000)
 A2 = (   0.0000000000,   0.0000000000, -10.8339206000)
 A3 = ( -10.9964296240,  -0.0812540120,   0.0000000000)


Analysis of symmetry for initial positions (statically):
=====================================================================
 Subroutine PRICEL returns following result:
 
  LATTYP: Found a base centered monoclinic cell.
 ALAT       =     5.4171126484
 B/A-ratio  =     0.9999718765
 C/A-ratio  =     0.7071068141
 COS(beta)  =    -0.6964212501
  
  Lattice vectors:
  
 A1 = (   0.0203135030,   2.7084801500,  -2.7084801500)
 A2 = (   0.0203135030,   2.7084801500,   2.7084801500)
 A3 = (   2.7287939030,  -2.6881666470,   0.0000000000)
 
  32 primitive cells build up your supercell.
 

 Routine SETGRP: Setting up the symmetry group for a 
 simple monoclinic supercell.


 Subroutine GETGRP returns: Found  4 space group operations
 (whereof  2 operations were pure point group operations)
 out of a pool of  4 trial point group operations.


The static configuration has the point symmetry C_2 .
 The point group associated with its full space group is C_2h.


Analysis of symmetry for dynamics (positions and initial velocities):
=====================================================================
 Subroutine PRICEL returns following result:
 
  LATTYP: Found a base centered monoclinic cell.
 ALAT       =     5.4171126484
 B/A-ratio  =     0.9999718765
 C/A-ratio  =     0.7071068141
 COS(beta)  =    -0.6964212501
  
  Lattice vectors:
  
 A1 = (   0.0203135030,   2.7084801500,  -2.7084801500)
 A2 = (   0.0203135030,   2.7084801500,   2.7084801500)
 A3 = (   2.7287939030,  -2.6881666470,   0.0000000000)
 
  32 primitive cells build up your supercell.
 

 Routine SETGRP: Setting up the symmetry group for a 
 simple monoclinic supercell.


 Subroutine GETGRP returns: Found  4 space group operations
 (whereof  2 operations were pure point group operations)
 out of a pool of  4 trial point group operations.


The dynamic configuration has the point symmetry C_2 .
 The point group associated with its full space group is C_2h.


 Subroutine INISYM returns: Found  4 space group operations
 (whereof  2 operations are pure point group operations),
 and found    32 'primitive' translations


----------------------------------------------------------------------------------------

                                     Primitive cell                                     

  volume of cell :      40.3319

  direct lattice vectors                    reciprocal lattice vectors
     0.020313503  2.708480150 -2.708480150     0.180523147  0.183251460 -0.184605377
     0.020313503  2.708480150  2.708480150     0.180523147  0.183251460  0.184605377
     2.728793903 -2.688166647  0.000000000     0.363774591 -0.002728296 -0.000000000

  length of vectors
     3.830423225  3.830423225  3.830477266     0.316620987  0.316620987  0.363784822

  position of ions in fractional coordinates (direct lattice)
     0.000000000  0.000000000  0.000000000
     0.250000000  0.750000000  0.500000000

  ion indices of the primitive-cell ions
   primitive index   ion index
                 1           1
                 2          15

----------------------------------------------------------------------------------------

 
 
 KPOINTS: Automatic mesh                          

Automatic generation of k-mesh.
 Grid dimensions read from file:
 generate k-points for:    2    2    2

 Generating k-lattice:

  Cartesian coordinates                     Fractional coordinates (reciprocal lattice)
     0.045471824 -0.000341037  0.000000000     0.500000000  0.000000000  0.000000000
    -0.000341037  0.046153902  0.000000000     0.000000000  0.500000000  0.000000000
     0.000000000  0.000000000  0.046151344     0.000000000  0.000000000  0.500000000

  Length of vectors
     0.045473103  0.046155162  0.046151344

  Shift w.r.t. Gamma in fractional coordinates (k-lattice)
     0.000000000  0.000000000  0.000000000

 
 Subroutine IBZKPT returns following result:
 ===========================================
 
 Found      8 irreducible k-points:
 
 Following reciprocal coordinates:
            Coordinates               Weight
  0.000000  0.000000  0.000000      1.000000
  0.500000  0.000000  0.000000      1.000000
 -0.000000  0.500000  0.000000      1.000000
  0.500000  0.500000  0.000000      1.000000
  0.000000  0.000000  0.500000      1.000000
  0.500000  0.000000  0.500000      1.000000
 -0.000000  0.500000  0.500000      1.000000
  0.500000  0.500000  0.500000      1.000000
 
 Following cartesian coordinates:
            Coordinates               Weight
  0.000000  0.000000  0.000000      1.000000
  0.045472 -0.000341  0.000000      1.000000
 -0.000341  0.046154  0.000000      1.000000
  0.045131  0.045813  0.000000      1.000000
  0.000000  0.000000  0.046151      1.000000
  0.045472 -0.000341  0.046151      1.000000
 -0.000341  0.046154  0.046151      1.000000
  0.045131  0.045813  0.046151      1.000000
 


--------------------------------------------------------------------------------------------------------




 Dimension of arrays:
   k-points           NKPTS =      8   k-points in BZ     NKDIM =      8   number of bands    NBANDS=    162
   number of dos      NEDOS =    301   number of ions     NIONS =     64
   non local maximal  LDIM  =      4   non local SUM 2l+1 LMDIM =      8
   total plane-waves  NPLWV = 373248
   max r-space proj   IRMAX =   3237   max aug-charges    IRDMAX=  77546
   dimension x,y,z NGX =    72 NGY =   72 NGZ =   72
   dimension x,y,z NGXF=   144 NGYF=  144 NGZF=  144
   support grid    NGXF=   288 NGYF=  288 NGZF=  288
   ions per type =              64
   NGX,Y,Z   is equivalent  to a cutoff of  10.88, 11.05, 11.05 a.u.
   NGXF,Y,Z  is equivalent  to a cutoff of  21.77, 22.10, 22.10 a.u.

 SYSTEM =  Si64                                    
 POSCAR =  Si8                                     

 Startparameter for this run:
   NWRITE =      2    write-flag & timer
   PREC   = accura    normal or accurate (medium, high low for compatibility)
   ISTART =      0    job   : 0-new  1-cont  2-samecut
   ICHARG =      2    charge: 1-file 2-atom 10-const
   ISPIN  =      1    spin polarized calculation?
   LNONCOLLINEAR =      F non collinear calculations
   LSORBIT =      F    spin-orbit coupling
   INIWAV =      1    electr: 0-lowe 1-rand  2-diag
   LASPH  =      F    aspherical Exc in radial PAW
 Electronic Relaxation 1
   ENCUT  =  400.0 eV  29.40 Ry    5.42 a.u.  17.93 17.67 17.67*2*pi/ulx,y,z
   ENINI  =  400.0     initial cutoff
   ENAUG  =  322.1 eV  augmentation charge cutoff
   NELM   =     60;   NELMIN=  8; NELMDL= -5     # of ELM steps 
   EDIFF  = 0.1E-05   stopping-criterion for ELM
   LREAL  =      T    real-space projection
   NLSPLINE    = F    spline interpolate recip. space projectors
   LCOMPAT=      F    compatible to vasp.4.4
   GGA_COMPAT  = F    GGA compatible to vasp.4.4-vasp.4.6
   LMAXPAW     = -100 max onsite density
   LMAXMIX     =    2 max onsite mixed and CHGCAR
   VOSKOWN=      0    Vosko Wilk Nusair interpolation
   ROPT   =   -0.00025
 Ionic relaxation
   EDIFFG = -.1E-01   stopping-criterion for IOM
   NSW    =     60    number of steps for IOM
   NBLOCK =      1;   KBLOCK =     60    inner block; outer block 
   IBRION =      2    ionic relax: 0-MD 1-quasi-New 2-CG
   NFREE  =      1    steps in history (QN), initial steepest desc. (CG)
   ISIF   =      2    stress and relaxation
   IWAVPR =     11    prediction:  0-non 1-charg 2-wave 3-comb
   ISYM   =      2    0-nonsym 1-usesym 2-fastsym
   LCORR  =      T    Harris-Foulkes like correction to forces

   POTIM  = 0.5000    time-step for ionic-motion
   TEIN   =    0.0    initial temperature
   TEBEG  =    0.0;   TEEND  =   0.0 temperature during run
   SMASS  =  -3.00    Nose mass-parameter (am)
   estimated Nose-frequenzy (Omega)   =  0.10E-29 period in steps = 0.13E+47 mass=  -0.276E-26a.u.
   SCALEE = 1.0000    scale energy and forces
   NPACO  =    256;   APACO  = 10.0  distance and # of slots for P.C.
   PSTRESS=    0.0 pullay stress

  Mass of Ions in am
   POMASS =  28.09
  Ionic Valenz
   ZVAL   =   4.00
  Atomic Wigner-Seitz radii
   RWIGS  =  -1.00
  virtual crystal weights 
   VCA    =   1.00
   NELECT =     256.0000    total number of electrons
   NUPDOWN=      -1.0000    fix difference up-down

 DOS related values:
   EMIN   =  10.00;   EMAX   =-10.00  energy-range for DOS
   EFERMI =   0.00;   METHOD = LEGACY      
   ISMEAR =     1;   SIGMA  =   0.20  broadening in eV -4-tet -1-fermi 0-gaus

 Electronic relaxation 2 (details)
   IALGO  =     68    algorithm
   LDIAG  =      T    sub-space diagonalisation (order eigenvalues)
   LSUBROT=      F    optimize rotation matrix (better conditioning)
   TURBO    =      0    0=normal 1=particle mesh
   IRESTART =      0    0=no restart 2=restart with 2 vectors
   NREBOOT  =      0    no. of reboots
   NMIN     =      0    reboot dimension
   EREF     =   0.00    reference energy to select bands
   IMIX   =      4    mixing-type and parameters
     AMIX     =   0.40;   BMIX     =  1.00
     AMIX_MAG =   1.60;   BMIX_MAG =  1.00
     AMIN     =   0.10
     WC   =   100.;   INIMIX=   1;  MIXPRE=   1;  MAXMIX= -45

 Intra band minimization:
   WEIMIN = 0.0010     energy-eigenvalue tresh-hold
   EBREAK =  0.15E-08  absolut break condition
   DEPER  =   0.30     relativ break condition  

   TIME   =   0.40     timestep for ELM

  volume/ion in A,a.u.               =      20.17       136.09
  Fermi-wavevector in a.u.,A,eV,Ry     =   0.954747  1.804211 12.402291  0.911543
  Thomas-Fermi vector in A             =   2.083522
 
 Write flags
   LWAVE        =      F    write WAVECAR
   LDOWNSAMPLE  =      F    k-point downsampling of WAVECAR
   LCHARG       =      F    write CHGCAR
   LVTOT        =      F    write LOCPOT, total local potential
   LVHAR        =      F    write LOCPOT, Hartree potential only
   WRT_POTENTIAL= false  ! write potential to hdf5 file
   LELF         =      F    write electronic localiz. function (ELF)
   LORBIT       =      0    0 simple, 1 ext, 2 COOP (PROOUT), +10 PAW based schemes


 Dipole corrections
   LMONO      =      F    monopole corrections only (constant potential shift)
   LDIPOL     =      F    correct potential (dipole corrections)
   IDIPOL     =      0    1-x, 2-y, 3-z, 4-all directions 
   EPSILON    =  1.0000000 bulk dielectric constant
   LVACPOTAV  =      F  vacuum potentials using an averaging scheme for the charge density
   VACPOTFLAT =  0.1000000 required flatness to determine vacuum potential
 Exchange correlation treatment:
   GGA     = PS    functional components
   XC_C    = 1    coefficients multiplying the functional components
   LIBXC   =     F    Libxc                    
   VOSKOWN =     0    Vosko Wilk Nusair interpolation
   LHFCALC =     F    Hartree Fock is set to
   LHFONE  =     F    Hartree Fock one center treatment
   AEXX    =    0.0000 exact exchange contribution

 Parameters of functionals:
   PS:
     No parameter
 
 Van der Waals corrections
   IVDW    =     0    specifies the selected vdW correction

 Linear response parameters
   LEPSILON=     F    determine dielectric tensor
   LRPA    =     F    only Hartree local field effects (RPA)
   LNABLA  =     F    use nabla operator in PAW spheres
   LVEL    =     F    velocity operator in full k-point grid
   CSHIFT  =0.1000    complex shift for real part using Kramers Kronig
   OMEGAMAX=  -1.0    maximum frequency
   DEG_THRESHOLD= 0.2000000E-02 threshold for treating states as degnerate
   RTIME   =   -0.100 relaxation time in fs
  (WPLASMAI=    0.000 imaginary part of plasma frequency in eV, 0.658/RTIME)
   DFIELD  = 0.0000000 0.0000000 0.0000000 field for delta impulse in time
 
  Optional k-point grid parameters
   LKPOINTS_OPT  =     F    use optional k-point grid
   KPOINTS_OPT_MODE=     1    mode for optional k-point grid
 
 Orbital magnetization related:
   ORBITALMAG=     F  switch on orbital magnetization
   LCHIMAG   =     F  perturbation theory with respect to B field
   DQ        =  0.001000  dq finite difference perturbation B field
   LLRAUG    =     F  two centre corrections for induced B field
   LBONE     =     F  B-component reconstruction in AE one-centre
   LVGVCALC  =     T  calculate vGv susceptibility
   LVGVAPPL  =     F  apply vGv susceptibility instead of pGv for G=0

 Random number generation:
   RANDOM_GENERATOR = DEFAULT
   PCG_SEED         = not used


--------------------------------------------------------------------------------------------------------


 conjugate gradient relaxation of ions
 charge density and potential will be updated during run
 non-spin polarized calculation
 RMM-DIIS sequential band-by-band and
  variant of blocked Davidson during initial phase
 perform sub-space diagonalisation
    before iterative eigenvector-optimisation
 modified Broyden-mixing scheme, WC =      100.0
 initial mixing is a Kerker type mixing with AMIX =  0.4000 and BMIX =      1.0000
 Hartree-type preconditioning will be used
 using additional bands           34
 real space projection scheme for non local part
 use partial core corrections
 calculate Harris-corrections to forces 
   (improved forces if not selfconsistent)
 use gradient corrections 
 use of overlap-Matrix (Vanderbilt PP)
 Methfessel and Paxton  Order N= 1 SIGMA  =   0.20


--------------------------------------------------------------------------------------------------------


  energy-cutoff  :      400.00
  volume of cell :     1290.62
      direct lattice vectors                 reciprocal lattice vectors
    10.996429624  0.081254012  0.000000000     0.090943648 -0.000682074  0.000000000
     0.081254012 10.833920600  0.000000000    -0.000682074  0.092307804  0.000000000
     0.000000000  0.000000000 10.833920600     0.000000000  0.000000000  0.092302689

  length of vectors
    10.996729818 10.834225297 10.833920600     0.090946205  0.092310324  0.092302689


 
 k-points in units of 2pi/SCALE and weight: Automatic mesh                          
   0.00000000  0.00000000  0.00000000       0.125
   0.04547183 -0.00034104  0.00000000       0.125
  -0.00034104  0.04615391  0.00000000       0.125
   0.04513079  0.04581287  0.00000000       0.125
   0.00000000  0.00000000  0.04615135       0.125
   0.04547183 -0.00034104  0.04615135       0.125
  -0.00034104  0.04615391  0.04615135       0.125
   0.04513079  0.04581287  0.04615135       0.125
 
 k-points in reciprocal lattice and weights: Automatic mesh                          
   0.00000000  0.00000000  0.00000000       0.125
   0.50000000  0.00000000  0.00000000       0.125
  -0.00000000  0.50000000  0.00000000       0.125
   0.50000000  0.50000000  0.00000000       0.125
   0.00000000  0.00000000  0.50000000       0.125
   0.50000000  0.00000000  0.50000000       0.125
  -0.00000000  0.50000000  0.50000000       0.125
   0.50000000  0.50000000  0.50000000       0.125
 
 position of ions in fractional coordinates (direct lattice) 
   0.00000000  0.00000000  0.00000000
   0.00000000  0.00000000  0.50000000
   0.00000000  0.50000000  0.00000000
   0.00000000  0.50000000  0.50000000
   0.50000000  0.00000000  0.00000000
   0.50000000  0.00000000  0.50000000
   0.50000000  0.50000000  0.00000000
   0.50000000  0.50000000  0.50000000
   0.37500000  0.37500000  0.12500000
   0.37500000  0.37500000  0.62500000
   0.37500000  0.87500000  0.12500000
   0.37500000  0.87500000  0.62500000
   0.87500000  0.37500000  0.12500000
   0.87500000  0.37500000  0.62500000
   0.87500000  0.87500000  0.12500000
   0.87500000  0.87500000  0.62500000
   0.00000000  0.25000000  0.25000000
   0.00000000  0.25000000  0.75000000
   0.00000000  0.75000000  0.25000000
   0.00000000  0.75000000  0.75000000
   0.50000000  0.25000000  0.25000000
   0.50000000  0.25000000  0.75000000
   0.50000000  0.75000000  0.25000000
   0.50000000  0.75000000  0.75000000
   0.37500000  0.12500000  0.37500000
   0.37500000  0.12500000  0.87500000
   0.37500000  0.62500000  0.37500000
   0.37500000  0.62500000  0.87500000
   0.87500000  0.12500000  0.37500000
   0.87500000  0.12500000  0.87500000
   0.87500000  0.62500000  0.37500000
   0.87500000  0.62500000  0.87500000
   0.25000000  0.00000000  0.25000000
   0.25000000  0.00000000  0.75000000
   0.25000000  0.50000000  0.25000000
   0.25000000  0.50000000  0.75000000
   0.75000000  0.00000000  0.25000000
   0.75000000  0.00000000  0.75000000
   0.75000000  0.50000000  0.25000000
   0.75000000  0.50000000  0.75000000
   0.12500000  0.37500000  0.37500000
   0.12500000  0.37500000  0.87500000
   0.12500000  0.87500000  0.37500000
   0.12500000  0.87500000  0.87500000
   0.62500000  0.37500000  0.37500000
   0.62500000  0.37500000  0.87500000
   0.62500000  0.87500000  0.37500000
   0.62500000  0.87500000  0.87500000
   0.25000000  0.25000000  0.00000000
   0.25000000  0.25000000  0.50000000
   0.25000000  0.75000000  0.00000000
   0.25000000  0.75000000  0.50000000
   0.75000000  0.25000000  0.00000000
   0.75000000  0.25000000  0.50000000
   0.75000000  0.75000000  0.00000000
   0.75000000  0.75000000  0.50000000
   0.12500000  0.12500000  0.12500000
   0.12500000  0.12500000  0.62500000
   0.12500000  0.62500000  0.12500000
   0.12500000  0.62500000  0.62500000
   0.62500000  0.12500000  0.12500000
   0.62500000  0.12500000  0.62500000
   0.62500000  0.62500000  0.12500000
   0.62500000  0.62500000  0.62500000
 
 position of ions in cartesian coordinates  (Angst):
   0.00000000  0.00000000  0.00000000
   0.00000000  0.00000000  5.41696030
   0.04062701  5.41696030  0.00000000
   0.04062701  5.41696030  5.41696030
   5.49821481  0.04062701  0.00000000
   5.49821481  0.04062701  5.41696030
   5.53884182  5.45758731  0.00000000
   5.53884182  5.45758731  5.41696030
   4.15413136  4.09319048  1.35424007
   4.15413136  4.09319048  6.77120037
   4.19475837  9.51015078  1.35424007
   4.19475837  9.51015078  6.77120037
   9.65234618  4.13381749  1.35424007
   9.65234618  4.13381749  6.77120037
   9.69297318  9.55077779  1.35424007
   9.69297318  9.55077779  6.77120037
   0.02031350  2.70848015  2.70848015
   0.02031350  2.70848015  8.12544045
   0.06094051  8.12544045  2.70848015
   0.06094051  8.12544045  8.12544045
   5.51852831  2.74910716  2.70848015
   5.51852831  2.74910716  8.12544045
   5.55915532  8.16606746  2.70848015
   5.55915532  8.16606746  8.12544045
   4.13381786  1.38471033  4.06272022
   4.13381786  1.38471033  9.47968052
   4.17444487  6.80167063  4.06272022
   4.17444487  6.80167063  9.47968052
   9.63203267  1.42533734  4.06272022
   9.63203267  1.42533734  9.47968052
   9.67265968  6.84229764  4.06272022
   9.67265968  6.84229764  9.47968052
   2.74910741  0.02031350  2.70848015
   2.74910741  0.02031350  8.12544045
   2.78973441  5.43727380  2.70848015
   2.78973441  5.43727380  8.12544045
   8.24732222  0.06094051  2.70848015
   8.24732222  0.06094051  8.12544045
   8.28794922  5.47790081  2.70848015
   8.28794922  5.47790081  8.12544045
   1.40502396  4.07287698  4.06272022
   1.40502396  4.07287698  9.47968052
   1.44565096  9.48983728  4.06272022
   1.44565096  9.48983728  9.47968052
   6.90323877  4.11350398  4.06272022
   6.90323877  4.11350398  9.47968052
   6.94386578  9.53046428  4.06272022
   6.94386578  9.53046428  9.47968052
   2.76942091  2.72879365  0.00000000
   2.76942091  2.72879365  5.41696030
   2.81004791  8.14575395  0.00000000
   2.81004791  8.14575395  5.41696030
   8.26763572  2.76942066  0.00000000
   8.26763572  2.76942066  5.41696030
   8.30826273  8.18638096  0.00000000
   8.30826273  8.18638096  5.41696030
   1.38471045  1.36439683  1.35424007
   1.38471045  1.36439683  6.77120037
   1.42533746  6.78135713  1.35424007
   1.42533746  6.78135713  6.77120037
   6.88292527  1.40502383  1.35424007
   6.88292527  1.40502383  6.77120037
   6.92355227  6.82198413  1.35424007
   6.92355227  6.82198413  6.77120037
 


--------------------------------------------------------------------------------------------------------


 k-point     1 :   0.0000 0.0000 0.0000  plane waves:   23411
 k-point     2 :   0.5000 0.0000 0.0000  plane waves:   23454
 k-point     3 :  -0.0000 0.5000 0.0000  plane waves:   23436
 k-point     4 :   0.5000 0.5000 0.0000  plane waves:   23462
 k-point     5 :   0.0000 0.0000 0.5000  plane waves:   23452
 k-point     6 :   0.5000 0.0000 0.5000  plane waves:   23480
 k-point     7 :  -0.0000 0.5000 0.5000  plane waves:   23396
 k-point     8 :   0.5000 0.5000 0.5000  plane waves:   23404

 maximum and minimum number of plane-waves per node :      1981     1918

 maximum number of plane-waves:     23480
 maximum index in each direction: 
   IXMAX=   17   IYMAX=   17   IZMAX=   17
   IXMIN=  -18   IYMIN=  -18   IZMIN=  -18


 real space projection operators:
  total allocation   :      12268.00 KBytes
  max/ min on nodes  :       1033.00       1001.00


 parallel 3D FFT for wavefunctions:
    minimum data exchange during FFTs selected (reduces bandwidth)
 parallel 3D FFT for charge:
    minimum data exchange during FFTs selected (reduces bandwidth)


 total amount of memory used by VASP MPI-rank0    82198. kBytes
=======================================================================

   base      :      30000. kBytes
   nonlr-proj:       4683. kBytes
   fftplans  :      19172. kBytes
   grid      :       7278. kBytes
   one-center:         18. kBytes
   wavefun   :      21047. kBytes
 
     INWAV:  cpu time      0.0000: real time      0.0000
 Broyden mixing: mesh for mixing (old mesh)
   NGX = 35   NGY = 35   NGZ = 35
  (NGX  =144   NGY  =144   NGZ  =144)
  gives a total of  42875 points

 initial charge density was supplied:
 charge density of overlapping atoms calculated
 number of electron     256.0000000 magnetization 
 keeping initial charge density in first step


--------------------------------------------------------------------------------------------------------


 Maximum index for non-local projection operator          282
 Maximum index for augmentation-charges         3418 (set IRDMAX)


--------------------------------------------------------------------------------------------------------


 First call to EWALD:  gamma=   0.163
 Maximum number of real-space cells 3x 3x 3
 Maximum number of reciprocal cells 3x 3x 3

    FEWALD:  cpu time      0.0031: real time      0.0031


--------------------------------------- Ionic step        1  -------------------------------------------




--------------------------------------- Iteration      1(   1)  ---------------------------------------


    POTLOK:  cpu time      0.0964: real time      0.1062
    SETDIJ:  cpu time      0.0867: real time      0.0912
     EDDAV:  cpu time      1.3068: real time      1.3751
       DOS:  cpu time      0.0104: real time      0.0128
    --------------------------------------------
      LOOP:  cpu time      1.5003: real time      1.5853

 eigenvalue-minimisations  :  2592
 total energy-change (2. order) : 0.5592686E+03  (-0.8367763E+04)
 number of electron     256.0000000 magnetization 
 augmentation part      256.0000000 magnetization 

 Free energy of the ion-electron system (eV)
  ---------------------------------------------------
  alpha Z        PSCENC =       106.83548480
  Ewald energy   TEWEN  =     -7295.42300368
  -Hartree energ DENC   =      -355.73418938
  -exchange      EXHF   =         0.00000000
  -V(xc)+E(xc)   XCENC  =      -559.45069543
  PAW double counting   =      5598.62625415    -4492.17844134
  entropy T*S    EENTRO =        -0.01353094
  eigenvalues    EBANDS =       991.81083681
  atomic energy  EATOM  =      6564.79586099
  Solvation  Ediel_sol  =         0.00000000
  ---------------------------------------------------
  free energy    TOTEN  =       559.26857598 eV

  energy without entropy =      559.28210692  energy(sigma->0) =      559.27308630


--------------------------------------------------------------------------------------------------------




--------------------------------------- Iteration      1(   2)  ---------------------------------------


     EDDAV:  cpu time      1.3750: real time      1.3838
       DOS:  cpu time      0.0015: real time      0.0015
    --------------------------------------------
      LOOP:  cpu time      1.3765: real time      1.3853

 eigenvalue-minimisations  :  3080
 total energy-change (2. order) :-0.8689858E+03  (-0.8256967E+03)
 number of electron     256.0000000 magnetization 
 augmentation part      256.0000000 magnetization 

 Free energy of the ion-electron system (eV)
  ---------------------------------------------------
  alpha Z        PSCENC =       106.83548480
  Ewald energy   TEWEN  =     -7295.42300368
  -Hartree energ DENC   =      -355.73418938
  -exchange      EXHF   =         0.00000000
  -V(xc)+E(xc)   XCENC  =      -559.45069543
  PAW double counting   =      5598.62625415    -4492.17844134
  entropy T*S    EENTRO =         0.01898153
  eigenvalues    EBANDS =       122.79253422
  atomic energy  EATOM  =      6564.79586099
  Solvation  Ediel_sol  =         0.00000000
  ---------------------------------------------------
  free energy    TOTEN  =      -309.71721414 eV

  energy without entropy =     -309.73619567  energy(sigma->0) =     -309.72354132


--------------------------------------------------------------------------------------------------------




--------------------------------------- Iteration      1(   3)  ---------------------------------------


     EDDAV:  cpu time      1.3896: real time      1.4035
       DOS:  cpu time      0.0016: real time      0.0016
    --------------------------------------------
      LOOP:  cpu time      1.3912: real time      1.4052

 eigenvalue-minimisations  :  3136
 total energy-change (2. order) :-0.6312070E+02  (-0.6198530E+02)
 number of electron     256.0000000 magnetization 
 augmentation part      256.0000000 magnetization 

 Free energy of the ion-electron system (eV)
  ---------------------------------------------------
  alpha Z        PSCENC =       106.83548480
  Ewald energy   TEWEN  =     -7295.42300368
  -Hartree energ DENC   =      -355.73418938
  -exchange      EXHF   =         0.00000000
  -V(xc)+E(xc)   XCENC  =      -559.45069543
  PAW double counting   =      5598.62625415    -4492.17844134
  entropy T*S    EENTRO =         0.00733405
  eigenvalues    EBANDS =        59.68348524
  atomic energy  EATOM  =      6564.79586099
  Solvation  Ediel_sol  =         0.00000000
  ---------------------------------------------------
  free energy    TOTEN  =      -372.83791060 eV

  energy without entropy =     -372.84524465  energy(sigma->0) =     -372.84035528


--------------------------------------------------------------------------------------------------------




--------------------------------------- Iteration      1(   4)  ---------------------------------------


     EDDAV:  cpu time      1.3986: real time      1.4133
       DOS:  cpu time      0.0012: real time      0.0012
    --------------------------------------------
      LOOP:  cpu time      1.3998: real time      1.4145

 eigenvalue-minimisations  :  3144
 total energy-change (2. order) :-0.1658967E+01  (-0.1646230E+01)
 number of electron     256.0000000 magnetization 
 augmentation part      256.0000000 magnetization 

 Free energy of the ion-electron system (eV)
  ---------------------------------------------------
  alpha Z        PSCENC =       106.83548480
  Ewald energy   TEWEN  =     -7295.42300368
  -Hartree energ DENC   =      -355.73418938
  -exchange      EXHF   =         0.00000000
  -V(xc)+E(xc)   XCENC  =      -559.45069543
  PAW double counting   =      5598.62625415    -4492.17844134
  entropy T*S    EENTRO =         0.00802073
  eigenvalues    EBANDS =        58.02383140
  atomic energy  EATOM  =      6564.79586099
  Solvation  Ediel_sol  =         0.00000000
  ---------------------------------------------------
  free energy    TOTEN  =      -374.49687776 eV

  energy without entropy =     -374.50489849  energy(sigma->0) =     -374.49955134


--------------------------------------------------------------------------------------------------------




--------------------------------------- Iteration      1(   5)  ---------------------------------------


     EDDAV:  cpu time      1.3945: real time      1.4260
       DOS:  cpu time      0.0014: real time      0.0014
    CHARGE:  cpu time      0.2580: real time      0.2624
    MIXING:  cpu time      0.0132: real time      0.0172
    --------------------------------------------
      LOOP:  cpu time      1.6671: real time      1.7071

 eigenvalue-minimisations  :  3094
 total energy-change (2. order) :-0.5458312E-01  (-0.5445020E-01)
 number of electron     255.9999998 magnetization 
 augmentation part      -14.9565678 magnetization 

 Broyden mixing:
  rms(total) = 0.27865E+01    rms(broyden)= 0.27865E+01
  rms(prec ) = 0.30697E+01
  weight for this iteration     100.00

 Free energy of the ion-electron system (eV)
  ---------------------------------------------------
  alpha Z        PSCENC =       106.83548480
  Ewald energy   TEWEN  =     -7295.42300368
  -Hartree energ DENC   =      -355.73418938
  -exchange      EXHF   =         0.00000000
  -V(xc)+E(xc)   XCENC  =      -559.45069543
  PAW double counting   =      5598.62625415    -4492.17844134
  entropy T*S    EENTRO =         0.00815341
  eigenvalues    EBANDS =        57.96911561
  atomic energy  EATOM  =      6564.79586099
  Solvation  Ediel_sol  =         0.00000000
  ---------------------------------------------------
  free energy    TOTEN  =      -374.55146088 eV

  energy without entropy =     -374.55961429  energy(sigma->0) =     -374.55417868


--------------------------------------------------------------------------------------------------------




--------------------------------------- Iteration      1(   6)  ---------------------------------------


    POTLOK:  cpu time      0.0855: real time      0.0989
    SETDIJ:  cpu time      0.0682: real time      0.0684
    EDDIAG:  cpu time      0.1373: real time      0.1404
  RMM-DIIS:  cpu time      0.7317: real time      0.7364
    ORTHCH:  cpu time      0.0206: real time      0.0207
       DOS:  cpu time      0.0020: real time      0.0020
    CHARGE:  cpu time      0.2456: real time      0.2462
    MIXING:  cpu time      0.0068: real time      0.0106
    --------------------------------------------
      LOOP:  cpu time      1.2977: real time      1.3234

 eigenvalue-minimisations  :  2592
 total energy-change (2. order) : 0.4885720E+01  (-0.2413781E+00)
 number of electron     255.9999998 magnetization 
 augmentation part      -14.8012215 magnetization 

 Broyden mixing:
  rms(total) = 0.16749E+01    rms(broyden)= 0.16749E+01
  rms(prec ) = 0.18380E+01
  weight for this iteration     100.00

 eigenvalues of (default mixing * dielectric matrix)
  average eigenvalue GAMMA=   2.5018
  2.5018

 Free energy of the ion-electron system (eV)
  ---------------------------------------------------
  alpha Z        PSCENC =       106.83548480
  Ewald energy   TEWEN  =     -7295.42300368
  -Hartree energ DENC   =      -401.48099509
  -exchange      EXHF   =         0.00000000
  -V(xc)+E(xc)   XCENC  =      -552.22928964
  PAW double counting   =     12222.36619506   -11119.09354611
  entropy T*S    EENTRO =         0.00923351
  eigenvalues    EBANDS =       104.55431893
  atomic energy  EATOM  =      6564.79586099
  Solvation  Ediel_sol  =         0.00000000
  ---------------------------------------------------
  free energy    TOTEN  =      -369.66574123 eV

  energy without entropy =     -369.67497474  energy(sigma->0) =     -369.66881906


--------------------------------------------------------------------------------------------------------




--------------------------------------- Iteration      1(   7)  ---------------------------------------


    POTLOK:  cpu time      0.0811: real time      0.0983
    SETDIJ:  cpu time      0.0696: real time      0.0698
    EDDIAG:  cpu time      0.1315: real time      0.1318
  RMM-DIIS:  cpu time      0.7362: real time      0.7382
    ORTHCH:  cpu time      0.0230: real time      0.0230
       DOS:  cpu time      0.0014: real time      0.0014
    CHARGE:  cpu time      0.2492: real time      0.2497
    MIXING:  cpu time      0.0050: real time      0.0065
    --------------------------------------------
      LOOP:  cpu time      1.2969: real time      1.3188

 eigenvalue-minimisations  :  2626
 total energy-change (2. order) : 0.2254196E+01  (-0.6202485E+00)
 number of electron     255.9999998 magnetization 
 augmentation part      -14.5840676 magnetization 

 Broyden mixing:
  rms(total) = 0.91057E-01    rms(broyden)= 0.91057E-01
  rms(prec ) = 0.11447E+00
  weight for this iteration     100.00

 eigenvalues of (default mixing * dielectric matrix)
  average eigenvalue GAMMA=   2.2729
  2.2729  2.2729

 Free energy of the ion-electron system (eV)
  ---------------------------------------------------
  alpha Z        PSCENC =       106.83548480
  Ewald energy   TEWEN  =     -7295.42300368
  -Hartree energ DENC   =      -477.23284531
  -exchange      EXHF   =         0.00000000
  -V(xc)+E(xc)   XCENC  =      -539.71003403
  PAW double counting   =     27930.18745351   -26831.28271950
  entropy T*S    EENTRO =         0.02898052
  eigenvalues    EBANDS =       174.38927707
  atomic energy  EATOM  =      6564.79586099
  Solvation  Ediel_sol  =         0.00000000
  ---------------------------------------------------
  free energy    TOTEN  =      -367.41154564 eV

  energy without entropy =     -367.44052616  energy(sigma->0) =     -367.42120581


--------------------------------------------------------------------------------------------------------




--------------------------------------- Iteration      1(   8)  ---------------------------------------


    POTLOK:  cpu time      0.0856: real time      0.0969
    SETDIJ:  cpu time      0.0689: real time      0.0691
    EDDIAG:  cpu time      0.1323: real time      0.1326
  RMM-DIIS:  cpu time      0.7388: real time      0.7409
    ORTHCH:  cpu time      0.0209: real time      0.0210
       DOS:  cpu time      0.0015: real time      0.0015
    CHARGE:  cpu time      0.2457: real time      0.2462
    MIXING:  cpu time      0.0074: real time      0.0078
    --------------------------------------------
      LOOP:  cpu time      1.3011: real time      1.3159

 eigenvalue-minimisations  :  2635
 total energy-change (2. order) :-0.4725003E-01  (-0.6295809E-01)
 number of electron     255.9999998 magnetization 
 augmentation part      -14.6335733 magnetization 

 Broyden mixing:
  rms(total) = 0.48871E-01    rms(broyden)= 0.48871E-01
  rms(prec ) = 0.52164E-01
  weight for this iteration     100.00

 eigenvalues of (default mixing * dielectric matrix)
  average eigenvalue GAMMA=   2.1766
  2.5561  1.9869  1.9869

 Free energy of the ion-electron system (eV)
  ---------------------------------------------------
  alpha Z        PSCENC =       106.83548480
  Ewald energy   TEWEN  =     -7295.42300368
  -Hartree energ DENC   =      -470.50070184
  -exchange      EXHF   =         0.00000000
  -V(xc)+E(xc)   XCENC  =      -540.25016285
  PAW double counting   =     27515.15393029   -26415.40646017
  entropy T*S    EENTRO =         0.02730242
  eigenvalues    EBANDS =       167.30895436
  atomic energy  EATOM  =      6564.79586099
  Solvation  Ediel_sol  =         0.00000000
  ---------------------------------------------------
  free energy    TOTEN  =      -367.45879567 eV

  energy without entropy =     -367.48609809  energy(sigma->0) =     -367.46789648


--------------------------------------------------------------------------------------------------------




--------------------------------------- Iteration      1(   9)  ---------------------------------------


    POTLOK:  cpu time      0.0819: real time      0.0943
    SETDIJ:  cpu time      0.0707: real time      0.0708
    EDDIAG:  cpu time      0.1325: real time      0.1328
  RMM-DIIS:  cpu time      0.7482: real time      0.7501
    ORTHCH:  cpu time      0.0213: real time      0.0213
       DOS:  cpu time      0.0014: real time      0.0014
    CHARGE:  cpu time      0.2460: real time      0.2466
    MIXING:  cpu time      0.0080: real time      0.0080
    --------------------------------------------
      LOOP:  cpu time      1.3099: real time      1.3254

 eigenvalue-minimisations  :  2671
 total energy-change (2. order) :-0.1882347E-01  (-0.1738543E-01)
 number of electron     255.9999998 magnetization 
 augmentation part      -14.6244715 magnetization 

 Broyden mixing:
  rms(total) = 0.56668E-01    rms(broyden)= 0.56667E-01
  rms(prec ) = 0.62781E-01
  weight for this iteration     100.00

 eigenvalues of (default mixing * dielectric matrix)
  average eigenvalue GAMMA=   1.7809
  2.5525  2.1854  2.1854  0.2002

 Free energy of the ion-electron system (eV)
  ---------------------------------------------------
  alpha Z        PSCENC =       106.83548480
  Ewald energy   TEWEN  =     -7295.42300368
  -Hartree energ DENC   =      -472.94655592
  -exchange      EXHF   =         0.00000000
  -V(xc)+E(xc)   XCENC  =      -539.90880535
  PAW double counting   =     27827.42125076   -26727.86426964
  entropy T*S    EENTRO =         0.02773840
  eigenvalues    EBANDS =       169.58468050
  atomic energy  EATOM  =      6564.79586099
  Solvation  Ediel_sol  =         0.00000000
  ---------------------------------------------------
  free energy    TOTEN  =      -367.47761914 eV

  energy without entropy =     -367.50535754  energy(sigma->0) =     -367.48686527


--------------------------------------------------------------------------------------------------------




--------------------------------------- Iteration      1(  10)  ---------------------------------------


    POTLOK:  cpu time      0.0856: real time      0.0999
    SETDIJ:  cpu time      0.0686: real time      0.0687
    EDDIAG:  cpu time      0.1312: real time      0.1315
  RMM-DIIS:  cpu time      0.7553: real time      0.7574
    ORTHCH:  cpu time      0.0206: real time      0.0207
       DOS:  cpu time      0.0019: real time      0.0019
    CHARGE:  cpu time      0.2463: real time      0.2469
    MIXING:  cpu time      0.0069: real time      0.0069
    --------------------------------------------
      LOOP:  cpu time      1.3163: real time      1.3338

 eigenvalue-minimisations  :  2743
 total energy-change (2. order) :-0.3346483E-02  (-0.3030176E-02)
 number of electron     255.9999998 magnetization 
 augmentation part      -14.6305533 magnetization 

 Broyden mixing:
  rms(total) = 0.77234E-01    rms(broyden)= 0.77234E-01
  rms(prec ) = 0.82788E-01
  weight for this iteration     100.00

 eigenvalues of (default mixing * dielectric matrix)
  average eigenvalue GAMMA=   1.6069
  2.6720  2.0960  2.0960  0.5852  0.5852

 Free energy of the ion-electron system (eV)
  ---------------------------------------------------
  alpha Z        PSCENC =       106.83548480
  Ewald energy   TEWEN  =     -7295.42300368
  -Hartree energ DENC   =      -473.10796231
  -exchange      EXHF   =         0.00000000
  -V(xc)+E(xc)   XCENC  =      -539.88976828
  PAW double counting   =     27865.57261814   -26766.02183012
  entropy T*S    EENTRO =         0.02778655
  eigenvalues    EBANDS =       169.72984829
  atomic energy  EATOM  =      6564.79586099
  Solvation  Ediel_sol  =         0.00000000
  ---------------------------------------------------
  free energy    TOTEN  =      -367.48096562 eV

  energy without entropy =     -367.50875217  energy(sigma->0) =     -367.49022781


--------------------------------------------------------------------------------------------------------




--------------------------------------- Iteration      1(  11)  ---------------------------------------


    POTLOK:  cpu time      0.0806: real time      0.0950
    SETDIJ:  cpu time      0.0698: real time      0.0699
    EDDIAG:  cpu time      0.1306: real time      0.1311
  RMM-DIIS:  cpu time      0.7216: real time      0.7233
    ORTHCH:  cpu time      0.0206: real time      0.0207
       DOS:  cpu time      0.0021: real time      0.0021
    CHARGE:  cpu time      0.2457: real time      0.2463
    MIXING:  cpu time      0.0071: real time      0.0071
    --------------------------------------------
      LOOP:  cpu time      1.2781: real time      1.2954

 eigenvalue-minimisations  :  2592
 total energy-change (2. order) : 0.1953231E-02  (-0.1061723E-02)
 number of electron     255.9999998 magnetization 
 augmentation part      -14.6432138 magnetization 

 Broyden mixing:
  rms(total) = 0.60905E-01    rms(broyden)= 0.60904E-01
  rms(prec ) = 0.61434E-01
  weight for this iteration     100.00

 eigenvalues of (default mixing * dielectric matrix)
  average eigenvalue GAMMA=   1.4594
  2.5816  2.5816  1.1792  1.1792  0.8986  0.3361

 Free energy of the ion-electron system (eV)
  ---------------------------------------------------
  alpha Z        PSCENC =       106.83548480
  Ewald energy   TEWEN  =     -7295.42300368
  -Hartree energ DENC   =      -470.99798112
  -exchange      EXHF   =         0.00000000
  -V(xc)+E(xc)   XCENC  =      -540.02788226
  PAW double counting   =     27768.36091167   -26668.58863631
  entropy T*S    EENTRO =         0.02704885
  eigenvalues    EBANDS =       167.53918466
  atomic energy  EATOM  =      6564.79586099
  Solvation  Ediel_sol  =         0.00000000
  ---------------------------------------------------
  free energy    TOTEN  =      -367.47901239 eV

  energy without entropy =     -367.50606125  energy(sigma->0) =     -367.48802868


--------------------------------------------------------------------------------------------------------




--------------------------------------- Iteration      1(  12)  ---------------------------------------


    POTLOK:  cpu time      0.0778: real time      0.0943
    SETDIJ:  cpu time      0.0730: real time      0.0732
    EDDIAG:  cpu time      0.1320: real time      0.1326
  RMM-DIIS:  cpu time      0.7186: real time      0.7203
    ORTHCH:  cpu time      0.0205: real time      0.0205
       DOS:  cpu time      0.0025: real time      0.0025
    CHARGE:  cpu time      0.2464: real time      0.2470
    MIXING:  cpu time      0.0077: real time      0.0077
    --------------------------------------------
      LOOP:  cpu time      1.2785: real time      1.2980

 eigenvalue-minimisations  :  2600
 total energy-change (2. order) :-0.1367810E-03  (-0.1691126E-03)
 number of electron     255.9999998 magnetization 
 augmentation part      -14.6468460 magnetization 

 Broyden mixing:
  rms(total) = 0.58605E-01    rms(broyden)= 0.58605E-01
  rms(prec ) = 0.58905E-01
  weight for this iteration     100.00

 eigenvalues of (default mixing * dielectric matrix)
  average eigenvalue GAMMA=   1.3567
  2.5810  2.5810  1.4406  1.0396  0.8748  0.4267  0.5535

 Free energy of the ion-electron system (eV)
  ---------------------------------------------------
  alpha Z        PSCENC =       106.83548480
  Ewald energy   TEWEN  =     -7295.42300368
  -Hartree energ DENC   =      -470.77530167
  -exchange      EXHF   =         0.00000000
  -V(xc)+E(xc)   XCENC  =      -540.06325752
  PAW double counting   =     27686.26521944   -26586.50100707
  entropy T*S    EENTRO =         0.02700360
  eigenvalues    EBANDS =       167.35985194
  atomic energy  EATOM  =      6564.79586099
  Solvation  Ediel_sol  =         0.00000000
  ---------------------------------------------------
  free energy    TOTEN  =      -367.47914917 eV

  energy without entropy =     -367.50615277  energy(sigma->0) =     -367.48815037


--------------------------------------------------------------------------------------------------------




--------------------------------------- Iteration      1(  13)  ---------------------------------------


    POTLOK:  cpu time      0.0833: real time      0.0940
    SETDIJ:  cpu time      0.0756: real time      0.0758
    EDDIAG:  cpu time      0.1313: real time      0.1318
  RMM-DIIS:  cpu time      0.7749: real time      0.7767
    ORTHCH:  cpu time      0.0211: real time      0.0211
       DOS:  cpu time      0.0020: real time      0.0020
    CHARGE:  cpu time      0.2448: real time      0.2453
    MIXING:  cpu time      0.0107: real time      0.0107
    --------------------------------------------
      LOOP:  cpu time      1.3437: real time      1.3575

 eigenvalue-minimisations  :  2782
 total energy-change (2. order) :-0.4365844E-04  (-0.3079126E-04)
 number of electron     255.9999998 magnetization 
 augmentation part      -14.6472239 magnetization 

 Broyden mixing:
  rms(total) = 0.67737E-01    rms(broyden)= 0.67737E-01
  rms(prec ) = 0.68043E-01
  weight for this iteration     100.00

 eigenvalues of (default mixing * dielectric matrix)
  average eigenvalue GAMMA=   1.5824
  2.6949  2.6949  2.3716  1.8537  0.9098  0.8211  0.8211  0.4923

 Free energy of the ion-electron system (eV)
  ---------------------------------------------------
  alpha Z        PSCENC =       106.83548480
  Ewald energy   TEWEN  =     -7295.42300368
  -Hartree energ DENC   =      -470.82889508
  -exchange      EXHF   =         0.00000000
  -V(xc)+E(xc)   XCENC  =      -540.05179513
  PAW double counting   =     27741.64025728   -26641.87475386
  entropy T*S    EENTRO =         0.02701202
  eigenvalues    EBANDS =       167.40063983
  atomic energy  EATOM  =      6564.79586099
  Solvation  Ediel_sol  =         0.00000000
  ---------------------------------------------------
  free energy    TOTEN  =      -367.47919283 eV

  energy without entropy =     -367.50620485  energy(sigma->0) =     -367.48819684


--------------------------------------------------------------------------------------------------------




--------------------------------------- Iteration      1(  14)  ---------------------------------------


    POTLOK:  cpu time      0.0785: real time      0.0933
    SETDIJ:  cpu time      0.0732: real time      0.0733
    EDDIAG:  cpu time      0.1316: real time      0.1319
  RMM-DIIS:  cpu time      0.7239: real time      0.7256
    ORTHCH:  cpu time      0.0213: real time      0.0214
       DOS:  cpu time      0.0013: real time      0.0013
    CHARGE:  cpu time      0.2471: real time      0.2477
    MIXING:  cpu time      0.0077: real time      0.0078
    --------------------------------------------
      LOOP:  cpu time      1.2847: real time      1.3022

 eigenvalue-minimisations  :  2599
 total energy-change (2. order) :-0.4870766E-04  (-0.8575813E-05)
 number of electron     255.9999998 magnetization 
 augmentation part      -14.6475058 magnetization 

 Broyden mixing:
  rms(total) = 0.31055E-01    rms(broyden)= 0.31055E-01
  rms(prec ) = 0.31274E-01
  weight for this iteration     100.00

 eigenvalues of (default mixing * dielectric matrix)
  average eigenvalue GAMMA=   1.4520
  2.6518  2.6518  2.3282  1.7119  0.9861  0.9861  0.7823  0.4850  0.4850

 Free energy of the ion-electron system (eV)
  ---------------------------------------------------
  alpha Z        PSCENC =       106.83548480
  Ewald energy   TEWEN  =     -7295.42300368
  -Hartree energ DENC   =      -470.65663350
  -exchange      EXHF   =         0.00000000
  -V(xc)+E(xc)   XCENC  =      -540.08935400
  PAW double counting   =     27490.88673401   -26391.14606151
  entropy T*S    EENTRO =         0.02697152
  eigenvalues    EBANDS =       167.29075982
  atomic energy  EATOM  =      6564.79586099
  Solvation  Ediel_sol  =         0.00000000
  ---------------------------------------------------
  free energy    TOTEN  =      -367.47924154 eV

  energy without entropy =     -367.50621306  energy(sigma->0) =     -367.48823205


--------------------------------------------------------------------------------------------------------




--------------------------------------- Iteration      1(  15)  ---------------------------------------


    POTLOK:  cpu time      0.0811: real time      0.0987
    SETDIJ:  cpu time      0.0713: real time      0.0715
    EDDIAG:  cpu time      0.1311: real time      0.1314
  RMM-DIIS:  cpu time      0.7439: real time      0.7459
    ORTHCH:  cpu time      0.0206: real time      0.0207
       DOS:  cpu time      0.0041: real time      0.0041
    CHARGE:  cpu time      0.2535: real time      0.2544
    MIXING:  cpu time      0.0085: real time      0.0086
    --------------------------------------------
      LOOP:  cpu time      1.3142: real time      1.3352

 eigenvalue-minimisations  :  2646
 total energy-change (2. order) :-0.5294488E-04  (-0.2872941E-05)
 number of electron     255.9999998 magnetization 
 augmentation part      -14.6477036 magnetization 

 Broyden mixing:
  rms(total) = 0.23595E-01    rms(broyden)= 0.23595E-01
  rms(prec ) = 0.23761E-01
  weight for this iteration     100.00

 eigenvalues of (default mixing * dielectric matrix)
  average eigenvalue GAMMA=   1.4073
  2.7038  2.7038  2.3013  1.6513  0.9681  0.9681  0.7435  0.7435  0.7897  0.5000

 Free energy of the ion-electron system (eV)
  ---------------------------------------------------
  alpha Z        PSCENC =       106.83548480
  Ewald energy   TEWEN  =     -7295.42300368
  -Hartree energ DENC   =      -470.63583413
  -exchange      EXHF   =         0.00000000
  -V(xc)+E(xc)   XCENC  =      -540.08994707
  PAW double counting   =     27456.17933761   -26356.43562676
  entropy T*S    EENTRO =         0.02694411
  eigenvalues    EBANDS =       167.26748964
  atomic energy  EATOM  =      6564.79586099
  Solvation  Ediel_sol  =         0.00000000
  ---------------------------------------------------
  free energy    TOTEN  =      -367.47929448 eV

  energy without entropy =     -367.50623860  energy(sigma->0) =     -367.48827585


--------------------------------------------------------------------------------------------------------




--------------------------------------- Iteration      1(  16)  ---------------------------------------


    POTLOK:  cpu time      0.0830: real time      0.0969
    SETDIJ:  cpu time      0.0748: real time      0.0750
    EDDIAG:  cpu time      0.1323: real time      0.1326
  RMM-DIIS:  cpu time      0.7061: real time      0.7485
    ORTHCH:  cpu time      0.0206: real time      0.0210
       DOS:  cpu time      0.0025: real time      0.0025
    CHARGE:  cpu time      0.2474: real time      0.2482
    MIXING:  cpu time      0.0091: real time      0.0096
    --------------------------------------------
      LOOP:  cpu time      1.2758: real time      1.3342

 eigenvalue-minimisations  :  2592
 total energy-change (2. order) :-0.2903898E-04  (-0.1822401E-05)
 number of electron     255.9999998 magnetization 
 augmentation part      -14.6473192 magnetization 

 Broyden mixing:
  rms(total) = 0.12755E-01    rms(broyden)= 0.12755E-01
  rms(prec ) = 0.12843E-01
  weight for this iteration     100.00

 eigenvalues of (default mixing * dielectric matrix)
  average eigenvalue GAMMA=   1.3346
  2.7131  2.7131  2.2734  1.6970  0.8249  0.8249  0.9563  0.9563  0.7761  0.4725
  0.4725

 Free energy of the ion-electron system (eV)
  ---------------------------------------------------
  alpha Z        PSCENC =       106.83548480
  Ewald energy   TEWEN  =     -7295.42300368
  -Hartree energ DENC   =      -470.72742614
  -exchange      EXHF   =         0.00000000
  -V(xc)+E(xc)   XCENC  =      -540.08470967
  PAW double counting   =     27405.73721374   -26305.99605693
  entropy T*S    EENTRO =         0.02694358
  eigenvalues    EBANDS =       167.35636977
  atomic energy  EATOM  =      6564.79586099
  Solvation  Ediel_sol  =         0.00000000
  ---------------------------------------------------
  free energy    TOTEN  =      -367.47932352 eV

  energy without entropy =     -367.50626711  energy(sigma->0) =     -367.48830472


--------------------------------------------------------------------------------------------------------




--------------------------------------- Iteration      1(  17)  ---------------------------------------


    POTLOK:  cpu time      0.0847: real time      0.1001
    SETDIJ:  cpu time      0.0678: real time      0.0696
    EDDIAG:  cpu time      0.1336: real time      0.1349
  RMM-DIIS:  cpu time      0.7175: real time      0.7193
    ORTHCH:  cpu time      0.0206: real time      0.0207
       DOS:  cpu time      0.0019: real time      0.0019
    CHARGE:  cpu time      0.2421: real time      0.2428
    MIXING:  cpu time      0.0121: real time      0.0121
    --------------------------------------------
      LOOP:  cpu time      1.2804: real time      1.3014

 eigenvalue-minimisations  :  2593
 total energy-change (2. order) :-0.1011237E-04  (-0.1065094E-05)
 number of electron     255.9999998 magnetization 
 augmentation part      -14.6469719 magnetization 

 Broyden mixing:
  rms(total) = 0.30374E-02    rms(broyden)= 0.30374E-02
  rms(prec ) = 0.30783E-02
  weight for this iteration     100.00

 eigenvalues of (default mixing * dielectric matrix)
  average eigenvalue GAMMA=   1.7043
  2.7995  2.7995  2.7509  2.7509  2.4091  2.0250  0.9978  0.9978  0.8639  0.7689
  0.7689  0.5189

 Free energy of the ion-electron system (eV)
  ---------------------------------------------------
  alpha Z        PSCENC =       106.83548480
  Ewald energy   TEWEN  =     -7295.42300368
  -Hartree energ DENC   =      -470.79061090
  -exchange      EXHF   =         0.00000000
  -V(xc)+E(xc)   XCENC  =      -540.08325883
  PAW double counting   =     27354.52810229   -26254.78815624
  entropy T*S    EENTRO =         0.02694184
  eigenvalues    EBANDS =       167.41930610
  atomic energy  EATOM  =      6564.79586099
  Solvation  Ediel_sol  =         0.00000000
  ---------------------------------------------------
  free energy    TOTEN  =      -367.47933364 eV

  energy without entropy =     -367.50627547  energy(sigma->0) =     -367.48831425


--------------------------------------------------------------------------------------------------------




--------------------------------------- Iteration      1(  18)  ---------------------------------------


    POTLOK:  cpu time      0.0749: real time      0.1046
    SETDIJ:  cpu time      0.0721: real time      0.0725
    EDDIAG:  cpu time      0.1322: real time      0.1325
  RMM-DIIS:  cpu time      0.5230: real time      0.5290
    ORTHCH:  cpu time      0.0205: real time      0.0205
       DOS:  cpu time      0.0024: real time      0.0024
    --------------------------------------------
      LOOP:  cpu time      0.8250: real time      0.8615

 eigenvalue-minimisations  :  1820
 total energy-change (2. order) :-0.9774112E-06  (-0.3228667E-06)
 number of electron     255.9999998 magnetization 
 augmentation part      -14.6469719 magnetization 

 Free energy of the ion-electron system (eV)
  ---------------------------------------------------
  alpha Z        PSCENC =       106.83548480
  Ewald energy   TEWEN  =     -7295.42300368
  -Hartree energ DENC   =      -470.82354217
  -exchange      EXHF   =         0.00000000
  -V(xc)+E(xc)   XCENC  =      -540.08192070
  PAW double counting   =     27336.51027084   -26236.77085784
  entropy T*S    EENTRO =         0.02694366
  eigenvalues    EBANDS =       167.45142949
  atomic energy  EATOM  =      6564.79586099
  Solvation  Ediel_sol  =         0.00000000
  ---------------------------------------------------
  free energy    TOTEN  =      -367.47933461 eV

  energy without entropy =     -367.50627827  energy(sigma->0) =     -367.48831583


--------------------------------------------------------------------------------------------------------




 average (electrostatic) potential at core
  the test charge radii are     0.9892
  (the norm of the test charge is              1.0000)
       1 -83.1131       2 -83.1131       3 -83.1131       4 -83.1131       5 -83.1131
       6 -83.1131       7 -83.1131       8 -83.1131       9 -83.1131      10 -83.1131
      11 -83.1131      12 -83.1131      13 -83.1131      14 -83.1131      15 -83.1131
      16 -83.1131      17 -83.1131      18 -83.1131      19 -83.1131      20 -83.1131
      21 -83.1131      22 -83.1131      23 -83.1131      24 -83.1131      25 -83.1131
      26 -83.1131      27 -83.1131      28 -83.1131      29 -83.1131      30 -83.1131
      31 -83.1131      32 -83.1131      33 -83.1131      34 -83.1131      35 -83.1131
      36 -83.1131      37 -83.1131      38 -83.1131      39 -83.1131      40 -83.1131
      41 -83.1131      42 -83.1131      43 -83.1131      44 -83.1131      45 -83.1131
      46 -83.1131      47 -83.1131      48 -83.1131      49 -83.1131      50 -83.1131
      51 -83.1131      52 -83.1131      53 -83.1131      54 -83.1131      55 -83.1131
      56 -83.1131      57 -83.1131      58 -83.1131      59 -83.1131      60 -83.1131
      61 -83.1131      62 -83.1131      63 -83.1131      64 -83.1131
 
 
 
 E-fermi :   6.0388     XC(G=0):  -9.5250     alpha+bet :-11.8936

 val. band max:        5.7586865868   @ k =   0.0000   0.0000   0.0000
 cond. band min:       6.1856197071   @ k =   0.0000   0.0000   0.5000
 fundamental gap:      0.4269331203
 Fermi energy:         6.0388058138

 k-point     1 :       0.0000    0.0000    0.0000
  band No.  band energies     occupation 
      1      -6.2221      2.00000
      2      -5.1605      2.00000
      3      -5.1605      2.00000
      4      -5.1338      2.00000
      5      -5.1338      2.00000
      6      -5.1333      2.00000
      7      -5.1333      2.00000
      8      -4.2306      2.00000
      9      -4.2306      2.00000
     10      -4.1877      2.00000
     11      -4.1877      2.00000
     12      -4.1877      2.00000
     13      -4.1877      2.00000
     14      -4.1690      2.00000
     15      -4.1690      2.00000
     16      -4.1690      2.00000
     17      -4.1690      2.00000
     18      -4.1438      2.00000
     19      -4.1438      2.00000
     20      -3.9392      2.00000
     21      -3.9392      2.00000
     22      -3.8402      2.00000
     23      -3.8402      2.00000
     24      -2.1451      2.00000
     25      -2.1451      2.00000
     26      -2.1205      2.00000
     27      -2.0570      2.00000
     28      -2.0570      2.00000
     29      -1.9983      2.00000
     30      -1.9983      2.00000
     31      -1.9955      2.00000
     32      -1.9665      2.00000
     33      -1.9665      2.00000
     34      -1.9304      2.00000
     35      -1.9304      2.00000
     36      -1.9304      2.00000
     37      -1.9304      2.00000
     38      -1.8625      2.00000
     39      -1.8625      2.00000
     40      -1.8316      2.00000
     41      -1.8316      2.00000
     42      -1.2745      2.00000
     43      -1.2745      2.00000
     44      -1.2497      2.00000
     45      -1.2497      2.00000
     46       0.2058      2.00000
     47       0.2058      2.00000
     48       0.2058      2.00000
     49       0.2058      2.00000
     50       0.2264      2.00000
     51       0.2264      2.00000
     52       0.2572      2.00000
     53       0.2572      2.00000
     54       0.2572      2.00000
     55       0.2572      2.00000
     56       0.2861      2.00000
     57       0.2861      2.00000
     58       1.8399      2.00000
     59       1.8399      2.00000
     60       1.8405      2.00000
     61       1.8405      2.00000
     62       1.8409      2.00000
     63       1.8409      2.00000
     64       1.8409      2.00000
     65       1.8409      2.00000
     66       1.8454      2.00000
     67       1.8454      2.00000
     68       1.8469      2.00000
     69       1.8469      2.00000
     70       1.8879      2.00000
     71       1.8879      2.00000
     72       1.8879      2.00000
     73       1.8879      2.00000
     74       1.9530      2.00000
     75       1.9530      2.00000
     76       1.9693      2.00000
     77       1.9693      2.00000
     78       1.9693      2.00000
     79       1.9693      2.00000
     80       1.9848      2.00000
     81       1.9848      2.00000
     82       2.1289      2.00000
     83       2.1289      2.00000
     84       2.2315      2.00000
     85       2.2315      2.00000
     86       2.2346      2.00000
     87       2.2346      2.00000
     88       2.7498      2.00000
     89       2.8274      2.00000
     90       2.8274      2.00000
     91       2.9059      2.00000
     92       2.9404      2.00000
     93       2.9404      2.00000
     94       3.7271      2.00000
     95       3.7271      2.00000
     96       3.7784      2.00000
     97       3.7784      2.00000
     98       3.8123      2.00000
     99       3.8123      2.00000
    100       3.8660      2.00000
    101       3.8660      2.00000
    102       3.8834      2.00000
    103       3.8834      2.00000
    104       3.8835      2.00000
    105       3.8835      2.00000
    106       4.3168      2.00000
    107       4.3168      2.00000
    108       4.3515      2.00000
    109       4.3515      2.00000
    110       4.3515      2.00000
    111       4.3515      2.00000
    112       4.3881      2.00000
    113       4.3881      2.00000
    114       4.4175      2.00000
    115       4.4175      2.00000
    116       4.4703      2.00000
    117       4.4703      2.00000
    118       4.4703      2.00000
    119       4.4703      2.00000
    120       4.4864      2.00000
    121       4.4864      2.00000
    122       4.5576      2.00000
    123       4.5576      2.00000
    124       4.6308      2.00000
    125       4.6308      2.00000
    126       5.6479      2.01847
    127       5.7538      2.06165
    128       5.7587      2.06350
    129       6.2008      0.01483
    130       6.2833     -0.07091
    131       6.2833     -0.07091
    132       6.3682     -0.04184
    133       6.4012     -0.02795
    134       6.4012     -0.02795
    135       6.7216     -0.00002
    136       6.7216     -0.00002
    137       6.7217     -0.00002
    138       6.7217     -0.00002
    139       6.8396     -0.00000
    140       6.8396     -0.00000
    141       7.0778     -0.00000
    142       7.0778     -0.00000
    143       7.2233     -0.00000
    144       7.2233     -0.00000
    145       7.9838     -0.00000
    146       7.9840     -0.00000
    147       8.0325     -0.00000
    148       8.0326     -0.00000
    149       8.0329     -0.00000
    150       8.0349     -0.00000
    151       8.0872     -0.00000
    152       8.0882     -0.00000
    153       8.1286     -0.00000
    154       8.1714     -0.00000
    155       8.1721     -0.00000
    156       8.1722     -0.00000
    157       8.1782     -0.00000
    158       8.1932     -0.00000
    159       8.3694     -0.00000
    160       8.7596     -0.00000
    161       8.8063     -0.00000
    162       8.8609     -0.00000

 k-point     2 :       0.5000    0.0000    0.0000
  band No.  band energies     occupation 
      1      -5.9544      2.00000
      2      -5.9544      2.00000
      3      -4.9121      2.00000
      4      -4.9121      2.00000
      5      -4.8907      2.00000
      6      -4.8907      2.00000
      7      -4.8907      2.00000
      8      -4.8907      2.00000
      9      -4.8685      2.00000
     10      -4.8685      2.00000
     11      -4.0733      2.00000
     12      -4.0733      2.00000
     13      -4.0733      2.00000
     14      -4.0733      2.00000
     15      -4.0127      2.00000
     16      -4.0127      2.00000
     17      -4.0127      2.00000
     18      -4.0127      2.00000
     19      -3.8703      2.00000
     20      -3.8703      2.00000
     21      -3.1869      2.00000
     22      -3.1869      2.00000
     23      -3.1251      2.00000
     24      -3.1251      2.00000
     25      -3.1251      2.00000
     26      -3.1251      2.00000
     27      -3.0621      2.00000
     28      -3.0621      2.00000
     29      -2.0490      2.00000
     30      -2.0490      2.00000
     31      -2.0238      2.00000
     32      -2.0238      2.00000
     33      -1.9395      2.00000
     34      -1.9395      2.00000
     35      -1.9160      2.00000
     36      -1.9160      2.00000
     37      -0.8847      2.00000
     38      -0.8847      2.00000
     39      -0.8327      2.00000
     40      -0.8327      2.00000
     41      -0.8327      2.00000
     42      -0.8327      2.00000
     43      -0.7834      2.00000
     44      -0.7834      2.00000
     45      -0.6838      2.00000
     46      -0.6838      2.00000
     47      -0.6838      2.00000
     48      -0.6838      2.00000
     49      -0.6780      2.00000
     50      -0.6780      2.00000
     51      -0.6780      2.00000
     52      -0.6780      2.00000
     53      -0.0923      2.00000
     54      -0.0923      2.00000
     55       1.4274      2.00000
     56       1.4274      2.00000
     57       1.4442      2.00000
     58       1.4442      2.00000
     59       1.4442      2.00000
     60       1.4442      2.00000
     61       1.4641      2.00000
     62       1.4641      2.00000
     63       1.4919      2.00000
     64       1.4919      2.00000
     65       1.4935      2.00000
     66       1.4935      2.00000
     67       1.4935      2.00000
     68       1.4935      2.00000
     69       1.4954      2.00000
     70       1.4954      2.00000
     71       2.2293      2.00000
     72       2.2293      2.00000
     73       2.2595      2.00000
     74       2.2595      2.00000
     75       2.2860      2.00000
     76       2.2860      2.00000
     77       2.3172      2.00000
     78       2.3172      2.00000
     79       2.9682      2.00000
     80       2.9682      2.00000
     81       2.9974      2.00000
     82       2.9974      2.00000
     83       2.9974      2.00000
     84       2.9974      2.00000
     85       3.0221      2.00000
     86       3.0221      2.00000
     87       3.0510      2.00000
     88       3.0510      2.00000
     89       3.0739      2.00000
     90       3.0739      2.00000
     91       3.0739      2.00000
     92       3.0739      2.00000
     93       3.0957      2.00000
     94       3.0957      2.00000
     95       3.1406      2.00000
     96       3.1406      2.00000
     97       3.1406      2.00000
     98       3.1406      2.00000
     99       3.1807      2.00000
    100       3.1807      2.00000
    101       3.1811      2.00000
    102       3.1811      2.00000
    103       3.2126      2.00000
    104       3.2126      2.00000
    105       3.2126      2.00000
    106       3.2126      2.00000
    107       4.2688      2.00000
    108       4.2688      2.00000
    109       4.2688      2.00000
    110       4.2688      2.00000
    111       4.2702      2.00000
    112       4.2702      2.00000
    113       4.2717      2.00000
    114       4.2717      2.00000
    115       4.3121      2.00000
    116       4.3121      2.00000
    117       4.5054      2.00000
    118       4.5054      2.00000
    119       4.5054      2.00000
    120       4.5054      2.00000
    121       4.5546      2.00000
    122       4.5546      2.00000
    123       4.5546      2.00000
    124       4.5546      2.00000
    125       4.9497      2.00000
    126       4.9497      2.00000
    127       4.9513      2.00000
    128       4.9513      2.00000
    129       6.3234     -0.06180
    130       6.3234     -0.06180
    131       7.1922     -0.00000
    132       7.1922     -0.00000
    133       7.4133     -0.00000
    134       7.4134     -0.00000
    135       7.5132     -0.00000
    136       7.5133     -0.00000
    137       7.5322     -0.00000
    138       7.5325     -0.00000
    139       7.6340     -0.00000
    140       7.6341     -0.00000
    141       7.7154     -0.00000
    142       7.7165     -0.00000
    143       7.9740     -0.00000
    144       7.9790     -0.00000
    145       8.0200     -0.00000
    146       8.0202     -0.00000
    147       8.0207     -0.00000
    148       8.0231     -0.00000
    149       8.0240     -0.00000
    150       8.0246     -0.00000
    151       8.0263     -0.00000
    152       8.0484     -0.00000
    153       8.0842     -0.00000
    154       8.0890     -0.00000
    155       8.1091     -0.00000
    156       8.1101     -0.00000
    157       8.1126     -0.00000
    158       8.1587     -0.00000
    159       8.4365     -0.00000
    160       8.4680     -0.00000
    161       8.5178     -0.00000
    162       8.5400     -0.00000

 k-point     3 :      -0.0000    0.5000    0.0000
  band No.  band energies     occupation 
[...]
 -0.000  -0.000   4.178   0.000  -0.000   7.783   0.000  -0.000
  0.001   0.001   0.000   4.178   0.000   0.000   7.783   0.000
 -0.000  -0.000  -0.000   0.000   4.177  -0.000   0.000   7.783
 -0.000  -0.000   7.783   0.000  -0.000  14.511   0.000  -0.000
  0.002   0.002   0.000   7.783   0.000   0.000  14.511   0.000
 -0.000  -0.000  -0.000   0.000   7.783  -0.000   0.000  14.510
 total augmentation occupancy for first ion, spin component:           1
  5.854  -2.238   0.000  -0.041   0.000  -0.000   0.015   0.000
 -2.238   0.966  -0.000   0.021   0.000   0.000  -0.007   0.000
  0.000  -0.000   2.897   0.000  -0.010  -0.643  -0.000   0.001
 -0.041   0.021   0.000   2.898   0.000  -0.000  -0.644   0.000
  0.000   0.000  -0.010   0.000   2.925   0.001   0.000  -0.654
 -0.000   0.000  -0.643  -0.000   0.001   0.152  -0.000   0.000
  0.015  -0.007  -0.000  -0.644   0.000  -0.000   0.152   0.000
  0.000   0.000   0.001   0.000  -0.654   0.000   0.000   0.155


------------------------ aborting loop because EDIFF is reached ----------------------------------------


    CHARGE:  cpu time      0.2537: real time      0.2544
    FORLOC:  cpu time      0.0236: real time      0.0236
    FORNL :  cpu time      0.6836: real time      0.6852
    STRESS:  cpu time      2.0949: real time      2.1001
    FORCOR:  cpu time      0.0911: real time      0.0914
    FORHAR:  cpu time      0.0370: real time      0.0371
    MIXING:  cpu time      0.0212: real time      0.0212
    OFIELD:  cpu time      0.0000: real time      0.0000

  FORCE on cell =-STRESS in cart. coord.  units (eV):
  Direction    XX          YY          ZZ          XY          YZ          ZX
  --------------------------------------------------------------------------------------
  Alpha Z   106.83548   106.83548   106.83548
  Ewald   -2398.81703 -2448.58272 -2448.42849   -13.49577    -0.00000    -0.00000
  Hartree   162.59716   154.08617   153.96305    -6.76841    -0.00000    -0.00000
  E(xc)    -816.53079  -816.10429  -816.12063     0.14341    -0.00000    -0.00000
  Local    -973.23623  -912.34725  -912.49437    21.84284     0.00000    -0.00000
  n-local  2483.90746  2476.62143  2476.91315    -1.67198    -0.00000     0.00000
  augment  -368.27397  -368.29352  -368.29403     0.59634     0.00000     0.00000
  Kinetic  1792.55275  1808.39704  1807.90985    -9.35837    -0.00000     0.00000
  Fock        0.00000     0.00000     0.00000     0.00000     0.00000     0.00000
  -------------------------------------------------------------------------------------
  Total     -10.96517     0.61234     0.28402    -8.71195     0.00000     0.00000
  in kB     -13.61216     0.76016     0.35259   -10.81501     0.00000     0.00000
  external pressure =       -4.17 kB  Pullay stress =        0.00 kB


 VOLUME and BASIS-vectors are now :
 -----------------------------------------------------------------------------
  energy-cutoff  :      400.00
  volume of cell :     1290.62
      direct lattice vectors                 reciprocal lattice vectors
    10.996429624  0.081254012  0.000000000     0.090943648 -0.000682074  0.000000000
     0.081254012 10.833920600  0.000000000    -0.000682074  0.092307804  0.000000000
     0.000000000  0.000000000 10.833920600     0.000000000  0.000000000  0.092302689

  length of vectors
    10.996729818 10.834225297 10.833920600     0.090946205  0.092310324  0.092302689


 FORCES acting on ions
    electron-ion (+dipol)            ewald-force                    non-local-force                 convergence-correction
 -----------------------------------------------------------------------------------------------
   -.261E-09 -.300E-09 -.127E+01   -.466E-14 0.822E-14 0.909E+00   -.104E-22 0.405E-24 0.358E+00   0.579E-13 0.771E-13 0.913E-05
   -.261E-09 -.300E-09 -.127E+01   -.533E-14 0.400E-14 0.909E+00   -.734E-24 -.634E-23 0.358E+00   -.492E-13 0.789E-13 0.913E-05
   -.261E-09 -.300E-09 -.127E+01   -.115E-13 -.888E-15 0.909E+00   -.277E-23 0.460E-23 0.358E+00   0.243E-13 -.673E-13 0.913E-05
   -.261E-09 -.300E-09 -.127E+01   -.240E-13 0.178E-14 0.909E+00   -.778E-23 0.955E-24 0.358E+00   -.997E-14 -.680E-13 0.913E-05
   -.261E-09 -.300E-09 -.127E+01   -.187E-13 0.577E-14 0.909E+00   0.605E-23 -.369E-23 0.358E+00   -.699E-13 0.108E-12 0.913E-05
   -.261E-09 -.300E-09 -.127E+01   -.151E-13 0.178E-14 0.909E+00   -.329E-23 -.225E-23 0.358E+00   0.602E-13 -.386E-14 0.913E-05
   -.261E-09 -.300E-09 -.127E+01   -.173E-13 -.355E-14 0.909E+00   -.624E-23 0.784E-23 0.358E+00   -.314E-13 -.999E-13 0.913E-05
   -.261E-09 -.300E-09 -.127E+01   -.142E-13 0.000E+00 0.909E+00   -.937E-24 0.119E-23 0.358E+00   0.182E-13 0.775E-14 0.913E-05
   0.261E-09 0.300E-09 0.127E+01   -.888E-15 0.111E-13 -.909E+00   0.218E-23 0.102E-22 -.358E+00   -.278E-13 0.474E-13 -.913E-05
   0.261E-09 0.300E-09 0.127E+01   -.888E-14 0.178E-13 -.909E+00   -.886E-23 0.199E-24 -.358E+00   0.405E-14 -.582E-13 -.913E-05
   0.261E-09 0.301E-09 0.127E+01   0.444E-14 0.173E-13 -.909E+00   0.366E-23 -.112E-22 -.358E+00   -.104E-12 -.459E-13 -.913E-05
   0.261E-09 0.300E-09 0.127E+01   0.711E-14 0.107E-13 -.909E+00   0.101E-22 -.799E-23 -.358E+00   0.117E-12 0.676E-13 -.913E-05
   0.261E-09 0.299E-09 0.127E+01   -.622E-14 0.151E-13 -.909E+00   -.154E-22 0.400E-23 -.358E+00   0.332E-13 0.381E-13 -.913E-05
   0.261E-09 0.301E-09 0.127E+01   -.711E-14 0.178E-13 -.909E+00   0.366E-23 0.287E-22 -.358E+00   -.488E-14 -.537E-13 -.913E-05
   0.261E-09 0.301E-09 0.127E+01   -.799E-14 0.138E-13 -.909E+00   0.687E-23 0.512E-23 -.358E+00   0.114E-12 -.382E-13 -.913E-05
   0.261E-09 0.299E-09 0.127E+01   -.533E-14 0.107E-13 -.909E+00   -.568E-23 0.131E-23 -.358E+00   -.132E-12 0.610E-13 -.913E-05
   -.261E-09 -.300E-09 -.127E+01   -.173E-13 -.222E-14 0.909E+00   -.290E-23 -.458E-22 0.358E+00   -.509E-13 0.866E-13 0.913E-05
   -.261E-09 -.300E-09 -.127E+01   -.169E-13 -.266E-14 0.909E+00   -.624E-23 0.209E-24 0.358E+00   0.382E-13 0.466E-13 0.913E-05
   -.261E-09 -.300E-09 -.127E+01   -.129E-13 -.888E-15 0.909E+00   -.952E-23 -.110E-22 0.358E+00   -.361E-13 -.886E-13 0.913E-05
   -.261E-09 -.300E-09 -.127E+01   -.266E-13 -.115E-13 0.909E+00   -.870E-24 0.168E-22 0.358E+00   0.641E-13 -.413E-13 0.913E-05
   -.261E-09 -.300E-09 -.127E+01   -.118E-13 -.133E-14 0.909E+00   0.737E-23 -.674E-23 0.358E+00   0.448E-13 0.155E-12 0.913E-05
   -.261E-09 -.300E-09 -.127E+01   0.444E-15 -.533E-14 0.909E+00   -.258E-23 -.136E-22 0.358E+00   -.296E-13 -.974E-13 0.913E-05
   -.261E-09 -.300E-09 -.127E+01   -.338E-13 -.666E-14 0.909E+00   0.627E-23 -.389E-23 0.358E+00   0.377E-13 -.143E-12 0.913E-05
   -.261E-09 -.300E-09 -.127E+01   -.711E-14 -.355E-14 0.909E+00   -.610E-23 -.375E-23 0.358E+00   -.616E-13 0.974E-13 0.913E-05
   0.261E-09 0.301E-09 0.127E+01   0.933E-14 0.157E-14 -.909E+00   -.774E-23 0.133E-22 -.358E+00   -.404E-13 0.625E-13 -.913E-05
   0.261E-09 0.301E-09 0.127E+01   0.933E-14 0.157E-14 -.909E+00   0.777E-23 -.456E-22 -.358E+00   0.479E-13 0.512E-13 -.913E-05
   0.261E-09 0.300E-09 0.127E+01   0.124E-13 0.486E-14 -.909E+00   -.415E-23 0.226E-22 -.358E+00   0.259E-13 -.576E-13 -.913E-05
   0.261E-09 0.300E-09 0.127E+01   0.178E-14 0.552E-14 -.909E+00   -.603E-23 0.773E-25 -.358E+00   -.462E-13 -.437E-13 -.913E-05
   0.261E-09 0.300E-09 0.127E+01   0.355E-14 -.244E-14 -.909E+00   0.598E-24 0.590E-23 -.358E+00   0.281E-13 0.788E-13 -.913E-05
   0.261E-09 0.300E-09 0.127E+01   0.711E-14 0.866E-14 -.909E+00   0.238E-23 -.435E-23 -.358E+00   -.464E-13 0.115E-12 -.913E-05
   0.261E-09 0.300E-09 0.127E+01   0.000E+00 0.754E-14 -.909E+00   0.864E-23 0.139E-22 -.358E+00   -.251E-13 -.722E-13 -.913E-05
   0.261E-09 0.300E-09 0.127E+01   -.142E-13 0.887E-14 -.909E+00   0.127E-22 0.299E-23 -.358E+00   0.515E-13 -.108E-12 -.913E-05
   -.261E-09 -.300E-09 -.127E+01   -.178E-14 0.444E-15 0.909E+00   -.581E-24 0.871E-23 0.358E+00   -.148E-12 0.583E-13 0.913E-05
   -.261E-09 -.300E-09 -.127E+01   -.444E-14 -.666E-14 0.909E+00   0.438E-23 -.785E-23 0.358E+00   0.174E-12 0.519E-13 0.913E-05
   -.261E-09 -.300E-09 -.127E+01   0.888E-14 -.666E-14 0.909E+00   -.481E-23 0.531E-23 0.358E+00   -.907E-13 -.457E-13 0.913E-05
   -.261E-09 -.300E-09 -.127E+01   -.178E-14 -.755E-14 0.909E+00   -.341E-23 -.460E-23 0.358E+00   0.395E-13 -.438E-13 0.913E-05
   -.261E-09 -.300E-09 -.127E+01   -.133E-13 -.977E-14 0.909E+00   -.354E-24 -.135E-22 0.358E+00   0.140E-12 0.647E-13 0.913E-05
   -.261E-09 -.300E-09 -.127E+01   -.240E-13 0.888E-15 0.909E+00   -.308E-23 0.127E-22 0.358E+00   -.196E-12 0.840E-13 0.913E-05
   -.261E-09 -.301E-09 -.127E+01   -.355E-14 -.577E-14 0.909E+00   0.238E-23 -.260E-23 0.358E+00   0.774E-13 -.614E-13 0.913E-05
   -.261E-09 -.301E-09 -.127E+01   0.000E+00 -.107E-13 0.909E+00   0.485E-23 -.434E-23 0.358E+00   -.515E-13 -.714E-13 0.913E-05
   0.261E-09 0.300E-09 0.127E+01   0.114E-13 0.222E-14 -.909E+00   0.103E-22 0.313E-22 -.358E+00   -.917E-13 -.146E-13 -.913E-05
   0.261E-09 0.300E-09 0.127E+01   0.110E-13 0.577E-14 -.909E+00   0.159E-22 0.191E-22 -.358E+00   0.597E-13 0.147E-13 -.913E-05
   0.261E-09 0.300E-09 0.127E+01   0.190E-13 0.400E-14 -.909E+00   0.122E-22 0.139E-22 -.358E+00   -.690E-13 0.203E-13 -.913E-05
   0.261E-09 0.300E-09 0.127E+01   0.185E-13 0.444E-15 -.909E+00   0.548E-23 -.110E-22 -.358E+00   0.119E-12 -.930E-14 -.913E-05
   0.261E-09 0.299E-09 0.127E+01   0.153E-13 0.888E-14 -.909E+00   0.274E-23 -.541E-24 -.358E+00   0.944E-13 0.480E-13 -.913E-05
   0.261E-09 0.301E-09 0.127E+01   0.241E-13 0.178E-14 -.909E+00   -.515E-23 0.385E-23 -.358E+00   -.536E-13 -.842E-13 -.913E-05
   0.261E-09 0.301E-09 0.127E+01   0.148E-13 0.107E-13 -.909E+00   0.449E-23 0.103E-22 -.358E+00   0.880E-13 -.395E-13 -.913E-05
   0.261E-09 0.299E-09 0.127E+01   0.130E-13 0.711E-14 -.909E+00   -.432E-23 0.767E-23 -.358E+00   -.121E-12 0.871E-13 -.913E-05
   -.261E-09 -.300E-09 -.127E+01   0.577E-14 -.144E-13 0.909E+00   -.767E-23 0.859E-23 0.358E+00   -.181E-13 0.863E-13 0.913E-05
   -.261E-09 -.300E-09 -.127E+01   0.622E-14 -.138E-13 0.909E+00   0.622E-23 0.200E-23 0.358E+00   -.232E-13 0.141E-13 0.913E-05
   -.261E-09 -.300E-09 -.127E+01   -.933E-14 -.182E-13 0.909E+00   -.928E-23 -.820E-23 0.358E+00   -.433E-13 -.845E-13 0.913E-05
   -.261E-09 -.300E-09 -.127E+01   0.533E-14 -.120E-13 0.909E+00   -.869E-23 -.145E-23 0.358E+00   0.489E-13 -.501E-14 0.913E-05
   -.261E-09 -.301E-09 -.127E+01   -.688E-14 -.129E-13 0.909E+00   -.344E-23 -.351E-23 0.358E+00   0.780E-14 0.125E-12 0.913E-05
   -.261E-09 -.300E-09 -.127E+01   0.222E-14 -.888E-14 0.909E+00   0.442E-23 -.195E-22 0.358E+00   0.669E-14 -.319E-13 0.913E-05
   -.261E-09 -.300E-09 -.127E+01   -.120E-13 -.129E-13 0.909E+00   -.167E-22 0.282E-22 0.358E+00   0.469E-13 -.117E-12 0.913E-05
   -.261E-09 -.302E-09 -.127E+01   -.355E-14 -.178E-13 0.909E+00   0.845E-23 -.586E-23 0.358E+00   -.766E-13 0.347E-13 0.913E-05
   0.261E-09 0.300E-09 0.127E+01   0.663E-14 0.436E-15 -.909E+00   -.947E-23 0.885E-23 -.358E+00   -.812E-13 0.122E-12 -.913E-05
   0.261E-09 0.300E-09 0.127E+01   0.970E-14 -.735E-14 -.909E+00   0.124E-22 0.154E-22 -.358E+00   0.814E-13 0.602E-13 -.913E-05
   0.261E-09 0.300E-09 0.127E+01   0.397E-14 0.297E-15 -.909E+00   0.239E-23 0.172E-22 -.358E+00   -.707E-13 -.105E-12 -.913E-05
   0.261E-09 0.300E-09 0.127E+01   0.106E-13 0.125E-14 -.909E+00   0.943E-23 0.376E-22 -.358E+00   0.738E-13 -.585E-13 -.913E-05
   0.261E-09 0.301E-09 0.127E+01   0.211E-13 -.480E-14 -.909E+00   -.131E-23 -.174E-22 -.358E+00   0.771E-13 0.197E-12 -.913E-05
   0.261E-09 0.301E-09 0.127E+01   0.848E-14 -.882E-14 -.909E+00   -.813E-23 -.228E-23 -.358E+00   -.654E-13 -.581E-13 -.913E-05
   0.261E-09 0.300E-09 0.127E+01   0.227E-13 -.157E-14 -.909E+00   -.232E-23 0.337E-23 -.358E+00   0.687E-13 -.191E-12 -.913E-05
   0.261E-09 0.300E-09 0.127E+01   0.178E-13 -.728E-14 -.909E+00   0.150E-23 -.508E-23 -.358E+00   -.649E-13 0.657E-13 -.913E-05
 -----------------------------------------------------------------------------------------------
   -.155E-11 0.906E-13 0.408E-11   -.562E-13 -.104E-13 -.427E-13   -.112E-22 0.100E-21 0.133E-14   -.589E-13 0.206E-12 -.647E-13
 
 
 POSITION                                       TOTAL-FORCE (eV/Angst)
 -----------------------------------------------------------------------------------
      0.00000      0.00000      0.00543         0.000000     -0.000000     -0.000488
      0.00000      0.00000      5.42239         0.000000      0.000000     -0.000488
      0.04063      5.41696      0.00543         0.000000     -0.000000     -0.000488
      0.04063      5.41696      5.42239        -0.000000      0.000000     -0.000488
      5.49821      0.04063      0.00543        -0.000000     -0.000000     -0.000488
      5.49821      0.04063      5.42239         0.000000     -0.000000     -0.000488
      5.53884      5.45759      0.00543        -0.000000     -0.000000     -0.000488
      5.53884      5.45759      5.42239        -0.000000     -0.000000     -0.000488
      4.15413      4.09319      1.34881         0.000000      0.000000      0.000488
      4.15413      4.09319      6.76577         0.000000      0.000000      0.000488
      4.19476      9.51015      1.34881        -0.000000      0.000000      0.000488
      4.19476      9.51015      6.76577         0.000000      0.000000      0.000488
      9.65235      4.13382      1.34881        -0.000000      0.000000      0.000488
      9.65235      4.13382      6.76577        -0.000000      0.000000      0.000488
      9.69297      9.55078      1.34881         0.000000     -0.000000      0.000488
      9.69297      9.55078      6.76577         0.000000      0.000000      0.000488
      0.02031      2.70848      2.71391         0.000000     -0.000000     -0.000488
      0.02031      2.70848      8.13087         0.000000      0.000000     -0.000488
      0.06094      8.12544      2.71391         0.000000     -0.000000     -0.000488
      0.06094      8.12544      8.13087         0.000000      0.000000     -0.000488
      5.51853      2.74911      2.71391        -0.000000     -0.000000     -0.000488
      5.51853      2.74911      8.13087        -0.000000     -0.000000     -0.000488
      5.55916      8.16607      2.71391        -0.000000     -0.000000     -0.000488
      5.55916      8.16607      8.13087         0.000000     -0.000000     -0.000488
      4.13382      1.38471      4.05729        -0.000000      0.000000      0.000488
      4.13382      1.38471      9.47425        -0.000000      0.000000      0.000488
      4.17444      6.80167      4.05729         0.000000      0.000000      0.000488
      4.17444      6.80167      9.47425        -0.000000      0.000000      0.000488
      9.63203      1.42534      4.05729         0.000000      0.000000      0.000488
      9.63203      1.42534      9.47425         0.000000      0.000000      0.000488
      9.67266      6.84230      4.05729        -0.000000      0.000000      0.000488
      9.67266      6.84230      9.47425        -0.000000      0.000000      0.000488
      2.74911      0.02031      2.71391         0.000000      0.000000     -0.000488
      2.74911      0.02031      8.13087         0.000000      0.000000     -0.000488
      2.78973      5.43727      2.71391        -0.000000     -0.000000     -0.000488
      2.78973      5.43727      8.13087         0.000000     -0.000000     -0.000488
      8.24732      0.06094      2.71391        -0.000000      0.000000     -0.000488
      8.24732      0.06094      8.13087        -0.000000      0.000000     -0.000488
      8.28795      5.47790      2.71391        -0.000000      0.000000     -0.000488
      8.28795      5.47790      8.13087        -0.000000      0.000000     -0.000488
      1.40502      4.07288      4.05729        -0.000000     -0.000000      0.000488
      1.40502      4.07288      9.47425        -0.000000     -0.000000      0.000488
      1.44565      9.48984      4.05729        -0.000000     -0.000000      0.000488
      1.44565      9.48984      9.47425        -0.000000     -0.000000      0.000488
      6.90324      4.11350      4.05729         0.000000      0.000000      0.000488
      6.90324      4.11350      9.47425        -0.000000      0.000000      0.000488
      6.94387      9.53046      4.05729         0.000000      0.000000      0.000488
      6.94387      9.53046      9.47425         0.000000      0.000000      0.000488
      2.76942      2.72879      0.00543        -0.000000      0.000000     -0.000488
      2.76942      2.72879      5.42239         0.000000     -0.000000     -0.000488
      2.81005      8.14575      0.00543         0.000000     -0.000000     -0.000488
      2.81005      8.14575      5.42239         0.000000     -0.000000     -0.000488
      8.26764      2.76942      0.00543        -0.000000      0.000000     -0.000488
      8.26764      2.76942      5.42239        -0.000000      0.000000     -0.000488
      8.30826      8.18638      0.00543         0.000000      0.000000     -0.000488
      8.30826      8.18638      5.42239        -0.000000      0.000000     -0.000488
      1.38471      1.36440      1.34881        -0.000000     -0.000000      0.000488
      1.38471      1.36440      6.76577        -0.000000     -0.000000      0.000488
      1.42534      6.78136      1.34881        -0.000000     -0.000000      0.000488
      1.42534      6.78136      6.76577        -0.000000     -0.000000      0.000488
      6.88293      1.40502      1.34881         0.000000      0.000000      0.000488
      6.88293      1.40502      6.76577         0.000000      0.000000      0.000488
      6.92355      6.82198      1.34881         0.000000      0.000000      0.000488
      6.92355      6.82198      6.76577         0.000000      0.000000      0.000488
 -----------------------------------------------------------------------------------
    total drift:                               -0.000000      0.000000      0.000000


--------------------------------------------------------------------------------------------------------



  FREE ENERGIE OF THE ION-ELECTRON SYSTEM (eV)
  ---------------------------------------------------
  free  energy   TOTEN  =      -367.50445368 eV

  energy  without entropy=     -367.53104527  energy(sigma->0) =     -367.51331754
 
 d Force = 0.2037675E-02[ 0.480E-04, 0.403E-02]  d Energy = 0.2046168E-02-0.849E-05
 d Force =-0.8594384E-01[-0.895E-01,-0.824E-01]  d Ewald  =-0.8594380E-01-0.430E-07


--------------------------------------------------------------------------------------------------------


    POTLOK:  cpu time      0.1481: real time      0.1485


--------------------------------------------------------------------------------------------------------




--------------------------------------------------------------------------------------------------------


  
 reached required accuracy - stopping structural energy minimisation
     LOOP+:  cpu time     13.1572: real time     13.3054
    4ORBIT:  cpu time      0.0000: real time      0.0000

 total amount of memory used by VASP MPI-rank0    82198. kBytes
=======================================================================

   base      :      30000. kBytes
   nonlr-proj:       4683. kBytes
   fftplans  :      19172. kBytes
   grid      :       7278. kBytes
   one-center:         18. kBytes
   wavefun   :      21047. kBytes
 
  
  
 General timing and accounting informations for this job:
 ========================================================
  
                  Total CPU time used (sec):       60.192
                            User time (sec):       56.738
                          System time (sec):        3.453
                         Elapsed time (sec):       63.808
  
                   Maximum memory used (kb):      410960.
                   Average memory used (kb):          N/A
  
                          Minor page faults:        99383
                          Major page faults:            0
                 Voluntary context switches:         8975
