<?xml version="1.0" encoding="ISO-8859-1"?>
<modeling>
 <generator>
  <i name="program" type="string">vasp </i>
  <i name="version" type="string">6.4.3  </i>
  <i name="subversion" type="string">19Mar24 (build Oct 21 2024 22:36:34) complex                          parallel </i>
  <i name="platform" type="string">LinuxIFC </i>
  <i name="date" type="string">2024 11 01 </i>
  <i name="time" type="string">22:46:34 </i>
 </generator>
 <incar>
  <i type="string" name="SYSTEM">Si64</i>
  <i type="int" name="ISTART">     0</i>
  <i type="string" name="PREC">Accurate</i>
  <i type="string" name="ALGO">Fast</i>
  <i type="logical" name="ADDGRID"> T  </i>
  <i type="int" name="ICHARG">     2</i>
  <i type="int" name="NELM">    60</i>
  <i type="int" name="NELMIN">     8</i>
  <i type="int" name="IBRION">     2</i>
  <i name="EDIFF">      0.00000100</i>
  <i name="EDIFFG">     -0.01000000</i>
  <i type="int" name="NSW">    60</i>
  <i type="int" name="ISIF">     2</i>
  <i name="ENCUT">    400.00000000</i>
  <i type="string" name="LREAL">Auto</i>
  <i type="int" name="ISMEAR">     1</i>
  <i name="SIGMA">      0.20000000</i>
  <i type="logical" name="LWAVE"> F  </i>
  <i type="logical" name="LCHARG"> F  </i>
  <i type="logical" name="GGA_COMPAT"> F  </i>
  <i type="string" name="GGA">PS</i>
 </incar>
 <primitive_cell>
  <structure name="primitive_cell" >
   <crystal>
    <varray name="basis" >
     <v>       0.02031350       2.70848015      -2.70848015 </v>
     <v>       0.02031350       2.70848015       2.70848015 </v>
     <v>       2.72879390      -2.68816665       0.00000000 </v>
    </varray>
    <i name="volume">     40.33192483 </i>
    <varray name="rec_basis" >
     <v>       0.18052315       0.18325146      -0.18460538 </v>
     <v>       0.18052315       0.18325146       0.18460538 </v>
     <v>       0.36377459      -0.00272830      -0.00000000 </v>
    </varray>
   </crystal>
   <varray name="positions" >
    <v>       0.00000000       0.00000000       0.00000000 </v>
    <v>       0.25000000       0.75000000       0.50000000 </v>
   </varray>
  </structure>
  <varray name="primitive_index" >
   <v type="int" >        1 </v>
   <v type="int" >       15 </v>
  </varray>
 </primitive_cell>
 <kpoints>
  <generation param="Gamma">
   <v type="int" name="divisions">       2        2        2 </v>
   <v name="usershift">      0.00000000       0.00000000       0.00000000 </v>
   <v name="genvec1">      0.50000000       0.00000000       0.00000000 </v>
   <v name="genvec2">      0.00000000       0.50000000       0.00000000 </v>
   <v name="genvec3">      0.00000000       0.00000000       0.50000000 </v>
   <v name="shift">      0.00000000       0.00000000       0.00000000 </v>
  </generation>
  <varray name="kpointlist" >
   <v>       0.00000000       0.00000000       0.00000000 </v>
   <v>       0.50000000       0.00000000       0.00000000 </v>
   <v>      -0.00000000       0.50000000       0.00000000 </v>
   <v>       0.50000000       0.50000000       0.00000000 </v>
   <v>       0.00000000       0.00000000       0.50000000 </v>
   <v>       0.50000000       0.00000000       0.50000000 </v>
   <v>      -0.00000000       0.50000000       0.50000000 </v>
   <v>       0.50000000       0.50000000       0.50000000 </v>
  </varray>
  <varray name="weights" >
   <v>       0.12500000 </v>
   <v>       0.12500000 </v>
   <v>       0.12500000 </v>
   <v>       0.12500000 </v>
   <v>       0.12500000 </v>
   <v>       0.12500000 </v>
   <v>       0.12500000 </v>
   <v>       0.12500000 </v>
  </varray>
 </kpoints>
 <parameters>
  <separator name="general" >
   <i type="string" name="SYSTEM">Si64</i>
   <i type="logical" name="LCOMPAT"> F  </i>
  </separator>
  <separator name="electronic" >
   <i type="string" name="PREC">accura</i>
   <i name="ENMAX">    400.00000000</i>
   <i name="ENAUG">    322.06900000</i>
   <i name="EDIFF">      0.00000100</i>
   <i type="int" name="IALGO">    68</i>
   <i type="int" name="IWAVPR">    11</i>
   <i type="int" name="NBANDS">   162</i>
   <i type="int" name="NBANDSLOW">    -1</i>
   <i type="int" name="NBANDSHIGH">    -1</i>
   <i name="NELECT">    256.00000000</i>
   <i type="int" name="TURBO">     0</i>
   <i type="int" name="IRESTART">     0</i>
   <i type="int" name="NREBOOT">     0</i>
   <i type="int" name="NMIN">     0</i>
   <i name="EREF">      0.00000000</i>
   <separator name="electronic smearing" >
    <i type="int" name="ISMEAR">     1</i>
    <i name="SIGMA">      0.20000000</i>
    <i name="KSPACING">      0.50000000</i>
    <i type="logical" name="KGAMMA"> T  </i>
    <i type="logical" name="KBLOWUP"> T  </i>
   </separator>
   <separator name="electronic projectors" >
    <i type="logical" name="LREAL"> T  </i>
    <v name="ROPT">     -0.00025000</v>
    <i type="int" name="LMAXPAW">  -100</i>
    <i type="int" name="LMAXMIX">     2</i>
    <i type="logical" name="NLSPLINE"> F  </i>
   </separator>
   <separator name="electronic startup" >
    <i type="int" name="ISTART">     0</i>
    <i type="int" name="ICHARG">     2</i>
    <i type="int" name="INIWAV">     1</i>
   </separator>
   <separator name="electronic spin" >
    <i type="int" name="ISPIN">     1</i>
    <i type="logical" name="LNONCOLLINEAR"> F  </i>
    <v name="MAGMOM">      1.00000000      1.00000000      1.00000000      1.00000000      1.00000000      1.00000000      1.00000000      1.00000000      1.00000000      1.00000000      1.00000000      1.00000000      1.00000000      1.00000000      1.00000000      1.00000000      1.00000000      1.00000000      1.00000000      1.00000000
      1.00000000      1.00000000      1.00000000      1.00000000      1.00000000      1.00000000      1.00000000      1.00000000      1.00000000      1.00000000      1.00000000      1.00000000      1.00000000      1.00000000      1.00000000      1.00000000      1.00000000      1.00000000      1.00000000      1.00000000
      1.00000000      1.00000000      1.00000000      1.00000000      1.00000000      1.00000000      1.00000000      1.00000000      1.00000000      1.00000000      1.00000000      1.00000000      1.00000000      1.00000000      1.00000000      1.00000000      1.00000000      1.00000000      1.00000000      1.00000000
      1.00000000      1.00000000      1.00000000      1.00000000</v>
    <i name="NUPDOWN">     -1.00000000</i>
    <i type="logical" name="LSORBIT"> F  </i>
    <v name="SAXIS">      0.00000000      0.00000000      1.00000000</v>
    <i type="logical" name="LSPIRAL"> F  </i>
    <v name="QSPIRAL">      0.00000000      0.00000000      0.00000000</v>
    <i type="logical" name="LZEROZ"> F  </i>
   </separator>
   <separator name="electronic exchange-correlation" >
    <i type="logical" name="LASPH"> F  </i>
   </separator>
   <separator name="electronic convergence" >
    <i type="int" name="NELM">    60</i>
    <i type="int" name="NELMDL">    -5</i>
    <i type="int" name="NELMIN">     8</i>
    <i name="ENINI">    400.00000000</i>
    <separator name="electronic convergence detail" >
     <i type="logical" name="LDIAG"> T  </i>
     <i type="logical" name="LSUBROT"> F  </i>
     <i name="WEIMIN">      0.00100000</i>
     <i name="EBREAK">      0.00000000</i>
     <i name="DEPER">      0.30000000</i>
     <i type="int" name="NRMM">     4</i>
     <i name="TIME">      0.40000000</i>
    </separator>
   </separator>
   <separator name="electronic mixer" >
    <i name="AMIX">      0.40000000</i>
    <i name="BMIX">      1.00000000</i>
    <i name="AMIN">      0.10000000</i>
    <i name="AMIX_MAG">      1.60000000</i>
    <i name="BMIX_MAG">      1.00000000</i>
    <separator name="electronic mixer details" >
     <i type="int" name="IMIX">     4</i>
     <i type="logical" name="MIXFIRST"> F  </i>
     <i type="int" name="MAXMIX">   -45</i>
     <i name="WC">    100.00000000</i>
     <i type="int" name="INIMIX">     1</i>
     <i type="int" name="MIXPRE">     1</i>
     <i type="int" name="MREMOVE">     5</i>
    </separator>
   </separator>
   <separator name="electronic dipolcorrection" >
    <i type="logical" name="LDIPOL"> F  </i>
    <i type="logical" name="LMONO"> F  </i>
    <i type="int" name="IDIPOL">     0</i>
    <i name="EPSILON">      1.00000000</i>
    <v name="DIPOL">   -100.00000000   -100.00000000   -100.00000000</v>
    <i name="EFIELD">      0.00000000</i>
    <i type="logical" name="LVACPOTAV"> F  </i>
   </separator>
  </separator>
  <separator name="grids" >
   <i type="int" name="NGX">    72</i>
   <i type="int" name="NGY">    72</i>
   <i type="int" name="NGZ">    72</i>
   <i type="int" name="NGXF">   144</i>
   <i type="int" name="NGYF">   144</i>
   <i type="int" name="NGZF">   144</i>
   <i type="logical" name="ADDGRID"> T  </i>
  </separator>
  <separator name="ionic" >
   <i type="int" name="NSW">    60</i>
   <i type="int" name="IBRION">     2</i>
   <i type="int" name="MDALGO">     0</i>
   <i type="int" name="ISIF">     2</i>
   <i name="PSTRESS">      0.00000000</i>
   <i name="EDIFFG">     -0.01000000</i>
   <i type="int" name="NFREE">     1</i>
   <i name="POTIM">      0.50000000</i>
   <i name="SMASS">     -3.00000000</i>
   <i name="SCALEE">      1.00000000</i>
  </separator>
  <separator name="ionic md" >
   <i name="TEBEG">      0.00010000</i>
   <i name="TEEND">      0.00010000</i>
   <i type="int" name="NBLOCK">     1</i>
   <i type="int" name="KBLOCK">    60</i>
   <i type="int" name="NPACO">   256</i>
   <i name="APACO">     10.00000000</i>
  </separator>
  <separator name="symmetry" >
   <i type="int" name="ISYM">     2</i>
   <i name="SYMPREC">      0.00001000</i>
  </separator>
  <separator name="dos" >
   <i type="int" name="LORBIT">     0</i>
   <v name="RWIGS">     -1.00000000</v>
   <i type="int" name="NEDOS">   301</i>
   <i name="EMIN">     10.00000000</i>
   <i name="EMAX">    -10.00000000</i>
   <i name="EFERMI">      0.00000000</i>
  </separator>
  <separator name="writing" >
   <i type="int" name="NWRITE">     2</i>
   <i type="logical" name="LWAVE"> F  </i>
   <i type="logical" name="LDOWNSAMPLE"> F  </i>
   <i type="logical" name="LCHARG"> F  </i>
   <i type="logical" name="LPARD"> F  </i>
   <i type="logical" name="LVTOT"> F  </i>
   <i type="logical" name="LVHAR"> F  </i>
   <i type="logical" name="LELF"> F  </i>
   <i type="logical" name="LOPTICS"> F  </i>
   <v name="STM">      0.00000000      0.00000000      0.00000000      0.00000000      0.00000000      0.00000000      0.00000000</v>
  </separator>
  <separator name="performance" >
   <i type="int" name="NPAR">     2</i>
   <i type="int" name="NSIM">     4</i>
   <i type="int" name="NBLK">    -1</i>
   <i type="logical" name="LPLANE"> T  </i>
   <i type="logical" name="LSCALAPACK"> T  </i>
   <i type="logical" name="LSCAAWARE"> F  </i>
   <i type="logical" name="LSCALU"> F  </i>
   <i type="logical" name="LASYNC"> F  </i>
   <i type="logical" name="LORBITALREAL"> F  </i>
  </separator>
  <separator name="miscellaneous" >
   <i type="int" name="IDIOT">     3</i>
   <i type="int" name="PHON_NSTRUCT">    -1</i>
   <i type="logical" name="LMUSIC"> F  </i>
   <v name="POMASS">     28.08500000</v>
   <v name="DARWINR">      0.00000000</v>
   <v name="DARWINV">      1.00000000</v>
   <i type="logical" name="LCORR"> T  </i>
  </separator>
  <i type="logical" name="GGA_COMPAT"> F  </i>
  <i type="logical" name="LBERRY"> F  </i>
  <i type="int" name="ICORELEVEL">     0</i>
  <i type="logical" name="LDAU"> F  </i>
  <i type="int" name="I_CONSTRAINED_M">     0</i>
  <separator name="electronic exchange-correlation" >
   <i type="string" name="GGA    ">PS</i>
   <i type="string" name="XC_C">1</i>
   <i type="int" name="VOSKOWN">     0</i>
   <i type="logical" name="LHFCALC"> F  </i>
   <i type="string" name="PRECFOCK"></i>
   <i type="logical" name="LSYMGRAD"> F  </i>
   <i type="logical" name="LHFONE"> F  </i>
   <i type="logical" name="LRHFCALC"> F  </i>
   <i type="logical" name="LTHOMAS"> F  </i>
   <i type="logical" name="LMODELHF"> F  </i>
   <i type="logical" name="LFOCKACE"> F  </i>
   <i name="ENCUT4O">     -1.00000000</i>
   <i type="int" name="EXXOEP">     0</i>
   <i type="int" name="FOURORBIT">     0</i>
   <i name="AEXX">      0.00000000</i>
   <i name="HFALPHA">      0.00000000</i>
   <i name="MCALPHA">      0.00000000</i>
   <i name="ALDAX">      1.00000000</i>
   <i name="AGGAX">      1.00000000</i>
   <i name="AMGGAX">      1.00000000</i>
   <i name="ALDAC">      1.00000000</i>
   <i name="AGGAC">      1.00000000</i>
   <i name="AMGGAC">      1.00000000</i>
   <i type="int" name="NKREDX">     1</i>
   <i type="int" name="NKREDY">     1</i>
   <i type="int" name="NKREDZ">     1</i>
   <i type="logical" name="SHIFTRED"> F  </i>
   <i type="logical" name="ODDONLY"> F  </i>
   <i type="logical" name="EVENONLY"> F  </i>
   <i type="int" name="LMAXFOCK">     0</i>
   <i type="int" name="NMAXFOCKAE">     0</i>
   <i type="logical" name="LFOCKAEDFT"> F  </i>
   <i name="HFSCREEN">      0.00000000</i>
   <i name="HFSCREENC">      0.00000000</i>
   <i type="int" name="NBANDSGWLOW">     0</i>
  </separator>
  <separator name="vdW DFT" >
   <i type="logical" name="LUSE_VDW"> F  </i>
   <i type="int" name="IVDW_NL">    -1</i>
   <i type="logical" name="LSPIN_VDW"> F  </i>
   <i name="ZAB_VDW">     -0.84910000</i>
   <i name="GAMMA_VDW">      1.39626340</i>
   <i name="ALPHA_VDW">      0.00000000</i>
   <i name="PARAM1">      0.12340000</i>
   <i name="PARAM2">      1.00000000</i>
   <i name="BPARAM">      6.30000000</i>
   <i name="CPARAM">      0.00930000</i>
  </separator>
  <separator name="model GW" >
   <i type="int" name="MODEL_GW">     0</i>
   <i name="MODEL_EPS0">     12.09957745</i>
   <i name="MODEL_ALPHA">      1.00000000</i>
  </separator>
  <separator name="linear response parameters" >
   <i type="logical" name="LEPSILON"> F  </i>
   <i type="logical" name="LRPA"> F  </i>
   <i type="logical" name="LNABLA"> F  </i>
   <i type="logical" name="LVEL"> F  </i>
   <i name="CSHIFT">      0.10000000</i>
   <i name="OMEGAMAX">     -1.00000000</i>
   <i name="DEG_THRESHOLD">      0.00200000</i>
   <i name="RTIME">     -0.10000000</i>
   <i name="WPLASMAI">      0.00000000</i>
   <v name="DFIELD">      0.00000000      0.00000000      0.00000000</v>
   <v name="WPLASMA">      0.00000000      0.00000000      0.00000000      0.00000000      0.00000000      0.00000000      0.00000000      0.00000000      0.00000000</v>
  </separator>
  <separator name="orbital magnetization" >
   <i type="logical" name="NUCIND"> F  </i>
   <v name="MAGPOS">      0.00000000      0.00000000      0.00000000</v>
   <i type="logical" name="LNICSALL"> T  </i>
   <i type="logical" name="ORBITALMAG"> F  </i>
   <i type="logical" name="LMAGBLOCH"> F  </i>
   <i type="logical" name="LCHIMAG"> F  </i>
   <i type="logical" name="LGAUGE"> T  </i>
   <i type="int" name="MAGATOM">     0</i>
   <v name="MAGDIPOL">      0.00000000      0.00000000      0.00000000</v>
   <v name="AVECCONST">      0.00000000      0.00000000      0.00000000</v>
  </separator>
  <separator name="response functions" >
   <i type="logical" name="LALL_IN_ONE"> F  </i>
   <i type="int" name="IALL_IN_ONE">    -1</i>
   <i type="int" name="NBANDS_WAVE">    -1</i>
   <i type="logical" name="LFINITE_TEMPERATURE"> F  </i>
   <i type="logical" name="LADDER"> F  </i>
   <i type="logical" name="LRPAFORCE"> F  </i>
   <i type="logical" name="LFXC"> F  </i>
   <i type="logical" name="LHARTREE"> T  </i>
   <i type="int" name="IBSE">     0</i>
   <v type="int" name="KPOINT">    -1     0     0     0</v>
   <i type="logical" name="LTCTC"> F  </i>
   <i type="logical" name="LTCTE"> F  </i>
   <i type="logical" name="LTETE"> F  </i>
   <i type="logical" name="LTRIPLET"> F  </i>
   <i type="logical" name="LFXCEPS"> F  </i>
   <i type="logical" name="LFXHEG"> F  </i>
   <i type="int" name="NATURALO">     2</i>
   <i type="logical" name="LHOLEGF"> F  </i>
   <i type="logical" name="L2ORDER"> F  </i>
   <i type="logical" name="LDMP1"> F  </i>
   <i type="logical" name="LMP2LT"> F  </i>
   <i type="logical" name="LSMP2LT"> F  </i>
   <i type="logical" name="LGWLF"> F  </i>
   <i name="ENCUTGW">     -1.60000002</i>
   <i name="ENCUTGWSOFT">     -1.60000002</i>
   <i name="ENCUTLF">     -1.00000000</i>
   <i type="logical" name="ESF_SPLINES"> F  </i>
   <i name="ESF_CONV">      0.01000000</i>
   <i type="int" name="ESF_NINTER">    15</i>
   <i type="int" name="LMAXMP2">    -1</i>
   <i name="SCISSOR">      0.00000000</i>
   <i type="int" name="NOMEGA">     0</i>
   <i type="int" name="NOMEGAR">     0</i>
   <i type="int" name="NBANDSGW">    -1</i>
   <i type="int" name="NBANDSO">    -1</i>
   <i type="int" name="NBANDSV">    -1</i>
   <i type="int" name="NELMGW">     1</i>
   <i type="int" name="NELMHF">     1</i>
   <i type="int" name="DIM">     3</i>
   <i type="int" name="IESPILON">     4</i>
   <i type="int" name="ANTIRES">     0</i>
   <i name="OMEGAMAX">    -30.00000000</i>
   <i name="OMEGAMIN">    -30.00000000</i>
   <i name="OMEGATL">   -200.00000000</i>
   <i type="int" name="OMEGAGRID">     0</i>
   <i name="CSHIFT">     -0.10000000</i>
   <i type="logical" name="LSELFENERGY"> F  </i>
   <i type="logical" name="LSPECTRAL"> F  </i>
   <i type="logical" name="LSPECTRALGW"> F  </i>
   <i type="logical" name="LSINGLES"> F  </i>
   <i type="logical" name="LFERMIGW"> F  </i>
   <i type="logical" name="ODDONLYGW"> F  </i>
   <i type="logical" name="EVENONLYGW"> F  </i>
   <i type="int" name="NKREDLFX">     1</i>
   <i type="int" name="NKREDLFY">     1</i>
   <i type="int" name="NKREDLFZ">     1</i>
   <i type="int" name="MAXMEM">  2800</i>
   <i type="int" name="TELESCOPE">     0</i>
   <i type="int" name="NTAUPAR">    -1</i>
   <i type="int" name="NOMEGAPAR">    -1</i>
   <i name="DAMP_NEWTON">      0.80000001</i>
   <i name="LAMBDA">      1.00000000</i>
  </separator>
  <separator name="External order field" >
   <i name="OFIELD_KAPPA">      0.00000000</i>
   <v name="OFIELD_K">      0.00000000      0.00000000      0.00000000</v>
   <i name="OFIELD_Q6_NEAR">      0.00000000</i>
   <i name="OFIELD_Q6_FAR">      0.00000000</i>
   <i name="OFIELD_A">      0.00000000</i>
  </separator>
  <separator name="optional k-points parameters" >
   <i type="int" name="KPOINTS_OPT_MODE">     1</i>
   <i type="logical" name="LKPOINTS_OPT"> F  </i>
  </separator>
 </parameters>
 <atominfo>
  <atoms>      64 </atoms>
  <types>       1 </types>
  <array name="atoms" >
   <dimension dim="1">ion</dimension>
   <field type="string">element</field>
   <field type="int">atomtype</field>
   <set>
    <rc><c>Si</c><c>   1</c></rc>
    <rc><c>Si</c><c>   1</c></rc>
    <rc><c>Si</c><c>   1</c></rc>
    <rc><c>Si</c><c>   1</c></rc>
    <rc><c>Si</c><c>   1</c></rc>
    <rc><c>Si</c><c>   1</c></rc>
    <rc><c>Si</c><c>   1</c></rc>
    <rc><c>Si</c><c>   1</c></rc>
    <rc><c>Si</c><c>   1</c></rc>
    <rc><c>Si</c><c>   1</c></rc>
    <rc><c>Si</c><c>   1</c></rc>
    <rc><c>Si</c><c>   1</c></rc>
    <rc><c>Si</c><c>   1</c></rc>
    <rc><c>Si</c><c>   1</c></rc>
    <rc><c>Si</c><c>   1</c></rc>
    <rc><c>Si</c><c>   1</c></rc>
    <rc><c>Si</c><c>   1</c></rc>
    <rc><c>Si</c><c>   1</c></rc>
    <rc><c>Si</c><c>   1</c></rc>
    <rc><c>Si</c><c>   1</c></rc>
    <rc><c>Si</c><c>   1</c></rc>
    <rc><c>Si</c><c>   1</c></rc>
    <rc><c>Si</c><c>   1</c></rc>
    <rc><c>Si</c><c>   1</c></rc>
    <rc><c>Si</c><c>   1</c></rc>
    <rc><c>Si</c><c>   1</c></rc>
    <rc><c>Si</c><c>   1</c></rc>
    <rc><c>Si</c><c>   1</c></rc>
    <rc><c>Si</c><c>   1</c></rc>
    <rc><c>Si</c><c>   1</c></rc>
    <rc><c>Si</c><c>   1</c></rc>
    <rc><c>Si</c><c>   1</c></rc>
    <rc><c>Si</c><c>   1</c></rc>
    <rc><c>Si</c><c>   1</c></rc>
    <rc><c>Si</c><c>   1</c></rc>
    <rc><c>Si</c><c>   1</c></rc>
    <rc><c>Si</c><c>   1</c></rc>
    <rc><c>Si</c><c>   1</c></rc>
    <rc><c>Si</c><c>   1</c></rc>
    <rc><c>Si</c><c>   1</c></rc>
    <rc><c>Si</c><c>   1</c></rc>
    <rc><c>Si</c><c>   1</c></rc>
    <rc><c>Si</c><c>   1</c></rc>
    <rc><c>Si</c><c>   1</c></rc>
    <rc><c>Si</c><c>   1</c></rc>
    <rc><c>Si</c><c>   1</c></rc>
    <rc><c>Si</c><c>   1</c></rc>
    <rc><c>Si</c><c>   1</c></rc>
    <rc><c>Si</c><c>   1</c></rc>
    <rc><c>Si</c><c>   1</c></rc>
    <rc><c>Si</c><c>   1</c></rc>
    <rc><c>Si</c><c>   1</c></rc>
    <rc><c>Si</c><c>   1</c></rc>
    <rc><c>Si</c><c>   1</c></rc>
    <rc><c>Si</c><c>   1</c></rc>
    <rc><c>Si</c><c>   1</c></rc>
    <rc><c>Si</c><c>   1</c></rc>
    <rc><c>Si</c><c>   1</c></rc>
    <rc><c>Si</c><c>   1</c></rc>
    <rc><c>Si</c><c>   1</c></rc>
    <rc><c>Si</c><c>   1</c></rc>
    <rc><c>Si</c><c>   1</c></rc>
    <rc><c>Si</c><c>   1</c></rc>
    <rc><c>Si</c><c>   1</c></rc>
   </set>
  </array>
  <array name="atomtypes" >
   <dimension dim="1">type</dimension>
   <field type="int">atomspertype</field>
   <field type="string">element</field>
   <field>mass</field>
   <field>valence</field>
   <field type="string">pseudopotential</field>
   <set>
    <rc><c>  64</c><c>Si</c><c>     28.08500000</c><c>      4.00000000</c><c>  PAW_PBE Si 05Jan2001                  </c></rc>
   </set>
  </array>
 </atominfo>
 <structure name="initialpos" >
  <crystal>
   <varray name="basis" >
    <v>      10.99642962       0.08125401       0.00000000 </v>
    <v>       0.08125401      10.83392060       0.00000000 </v>
    <v>       0.00000000       0.00000000      10.83392060 </v>
   </varray>
   <i name="volume">   1290.62159463 </i>
   <varray name="rec_basis" >
    <v>       0.09094365      -0.00068207       0.00000000 </v>
    <v>      -0.00068207       0.09230780       0.00000000 </v>
    <v>       0.00000000       0.00000000       0.09230269 </v>
   </varray>
  </crystal>
  <varray name="positions" >
   <v>       0.00000000       0.00000000       0.00000000 </v>
   <v>       0.00000000       0.00000000       0.50000000 </v>
   <v>       0.00000000       0.50000000       0.00000000 </v>
   <v>       0.00000000       0.50000000       0.50000000 </v>
   <v>       0.50000000       0.00000000       0.00000000 </v>
   <v>       0.50000000       0.00000000       0.50000000 </v>
   <v>       0.50000000       0.50000000       0.00000000 </v>
   <v>       0.50000000       0.50000000       0.50000000 </v>
   <v>       0.37500000       0.37500000       0.12500000 </v>
   <v>       0.37500000       0.37500000       0.62500000 </v>
   <v>       0.37500000       0.87500000       0.12500000 </v>
   <v>       0.37500000       0.87500000       0.62500000 </v>
   <v>       0.87500000       0.37500000       0.12500000 </v>
   <v>       0.87500000       0.37500000       0.62500000 </v>
   <v>       0.87500000       0.87500000       0.12500000 </v>
   <v>       0.87500000       0.87500000       0.62500000 </v>
   <v>       0.00000000       0.25000000       0.25000000 </v>
   <v>       0.00000000       0.25000000       0.75000000 </v>
   <v>       0.00000000       0.75000000       0.25000000 </v>
   <v>       0.00000000       0.75000000       0.75000000 </v>
   <v>       0.50000000       0.25000000       0.25000000 </v>
   <v>       0.50000000       0.25000000       0.75000000 </v>
   <v>       0.50000000       0.75000000       0.25000000 </v>
   <v>       0.50000000       0.75000000       0.75000000 </v>
   <v>       0.37500000       0.12500000       0.37500000 </v>
   <v>       0.37500000       0.12500000       0.87500000 </v>
   <v>       0.37500000       0.62500000       0.37500000 </v>
   <v>       0.37500000       0.62500000       0.87500000 </v>
   <v>       0.87500000       0.12500000       0.37500000 </v>
   <v>       0.87500000       0.12500000       0.87500000 </v>
   <v>       0.87500000       0.62500000       0.37500000 </v>
   <v>       0.87500000       0.62500000       0.87500000 </v>
   <v>       0.25000000       0.00000000       0.25000000 </v>
   <v>       0.25000000       0.00000000       0.75000000 </v>
   <v>       0.25000000       0.50000000       0.25000000 </v>
   <v>       0.25000000       0.50000000       0.75000000 </v>
   <v>       0.75000000       0.00000000       0.25000000 </v>
   <v>       0.75000000       0.00000000       0.75000000 </v>
   <v>       0.75000000       0.50000000       0.25000000 </v>
   <v>       0.75000000       0.50000000       0.75000000 </v>
   <v>       0.12500000       0.37500000       0.37500000 </v>
   <v>       0.12500000       0.37500000       0.87500000 </v>
   <v>       0.12500000       0.87500000       0.37500000 </v>
   <v>       0.12500000       0.87500000       0.87500000 </v>
   <v>       0.62500000       0.37500000       0.37500000 </v>
   <v>       0.62500000       0.37500000       0.87500000 </v>
   <v>       0.62500000       0.87500000       0.37500000 </v>
   <v>       0.62500000       0.87500000       0.87500000 </v>
   <v>       0.25000000       0.25000000       0.00000000 </v>
   <v>       0.25000000       0.25000000       0.50000000 </v>
   <v>       0.25000000       0.75000000       0.00000000 </v>
   <v>       0.25000000       0.75000000       0.50000000 </v>
   <v>       0.75000000       0.25000000       0.00000000 </v>
   <v>       0.75000000       0.25000000       0.50000000 </v>
   <v>       0.75000000       0.75000000       0.00000000 </v>
   <v>       0.75000000       0.75000000       0.50000000 </v>
   <v>       0.12500000       0.12500000       0.12500000 </v>
   <v>       0.12500000       0.12500000       0.62500000 </v>
   <v>       0.12500000       0.62500000       0.12500000 </v>
   <v>       0.12500000       0.62500000       0.62500000 </v>
   <v>       0.62500000       0.12500000       0.12500000 </v>
   <v>       0.62500000       0.12500000       0.62500000 </v>
   <v>       0.62500000       0.62500000       0.12500000 </v>
   <v>       0.62500000       0.62500000       0.62500000 </v>
  </varray>
 </structure>
 <calculation>
  <scstep>
   <time name="dav">    1.31    1.38</time>
   <time name="total">    1.50    1.59</time>
   <energy>
    <i name="alphaZ">    106.83548480 </i>
    <i name="ewald">  -7295.42300368 </i>
    <i name="hartreedc">   -355.73418938 </i>
    <i name="XCdc">   -559.45069543 </i>
    <i name="pawpsdc">   5598.62625415 </i>
    <i name="pawaedc">  -4492.17844134 </i>
    <i name="eentropy">     -0.01353094 </i>
    <i name="bandstr">    991.81083681 </i>
    <i name="atom">   6564.79586099 </i>
    <i name="e_fr_energy">    559.26857598 </i>
    <i name="e_wo_entrp">    559.28210692 </i>
    <i name="e_0_energy">    559.27308630 </i>
   </energy>
  </scstep>
  <scstep>
   <time name="dav">    1.38    1.38</time>
   <time name="total">    1.38    1.39</time>
   <energy>
    <i name="e_fr_energy">   -309.71721414 </i>
    <i name="e_wo_entrp">   -309.73619567 </i>
    <i name="e_0_energy">   -309.72354132 </i>
   </energy>
  </scstep>
  <scstep>
   <time name="dav">    1.39    1.40</time>
   <time name="total">    1.39    1.41</time>
   <energy>
    <i name="e_fr_energy">   -372.83791060 </i>
    <i name="e_wo_entrp">   -372.84524465 </i>
    <i name="e_0_energy">   -372.84035528 </i>
   </energy>
  </scstep>
  <scstep>
   <time name="dav">    1.40    1.41</time>
   <time name="total">    1.40    1.41</time>
   <energy>
    <i name="e_fr_energy">   -374.49687776 </i>
    <i name="e_wo_entrp">   -374.50489849 </i>
    <i name="e_0_energy">   -374.49955134 </i>
   </energy>
  </scstep>
  <scstep>
   <time name="dav">    1.39    1.43</time>
   <time name="total">    1.67    1.71</time>
   <energy>
    <i name="e_fr_energy">   -374.55146088 </i>
    <i name="e_wo_entrp">   -374.55961429 </i>
    <i name="e_0_energy">   -374.55417868 </i>
   </energy>
  </scstep>
  <scstep>
   <time name="diag">    0.14    0.14</time>
   <time name="diis">    0.73    0.74</time>
   <time name="orth">    0.02    0.02</time>
   <time name="total">    1.30    1.32</time>
   <energy>
    <i name="e_fr_energy">   -369.66574123 </i>
    <i name="e_wo_entrp">   -369.67497474 </i>
    <i name="e_0_energy">   -369.66881906 </i>
   </energy>
  </scstep>
  <scstep>
   <time name="diag">    0.13    0.13</time>
   <time name="diis">    0.74    0.74</time>
   <time name="orth">    0.02    0.02</time>
   <time name="total">    1.30    1.32</time>
   <energy>
    <i name="e_fr_energy">   -367.41154564 </i>
    <i name="e_wo_entrp">   -367.44052616 </i>
    <i name="e_0_energy">   -367.42120581 </i>
   </energy>
  </scstep>
  <scstep>
   <time name="diag">    0.13    0.13</time>
   <time name="diis">    0.74    0.74</time>
   <time name="orth">    0.02    0.02</time>
   <time name="total">    1.30    1.32</time>
   <energy>
    <i name="e_fr_energy">   -367.45879567 </i>
    <i name="e_wo_entrp">   -367.48609809 </i>
    <i name="e_0_energy">   -367.46789648 </i>
   </energy>
  </scstep>
  <scstep>
   <time name="diag">    0.13    0.13</time>
   <time name="diis">    0.75    0.75</time>
   <time name="orth">    0.02    0.02</time>
   <time name="total">    1.31    1.33</time>
   <energy>
    <i name="e_fr_energy">   -367.47761914 </i>
    <i name="e_wo_entrp">   -367.50535754 </i>
    <i name="e_0_energy">   -367.48686527 </i>
   </energy>
  </scstep>
  <scstep>
   <time name="diag">    0.13    0.13</time>
   <time name="diis">    0.76    0.76</time>
   <time name="orth">    0.02    0.02</time>
   <time name="total">    1.32    1.33</time>
   <energy>
    <i name="e_fr_energy">   -367.48096562 </i>
    <i name="e_wo_entrp">   -367.50875217 </i>
    <i name="e_0_energy">   -367.49022781 </i>
   </energy>
  </scstep>
  <scstep>
   <time name="diag">    0.13    0.13</time>
   <time name="diis">    0.72    0.72</time>
   <time name="orth">    0.02    0.02</time>
   <time name="total">    1.28    1.30</time>
   <energy>
    <i name="e_fr_energy">   -367.47901239 </i>
    <i name="e_wo_entrp">   -367.50606125 </i>
    <i name="e_0_energy">   -367.48802868 </i>
   </energy>
  </scstep>
  <scstep>
   <time name="diag">    0.13    0.13</time>
   <time name="diis">    0.72    0.72</time>
   <time name="orth">    0.02    0.02</time>
   <time name="total">    1.28    1.30</time>
   <energy>
    <i name="e_fr_energy">   -367.47914917 </i>
    <i name="e_wo_entrp">   -367.50615277 </i>
    <i name="e_0_energy">   -367.48815037 </i>
   </energy>
  </scstep>
  <scstep>
   <time name="diag">    0.13    0.13</time>
   <time name="diis">    0.77    0.78</time>
   <time name="orth">    0.02    0.02</time>
   <time name="total">    1.34    1.36</time>
   <energy>
    <i name="e_fr_energy">   -367.47919283 </i>
    <i name="e_wo_entrp">   -367.50620485 </i>
    <i name="e_0_energy">   -367.48819684 </i>
   </energy>
  </scstep>
  <scstep>
   <time name="diag">    0.13    0.13</time>
   <time name="diis">    0.72    0.73</time>
   <time name="orth">    0.02    0.02</time>
   <time name="total">    1.28    1.30</time>
   <energy>
    <i name="e_fr_energy">   -367.47924154 </i>
    <i name="e_wo_entrp">   -367.50621306 </i>
    <i name="e_0_energy">   -367.48823205 </i>
   </energy>
  </scstep>
  <scstep>
   <time name="diag">    0.13    0.13</time>
   <time name="diis">    0.74    0.75</time>
   <time name="orth">    0.02    0.02</time>
   <time name="total">    1.31    1.34</time>
   <energy>
    <i name="e_fr_energy">   -367.47929448 </i>
    <i name="e_wo_entrp">   -367.50623860 </i>
    <i name="e_0_energy">   -367.48827585 </i>
   </energy>
  </scstep>
  <scstep>
   <time name="diag">    0.13    0.13</time>
   <time name="diis">    0.71    0.75</time>
   <time name="orth">    0.02    0.02</time>
   <time name="total">    1.28    1.33</time>
   <energy>
    <i name="e_fr_energy">   -367.47932352 </i>
    <i name="e_wo_entrp">   -367.50626711 </i>
    <i name="e_0_energy">   -367.48830472 </i>
   </energy>
  </scstep>
  <scstep>
   <time name="diag">    0.13    0.13</time>
   <time name="diis">    0.72    0.72</time>
   <time name="orth">    0.02    0.02</time>
   <time name="total">    1.28    1.30</time>
   <energy>
    <i name="e_fr_energy">   -367.47933364 </i>
    <i name="e_wo_entrp">   -367.50627547 </i>
    <i name="e_0_energy">   -367.48831425 </i>
   </energy>
  </scstep>
  <scstep>
   <time name="diag">    0.13    0.13</time>
   <time name="diis">    0.52    0.53</time>
   <time name="orth">    0.02    0.02</time>
   <time name="total">    0.83    0.86</time>
   <energy>
    <i name="alphaZ">    106.83548480 </i>
    <i name="ewald">  -7295.42300368 </i>
    <i name="hartreedc">   -470.82354217 </i>
    <i name="XCdc">   -540.08192070 </i>
    <i name="pawpsdc">  27336.51027084 </i>
    <i name="pawaedc"> -26236.77085784 </i>
    <i name="eentropy">      0.02694366 </i>
    <i name="bandstr">    167.45142949 </i>
    <i name="atom">   6564.79586099 </i>
    <i name="e_fr_energy">   -367.47933461 </i>
    <i name="e_wo_entrp">   -367.50627827 </i>
    <i name="e_0_energy">   -367.48831583 </i>
   </energy>
  </scstep>
  <structure>
   <crystal>
    <varray name="basis" >
     <v>      10.99642962       0.08125401       0.00000000 </v>
     <v>       0.08125401      10.83392060       0.00000000 </v>
     <v>       0.00000000       0.00000000      10.83392060 </v>
    </varray>
    <i name="volume">   1290.62159463 </i>
    <varray name="rec_basis" >
     <v>       0.09094365      -0.00068207       0.00000000 </v>
     <v>      -0.00068207       0.09230780       0.00000000 </v>
     <v>       0.00000000       0.00000000       0.09230269 </v>
    </varray>
   </crystal>
   <varray name="positions" >
    <v>       0.00000000       0.00000000       0.00000000 </v>
    <v>       0.00000000       0.00000000       0.50000000 </v>
    <v>       0.00000000       0.50000000       0.00000000 </v>
    <v>       0.00000000       0.50000000       0.50000000 </v>
    <v>       0.50000000       0.00000000       0.00000000 </v>
    <v>       0.50000000       0.00000000       0.50000000 </v>
    <v>       0.50000000       0.50000000       0.00000000 </v>
    <v>       0.50000000       0.50000000       0.50000000 </v>
    <v>       0.37500000       0.37500000       0.12500000 </v>
    <v>       0.37500000       0.37500000       0.62500000 </v>
    <v>       0.37500000       0.87500000       0.12500000 </v>
    <v>       0.37500000       0.87500000       0.62500000 </v>
    <v>       0.87500000       0.37500000       0.12500000 </v>
    <v>       0.87500000       0.37500000       0.62500000 </v>
    <v>       0.87500000       0.87500000       0.12500000 </v>
    <v>       0.87500000       0.87500000       0.62500000 </v>
    <v>       0.00000000       0.25000000       0.25000000 </v>
    <v>       0.00000000       0.25000000       0.75000000 </v>
    <v>       0.00000000       0.75000000       0.25000000 </v>
    <v>       0.00000000       0.75000000       0.75000000 </v>
    <v>       0.50000000       0.25000000       0.25000000 </v>
    <v>       0.50000000       0.25000000       0.75000000 </v>
    <v>       0.50000000       0.75000000       0.25000000 </v>
    <v>       0.50000000       0.75000000       0.75000000 </v>
    <v>       0.37500000       0.12500000       0.37500000 </v>
    <v>       0.37500000       0.12500000       0.87500000 </v>
    <v>       0.37500000       0.62500000       0.37500000 </v>
    <v>       0.37500000       0.62500000       0.87500000 </v>
    <v>       0.87500000       0.12500000       0.37500000 </v>
    <v>       0.87500000       0.12500000       0.87500000 </v>
    <v>       0.87500000       0.62500000       0.37500000 </v>
    <v>       0.87500000       0.62500000       0.87500000 </v>
    <v>       0.25000000       0.00000000       0.25000000 </v>
    <v>       0.25000000       0.00000000       0.75000000 </v>
    <v>       0.25000000       0.50000000       0.25000000 </v>
    <v>       0.25000000       0.50000000       0.75000000 </v>
    <v>       0.75000000       0.00000000       0.25000000 </v>
    <v>       0.75000000       0.00000000       0.75000000 </v>
    <v>       0.75000000       0.50000000       0.25000000 </v>
    <v>       0.75000000       0.50000000       0.75000000 </v>
    <v>       0.12500000       0.37500000       0.37500000 </v>
    <v>       0.12500000       0.37500000       0.87500000 </v>
    <v>       0.12500000       0.87500000       0.37500000 </v>
    <v>       0.12500000       0.87500000       0.87500000 </v>
    <v>       0.62500000       0.37500000       0.37500000 </v>
    <v>       0.62500000       0.37500000       0.87500000 </v>
    <v>       0.62500000       0.87500000       0.37500000 </v>
    <v>       0.62500000       0.87500000       0.87500000 </v>
    <v>       0.25000000       0.25000000       0.00000000 </v>
    <v>       0.25000000       0.25000000       0.50000000 </v>
    <v>       0.25000000       0.75000000       0.00000000 </v>
    <v>       0.25000000       0.75000000       0.50000000 </v>
    <v>       0.75000000       0.25000000       0.00000000 </v>
    <v>       0.75000000       0.25000000       0.50000000 </v>
    <v>       0.75000000       0.75000000       0.00000000 </v>
    <v>       0.75000000       0.75000000       0.50000000 </v>
    <v>       0.12500000       0.12500000       0.12500000 </v>
    <v>       0.12500000       0.12500000       0.62500000 </v>
    <v>       0.12500000       0.62500000       0.12500000 </v>
    <v>       0.12500000       0.62500000       0.62500000 </v>
    <v>       0.62500000       0.12500000       0.12500000 </v>
    <v>       0.62500000       0.12500000       0.62500000 </v>
    <v>       0.62500000       0.62500000       0.12500000 </v>
    <v>       0.62500000       0.62500000       0.62500000 </v>
   </varray>
  </structure>
  <varray name="forces" >
   <v>      -0.00000000      -0.00000000       0.14451209 </v>
   <v>      -0.00000000      -0.00000000       0.14451209 </v>
   <v>      -0.00000000      -0.00000000       0.14451209 </v>
   <v>      -0.00000000      -0.00000000       0.14451209 </v>
   <v>       0.00000000       0.00000000       0.14451209 </v>
   <v>      -0.00000000       0.00000000       0.14451209 </v>
   <v>       0.00000000       0.00000000       0.14451209 </v>
   <v>       0.00000000      -0.00000000       0.14451209 </v>
   <v>       0.00000000       0.00000000      -0.14451209 </v>
   <v>       0.00000000       0.00000000      -0.14451209 </v>
   <v>      -0.00000000      -0.00000000      -0.14451209 </v>
   <v>      -0.00000000      -0.00000000      -0.14451209 </v>
   <v>       0.00000000       0.00000000      -0.14451209 </v>
   <v>       0.00000000      -0.00000000      -0.14451209 </v>
   <v>       0.00000000      -0.00000000      -0.14451209 </v>
   <v>       0.00000000       0.00000000      -0.14451209 </v>
   <v>      -0.00000000      -0.00000000       0.14451209 </v>
   <v>      -0.00000000      -0.00000000       0.14451209 </v>
   <v>      -0.00000000      -0.00000000       0.14451209 </v>
   <v>      -0.00000000      -0.00000000       0.14451209 </v>
   <v>      -0.00000000       0.00000000       0.14451209 </v>
   <v>       0.00000000       0.00000000       0.14451209 </v>
   <v>      -0.00000000       0.00000000       0.14451209 </v>
   <v>       0.00000000       0.00000000       0.14451209 </v>
   <v>      -0.00000000      -0.00000000      -0.14451209 </v>
   <v>       0.00000000       0.00000000      -0.14451209 </v>
   <v>       0.00000000       0.00000000      -0.14451209 </v>
   <v>       0.00000000       0.00000000      -0.14451209 </v>
   <v>       0.00000000       0.00000000      -0.14451209 </v>
   <v>       0.00000000       0.00000000      -0.14451209 </v>
   <v>       0.00000000      -0.00000000      -0.14451209 </v>
   <v>       0.00000000      -0.00000000      -0.14451209 </v>
   <v>      -0.00000000      -0.00000000       0.14451209 </v>
   <v>       0.00000000      -0.00000000       0.14451209 </v>
   <v>      -0.00000000      -0.00000000       0.14451209 </v>
   <v>      -0.00000000      -0.00000000       0.14451209 </v>
   <v>       0.00000000      -0.00000000       0.14451209 </v>
   <v>       0.00000000       0.00000000       0.14451209 </v>
   <v>       0.00000000       0.00000000       0.14451209 </v>
   <v>       0.00000000       0.00000000       0.14451209 </v>
   <v>       0.00000000       0.00000000      -0.14451209 </v>
   <v>      -0.00000000       0.00000000      -0.14451209 </v>
   <v>      -0.00000000       0.00000000      -0.14451209 </v>
   <v>      -0.00000000      -0.00000000      -0.14451209 </v>
   <v>      -0.00000000       0.00000000      -0.14451209 </v>
   <v>      -0.00000000      -0.00000000      -0.14451209 </v>
   <v>      -0.00000000      -0.00000000      -0.14451209 </v>
   <v>      -0.00000000      -0.00000000      -0.14451209 </v>
   <v>      -0.00000000       0.00000000       0.14451209 </v>
   <v>      -0.00000000      -0.00000000       0.14451209 </v>
   <v>      -0.00000000       0.00000000       0.14451209 </v>
   <v>      -0.00000000      -0.00000000       0.14451209 </v>
   <v>       0.00000000       0.00000000       0.14451209 </v>
   <v>       0.00000000      -0.00000000       0.14451209 </v>
   <v>       0.00000000      -0.00000000       0.14451209 </v>
   <v>       0.00000000      -0.00000000       0.14451209 </v>
   <v>      -0.00000000       0.00000000      -0.14451209 </v>
   <v>       0.00000000       0.00000000      -0.14451209 </v>
   <v>      -0.00000000       0.00000000      -0.14451209 </v>
   <v>      -0.00000000       0.00000000      -0.14451209 </v>
   <v>      -0.00000000      -0.00000000      -0.14451209 </v>
   <v>      -0.00000000      -0.00000000      -0.14451209 </v>
   <v>       0.00000000      -0.00000000      -0.14451209 </v>
   <v>      -0.00000000      -0.00000000      -0.14451209 </v>
  </varray>
  <varray name="stress" >
   <v>     -13.42400482     -14.97084553       0.00000000 </v>
   <v>     -14.97084538       0.89499759       0.00000000 </v>
   <v>       0.00000000       0.00000000       0.64222475 </v>
  </varray>
  <energy>
   <i name="e_fr_energy">   -367.47933461 </i>
   <i name="e_wo_entrp">   -367.50627827 </i>
   <i name="e_0_energy">   -367.48831583 </i>
  </energy>
  <time name="totalsc">   27.42   27.93</time>
 </calculation>
 <calculation>
  <scstep>
   <time name="dav">    1.31    1.31</time>
   <time name="total">    1.71    1.72</time>
   <energy>
    <i name="alphaZ">    106.83548480 </i>
    <i name="ewald">  -7295.86936652 </i>
    <i name="hartreedc">   -470.60738410 </i>
    <i name="XCdc">   -540.08956222 </i>
    <i name="pawpsdc">  27335.95561379 </i>
    <i name="pawaedc"> -26236.21641345 </i>
    <i name="eentropy">      0.02614299 </i>
    <i name="bandstr">    167.67215510 </i>
    <i name="atom">   6564.79586099 </i>
    <i name="e_fr_energy">   -367.49746860 </i>
    <i name="e_wo_entrp">   -367.52361159 </i>
    <i name="e_0_energy">   -367.50618293 </i>
   </energy>
  </scstep>
  <scstep>
   <time name="diag">    0.13    0.13</time>
   <time name="diis">    0.72    0.73</time>
   <time name="orth">    0.02    0.02</time>
   <time name="total">    1.27    1.30</time>
   <energy>
    <i name="e_fr_energy">   -367.50164448 </i>
    <i name="e_wo_entrp">   -367.52775282 </i>
    <i name="e_0_energy">   -367.51034726 </i>
   </energy>
  </scstep>
  <scstep>
   <time name="diag">    0.13    0.13</time>
   <time name="diis">    0.74    0.74</time>
   <time name="orth">    0.02    0.02</time>
   <time name="total">    1.30    1.32</time>
   <energy>
    <i name="e_fr_energy">   -367.50237831 </i>
    <i name="e_wo_entrp">   -367.52852949 </i>
    <i name="e_0_energy">   -367.51109537 </i>
   </energy>
  </scstep>
  <scstep>
   <time name="diag">    0.13    0.13</time>
   <time name="diis">    0.73    0.74</time>
   <time name="orth">    0.02    0.02</time>
   <time name="total">    1.29    1.32</time>
   <energy>
    <i name="e_fr_energy">   -367.50239574 </i>
    <i name="e_wo_entrp">   -367.52859665 </i>
    <i name="e_0_energy">   -367.51112937 </i>
   </energy>
  </scstep>
  <scstep>
   <time name="diag">    0.13    0.13</time>
   <time name="diis">    0.75    0.75</time>
   <time name="orth">    0.02    0.02</time>
   <time name="total">    1.31    1.32</time>
   <energy>
    <i name="e_fr_energy">   -367.50240287 </i>
    <i name="e_wo_entrp">   -367.52862338 </i>
    <i name="e_0_energy">   -367.51114304 </i>
   </energy>
  </scstep>
  <scstep>
   <time name="diag">    0.13    0.13</time>
   <time name="diis">    0.77    0.77</time>
   <time name="orth">    0.02    0.02</time>
   <time name="total">    1.36    1.37</time>
   <energy>
    <i name="e_fr_energy">   -367.50240691 </i>
    <i name="e_wo_entrp">   -367.52862753 </i>
    <i name="e_0_energy">   -367.51114712 </i>
   </energy>
  </scstep>
  <scstep>
   <time name="diag">    0.13    0.13</time>
   <time name="diis">    0.59    0.59</time>
   <time name="orth">    0.02    0.02</time>
   <time name="total">    1.17    1.17</time>
   <energy>
    <i name="e_fr_energy">   -367.50240741 </i>
    <i name="e_wo_entrp">   -367.52862792 </i>
    <i name="e_0_energy">   -367.51114758 </i>
   </energy>
  </scstep>
  <scstep>
   <time name="diag">    0.14    0.14</time>
   <time name="diis">    0.49    0.49</time>
   <time name="orth">    0.02    0.02</time>
   <time name="total">    0.80    0.82</time>
   <energy>
    <i name="alphaZ">    106.83548480 </i>
    <i name="ewald">  -7295.86936652 </i>
    <i name="hartreedc">   -470.58901003 </i>
    <i name="XCdc">   -540.09594429 </i>
    <i name="pawpsdc">  27328.04497682 </i>
    <i name="pawaedc"> -26228.29784896 </i>
    <i name="eentropy">      0.02622052 </i>
    <i name="bandstr">    167.64721917 </i>
    <i name="atom">   6564.79586099 </i>
    <i name="e_fr_energy">   -367.50240751 </i>
    <i name="e_wo_entrp">   -367.52862803 </i>
    <i name="e_0_energy">   -367.51114768 </i>
   </energy>
  </scstep>
  <structure>
   <crystal>
    <varray name="basis" >
     <v>      10.99642962       0.08125401       0.00000000 </v>
     <v>       0.08125401      10.83392060       0.00000000 </v>
     <v>       0.00000000       0.00000000      10.83392060 </v>
    </varray>
    <i name="volume">   1290.62159463 </i>
    <varray name="rec_basis" >
     <v>       0.09094365      -0.00068207       0.00000000 </v>
     <v>      -0.00068207       0.09230780       0.00000000 </v>
     <v>       0.00000000       0.00000000       0.09230269 </v>
    </varray>
   </crystal>
   <varray name="positions" >
    <v>       1.00000000       1.00000000       0.00064350 </v>
    <v>       1.00000000       1.00000000       0.50064350 </v>
    <v>       1.00000000       0.50000000       0.00064350 </v>
    <v>       1.00000000       0.50000000       0.50064350 </v>
    <v>       0.50000000       0.00000000       0.00064350 </v>
    <v>       0.50000000       0.00000000       0.50064350 </v>
    <v>       0.50000000       0.50000000       0.00064350 </v>
    <v>       0.50000000       0.50000000       0.50064350 </v>
    <v>       0.37500000       0.37500000       0.12435650 </v>
    <v>       0.37500000       0.37500000       0.62435650 </v>
    <v>       0.37500000       0.87500000       0.12435650 </v>
    <v>       0.37500000       0.87500000       0.62435650 </v>
    <v>       0.87500000       0.37500000       0.12435650 </v>
    <v>       0.87500000       0.37500000       0.62435650 </v>
    <v>       0.87500000       0.87500000       0.12435650 </v>
    <v>       0.87500000       0.87500000       0.62435650 </v>
    <v>       1.00000000       0.25000000       0.25064350 </v>
    <v>       1.00000000       0.25000000       0.75064350 </v>
    <v>       1.00000000       0.75000000       0.25064350 </v>
    <v>       1.00000000       0.75000000       0.75064350 </v>
    <v>       0.50000000       0.25000000       0.25064350 </v>
    <v>       0.50000000       0.25000000       0.75064350 </v>
    <v>       0.50000000       0.75000000       0.25064350 </v>
    <v>       0.50000000       0.75000000       0.75064350 </v>
    <v>       0.37500000       0.12500000       0.37435650 </v>
    <v>       0.37500000       0.12500000       0.87435650 </v>
    <v>       0.37500000       0.62500000       0.37435650 </v>
    <v>       0.37500000       0.62500000       0.87435650 </v>
    <v>       0.87500000       0.12500000       0.37435650 </v>
    <v>       0.87500000       0.12500000       0.87435650 </v>
    <v>       0.87500000       0.62500000       0.37435650 </v>
    <v>       0.87500000       0.62500000       0.87435650 </v>
    <v>       0.25000000       1.00000000       0.25064350 </v>
    <v>       0.25000000       1.00000000       0.75064350 </v>
    <v>       0.25000000       0.50000000       0.25064350 </v>
    <v>       0.25000000       0.50000000       0.75064350 </v>
    <v>       0.75000000       1.00000000       0.25064350 </v>
    <v>       0.75000000       0.00000000       0.75064350 </v>
    <v>       0.75000000       0.50000000       0.25064350 </v>
    <v>       0.75000000       0.50000000       0.75064350 </v>
    <v>       0.12500000       0.37500000       0.37435650 </v>
    <v>       0.12500000       0.37500000       0.87435650 </v>
    <v>       0.12500000       0.87500000       0.37435650 </v>
    <v>       0.12500000       0.87500000       0.87435650 </v>
    <v>       0.62500000       0.37500000       0.37435650 </v>
    <v>       0.62500000       0.37500000       0.87435650 </v>
    <v>       0.62500000       0.87500000       0.37435650 </v>
    <v>       0.62500000       0.87500000       0.87435650 </v>
    <v>       0.25000000       0.25000000       0.00064350 </v>
    <v>       0.25000000       0.25000000       0.50064350 </v>
    <v>       0.25000000       0.75000000       0.00064350 </v>
    <v>       0.25000000       0.75000000       0.50064350 </v>
    <v>       0.75000000       0.25000000       0.00064350 </v>
    <v>       0.75000000       0.25000000       0.50064350 </v>
    <v>       0.75000000       0.75000000       0.00064350 </v>
    <v>       0.75000000       0.75000000       0.50064350 </v>
    <v>       0.12500000       0.12500000       0.12435650 </v>
    <v>       0.12500000       0.12500000       0.62435650 </v>
    <v>       0.12500000       0.62500000       0.12435650 </v>
    <v>       0.12500000       0.62500000       0.62435650 </v>
    <v>       0.62500000       0.12500000       0.12435650 </v>
    <v>       0.62500000       0.12500000       0.62435650 </v>
    <v>       0.62500000       0.62500000       0.12435650 </v>
    <v>       0.62500000       0.62500000       0.62435650 </v>
   </varray>
  </structure>
  <varray name="forces" >
   <v>       0.00000000       0.00000000      -0.04091018 </v>
   <v>       0.00000000      -0.00000000      -0.04091018 </v>
   <v>       0.00000000      -0.00000000      -0.04091018 </v>
   <v>       0.00000000      -0.00000000      -0.04091018 </v>
   <v>      -0.00000000      -0.00000000      -0.04091018 </v>
   <v>       0.00000000      -0.00000000      -0.04091018 </v>
   <v>      -0.00000000      -0.00000000      -0.04091018 </v>
   <v>       0.00000000      -0.00000000      -0.04091018 </v>
   <v>      -0.00000000       0.00000000       0.04091018 </v>
   <v>      -0.00000000       0.00000000       0.04091018 </v>
   <v>      -0.00000000      -0.00000000       0.04091018 </v>
   <v>      -0.00000000       0.00000000       0.04091018 </v>
   <v>       0.00000000       0.00000000       0.04091018 </v>
   <v>      -0.00000000       0.00000000       0.04091018 </v>
   <v>       0.00000000      -0.00000000       0.04091018 </v>
   <v>      -0.00000000       0.00000000       0.04091018 </v>
   <v>       0.00000000      -0.00000000      -0.04091018 </v>
   <v>       0.00000000      -0.00000000      -0.04091018 </v>
   <v>       0.00000000      -0.00000000      -0.04091018 </v>
   <v>      -0.00000000      -0.00000000      -0.04091018 </v>
   <v>       0.00000000      -0.00000000      -0.04091018 </v>
   <v>       0.00000000       0.00000000      -0.04091018 </v>
   <v>       0.00000000      -0.00000000      -0.04091018 </v>
   <v>      -0.00000000      -0.00000000      -0.04091018 </v>
   <v>      -0.00000000      -0.00000000       0.04091018 </v>
   <v>      -0.00000000       0.00000000       0.04091018 </v>
   <v>      -0.00000000       0.00000000       0.04091018 </v>
   <v>      -0.00000000      -0.00000000       0.04091018 </v>
   <v>       0.00000000       0.00000000       0.04091018 </v>
   <v>       0.00000000       0.00000000       0.04091018 </v>
   <v>       0.00000000       0.00000000       0.04091018 </v>
   <v>      -0.00000000       0.00000000       0.04091018 </v>
   <v>      -0.00000000      -0.00000000      -0.04091018 </v>
   <v>       0.00000000      -0.00000000      -0.04091018 </v>
   <v>      -0.00000000       0.00000000      -0.04091018 </v>
   <v>       0.00000000       0.00000000      -0.04091018 </v>
   <v>      -0.00000000       0.00000000      -0.04091018 </v>
   <v>      -0.00000000       0.00000000      -0.04091018 </v>
   <v>      -0.00000000       0.00000000      -0.04091018 </v>
   <v>      -0.00000000       0.00000000      -0.04091018 </v>
   <v>       0.00000000       0.00000000       0.04091018 </v>
   <v>       0.00000000       0.00000000       0.04091018 </v>
   <v>       0.00000000       0.00000000       0.04091018 </v>
   <v>       0.00000000       0.00000000       0.04091018 </v>
   <v>      -0.00000000      -0.00000000       0.04091018 </v>
   <v>       0.00000000      -0.00000000       0.04091018 </v>
   <v>      -0.00000000      -0.00000000       0.04091018 </v>
   <v>      -0.00000000      -0.00000000       0.04091018 </v>
   <v>      -0.00000000       0.00000000      -0.04091018 </v>
   <v>       0.00000000      -0.00000000      -0.04091018 </v>
   <v>      -0.00000000      -0.00000000      -0.04091018 </v>
   <v>       0.00000000      -0.00000000      -0.04091018 </v>
   <v>       0.00000000       0.00000000      -0.04091018 </v>
   <v>      -0.00000000       0.00000000      -0.04091018 </v>
   <v>      -0.00000000       0.00000000      -0.04091018 </v>
   <v>      -0.00000000       0.00000000      -0.04091018 </v>
   <v>       0.00000000       0.00000000       0.04091018 </v>
   <v>       0.00000000       0.00000000       0.04091018 </v>
   <v>       0.00000000       0.00000000       0.04091018 </v>
   <v>       0.00000000       0.00000000       0.04091018 </v>
   <v>      -0.00000000      -0.00000000       0.04091018 </v>
   <v>      -0.00000000      -0.00000000       0.04091018 </v>
   <v>      -0.00000000      -0.00000000       0.04091018 </v>
   <v>       0.00000000      -0.00000000       0.04091018 </v>
  </varray>
  <varray name="stress" >
   <v>     -13.65428159      -9.63392442       0.00000000 </v>
   <v>      -9.63392443       0.73631751       0.00000000 </v>
   <v>       0.00000000       0.00000000       0.24027696 </v>
  </varray>
  <energy>
   <i name="e_fr_energy">   -367.50240751 </i>
   <i name="e_wo_entrp">   -367.52862803 </i>
   <i name="e_0_energy">   -367.51114768 </i>
  </energy>
  <time name="totalsc">   13.83   13.98</time>
 </calculation>
 <calculation>
  <scstep>
   <time name="dav">    1.33    1.33</time>
   <time name="total">    1.73    1.73</time>
   <energy>
    <i name="alphaZ">    106.83548480 </i>
    <i name="ewald">  -7295.78342271 </i>
    <i name="hartreedc">   -470.63923410 </i>
    <i name="XCdc">   -540.09369573 </i>
    <i name="pawpsdc">  27327.86764598 </i>
    <i name="pawaedc"> -26228.12050443 </i>
    <i name="eentropy">      0.02660125 </i>
    <i name="bandstr">    167.60704749 </i>
    <i name="atom">   6564.79586099 </i>
    <i name="e_fr_energy">   -367.50421646 </i>
    <i name="e_wo_entrp">   -367.53081771 </i>
    <i name="e_0_energy">   -367.51308354 </i>
   </energy>
  </scstep>
  <scstep>
   <time name="diag">    0.14    0.14</time>
   <time name="diis">    0.74    0.74</time>
   <time name="orth">    0.02    0.02</time>
   <time name="total">    1.31    1.32</time>
   <energy>
    <i name="e_fr_energy">   -367.50441736 </i>
    <i name="e_wo_entrp">   -367.53102259 </i>
    <i name="e_0_energy">   -367.51328577 </i>
   </energy>
  </scstep>
  <scstep>
   <time name="diag">    0.14    0.14</time>
   <time name="diis">    0.75    0.76</time>
   <time name="orth">    0.02    0.02</time>
   <time name="total">    1.31    1.34</time>
   <energy>
    <i name="e_fr_energy">   -367.50445194 </i>
    <i name="e_wo_entrp">   -367.53105211 </i>
    <i name="e_0_energy">   -367.51331866 </i>
   </energy>
  </scstep>
  <scstep>
   <time name="diag">    0.13    0.13</time>
   <time name="diis">    0.75    0.75</time>
   <time name="orth">    0.02    0.02</time>
   <time name="total">    1.31    1.33</time>
   <energy>
    <i name="e_fr_energy">   -367.50445304 </i>
    <i name="e_wo_entrp">   -367.53104716 </i>
    <i name="e_0_energy">   -367.51331775 </i>
   </energy>
  </scstep>
  <scstep>
   <time name="diag">    0.13    0.13</time>
   <time name="diis">    0.65    0.66</time>
   <time name="orth">    0.02    0.02</time>
   <time name="total">    1.22    1.23</time>
   <energy>
    <i name="e_fr_energy">   -367.50445347 </i>
    <i name="e_wo_entrp">   -367.53104511 </i>
    <i name="e_0_energy">   -367.51331735 </i>
   </energy>
  </scstep>
  <scstep>
   <time name="diag">    0.13    0.13</time>
   <time name="diis">    0.50    0.50</time>
   <time name="orth">    0.02    0.02</time>
   <time name="total">    1.06    1.08</time>
   <energy>
    <i name="e_fr_energy">   -367.50445363 </i>
    <i name="e_wo_entrp">   -367.53104521 </i>
    <i name="e_0_energy">   -367.51331749 </i>
   </energy>
  </scstep>
  <scstep>
   <time name="diag">    0.13    0.13</time>
   <time name="diis">    0.46    0.46</time>
   <time name="orth">    0.02    0.02</time>
   <time name="total">    1.02    1.04</time>
   <energy>
    <i name="e_fr_energy">   -367.50445367 </i>
    <i name="e_wo_entrp">   -367.53104527 </i>
    <i name="e_0_energy">   -367.51331753 </i>
   </energy>
  </scstep>
  <scstep>
   <time name="diag">    0.16    0.16</time>
   <time name="diis">    0.40    0.40</time>
   <time name="orth">    0.02    0.02</time>
   <time name="total">    0.75    0.77</time>
   <energy>
    <i name="alphaZ">    106.83548480 </i>
    <i name="ewald">  -7295.78342271 </i>
    <i name="hartreedc">   -470.64634750 </i>
    <i name="XCdc">   -540.09196140 </i>
    <i name="pawpsdc">  27330.88857233 </i>
    <i name="pawaedc"> -26231.14289927 </i>
    <i name="eentropy">      0.02659160 </i>
    <i name="bandstr">    167.61366749 </i>
    <i name="atom">   6564.79586099 </i>
    <i name="e_fr_energy">   -367.50445368 </i>
    <i name="e_wo_entrp">   -367.53104527 </i>
    <i name="e_0_energy">   -367.51331754 </i>
   </energy>
  </scstep>
  <structure>
   <crystal>
    <varray name="basis" >
     <v>      10.99642962       0.08125401       0.00000000 </v>
     <v>       0.08125401      10.83392060       0.00000000 </v>
     <v>       0.00000000       0.00000000      10.83392060 </v>
    </varray>
    <i name="volume">   1290.62159463 </i>
    <varray name="rec_basis" >
     <v>       0.09094365      -0.00068207       0.00000000 </v>
     <v>      -0.00068207       0.09230780       0.00000000 </v>
     <v>       0.00000000       0.00000000       0.09230269 </v>
    </varray>
   </crystal>
   <varray name="positions" >
    <v>       0.00000000       0.00000000       0.00050152 </v>
    <v>       0.00000000       0.00000000       0.50050152 </v>
    <v>       0.00000000       0.50000000       0.00050152 </v>
    <v>       0.00000000       0.50000000       0.50050152 </v>
    <v>       0.50000000       0.00000000       0.00050152 </v>
    <v>       0.50000000       0.00000000       0.50050152 </v>
    <v>       0.50000000       0.50000000       0.00050152 </v>
    <v>       0.50000000       0.50000000       0.50050152 </v>
    <v>       0.37500000       0.37500000       0.12449848 </v>
    <v>       0.37500000       0.37500000       0.62449848 </v>
    <v>       0.37500000       0.87500000       0.12449848 </v>
    <v>       0.37500000       0.87500000       0.62449848 </v>
    <v>       0.87500000       0.37500000       0.12449848 </v>
    <v>       0.87500000       0.37500000       0.62449848 </v>
    <v>       0.87500000       0.87500000       0.12449848 </v>
    <v>       0.87500000       0.87500000       0.62449848 </v>
    <v>       0.00000000       0.25000000       0.25050152 </v>
    <v>       0.00000000       0.25000000       0.75050152 </v>
    <v>       0.00000000       0.75000000       0.25050152 </v>
    <v>       0.00000000       0.75000000       0.75050152 </v>
    <v>       0.50000000       0.25000000       0.25050152 </v>
    <v>       0.50000000       0.25000000       0.75050152 </v>
    <v>       0.50000000       0.75000000       0.25050152 </v>
    <v>       0.50000000       0.75000000       0.75050152 </v>
    <v>       0.37500000       0.12500000       0.37449848 </v>
    <v>       0.37500000       0.12500000       0.87449848 </v>
    <v>       0.37500000       0.62500000       0.37449848 </v>
    <v>       0.37500000       0.62500000       0.87449848 </v>
    <v>       0.87500000       0.12500000       0.37449848 </v>
    <v>       0.87500000       0.12500000       0.87449848 </v>
    <v>       0.87500000       0.62500000       0.37449848 </v>
    <v>       0.87500000       0.62500000       0.87449848 </v>
    <v>       0.25000000       0.00000000       0.25050152 </v>
    <v>       0.25000000       0.00000000       0.75050152 </v>
    <v>       0.25000000       0.50000000       0.25050152 </v>
    <v>       0.25000000       0.50000000       0.75050152 </v>
    <v>       0.75000000       0.00000000       0.25050152 </v>
    <v>       0.75000000       0.00000000       0.75050152 </v>
    <v>       0.75000000       0.50000000       0.25050152 </v>
    <v>       0.75000000       0.50000000       0.75050152 </v>
    <v>       0.12500000       0.37500000       0.37449848 </v>
    <v>       0.12500000       0.37500000       0.87449848 </v>
    <v>       0.12500000       0.87500000       0.37449848 </v>
    <v>       0.12500000       0.87500000       0.87449848 </v>
    <v>       0.62500000       0.37500000       0.37449848 </v>
    <v>       0.62500000       0.37500000       0.87449848 </v>
    <v>       0.62500000       0.87500000       0.37449848 </v>
    <v>       0.62500000       0.87500000       0.87449848 </v>
    <v>       0.25000000       0.25000000       0.00050152 </v>
    <v>       0.25000000       0.25000000       0.50050152 </v>
    <v>       0.25000000       0.75000000       0.00050152 </v>
    <v>       0.25000000       0.75000000       0.50050152 </v>
    <v>       0.75000000       0.25000000       0.00050152 </v>
    <v>       0.75000000       0.25000000       0.50050152 </v>
    <v>       0.75000000       0.75000000       0.00050152 </v>
    <v>       0.75000000       0.75000000       0.50050152 </v>
    <v>       0.12500000       0.12500000       0.12449848 </v>
    <v>       0.12500000       0.12500000       0.62449848 </v>
    <v>       0.12500000       0.62500000       0.12449848 </v>
    <v>       0.12500000       0.62500000       0.62449848 </v>
    <v>       0.62500000       0.12500000       0.12449848 </v>
    <v>       0.62500000       0.12500000       0.62449848 </v>
    <v>       0.62500000       0.62500000       0.12449848 </v>
    <v>       0.62500000       0.62500000       0.62449848 </v>
   </varray>
  </structure>
  <varray name="forces" >
   <v>       0.00000000      -0.00000000      -0.00048789 </v>
   <v>       0.00000000       0.00000000      -0.00048789 </v>
   <v>       0.00000000      -0.00000000      -0.00048789 </v>
   <v>      -0.00000000       0.00000000      -0.00048789 </v>
   <v>      -0.00000000      -0.00000000      -0.00048789 </v>
   <v>       0.00000000      -0.00000000      -0.00048789 </v>
   <v>      -0.00000000      -0.00000000      -0.00048789 </v>
   <v>      -0.00000000      -0.00000000      -0.00048789 </v>
   <v>       0.00000000       0.00000000       0.00048789 </v>
   <v>       0.00000000       0.00000000       0.00048789 </v>
   <v>      -0.00000000       0.00000000       0.00048789 </v>
   <v>       0.00000000       0.00000000       0.00048789 </v>
   <v>      -0.00000000       0.00000000       0.00048789 </v>
   <v>      -0.00000000       0.00000000       0.00048789 </v>
   <v>       0.00000000      -0.00000000       0.00048789 </v>
   <v>       0.00000000       0.00000000       0.00048789 </v>
   <v>       0.00000000      -0.00000000      -0.00048789 </v>
   <v>       0.00000000       0.00000000      -0.00048789 </v>
   <v>       0.00000000      -0.00000000      -0.00048789 </v>
   <v>       0.00000000       0.00000000      -0.00048789 </v>
   <v>      -0.00000000      -0.00000000      -0.00048789 </v>
   <v>      -0.00000000      -0.00000000      -0.00048789 </v>
   <v>      -0.00000000      -0.00000000      -0.00048789 </v>
   <v>       0.00000000      -0.00000000      -0.00048789 </v>
   <v>      -0.00000000       0.00000000       0.00048789 </v>
   <v>      -0.00000000       0.00000000       0.00048789 </v>
   <v>       0.00000000       0.00000000       0.00048789 </v>
   <v>      -0.00000000       0.00000000       0.00048789 </v>
   <v>       0.00000000       0.00000000       0.00048789 </v>
   <v>       0.00000000       0.00000000       0.00048789 </v>
   <v>      -0.00000000       0.00000000       0.00048789 </v>
   <v>      -0.00000000       0.00000000       0.00048789 </v>
   <v>       0.00000000       0.00000000      -0.00048789 </v>
   <v>       0.00000000       0.00000000      -0.00048789 </v>
   <v>      -0.00000000      -0.00000000      -0.00048789 </v>
   <v>       0.00000000      -0.00000000      -0.00048789 </v>
   <v>      -0.00000000       0.00000000      -0.00048789 </v>
   <v>      -0.00000000       0.00000000      -0.00048789 </v>
   <v>      -0.00000000       0.00000000      -0.00048789 </v>
   <v>      -0.00000000       0.00000000      -0.00048789 </v>
   <v>      -0.00000000      -0.00000000       0.00048789 </v>
   <v>      -0.00000000      -0.00000000       0.00048789 </v>
   <v>      -0.00000000      -0.00000000       0.00048789 </v>
   <v>      -0.00000000      -0.00000000       0.00048789 </v>
   <v>       0.00000000       0.00000000       0.00048789 </v>
   <v>      -0.00000000       0.00000000       0.00048789 </v>
   <v>       0.00000000       0.00000000       0.00048789 </v>
   <v>       0.00000000       0.00000000       0.00048789 </v>
   <v>      -0.00000000       0.00000000      -0.00048789 </v>
   <v>       0.00000000      -0.00000000      -0.00048789 </v>
   <v>       0.00000000      -0.00000000      -0.00048789 </v>
   <v>       0.00000000      -0.00000000      -0.00048789 </v>
   <v>      -0.00000000       0.00000000      -0.00048789 </v>
   <v>      -0.00000000       0.00000000      -0.00048789 </v>
   <v>       0.00000000       0.00000000      -0.00048789 </v>
   <v>      -0.00000000       0.00000000      -0.00048789 </v>
   <v>      -0.00000000      -0.00000000       0.00048789 </v>
   <v>      -0.00000000      -0.00000000       0.00048789 </v>
   <v>      -0.00000000      -0.00000000       0.00048789 </v>
   <v>      -0.00000000      -0.00000000       0.00048789 </v>
   <v>       0.00000000       0.00000000       0.00048789 </v>
   <v>       0.00000000       0.00000000       0.00048789 </v>
   <v>       0.00000000       0.00000000       0.00048789 </v>
   <v>       0.00000000       0.00000000       0.00048789 </v>
  </varray>
  <varray name="stress" >
   <v>     -13.61215740     -10.81500794       0.00000000 </v>
   <v>     -10.81500787       0.76016186       0.00000000 </v>
   <v>       0.00000000       0.00000000       0.35258608 </v>
  </varray>
  <energy>
   <i name="e_fr_energy">   -367.50445368 </i>
   <i name="e_wo_entrp">   -367.53104527 </i>
   <i name="e_0_energy">   -367.51331754 </i>
  </energy>
  <time name="totalsc">   13.16   13.31</time>
  <eigenvalues>
   <array>
    <dimension dim="1">band</dimension>
    <dimension dim="2">kpoint</dimension>
    <dimension dim="3">spin</dimension>
    <field>eigene</field>
    <field>occ</field>
    <set>
     <set comment="spin 1">
      <set comment="kpoint 1">
       <r>   -6.2214    1.0000 </r>
       <r>   -5.1596    1.0000 </r>
       <r>   -5.1596    1.0000 </r>
       <r>   -5.1328    1.0000 </r>
       <r>   -5.1328    1.0000 </r>
       <r>   -5.1325    1.0000 </r>
       <r>   -5.1325    1.0000 </r>
       <r>   -4.2219    1.0000 </r>
       <r>   -4.2219    1.0000 </r>
       <r>   -4.1867    1.0000 </r>
       <r>   -4.1867    1.0000 </r>
       <r>   -4.1867    1.0000 </r>
       <r>   -4.1867    1.0000 </r>
       <r>   -4.1679    1.0000 </r>
       <r>   -4.1679    1.0000 </r>
       <r>   -4.1679    1.0000 </r>
       <r>   -4.1679    1.0000 </r>
       <r>   -4.1508    1.0000 </r>
       <r>   -4.1508    1.0000 </r>
       <r>   -3.9261    1.0000 </r>
       <r>   -3.9261    1.0000 </r>
       <r>   -3.8516    1.0000 </r>
       <r>   -3.8516    1.0000 </r>
       <r>   -2.1442    1.0000 </r>
       <r>   -2.1442    1.0000 </r>
       <r>   -2.0858    1.0000 </r>
       <r>   -2.0561    1.0000 </r>
       <r>   -2.0561    1.0000 </r>
       <r>   -2.0288    1.0000 </r>
       <r>   -1.9722    1.0000 </r>
       <r>   -1.9722    1.0000 </r>
       <r>   -1.9398    1.0000 </r>
       <r>   -1.9398    1.0000 </r>
       <r>   -1.9294    1.0000 </r>
       <r>   -1.9294    1.0000 </r>
       <r>   -1.9294    1.0000 </r>
       <r>   -1.9294    1.0000 </r>
       <r>   -1.8876    1.0000 </r>
       <r>   -1.8876    1.0000 </r>
       <r>   -1.8572    1.0000 </r>
       <r>   -1.8572    1.0000 </r>
       <r>   -1.2752    1.0000 </r>
       <r>   -1.2752    1.0000 </r>
       <r>   -1.2480    1.0000 </r>
       <r>   -1.2480    1.0000 </r>
       <r>    0.2054    1.0000 </r>
       <r>    0.2054    1.0000 </r>
       <r>    0.2054    1.0000 </r>
       <r>    0.2054    1.0000 </r>
       <r>    0.2520    1.0000 </r>
       <r>    0.2520    1.0000 </r>
       <r>    0.2568    1.0000 </r>
       <r>    0.2568    1.0000 </r>
       <r>    0.2568    1.0000 </r>
       <r>    0.2568    1.0000 </r>
       <r>    0.2619    1.0000 </r>
       <r>    0.2619    1.0000 </r>
       <r>    1.8256    1.0000 </r>
       <r>    1.8256    1.0000 </r>
       <r>    1.8304    1.0000 </r>
       <r>    1.8304    1.0000 </r>
       <r>    1.8408    1.0000 </r>
       <r>    1.8408    1.0000 </r>
       <r>    1.8408    1.0000 </r>
       <r>    1.8408    1.0000 </r>
       <r>    1.8562    1.0000 </r>
       <r>    1.8562    1.0000 </r>
       <r>    1.8633    1.0000 </r>
       <r>    1.8633    1.0000 </r>
       <r>    1.8894    1.0000 </r>
       <r>    1.8894    1.0000 </r>
       <r>    1.8894    1.0000 </r>
       <r>    1.8894    1.0000 </r>
       <r>    1.9559    1.0000 </r>
       <r>    1.9559    1.0000 </r>
       <r>    1.9709    1.0000 </r>
       <r>    1.9709    1.0000 </r>
       <r>    1.9709    1.0000 </r>
       <r>    1.9709    1.0000 </r>
       <r>    1.9823    1.0000 </r>
       <r>    1.9823    1.0000 </r>
       <r>    2.1291    1.0000 </r>
       <r>    2.1291    1.0000 </r>
       <r>    2.2321    1.0000 </r>
       <r>    2.2321    1.0000 </r>
       <r>    2.2347    1.0000 </r>
       <r>    2.2347    1.0000 </r>
       <r>    2.7324    1.0000 </r>
       <r>    2.8275    1.0000 </r>
       <r>    2.8275    1.0000 </r>
       <r>    2.9250    1.0000 </r>
       <r>    2.9406    1.0000 </r>
       <r>    2.9406    1.0000 </r>
       <r>    3.7056    1.0000 </r>
       <r>    3.7056    1.0000 </r>
       <r>    3.7799    1.0000 </r>
       <r>    3.7799    1.0000 </r>
       <r>    3.8129    1.0000 </r>
       <r>    3.8129    1.0000 </r>
       <r>    3.8841    1.0000 </r>
       <r>    3.8841    1.0000 </r>
       <r>    3.8847    1.0000 </r>
       <r>    3.8847    1.0000 </r>
       <r>    3.8895    1.0000 </r>
       <r>    3.8895    1.0000 </r>
       <r>    4.2873    1.0000 </r>
       <r>    4.2873    1.0000 </r>
       <r>    4.3516    1.0000 </r>
       <r>    4.3516    1.0000 </r>
       <r>    4.3516    1.0000 </r>
       <r>    4.3516    1.0000 </r>
       <r>    4.3965    1.0000 </r>
       <r>    4.3965    1.0000 </r>
       <r>    4.4193    1.0000 </r>
       <r>    4.4193    1.0000 </r>
       <r>    4.4705    1.0000 </r>
       <r>    4.4705    1.0000 </r>
       <r>    4.4705    1.0000 </r>
       <r>    4.4705    1.0000 </r>
       <r>    4.5034    1.0000 </r>
       <r>    4.5034    1.0000 </r>
       <r>    4.5676    1.0000 </r>
       <r>    4.5676    1.0000 </r>
       <r>    4.6271    1.0000 </r>
       <r>    4.6271    1.0000 </r>
       <r>    5.6180    1.0067 </r>
       <r>    5.7542    1.0327 </r>
       <r>    5.7902    1.0353 </r>
       <r>    6.1746    0.0300 </r>
       <r>    6.2835   -0.0351 </r>
       <r>    6.2835   -0.0351 </r>
       <r>    6.3939   -0.0134 </r>
       <r>    6.4014   -0.0121 </r>
       <r>    6.4014   -0.0121 </r>
       <r>    6.7191   -0.0000 </r>
       <r>    6.7191   -0.0000 </r>
       <r>    6.7217   -0.0000 </r>
       <r>    6.7217   -0.0000 </r>
       <r>    6.8397   -0.0000 </r>
       <r>    6.8397   -0.0000 </r>
       <r>    7.0709   -0.0000 </r>
       <r>    7.0709   -0.0000 </r>
       <r>    7.2303   -0.0000 </r>
       <r>    7.2303   -0.0000 </r>
       <r>    7.9550   -0.0000 </r>
       <r>    7.9550   -0.0000 </r>
       <r>    8.0336   -0.0000 </r>
       <r>    8.0336   -0.0000 </r>
       <r>    8.0336   -0.0000 </r>
       <r>    8.0336   -0.0000 </r>
       <r>    8.1153   -0.0000 </r>
       <r>    8.1153   -0.0000 </r>
       <r>    8.1576   -0.0000 </r>
       <r>    8.1721   -0.0000 </r>
       <r>    8.1721   -0.0000 </r>
       <r>    8.1721   -0.0000 </r>
       <r>    8.1721   -0.0000 </r>
       <r>    8.1885   -0.0000 </r>
       <r>    8.3314   -0.0000 </r>
       <r>    8.7374   -0.0000 </r>
       <r>    8.7526   -0.0000 </r>
       <r>    8.7566   -0.0000 </r>
      </set>
      <set comment="kpoint 2">
       <r>   -5.9537    1.0000 </r>
       <r>   -5.9537    1.0000 </r>
       <r>   -4.9079    1.0000 </r>
       <r>   -4.9079    1.0000 </r>
       <r>   -4.8898    1.0000 </r>
       <r>   -4.8898    1.0000 </r>
       <r>   -4.8898    1.0000 </r>
       <r>   -4.8898    1.0000 </r>
       <r>   -4.8710    1.0000 </r>
       <r>   -4.8710    1.0000 </r>
       <r>   -4.0652    1.0000 </r>
       <r>   -4.0652    1.0000 </r>
       <r>   -4.0652    1.0000 </r>
       <r>   -4.0652    1.0000 </r>
       <r>   -4.0188    1.0000 </r>
       <r>   -4.0188    1.0000 </r>
       <r>   -4.0188    1.0000 </r>
       <r>   -4.0188    1.0000 </r>
       <r>   -3.8695    1.0000 </r>
       <r>   -3.8695    1.0000 </r>
       <r>   -3.1709    1.0000 </r>
       <r>   -3.1709    1.0000 </r>
       <r>   -3.1239    1.0000 </r>
       <r>   -3.1239    1.0000 </r>
       <r>   -3.1239    1.0000 </r>
       <r>   -3.1239    1.0000 </r>
       <r>   -3.0766    1.0000 </r>
       <r>   -3.0766    1.0000 </r>
       <r>   -2.0154    1.0000 </r>
       <r>   -2.0154    1.0000 </r>
       <r>   -2.0102    1.0000 </r>
       <r>   -2.0102    1.0000 </r>
       <r>   -1.9515    1.0000 </r>
       <r>   -1.9515    1.0000 </r>
       <r>   -1.9484    1.0000 </r>
       <r>   -1.9484    1.0000 </r>
       <r>   -0.8513    1.0000 </r>
       <r>   -0.8513    1.0000 </r>
       <r>   -0.8323    1.0000 </r>
       <r>   -0.8323    1.0000 </r>
       <r>   -0.8323    1.0000 </r>
       <r>   -0.8323    1.0000 </r>
       <r>   -0.8156    1.0000 </r>
       <r>   -0.8156    1.0000 </r>
       <r>   -0.7042    1.0000 </r>
       <r>   -0.7042    1.0000 </r>
       <r>   -0.7042    1.0000 </r>
       <r>   -0.7042    1.0000 </r>
       <r>   -0.6570    1.0000 </r>
       <r>   -0.6570    1.0000 </r>
       <r>   -0.6570    1.0000 </r>
       <r>   -0.6570    1.0000 </r>
       <r>   -0.0914    1.0000 </r>
       <r>   -0.0914    1.0000 </r>
       <r>    1.4313    1.0000 </r>
       <r>    1.4313    1.0000 </r>
       <r>    1.4437    1.0000 </r>
       <r>    1.4437    1.0000 </r>
       <r>    1.4437    1.0000 </r>
       <r>    1.4437    1.0000 </r>
       <r>    1.4614    1.0000 </r>
       <r>    1.4614    1.0000 </r>
       <r>    1.4880    1.0000 </r>
       <r>    1.4880    1.0000 </r>
       <r>    1.4943    1.0000 </r>
       <r>    1.4943    1.0000 </r>
       <r>    1.4943    1.0000 </r>
       <r>    1.4943    1.0000 </r>
       <r>    1.4999    1.0000 </r>
       <r>    1.4999    1.0000 </r>
       <r>    2.2106    1.0000 </r>
       <r>    2.2106    1.0000 </r>
       <r>    2.2660    1.0000 </r>
       <r>    2.2660    1.0000 </r>
       <r>    2.2802    1.0000 </r>
       <r>    2.2802    1.0000 </r>
       <r>    2.3374    1.0000 </r>
       <r>    2.3374    1.0000 </r>
       <r>    2.9740    1.0000 </r>
       <r>    2.9740    1.0000 </r>
       <r>    2.9981    1.0000 </r>
       <r>    2.9981    1.0000 </r>
       <r>    2.9981    1.0000 </r>
       <r>    2.9981    1.0000 </r>
       <r>    3.0169    1.0000 </r>
       <r>    3.0169    1.0000 </r>
       <r>    3.0281    1.0000 </r>
       <r>    3.0281    1.0000 </r>
       <r>    3.0736    1.0000 </r>
       <r>    3.0736    1.0000 </r>
       <r>    3.0736    1.0000 </r>
       <r>    3.0736    1.0000 </r>
       <r>    3.1202    1.0000 </r>
       <r>    3.1202    1.0000 </r>
       <r>    3.1253    1.0000 </r>
       <r>    3.1253    1.0000 </r>
       <r>    3.1253    1.0000 </r>
       <r>    3.1253    1.0000 </r>
       <r>    3.1810    1.0000 </r>
       <r>    3.1810    1.0000 </r>
       <r>    3.1814    1.0000 </r>
       <r>    3.1814    1.0000 </r>
       <r>    3.2294    1.0000 </r>
       <r>    3.2294    1.0000 </r>
       <r>    3.2294    1.0000 </r>
       <r>    3.2294    1.0000 </r>
       <r>    4.2363    1.0000 </r>
       <r>    4.2363    1.0000 </r>
       <r>    4.2704    1.0000 </r>
       <r>    4.2704    1.0000 </r>
       <r>    4.2704    1.0000 </r>
       <r>    4.2704    1.0000 </r>
       <r>    4.3072    1.0000 </r>
       <r>    4.3072    1.0000 </r>
       <r>    4.3082    1.0000 </r>
       <r>    4.3082    1.0000 </r>
       <r>    4.5107    1.0000 </r>
       <r>    4.5107    1.0000 </r>
       <r>    4.5107    1.0000 </r>
       <r>    4.5107    1.0000 </r>
       <r>    4.5498    1.0000 </r>
       <r>    4.5498    1.0000 </r>
       <r>    4.5498    1.0000 </r>
       <r>    4.5498    1.0000 </r>
       <r>    4.9504    1.0000 </r>
       <r>    4.9504    1.0000 </r>
       <r>    4.9571    1.0000 </r>
       <r>    4.9571    1.0000 </r>
       <r>    6.3235   -0.0288 </r>
       <r>    6.3235   -0.0288 </r>
       <r>    7.1925   -0.0000 </r>
       <r>    7.1925   -0.0000 </r>
       <r>    7.3883   -0.0000 </r>
       <r>    7.3883   -0.0000 </r>
       <r>    7.5073   -0.0000 </r>
       <r>    7.5073   -0.0000 </r>
       <r>    7.5384   -0.0000 </r>
       <r>    7.5384   -0.0000 </r>
       <r>    7.6591   -0.0000 </r>
       <r>    7.6591   -0.0000 </r>
       <r>    7.7169   -0.0000 </r>
       <r>    7.7169   -0.0000 </r>
       <r>    7.9834   -0.0000 </r>
       <r>    7.9834   -0.0000 </r>
       <r>    8.0171   -0.0000 </r>
       <r>    8.0171   -0.0000 </r>
       <r>    8.0171   -0.0000 </r>
       <r>    8.0172   -0.0000 </r>
       <r>    8.0209   -0.0000 </r>
       <r>    8.0209   -0.0000 </r>
       <r>    8.0209   -0.0000 </r>
       <r>    8.0209   -0.0000 </r>
       <r>    8.0744   -0.0000 </r>
       <r>    8.0744   -0.0000 </r>
       <r>    8.1133   -0.0000 </r>
       <r>    8.1133   -0.0000 </r>
       <r>    8.1133   -0.0000 </r>
       <r>    8.1134   -0.0000 </r>
       <r>    8.3877   -0.0000 </r>
       <r>    8.3933   -0.0000 </r>
       <r>    8.5034   -0.0000 </r>
       <r>    8.5088   -0.0000 </r>
      </set>
      <set comment="kpoint 3">
       <r>   -5.9466    1.0000 </r>
       <r>   -5.9466    1.0000 </r>
[...]
      </set>
     </set>
    </set>
   </array>
  </eigenvalues>
  <separator name="orbital magnetization" >
   <v name="MAGDIPOLOUT">      0.00000000      0.00000000      0.00000000</v>
  </separator>
  <dos>
   <i name="efermi">      6.02856857 </i>
   <total>
    <array>
     <dimension dim="1">gridpoints</dimension>
     <dimension dim="2">spin</dimension>
     <field>energy</field>
     <field>total</field>
     <field>integrated</field>
     <set>
      <set comment="spin 1">
       <r>    -8.2214     0.0000     0.0000 </r>
       <r>    -8.1568     0.0000     0.0000 </r>
       <r>    -8.0923     0.0000     0.0000 </r>
       <r>    -8.0278     0.0000     0.0000 </r>
       <r>    -7.9633     0.0000     0.0000 </r>
       <r>    -7.8988     0.0000     0.0000 </r>
       <r>    -7.8343    -0.0000    -0.0000 </r>
       <r>    -7.7698    -0.0000    -0.0000 </r>
       <r>    -7.7053    -0.0000    -0.0000 </r>
       <r>    -7.6408    -0.0000    -0.0000 </r>
       <r>    -7.5763    -0.0000    -0.0000 </r>
       <r>    -7.5118    -0.0000    -0.0000 </r>
       <r>    -7.4473    -0.0000    -0.0000 </r>
       <r>    -7.3828    -0.0000    -0.0000 </r>
       <r>    -7.3183    -0.0000    -0.0000 </r>
       <r>    -7.2538    -0.0000    -0.0000 </r>
       <r>    -7.1893    -0.0000    -0.0000 </r>
       <r>    -7.1248    -0.0000    -0.0000 </r>
       <r>    -7.0603    -0.0000    -0.0000 </r>
       <r>    -6.9958    -0.0000    -0.0000 </r>
       <r>    -6.9313    -0.0000    -0.0000 </r>
       <r>    -6.8668    -0.0001    -0.0000 </r>
       <r>    -6.8023    -0.0005    -0.0000 </r>
       <r>    -6.7378    -0.0025    -0.0002 </r>
       <r>    -6.6733    -0.0092    -0.0008 </r>
       <r>    -6.6088    -0.0258    -0.0025 </r>
       <r>    -6.5443    -0.0511    -0.0058 </r>
       <r>    -6.4798    -0.0589    -0.0096 </r>
       <r>    -6.4152     0.0087    -0.0090 </r>
       <r>    -6.3507     0.1906     0.0033 </r>
       <r>    -6.2862     0.4327     0.0312 </r>
       <r>    -6.2217     0.6590     0.0737 </r>
       <r>    -6.1572     1.0262     0.1399 </r>
       <r>    -6.0927     1.9433     0.2653 </r>
       <r>    -6.0282     3.5120     0.4918 </r>
       <r>    -5.9637     5.0955     0.8205 </r>
       <r>    -5.8992     6.0701     1.2120 </r>
       <r>    -5.8347     6.9507     1.6604 </r>
       <r>    -5.7702     8.7666     2.2258 </r>
       <r>    -5.7057    11.1226     2.9433 </r>
       <r>    -5.6412    12.1954     3.7299 </r>
       <r>    -5.5767    11.2049     4.4527 </r>
       <r>    -5.5122     9.4951     5.0652 </r>
       <r>    -5.4477     8.4255     5.6086 </r>
       <r>    -5.3832     7.6372     6.1013 </r>
       <r>    -5.3187     6.3256     6.5093 </r>
       <r>    -5.2542     4.8892     6.8247 </r>
       <r>    -5.1897     4.3349     7.1043 </r>
       <r>    -5.1252     5.2416     7.4424 </r>
       <r>    -5.0607     8.1798     7.9700 </r>
       <r>    -4.9962    13.6702     8.8518 </r>
       <r>    -4.9317    20.5220    10.1755 </r>
       <r>    -4.8672    25.8376    11.8421 </r>
       <r>    -4.8027    28.1108    13.6554 </r>
       <r>    -4.7382    28.4832    15.4927 </r>
       <r>    -4.6737    27.5857    17.2720 </r>
       <r>    -4.6091    23.6924    18.8003 </r>
       <r>    -4.5446    15.8684    19.8239 </r>
       <r>    -4.4801     6.7308    20.2580 </r>
       <r>    -4.4156     0.4098    20.2845 </r>
       <r>    -4.3511    -0.6946    20.2397 </r>
       <r>    -4.2866     3.5916    20.4713 </r>
       <r>    -4.2221    12.0563    21.2490 </r>
       <r>    -4.1576    22.0962    22.6743 </r>
       <r>    -4.0931    29.8012    24.5966 </r>
       <r>    -4.0286    31.7194    26.6426 </r>
       <r>    -3.9641    27.3935    28.4096 </r>
       <r>    -3.8996    20.0312    29.7017 </r>
       <r>    -3.8351    14.4417    30.6332 </r>
       <r>    -3.7706    14.2672    31.5535 </r>
       <r>    -3.7061    20.3283    32.8648 </r>
       <r>    -3.6416    30.2013    34.8128 </r>
       <r>    -3.5771    39.3987    37.3542 </r>
       <r>    -3.5126    44.1624    40.2028 </r>
       <r>    -3.4481    43.5262    43.0104 </r>
       <r>    -3.3836    38.8265    45.5149 </r>
       <r>    -3.3191    32.3753    47.6032 </r>
       <r>    -3.2546    26.9887    49.3441 </r>
       <r>    -3.1901    24.7965    50.9436 </r>
       <r>    -3.1256    24.8500    52.5465 </r>
       <r>    -3.0611    23.2815    54.0482 </r>
       <r>    -2.9966    17.4945    55.1767 </r>
       <r>    -2.9321     9.1989    55.7700 </r>
       <r>    -2.8675     2.2424    55.9147 </r>
       <r>    -2.8030    -1.2510    55.8340 </r>
       <r>    -2.7385    -1.5346    55.7350 </r>
       <r>    -2.6740     0.5953    55.7734 </r>
       <r>    -2.6095     4.5648    56.0679 </r>
       <r>    -2.5450     9.0248    56.6500 </r>
       <r>    -2.4805    11.5164    57.3928 </r>
       <r>    -2.4160    10.2339    58.0530 </r>
       <r>    -2.3515     6.0278    58.4418 </r>
       <r>    -2.2870     2.2111    58.5844 </r>
       <r>    -2.2225     2.5004    58.7457 </r>
       <r>    -2.1580     8.9001    59.3198 </r>
       <r>    -2.0935    20.1979    60.6226 </r>
       <r>    -2.0290    31.5908    62.6603 </r>
       <r>    -1.9645    36.8846    65.0395 </r>
       <r>    -1.9000    32.8516    67.1586 </r>
       <r>    -1.8355    21.9167    68.5723 </r>
       <r>    -1.7710    10.2237    69.2318 </r>
       <r>    -1.7065     3.1104    69.4324 </r>
       <r>    -1.6420     2.2101    69.5749 </r>
       <r>    -1.5775     5.5721    69.9344 </r>
       <r>    -1.5130     9.4937    70.5467 </r>
       <r>    -1.4485    10.8820    71.2487 </r>
       <r>    -1.3840     9.2244    71.8437 </r>
       <r>    -1.3195     6.8301    72.2843 </r>
       <r>    -1.2550     7.0131    72.7366 </r>
       <r>    -1.1905    11.4744    73.4768 </r>
       <r>    -1.1259    18.5660    74.6743 </r>
       <r>    -1.0614    24.2489    76.2385 </r>
       <r>    -0.9969    26.0545    77.9191 </r>
       <r>    -0.9324    26.1393    79.6052 </r>
       <r>    -0.8679    29.2819    81.4940 </r>
       <r>    -0.8034    37.9066    83.9391 </r>
       <r>    -0.7389    49.1043    87.1065 </r>
       <r>    -0.6744    55.5763    90.6914 </r>
       <r>    -0.6099    50.6249    93.9569 </r>
       <r>    -0.5454    34.6874    96.1943 </r>
       <r>    -0.4809    16.5281    97.2605 </r>
       <r>    -0.4164     6.3219    97.6682 </r>
       <r>    -0.3519     7.6502    98.1617 </r>
       <r>    -0.2874    15.8726    99.1856 </r>
       <r>    -0.2229    22.8088   100.6568 </r>
       <r>    -0.1584    23.1305   102.1488 </r>
       <r>    -0.0939    17.5476   103.2807 </r>
       <r>    -0.0294    10.5943   103.9641 </r>
       <r>     0.0351     6.1477   104.3606 </r>
       <r>     0.0996     5.4622   104.7129 </r>
       <r>     0.1641     8.0948   105.2351 </r>
       <r>     0.2286    13.0662   106.0779 </r>
       <r>     0.2931    19.1576   107.3136 </r>
       <r>     0.3576    24.6521   108.9038 </r>
       <r>     0.4221    27.0888   110.6511 </r>
       <r>     0.4866    24.3393   112.2211 </r>
       <r>     0.5511    16.8661   113.3090 </r>
       <r>     0.6157     8.1336   113.8337 </r>
       <r>     0.6802     1.8339   113.9520 </r>
       <r>     0.7447    -0.8739   113.8956 </r>
       <r>     0.8092    -1.1900   113.8188 </r>
       <r>     0.8737    -0.7654   113.7694 </r>
       <r>     0.9382    -0.5623   113.7332 </r>
       <r>     1.0027    -0.9605   113.6712 </r>
       <r>     1.0672    -2.0120   113.5414 </r>
       <r>     1.1317    -2.8936   113.3548 </r>
       <r>     1.1962    -0.8365   113.3008 </r>
       <r>     1.2607     8.3840   113.8416 </r>
       <r>     1.3252    26.3421   115.5408 </r>
       <r>     1.3897    46.9873   118.5717 </r>
       <r>     1.4542    58.3323   122.3343 </r>
       <r>     1.5187    52.6367   125.7296 </r>
       <r>     1.5832    34.6099   127.9620 </r>
       <r>     1.6477    17.3419   129.0806 </r>
       <r>     1.7122    10.5727   129.7626 </r>
       <r>     1.7767    13.9925   130.6652 </r>
       <r>     1.8412    20.2811   131.9734 </r>
       <r>     1.9057    22.8552   133.4476 </r>
       <r>     1.9702    21.7127   134.8482 </r>
       <r>     2.0347    23.4357   136.3599 </r>
       <r>     2.0992    35.0572   138.6212 </r>
       <r>     2.1637    56.2983   142.2526 </r>
       <r>     2.2282    77.3483   147.2419 </r>
       <r>     2.2927    85.3624   152.7481 </r>
       <r>     2.3573    74.4516   157.5505 </r>
       <r>     2.4218    50.0365   160.7780 </r>
       <r>     2.4863    23.8981   162.3195 </r>
       <r>     2.5508     5.2716   162.6596 </r>
       <r>     2.6153    -3.7250   162.4193 </r>
       <r>     2.6798    -5.4727   162.0663 </r>
       <r>     2.7443    -1.3099   161.9818 </r>
       <r>     2.8088    10.6166   162.6666 </r>
       <r>     2.8733    31.6200   164.7062 </r>
       <r>     2.9378    57.1358   168.3917 </r>
       <r>     3.0023    77.3222   173.3792 </r>
       <r>     3.0668    84.5696   178.8343 </r>
       <r>     3.1313    79.2304   183.9449 </r>
       <r>     3.1958    67.1414   188.2758 </r>
       <r>     3.2603    53.8588   191.7499 </r>
       <r>     3.3248    42.9562   194.5207 </r>
       <r>     3.3893    37.2744   196.9251 </r>
       <r>     3.4538    37.9434   199.3726 </r>
       <r>     3.5183    41.7656   202.0666 </r>
       <r>     3.5828    42.5774   204.8130 </r>
       <r>     3.6473    37.4703   207.2300 </r>
       <r>     3.7118    30.3700   209.1889 </r>
       <r>     3.7763    27.3346   210.9521 </r>
       <r>     3.8408    29.4018   212.8487 </r>
       <r>     3.9053    32.4707   214.9431 </r>
       <r>     3.9698    33.4166   217.0986 </r>
       <r>     4.0343    33.5077   219.2600 </r>
       <r>     4.0989    35.7081   221.5633 </r>
       <r>     4.1634    41.0240   224.2095 </r>
       <r>     4.2279    48.0642   227.3098 </r>
       <r>     4.2924    54.3447   230.8153 </r>
       <r>     4.3569    57.2169   234.5060 </r>
       <r>     4.4214    54.6789   238.0329 </r>
       <r>     4.4859    46.3298   241.0214 </r>
       <r>     4.5504    33.8173   243.2027 </r>
       <r>     4.6149    20.5135   244.5259 </r>
       <r>     4.6794    10.4701   245.2013 </r>
       <r>     4.7439     6.7060   245.6338 </r>
       <r>     4.8084     9.5449   246.2495 </r>
       <r>     4.8729    16.1758   247.2929 </r>
       <r>     4.9374    21.9443   248.7084 </r>
       <r>     5.0019    22.8897   250.1849 </r>
       <r>     5.0664    18.1738   251.3572 </r>
       <r>     5.1309    10.5764   252.0394 </r>
       <r>     5.1954     4.3874   252.3224 </r>
       <r>     5.2599     2.4321   252.4793 </r>
       <r>     5.3244     4.5872   252.7752 </r>
       <r>     5.3889     8.3884   253.3162 </r>
       <r>     5.4534    10.8549   254.0164 </r>
       <r>     5.5179    10.4128   254.6881 </r>
       <r>     5.5824     7.7227   255.1862 </r>
       <r>     5.6469     4.7255   255.4910 </r>
       <r>     5.7114     2.8204   255.6730 </r>
       <r>     5.7759     1.9811   255.8008 </r>
       <r>     5.8405     1.4163   255.8921 </r>
       <r>     5.9050     0.7122   255.9381 </r>
       <r>     5.9695     0.2623   255.9550 </r>
       <r>     6.0340     0.8224   256.0080 </r>
       <r>     6.0985     2.7458   256.1851 </r>
       <r>     6.1630     5.5179   256.5411 </r>
       <r>     6.2275     7.9821   257.0559 </r>
       <r>     6.2920     9.0696   257.6410 </r>
       <r>     6.3565     8.3630   258.1804 </r>
       <r>     6.4210     6.2203   258.5816 </r>
       <r>     6.4855     3.7371   258.8227 </r>
       <r>     6.5500     2.4803   258.9827 </r>
       <r>     6.6145     3.6287   259.2168 </r>
       <r>     6.6790     6.9499   259.6650 </r>
       <r>     6.7435    10.7554   260.3588 </r>
       <r>     6.8080    13.2061   261.2106 </r>
       <r>     6.8725    13.9167   262.1083 </r>
       <r>     6.9370    14.4241   263.0387 </r>
       <r>     7.0015    16.9136   264.1297 </r>
       <r>     7.0660    21.8877   265.5416 </r>
       <r>     7.1305    26.8020   267.2704 </r>
       <r>     7.1950    27.7249   269.0587 </r>
       <r>     7.2595    23.3260   270.5634 </r>
       <r>     7.3240    17.1798   271.6715 </r>
       <r>     7.3885    15.2239   272.6535 </r>
       <r>     7.4530    20.5012   273.9759 </r>
       <r>     7.5175    30.6708   275.9543 </r>
       <r>     7.5821    40.4905   278.5661 </r>
       <r>     7.6466    45.9430   281.5296 </r>
       <r>     7.7111    46.2782   284.5147 </r>
       <r>     7.7756    43.8422   287.3427 </r>
       <r>     7.8401    42.6037   290.0908 </r>
       <r>     7.9046    45.3323   293.0149 </r>
       <r>     7.9691    51.0701   296.3091 </r>
       <r>     8.0336    55.9205   299.9162 </r>
       <r>     8.0981    56.7708   303.5781 </r>
       <r>     8.1626    53.6368   307.0379 </r>
       <r>     8.2271    48.2555   310.1505 </r>
       <r>     8.2916    41.7115   312.8411 </r>
       <r>     8.3561    34.4009   315.0600 </r>
       <r>     8.4206    27.3310   316.8230 </r>
       <r>     8.4851    22.0449   318.2450 </r>
       <r>     8.5496    19.2254   319.4851 </r>
       <r>     8.6141    17.9694   320.6442 </r>
       <r>     8.6786    16.5217   321.7099 </r>
       <r>     8.7431    13.6036   322.5874 </r>
       <r>     8.8076     9.2625   323.1848 </r>
       <r>     8.8721     4.7593   323.4918 </r>
       <r>     8.9366     1.6132   323.5959 </r>
       <r>     9.0011     0.5021   323.6283 </r>
       <r>     9.0656     0.8883   323.6856 </r>
       <r>     9.1301     1.5934   323.7883 </r>
       <r>     9.1946     1.7347   323.9002 </r>
       <r>     9.2591     1.2255   323.9793 </r>
       <r>     9.3236     0.5261   324.0132 </r>
       <r>     9.3882     0.0567   324.0169 </r>
       <r>     9.4527    -0.1032   324.0102 </r>
       <r>     9.5172    -0.0921   324.0043 </r>
       <r>     9.5817    -0.0455   324.0013 </r>
       <r>     9.6462    -0.0158   324.0003 </r>
       <r>     9.7107    -0.0041   324.0001 </r>
       <r>     9.7752    -0.0008   324.0000 </r>
       <r>     9.8397    -0.0001   324.0000 </r>
       <r>     9.9042    -0.0000   324.0000 </r>
       <r>     9.9687    -0.0000   324.0000 </r>
       <r>    10.0332    -0.0000   324.0000 </r>
       <r>    10.0977    -0.0000   324.0000 </r>
       <r>    10.1622    -0.0000   324.0000 </r>
       <r>    10.2267    -0.0000   324.0000 </r>
       <r>    10.2912    -0.0000   324.0000 </r>
       <r>    10.3557    -0.0000   324.0000 </r>
       <r>    10.4202     0.0000   324.0000 </r>
       <r>    10.4847     0.0000   324.0000 </r>
       <r>    10.5492     0.0000   324.0000 </r>
       <r>    10.6137     0.0000   324.0000 </r>
       <r>    10.6782     0.0000   324.0000 </r>
       <r>    10.7427     0.0000   324.0000 </r>
       <r>    10.8072     0.0000   324.0000 </r>
       <r>    10.8717     0.0000   324.0000 </r>
       <r>    10.9362     0.0000   324.0000 </r>
       <r>    11.0007     0.0000   324.0000 </r>
       <r>    11.0652     0.0000   324.0000 </r>
       <r>    11.1298     0.0000   324.0000 </r>
      </set>
     </set>
    </array>
   </total>
  </dos>
 </calculation>
 <structure name="finalpos" >
  <crystal>
   <varray name="basis" >
    <v>      10.99642962       0.08125401       0.00000000 </v>
    <v>       0.08125401      10.83392060       0.00000000 </v>
    <v>       0.00000000       0.00000000      10.83392060 </v>
   </varray>
   <i name="volume">   1290.62159463 </i>
   <varray name="rec_basis" >
    <v>       0.09094365      -0.00068207       0.00000000 </v>
    <v>      -0.00068207       0.09230780       0.00000000 </v>
    <v>       0.00000000       0.00000000       0.09230269 </v>
   </varray>
  </crystal>
  <varray name="positions" >
   <v>       0.00000000       0.00000000       0.00050152 </v>
   <v>       0.00000000       0.00000000       0.50050152 </v>
   <v>       0.00000000       0.50000000       0.00050152 </v>
   <v>       0.00000000       0.50000000       0.50050152 </v>
   <v>       0.50000000       0.00000000       0.00050152 </v>
   <v>       0.50000000       0.00000000       0.50050152 </v>
   <v>       0.50000000       0.50000000       0.00050152 </v>
   <v>       0.50000000       0.50000000       0.50050152 </v>
   <v>       0.37500000       0.37500000       0.12449848 </v>
   <v>       0.37500000       0.37500000       0.62449848 </v>
   <v>       0.37500000       0.87500000       0.12449848 </v>
   <v>       0.37500000       0.87500000       0.62449848 </v>
   <v>       0.87500000       0.37500000       0.12449848 </v>
   <v>       0.87500000       0.37500000       0.62449848 </v>
   <v>       0.87500000       0.87500000       0.12449848 </v>
   <v>       0.87500000       0.87500000       0.62449848 </v>
   <v>       0.00000000       0.25000000       0.25050152 </v>
   <v>       0.00000000       0.25000000       0.75050152 </v>
   <v>       0.00000000       0.75000000       0.25050152 </v>
   <v>       0.00000000       0.75000000       0.75050152 </v>
   <v>       0.50000000       0.25000000       0.25050152 </v>
   <v>       0.50000000       0.25000000       0.75050152 </v>
   <v>       0.50000000       0.75000000       0.25050152 </v>
   <v>       0.50000000       0.75000000       0.75050152 </v>
   <v>       0.37500000       0.12500000       0.37449848 </v>
   <v>       0.37500000       0.12500000       0.87449848 </v>
   <v>       0.37500000       0.62500000       0.37449848 </v>
   <v>       0.37500000       0.62500000       0.87449848 </v>
   <v>       0.87500000       0.12500000       0.37449848 </v>
   <v>       0.87500000       0.12500000       0.87449848 </v>
   <v>       0.87500000       0.62500000       0.37449848 </v>
   <v>       0.87500000       0.62500000       0.87449848 </v>
   <v>       0.25000000       0.00000000       0.25050152 </v>
   <v>       0.25000000       0.00000000       0.75050152 </v>
   <v>       0.25000000       0.50000000       0.25050152 </v>
   <v>       0.25000000       0.50000000       0.75050152 </v>
   <v>       0.75000000       0.00000000       0.25050152 </v>
   <v>       0.75000000       0.00000000       0.75050152 </v>
   <v>       0.75000000       0.50000000       0.25050152 </v>
   <v>       0.75000000       0.50000000       0.75050152 </v>
   <v>       0.12500000       0.37500000       0.37449848 </v>
   <v>       0.12500000       0.37500000       0.87449848 </v>
   <v>       0.12500000       0.87500000       0.37449848 </v>
   <v>       0.12500000       0.87500000       0.87449848 </v>
   <v>       0.62500000       0.37500000       0.37449848 </v>
   <v>       0.62500000       0.37500000       0.87449848 </v>
   <v>       0.62500000       0.87500000       0.37449848 </v>
   <v>       0.62500000       0.87500000       0.87449848 </v>
   <v>       0.25000000       0.25000000       0.00050152 </v>
   <v>       0.25000000       0.25000000       0.50050152 </v>
   <v>       0.25000000       0.75000000       0.00050152 </v>
   <v>       0.25000000       0.75000000       0.50050152 </v>
   <v>       0.75000000       0.25000000       0.00050152 </v>
   <v>       0.75000000       0.25000000       0.50050152 </v>
   <v>       0.75000000       0.75000000       0.00050152 </v>
   <v>       0.75000000       0.75000000       0.50050152 </v>
   <v>       0.12500000       0.12500000       0.12449848 </v>
   <v>       0.12500000       0.12500000       0.62449848 </v>
   <v>       0.12500000       0.62500000       0.12449848 </v>
   <v>       0.12500000       0.62500000       0.62449848 </v>
   <v>       0.62500000       0.12500000       0.12449848 </v>
   <v>       0.62500000       0.12500000       0.62449848 </v>
   <v>       0.62500000       0.62500000       0.12449848 </v>
   <v>       0.62500000       0.62500000       0.62449848 </v>
  </varray>
 </structure>
</modeling>
