Si64                                    
           1
    10.996430    0.081254    0.000000
     0.081254   10.833921    0.000000
     0.000000    0.000000   10.833921
   Si
    64
Direct configuration=     1
   0.00000000  0.00000000  0.00000000
   0.00000000  0.00000000  0.50000000
   0.00000000  0.50000000  0.00000000
   0.00000000  0.50000000  0.50000000
   0.50000000  0.00000000  0.00000000
   0.50000000  0.00000000  0.50000000
   0.50000000  0.50000000  0.00000000
   0.50000000  0.50000000  0.50000000
   0.37500000  0.37500000  0.12500000
   0.37500000  0.37500000  0.62500000
   0.37500000  0.87500000  0.12500000
   0.37500000  0.87500000  0.62500000
   0.87500000  0.37500000  0.12500000
   0.87500000  0.37500000  0.62500000
   0.87500000  0.87500000  0.12500000
   0.87500000  0.87500000  0.62500000
   0.00000000  0.25000000  0.25000000
   0.00000000  0.25000000  0.75000000
   0.00000000  0.75000000  0.25000000
   0.00000000  0.75000000  0.75000000
   0.50000000  0.25000000  0.25000000
   0.50000000  0.25000000  0.75000000
   0.50000000  0.75000000  0.25000000
   0.50000000  0.75000000  0.75000000
   0.37500000  0.12500000  0.37500000
   0.37500000  0.12500000  0.87500000
   0.37500000  0.62500000  0.37500000
   0.37500000  0.62500000  0.87500000
   0.87500000  0.12500000  0.37500000
   0.87500000  0.12500000  0.87500000
   0.87500000  0.62500000  0.37500000
   0.87500000  0.62500000  0.87500000
   0.25000000  0.00000000  0.25000000
   0.25000000  0.00000000  0.75000000
   0.25000000  0.50000000  0.25000000
   0.25000000  0.50000000  0.75000000
   0.75000000  0.00000000  0.25000000
   0.75000000  0.00000000  0.75000000
   0.75000000  0.50000000  0.25000000
   0.75000000  0.50000000  0.75000000
   0.12500000  0.37500000  0.37500000
   0.12500000  0.37500000  0.87500000
   0.12500000  0.87500000  0.37500000
   0.12500000  0.87500000  0.87500000
   0.62500000  0.37500000  0.37500000
   0.62500000  0.37500000  0.87500000
   0.62500000  0.87500000  0.37500000
   0.62500000  0.87500000  0.87500000
   0.25000000  0.25000000  0.00000000
   0.25000000  0.25000000  0.50000000
   0.25000000  0.75000000  0.00000000
   0.25000000  0.75000000  0.50000000
   0.75000000  0.25000000  0.00000000
   0.75000000  0.25000000  0.50000000
   0.75000000  0.75000000  0.00000000
   0.75000000  0.75000000  0.50000000
   0.12500000  0.12500000  0.12500000
   0.12500000  0.12500000  0.62500000
   0.12500000  0.62500000  0.12500000
   0.12500000  0.62500000  0.62500000
   0.62500000  0.12500000  0.12500000
   0.62500000  0.12500000  0.62500000
   0.62500000  0.62500000  0.12500000
   0.62500000  0.62500000  0.62500000
Direct configuration=     2
   1.00000000  1.00000000  0.00064350
   1.00000000  1.00000000  0.50064350
   1.00000000  0.50000000  0.00064350
   1.00000000  0.50000000  0.50064350
   0.50000000  0.00000000  0.00064350
   0.50000000  0.00000000  0.50064350
   0.50000000  0.50000000  0.00064350
   0.50000000  0.50000000  0.50064350
   0.37500000  0.37500000  0.12435650
   0.37500000  0.37500000  0.62435650
   0.37500000  0.87500000  0.12435650
   0.37500000  0.87500000  0.62435650
   0.87500000  0.37500000  0.12435650
   0.87500000  0.37500000  0.62435650
   0.87500000  0.87500000  0.12435650
   0.87500000  0.87500000  0.62435650
   1.00000000  0.25000000  0.25064350
   1.00000000  0.25000000  0.75064350
   1.00000000  0.75000000  0.25064350
   1.00000000  0.75000000  0.75064350
   0.50000000  0.25000000  0.25064350
   0.50000000  0.25000000  0.75064350
   0.50000000  0.75000000  0.25064350
   0.50000000  0.75000000  0.75064350
   0.37500000  0.12500000  0.37435650
   0.37500000  0.12500000  0.87435650
   0.37500000  0.62500000  0.37435650
   0.37500000  0.62500000  0.87435650
   0.87500000  0.12500000  0.37435650
   0.87500000  0.12500000  0.87435650
   0.87500000  0.62500000  0.37435650
   0.87500000  0.62500000  0.87435650
   0.25000000  1.00000000  0.25064350
   0.25000000  1.00000000  0.75064350
   0.25000000  0.50000000  0.25064350
   0.25000000  0.50000000  0.75064350
   0.75000000  1.00000000  0.25064350
   0.75000000  0.00000000  0.75064350
   0.75000000  0.50000000  0.25064350
   0.75000000  0.50000000  0.75064350
   0.12500000  0.37500000  0.37435650
   0.12500000  0.37500000  0.87435650
   0.12500000  0.87500000  0.37435650
   0.12500000  0.87500000  0.87435650
   0.62500000  0.37500000  0.37435650
   0.62500000  0.37500000  0.87435650
   0.62500000  0.87500000  0.37435650
   0.62500000  0.87500000  0.87435650
   0.25000000  0.25000000  0.00064350
   0.25000000  0.25000000  0.50064350
   0.25000000  0.75000000  0.00064350
   0.25000000  0.75000000  0.50064350
   0.75000000  0.25000000  0.00064350
   0.75000000  0.25000000  0.50064350
   0.75000000  0.75000000  0.00064350
   0.75000000  0.75000000  0.50064350
   0.12500000  0.12500000  0.12435650
   0.12500000  0.12500000  0.62435650
   0.12500000  0.62500000  0.12435650
   0.12500000  0.62500000  0.62435650
   0.62500000  0.12500000  0.12435650
   0.62500000  0.12500000  0.62435650
   0.62500000  0.62500000  0.12435650
   0.62500000  0.62500000  0.62435650
Direct configuration=     3
   0.00000000  0.00000000  0.00050152
   0.00000000  0.00000000  0.50050152
   0.00000000  0.50000000  0.00050152
   0.00000000  0.50000000  0.50050152
   0.50000000  0.00000000  0.00050152
   0.50000000  0.00000000  0.50050152
   0.50000000  0.50000000  0.00050152
   0.50000000  0.50000000  0.50050152
   0.37500000  0.37500000  0.12449848
   0.37500000  0.37500000  0.62449848
   0.37500000  0.87500000  0.12449848
   0.37500000  0.87500000  0.62449848
   0.87500000  0.37500000  0.12449848
   0.87500000  0.37500000  0.62449848
   0.87500000  0.87500000  0.12449848
   0.87500000  0.87500000  0.62449848
   0.00000000  0.25000000  0.25050152
   0.00000000  0.25000000  0.75050152
   0.00000000  0.75000000  0.25050152
   0.00000000  0.75000000  0.75050152
   0.50000000  0.25000000  0.25050152
   0.50000000  0.25000000  0.75050152
   0.50000000  0.75000000  0.25050152
   0.50000000  0.75000000  0.75050152
   0.37500000  0.12500000  0.37449848
   0.37500000  0.12500000  0.87449848
   0.37500000  0.62500000  0.37449848
   0.37500000  0.62500000  0.87449848
   0.87500000  0.12500000  0.37449848
   0.87500000  0.12500000  0.87449848
   0.87500000  0.62500000  0.37449848
   0.87500000  0.62500000  0.87449848
   0.25000000  0.00000000  0.25050152
   0.25000000  0.00000000  0.75050152
   0.25000000  0.50000000  0.25050152
   0.25000000  0.50000000  0.75050152
   0.75000000  0.00000000  0.25050152
   0.75000000  0.00000000  0.75050152
   0.75000000  0.50000000  0.25050152
   0.75000000  0.50000000  0.75050152
   0.12500000  0.37500000  0.37449848
   0.12500000  0.37500000  0.87449848
   0.12500000  0.87500000  0.37449848
   0.12500000  0.87500000  0.87449848
   0.62500000  0.37500000  0.37449848
   0.62500000  0.37500000  0.87449848
   0.62500000  0.87500000  0.37449848
   0.62500000  0.87500000  0.87449848
   0.25000000  0.25000000  0.00050152
   0.25000000  0.25000000  0.50050152
   0.25000000  0.75000000  0.00050152
   0.25000000  0.75000000  0.50050152
   0.75000000  0.25000000  0.00050152
   0.75000000  0.25000000  0.50050152
   0.75000000  0.75000000  0.00050152
   0.75000000  0.75000000  0.50050152
   0.12500000  0.12500000  0.12449848
   0.12500000  0.12500000  0.62449848
   0.12500000  0.62500000  0.12449848
   0.12500000  0.62500000  0.62449848
   0.62500000  0.12500000  0.12449848
   0.62500000  0.12500000  0.62449848
   0.62500000  0.62500000  0.12449848
   0.62500000  0.62500000  0.62449848
