       N       E                     dE             d eps       ncg     rms          rms(c)
DAV:   1     0.562858611667E+03    0.56286E+03   -0.84107E+04  2592   0.106E+03
DAV:   2    -0.310539504426E+03   -0.87340E+03   -0.82742E+03  3096   0.173E+02
DAV:   3    -0.373343589705E+03   -0.62804E+02   -0.61591E+02  3144   0.409E+01
DAV:   4    -0.374963392494E+03   -0.16198E+01   -0.16074E+01  3128   0.798E+00
DAV:   5    -0.375014683677E+03   -0.51291E-01   -0.51174E-01  3062   0.133E+00    0.289E+01
RMM:   6    -0.369707308543E+03    0.53074E+01   -0.26839E+00  2592   0.256E+00    0.174E+01
RMM:   7    -0.367311847396E+03    0.23955E+01   -0.68805E+00  2653   0.411E+00    0.101E+00
RMM:   8    -0.367351794431E+03   -0.39947E-01   -0.63705E-01  2615   0.156E+00    0.500E-01
RMM:   9    -0.367371980845E+03   -0.20186E-01   -0.18758E-01  2667   0.765E-01    0.577E-01
RMM:  10    -0.367375372206E+03   -0.33914E-02   -0.33230E-02  2738   0.360E-01    0.718E-01
RMM:  11    -0.367372757282E+03    0.26149E-02   -0.10646E-02  2592   0.212E-01    0.771E-01
RMM:  12    -0.367372763390E+03   -0.61081E-05   -0.17306E-03  2605   0.989E-02    0.842E-01
RMM:  13    -0.367372835838E+03   -0.72448E-04   -0.33427E-04  2754   0.412E-02    0.871E-01
RMM:  14    -0.367372357192E+03    0.47865E-03   -0.19720E-04  2592   0.322E-02    0.851E-01
RMM:  15    -0.367372588783E+03   -0.23159E-03   -0.92931E-05  2592   0.173E-02    0.809E-01
RMM:  16    -0.367372930335E+03   -0.34155E-03   -0.76411E-05  2592   0.199E-02    0.648E-01
RMM:  17    -0.367373062154E+03   -0.13182E-03   -0.44708E-05  2592   0.153E-02    0.458E-01
RMM:  18    -0.367373126839E+03   -0.64685E-04   -0.14636E-05  2593   0.971E-03    0.284E-01
RMM:  19    -0.367373178932E+03   -0.52093E-04   -0.18135E-05  2595   0.101E-02    0.109E-01
RMM:  20    -0.367373196358E+03   -0.17426E-04   -0.11360E-05  2587   0.796E-03    0.197E-02
RMM:  21    -0.367373199227E+03   -0.28681E-05   -0.28261E-06  1768   0.392E-03    0.179E-02
RMM:  22    -0.367373200027E+03   -0.80020E-06   -0.40176E-07  1564   0.138E-03
   1 F= -.36737320E+03 E0= -.36738312E+03  d E =-.367373E+03
       N       E                     dE             d eps       ncg     rms          rms(c)
DAV:   1    -0.367375458643E+03   -0.22594E-02   -0.12094E-01  2976   0.666E-01    0.152E-01
RMM:   2    -0.367376065097E+03   -0.60645E-03   -0.63307E-03  2593   0.167E-01    0.611E-02
RMM:   3    -0.367376161945E+03   -0.96848E-04   -0.10211E-03  2647   0.751E-02    0.260E-02
RMM:   4    -0.367376162226E+03   -0.28050E-06   -0.13716E-04  2662   0.312E-02    0.900E-03
RMM:   5    -0.367376163266E+03   -0.10403E-05   -0.23472E-05  2635   0.124E-02    0.209E-03
RMM:   6    -0.367376163832E+03   -0.56576E-06   -0.55163E-06  2030   0.549E-03    0.353E-04
RMM:   7    -0.367376163914E+03   -0.81675E-07   -0.83301E-07  1544   0.213E-03    0.336E-04
RMM:   8    -0.367376163932E+03   -0.18752E-07   -0.21731E-07  1304   0.105E-03
   2 F= -.36737616E+03 E0= -.36738607E+03  d E =-.296391E-02
       N       E                     dE             d eps       ncg     rms          rms(c)
DAV:   1    -0.367376562516E+03   -0.39860E-03   -0.85419E-03  2966   0.177E-01    0.401E-02
RMM:   2    -0.367376604747E+03   -0.42230E-04   -0.43853E-04  2592   0.441E-02    0.162E-02
RMM:   3    -0.367376611446E+03   -0.66992E-05   -0.69686E-05  2646   0.198E-02    0.686E-03
RMM:   4    -0.367376611519E+03   -0.73376E-07   -0.93091E-06  2452   0.821E-03    0.238E-03
RMM:   5    -0.367376611597E+03   -0.77485E-07   -0.15859E-06  1577   0.326E-03    0.606E-04
RMM:   6    -0.367376611629E+03   -0.32507E-07   -0.32763E-07  1474   0.134E-03    0.149E-04
RMM:   7    -0.367376611638E+03   -0.81054E-08   -0.85655E-08   948   0.721E-04    0.133E-04
RMM:   8    -0.367376611639E+03   -0.15534E-08   -0.15496E-08   581   0.483E-04
   3 F= -.36737661E+03 E0= -.36738653E+03  d E =-.341161E-02
