 vasp.6.4.3 19Mar24 (build Oct 21 2024 22:36:34) complex                        
  
 executed on             LinuxIFC date 2024.11.01  22:49:46
 running   96 mpi-ranks, on    1 nodes
 distrk:  each k-point on   24 cores,    4 groups
 distr:  one band on NCORE=  12 cores,    2 groups


--------------------------------------------------------------------------------------------------------


 INCAR:
   SYSTEM = Si64
   ISTART = 0
   ICHARG = 2
   LREAL = Auto
   PREC = Accurate
   LWAVE = .False.
   LCHARG = .False.
   ADDGRID = .True.
   ENCUT = 400
   GGA = PS
   GGA_COMPAT = .FALSE.
   ISMEAR = 1
   SIGMA = 0.2
   NELM = 60
   NELMIN = 8
   EDIFF = 1e-06
   EDIFFG = -0.01
   NSW = 60
   IBRION = 2
   ISIF = 2
   KPAR = 4
   NPAR = 2
   ALGO = Fast

 POTCAR:    PAW_PBE Si 05Jan2001                  
 POTCAR:    PAW_PBE Si 05Jan2001                  
   VRHFIN =Si: s2p2                                                                                 
   LEXCH  = PE                                                                                      
   EATOM  =   103.0669 eV,    7.5752 Ry                                                             
                                                                                                    
   TITEL  = PAW_PBE Si 05Jan2001                                                                    
   LULTRA =        F    use ultrasoft PP ?                                                          
   IUNSCR =        1    unscreen: 0-lin 1-nonlin 2-no                                               
   RPACOR =    1.500    partial core radius                                                         
   POMASS =   28.085; ZVAL   =    4.000    mass and valenz                                          
   RCORE  =    1.900    outmost cutoff radius                                                       
   RWIGS  =    2.480; RWIGS  =    1.312    wigner-seitz radius (au A)                               
   ENMAX  =  245.345; ENMIN  =  184.009 eV                                                          
   ICORE  =        2    local potential                                                             
   LCOR   =        T    correct aug charges                                                         
   LPAW   =        T    paw PP                                                                      
   EAUG   =  322.069                                                                                
   DEXC   =    0.000                                                                                
   RMAX   =    1.950    core radius for proj-oper                                                   
   RAUG   =    1.300    factor for augmentation sphere                                              
   RDEP   =    1.993    radius for radial grids                                                     
   RDEPT  =    1.837    core radius for aug-charge                                                  
                                                                                                    
   Atomic configuration                                                                             
    6 entries                                                                                       
     n  l   j            E        occ.                                                              
     1  0  0.50     -1785.8828   2.0000                                                             
     2  0  0.50      -139.4969   2.0000                                                             
     2  1  1.50       -95.5546   6.0000                                                             
     3  0  0.50       -10.8127   2.0000                                                             
     3  1  0.50        -4.0811   2.0000                                                             
     3  2  1.50        -4.0817   0.0000                                                             
   Description                                                                                      
     l       E           TYP  RCUT    TYP  RCUT                                                     
     0    -10.8127223     23  1.900                                                                 
     0     -7.6451159     23  1.900                                                                 
     1     -4.0811372     23  1.900                                                                 
     1      2.4879257     23  1.900                                                                 
     2     -4.0817478      7  1.900                                                                 
  local pseudopotential read in
  partial core-charges read in
  partial kinetic energy density read in
  atomic valenz-charges read in
  non local Contribution for L=           0  read in
    real space projection operators read in
  non local Contribution for L=           0  read in
    real space projection operators read in
  non local Contribution for L=           1  read in
    real space projection operators read in
  non local Contribution for L=           1  read in
    real space projection operators read in
    PAW grid and wavefunctions read in
 
   number of l-projection  operators is LMAX  =           4
   number of lm-projection operators is LMMAX =           8
 
 Optimization of the real space projectors (new method)

 maximal supplied QI-value         = 19.84
 optimisation between [QCUT,QGAM] = [ 10.12, 20.44] = [ 28.68,116.96] Ry 
 Optimized for a Real-space Cutoff    1.38 Angstroem

   l    n(q)    QCUT    max X(q) W(low)/X(q) W(high)/X(q)  e(spline) 
   0      8    10.119   159.560    0.58E-04    0.11E-03    0.54E-07
   0      8    10.119   115.863    0.56E-04    0.11E-03    0.54E-07
   1      8    10.119    88.339    0.22E-03    0.17E-03    0.19E-06
   1      8    10.119    48.592    0.22E-03    0.17E-03    0.18E-06
 -----------------------------------------------------------------------------
|                                                                             |
|               ----> ADVICE to this user running VASP <----                  |
|                                                                             |
|     You enforced a specific xc type in the INCAR file but a different       |
|     type was found in the POTCAR file.                                      |
|     I HOPE YOU KNOW WHAT YOU ARE DOING!                                     |
|                                                                             |
 -----------------------------------------------------------------------------

  PAW_PBE Si 05Jan2001                  :
 energy of atom  1       EATOM= -103.0669
 kinetic energy error for atom=    0.0012 (will be added to EATOM!!)
 
 
 POSCAR: Si8
  positions in direct lattice
  velocities in cartesian coordinates


 exchange-correlation table for PS
   RHO(1)=    0.500       N(1)  =     2000
   RHO(2)=  100.500       N(2)  =     4000
 


--------------------------------------------------------------------------------------------------------


 ion  position               nearest neighbor table
   1  0.000  0.000  0.000-  30 2.33  44 2.33  15 2.34  57 2.34
   2  0.000  0.000  0.500-  29 2.33  43 2.33  16 2.34  58 2.34
   3  0.000  0.500  0.000-  32 2.33  42 2.33  13 2.34  59 2.34
   4  0.000  0.500  0.500-  31 2.33  41 2.33  14 2.34  60 2.34
   5  0.500  0.000  0.000-  26 2.33  48 2.33  11 2.34  61 2.34
   6  0.500  0.000  0.500-  25 2.33  47 2.33  12 2.34  62 2.34
   7  0.500  0.500  0.000-  28 2.33  46 2.33   9 2.34  63 2.34
   8  0.500  0.500  0.500-  27 2.33  45 2.33  10 2.34  64 2.34
   9  0.375  0.375  0.125-  21 2.33  35 2.33   7 2.34  49 2.34
  10  0.375  0.375  0.625-  22 2.33  36 2.33   8 2.34  50 2.34
  11  0.375  0.875  0.125-  23 2.33  33 2.33   5 2.34  51 2.34
  12  0.375  0.875  0.625-  24 2.33  34 2.33   6 2.34  52 2.34
  13  0.875  0.375  0.125-  17 2.33  39 2.33   3 2.34  53 2.34
  14  0.875  0.375  0.625-  18 2.33  40 2.33   4 2.34  54 2.34
  15  0.875  0.875  0.125-  19 2.33  37 2.33   1 2.34  55 2.34
  16  0.875  0.875  0.625-  20 2.33  38 2.33   2 2.34  56 2.34
  17  0.000  0.250  0.250-  13 2.33  57 2.33  41 2.34  29 2.34
  18  0.000  0.250  0.750-  14 2.33  58 2.33  42 2.34  30 2.34
  19  0.000  0.750  0.250-  15 2.33  59 2.33  43 2.34  31 2.34
  20  0.000  0.750  0.750-  16 2.33  60 2.33  44 2.34  32 2.34
  21  0.500  0.250  0.250-   9 2.33  61 2.33  45 2.34  25 2.34
  22  0.500  0.250  0.750-  10 2.33  62 2.33  46 2.34  26 2.34
  23  0.500  0.750  0.250-  11 2.33  63 2.33  47 2.34  27 2.34
  24  0.500  0.750  0.750-  12 2.33  64 2.33  48 2.34  28 2.34
  25  0.375  0.125  0.375-   6 2.33  50 2.33  33 2.34  21 2.34
  26  0.375  0.125  0.875-   5 2.33  49 2.33  34 2.34  22 2.34
  27  0.375  0.625  0.375-   8 2.33  52 2.33  35 2.34  23 2.34
  28  0.375  0.625  0.875-   7 2.33  51 2.33  36 2.34  24 2.34
  29  0.875  0.125  0.375-   2 2.33  54 2.33  37 2.34  17 2.34
  30  0.875  0.125  0.875-   1 2.33  53 2.33  38 2.34  18 2.34
  31  0.875  0.625  0.375-   4 2.33  56 2.33  39 2.34  19 2.34
  32  0.875  0.625  0.875-   3 2.33  55 2.33  40 2.34  20 2.34
  33  0.250  0.000  0.250-  11 2.33  57 2.33  43 2.34  25 2.34
  34  0.250  0.000  0.750-  12 2.33  58 2.33  44 2.34  26 2.34
  35  0.250  0.500  0.250-   9 2.33  59 2.33  41 2.34  27 2.34
  36  0.250  0.500  0.750-  10 2.33  60 2.33  42 2.34  28 2.34
  37  0.750  0.000  0.250-  15 2.33  61 2.33  47 2.34  29 2.34
  38  0.750  0.000  0.750-  16 2.33  62 2.33  48 2.34  30 2.34
  39  0.750  0.500  0.250-  13 2.33  63 2.33  45 2.34  31 2.34
  40  0.750  0.500  0.750-  14 2.33  64 2.33  46 2.34  32 2.34
  41  0.125  0.375  0.375-   4 2.33  50 2.33  35 2.34  17 2.34
  42  0.125  0.375  0.875-   3 2.33  49 2.33  36 2.34  18 2.34
  43  0.125  0.875  0.375-   2 2.33  52 2.33  33 2.34  19 2.34
  44  0.125  0.875  0.875-   1 2.33  51 2.33  34 2.34  20 2.34
  45  0.625  0.375  0.375-   8 2.33  54 2.33  39 2.34  21 2.34
  46  0.625  0.375  0.875-   7 2.33  53 2.33  40 2.34  22 2.34
  47  0.625  0.875  0.375-   6 2.33  56 2.33  37 2.34  23 2.34
  48  0.625  0.875  0.875-   5 2.33  55 2.33  38 2.34  24 2.34
  49  0.250  0.250  0.000-  26 2.33  42 2.33   9 2.34  57 2.34
  50  0.250  0.250  0.500-  25 2.33  41 2.33  10 2.34  58 2.34
  51  0.250  0.750  0.000-  28 2.33  44 2.33  11 2.34  59 2.34
  52  0.250  0.750  0.500-  27 2.33  43 2.33  12 2.34  60 2.34
  53  0.750  0.250  0.000-  30 2.33  46 2.33  13 2.34  61 2.34
  54  0.750  0.250  0.500-  29 2.33  45 2.33  14 2.34  62 2.34
  55  0.750  0.750  0.000-  32 2.33  48 2.33  15 2.34  63 2.34
  56  0.750  0.750  0.500-  31 2.33  47 2.33  16 2.34  64 2.34
  57  0.125  0.125  0.125-  17 2.33  33 2.33   1 2.34  49 2.34
  58  0.125  0.125  0.625-  18 2.33  34 2.33   2 2.34  50 2.34
  59  0.125  0.625  0.125-  19 2.33  35 2.33   3 2.34  51 2.34
  60  0.125  0.625  0.625-  20 2.33  36 2.33   4 2.34  52 2.34
  61  0.625  0.125  0.125-  21 2.33  37 2.33   5 2.34  53 2.34
  62  0.625  0.125  0.625-  22 2.33  38 2.33   6 2.34  54 2.34
  63  0.625  0.625  0.125-  23 2.33  39 2.33   7 2.34  55 2.34
  64  0.625  0.625  0.625-  24 2.33  40 2.33   8 2.34  56 2.34
 
  LATTYP: Found a simple monoclinic cell.
 ALAT       =    10.7641672267
 B/A-ratio  =     0.9999968751
 C/A-ratio  =     1.0050000004
 COS(beta)  =    -0.0049874699
  
  Lattice vectors:
  
 A1 = (   0.0269100040,  10.7641335897,   0.0000000000)
 A2 = (   0.0000000000,   0.0000000000, -10.7641335897)
 A3 = ( -10.8179545976,  -0.0269100040,   0.0000000000)


Analysis of symmetry for initial positions (statically):
=====================================================================
 Subroutine PRICEL returns following result:
 
  LATTYP: Found a base centered monoclinic cell.
 ALAT       =     5.3820836133
 B/A-ratio  =     0.9999968751
 C/A-ratio  =     0.7071068141
 COS(beta)  =    -0.7035624412
  
  Lattice vectors:
  
 A1 = (   0.0067275010,   2.6910333974,  -2.6910333974)
 A2 = (   0.0067275010,   2.6910333974,   2.6910333974)
 A3 = (   2.6977611484,  -2.6843058964,   0.0000000000)
 
  32 primitive cells build up your supercell.
 

 Routine SETGRP: Setting up the symmetry group for a 
 simple monoclinic supercell.


 Subroutine GETGRP returns: Found  4 space group operations
 (whereof  2 operations were pure point group operations)
 out of a pool of  4 trial point group operations.


The static configuration has the point symmetry C_2 .
 The point group associated with its full space group is C_2h.


Analysis of symmetry for dynamics (positions and initial velocities):
=====================================================================
 Subroutine PRICEL returns following result:
 
  LATTYP: Found a base centered monoclinic cell.
 ALAT       =     5.3820836133
 B/A-ratio  =     0.9999968751
 C/A-ratio  =     0.7071068141
 COS(beta)  =    -0.7035624412
  
  Lattice vectors:
  
 A1 = (   0.0067275010,   2.6910333974,  -2.6910333974)
 A2 = (   0.0067275010,   2.6910333974,   2.6910333974)
 A3 = (   2.6977611484,  -2.6843058964,   0.0000000000)
 
  32 primitive cells build up your supercell.
 

 Routine SETGRP: Setting up the symmetry group for a 
 simple monoclinic supercell.


 Subroutine GETGRP returns: Found  4 space group operations
 (whereof  2 operations were pure point group operations)
 out of a pool of  4 trial point group operations.


The dynamic configuration has the point symmetry C_2 .
 The point group associated with its full space group is C_2h.


 Subroutine INISYM returns: Found  4 space group operations
 (whereof  2 operations are pure point group operations),
 and found    32 'primitive' translations


----------------------------------------------------------------------------------------

                                     Primitive cell                                     

  volume of cell :      39.1697

  direct lattice vectors                    reciprocal lattice vectors
     0.006727501  2.691033397 -2.691033397     0.184416791  0.185341191 -0.185802228
     0.006727501  2.691033397  2.691033397     0.184416791  0.185341191  0.185802228
     2.697761148 -2.684305896  0.000000000     0.369757965 -0.000924384 -0.000000000

  length of vectors
     3.805701874  3.805701874  3.805707997     0.320754388  0.320754388  0.369759120

  position of ions in fractional coordinates (direct lattice)
     0.000000000  0.000000000  0.000000000
     0.250000000  0.750000000  0.500000000

  ion indices of the primitive-cell ions
   primitive index   ion index
                 1           1
                 2          15

----------------------------------------------------------------------------------------

 
 
 KPOINTS: Automatic mesh                          

Automatic generation of k-mesh.
 Grid dimensions read from file:
 generate k-points for:    2    2    2

 Generating k-lattice:

  Cartesian coordinates                     Fractional coordinates (reciprocal lattice)
     0.046219746 -0.000115548  0.000000000     0.500000000  0.000000000  0.000000000
    -0.000115548  0.046450846  0.000000000    -0.000000000  0.500000000  0.000000000
     0.000000000  0.000000000  0.046450557     0.000000000  0.000000000  0.500000000

  Length of vectors
     0.046219890  0.046450990  0.046450557

  Shift w.r.t. Gamma in fractional coordinates (k-lattice)
     0.000000000  0.000000000  0.000000000

 
 Subroutine IBZKPT returns following result:
 ===========================================
 
 Found      8 irreducible k-points:
 
 Following reciprocal coordinates:
            Coordinates               Weight
  0.000000  0.000000  0.000000      1.000000
  0.500000  0.000000  0.000000      1.000000
  0.000000  0.500000  0.000000      1.000000
  0.500000  0.500000  0.000000      1.000000
  0.000000  0.000000  0.500000      1.000000
  0.500000  0.000000  0.500000      1.000000
  0.000000  0.500000  0.500000      1.000000
  0.500000  0.500000  0.500000      1.000000
 
 Following cartesian coordinates:
            Coordinates               Weight
  0.000000  0.000000  0.000000      1.000000
  0.046220 -0.000116  0.000000      1.000000
 -0.000116  0.046451  0.000000      1.000000
  0.046104  0.046335  0.000000      1.000000
  0.000000  0.000000  0.046451      1.000000
  0.046220 -0.000116  0.046451      1.000000
 -0.000116  0.046451  0.046451      1.000000
  0.046104  0.046335  0.046451      1.000000
 


--------------------------------------------------------------------------------------------------------




 Dimension of arrays:
   k-points           NKPTS =      8   k-points in BZ     NKDIM =      8   number of bands    NBANDS=    162
   number of dos      NEDOS =    301   number of ions     NIONS =     64
   non local maximal  LDIM  =      4   non local SUM 2l+1 LMDIM =      8
   total plane-waves  NPLWV = 352800
   max r-space proj   IRMAX =   3152   max aug-charges    IRDMAX=  75477
   dimension x,y,z NGX =    72 NGY =   70 NGZ =   70
   dimension x,y,z NGXF=   144 NGYF=  140 NGZF=  140
   support grid    NGXF=   288 NGYF=  280 NGZF=  280
   ions per type =              64
   NGX,Y,Z   is equivalent  to a cutoff of  11.06, 10.81, 10.81 a.u.
   NGXF,Y,Z  is equivalent  to a cutoff of  22.13, 21.62, 21.62 a.u.

 SYSTEM =  Si64                                    
 POSCAR =  Si8                                     

 Startparameter for this run:
   NWRITE =      2    write-flag & timer
   PREC   = accura    normal or accurate (medium, high low for compatibility)
   ISTART =      0    job   : 0-new  1-cont  2-samecut
   ICHARG =      2    charge: 1-file 2-atom 10-const
   ISPIN  =      1    spin polarized calculation?
   LNONCOLLINEAR =      F non collinear calculations
   LSORBIT =      F    spin-orbit coupling
   INIWAV =      1    electr: 0-lowe 1-rand  2-diag
   LASPH  =      F    aspherical Exc in radial PAW
 Electronic Relaxation 1
   ENCUT  =  400.0 eV  29.40 Ry    5.42 a.u.  17.64 17.55 17.55*2*pi/ulx,y,z
   ENINI  =  400.0     initial cutoff
   ENAUG  =  322.1 eV  augmentation charge cutoff
   NELM   =     60;   NELMIN=  8; NELMDL= -5     # of ELM steps 
   EDIFF  = 0.1E-05   stopping-criterion for ELM
   LREAL  =      T    real-space projection
   NLSPLINE    = F    spline interpolate recip. space projectors
   LCOMPAT=      F    compatible to vasp.4.4
   GGA_COMPAT  = F    GGA compatible to vasp.4.4-vasp.4.6
   LMAXPAW     = -100 max onsite density
   LMAXMIX     =    2 max onsite mixed and CHGCAR
   VOSKOWN=      0    Vosko Wilk Nusair interpolation
   ROPT   =   -0.00025
 Ionic relaxation
   EDIFFG = -.1E-01   stopping-criterion for IOM
   NSW    =     60    number of steps for IOM
   NBLOCK =      1;   KBLOCK =     60    inner block; outer block 
   IBRION =      2    ionic relax: 0-MD 1-quasi-New 2-CG
   NFREE  =      1    steps in history (QN), initial steepest desc. (CG)
   ISIF   =      2    stress and relaxation
   IWAVPR =     11    prediction:  0-non 1-charg 2-wave 3-comb
   ISYM   =      2    0-nonsym 1-usesym 2-fastsym
   LCORR  =      T    Harris-Foulkes like correction to forces

   POTIM  = 0.5000    time-step for ionic-motion
   TEIN   =    0.0    initial temperature
   TEBEG  =    0.0;   TEEND  =   0.0 temperature during run
   SMASS  =  -3.00    Nose mass-parameter (am)
   estimated Nose-frequenzy (Omega)   =  0.10E-29 period in steps = 0.13E+47 mass=  -0.267E-26a.u.
   SCALEE = 1.0000    scale energy and forces
   NPACO  =    256;   APACO  = 10.0  distance and # of slots for P.C.
   PSTRESS=    0.0 pullay stress

  Mass of Ions in am
   POMASS =  28.09
  Ionic Valenz
   ZVAL   =   4.00
  Atomic Wigner-Seitz radii
   RWIGS  =  -1.00
  virtual crystal weights 
   VCA    =   1.00
   NELECT =     256.0000    total number of electrons
   NUPDOWN=      -1.0000    fix difference up-down

 DOS related values:
   EMIN   =  10.00;   EMAX   =-10.00  energy-range for DOS
   EFERMI =   0.00;   METHOD = LEGACY      
   ISMEAR =     1;   SIGMA  =   0.20  broadening in eV -4-tet -1-fermi 0-gaus

 Electronic relaxation 2 (details)
   IALGO  =     68    algorithm
   LDIAG  =      T    sub-space diagonalisation (order eigenvalues)
   LSUBROT=      F    optimize rotation matrix (better conditioning)
   TURBO    =      0    0=normal 1=particle mesh
   IRESTART =      0    0=no restart 2=restart with 2 vectors
   NREBOOT  =      0    no. of reboots
   NMIN     =      0    reboot dimension
   EREF     =   0.00    reference energy to select bands
   IMIX   =      4    mixing-type and parameters
     AMIX     =   0.40;   BMIX     =  1.00
     AMIX_MAG =   1.60;   BMIX_MAG =  1.00
     AMIN     =   0.10
     WC   =   100.;   INIMIX=   1;  MIXPRE=   1;  MAXMIX= -45

 Intra band minimization:
   WEIMIN = 0.0010     energy-eigenvalue tresh-hold
   EBREAK =  0.15E-08  absolut break condition
   DEPER  =   0.30     relativ break condition  

   TIME   =   0.40     timestep for ELM

  volume/ion in A,a.u.               =      19.58       132.17
  Fermi-wavevector in a.u.,A,eV,Ry     =   0.964098  1.821881 12.646416  0.929485
  Thomas-Fermi vector in A             =   2.093700
 
 Write flags
   LWAVE        =      F    write WAVECAR
   LDOWNSAMPLE  =      F    k-point downsampling of WAVECAR
   LCHARG       =      F    write CHGCAR
   LVTOT        =      F    write LOCPOT, total local potential
   LVHAR        =      F    write LOCPOT, Hartree potential only
   WRT_POTENTIAL= false  ! write potential to hdf5 file
   LELF         =      F    write electronic localiz. function (ELF)
   LORBIT       =      0    0 simple, 1 ext, 2 COOP (PROOUT), +10 PAW based schemes


 Dipole corrections
   LMONO      =      F    monopole corrections only (constant potential shift)
   LDIPOL     =      F    correct potential (dipole corrections)
   IDIPOL     =      0    1-x, 2-y, 3-z, 4-all directions 
   EPSILON    =  1.0000000 bulk dielectric constant
   LVACPOTAV  =      F  vacuum potentials using an averaging scheme for the charge density
   VACPOTFLAT =  0.1000000 required flatness to determine vacuum potential
 Exchange correlation treatment:
   GGA     = PS    functional components
   XC_C    = 1    coefficients multiplying the functional components
   LIBXC   =     F    Libxc                    
   VOSKOWN =     0    Vosko Wilk Nusair interpolation
   LHFCALC =     F    Hartree Fock is set to
   LHFONE  =     F    Hartree Fock one center treatment
   AEXX    =    0.0000 exact exchange contribution

 Parameters of functionals:
   PS:
     No parameter
 
 Van der Waals corrections
   IVDW    =     0    specifies the selected vdW correction

 Linear response parameters
   LEPSILON=     F    determine dielectric tensor
   LRPA    =     F    only Hartree local field effects (RPA)
   LNABLA  =     F    use nabla operator in PAW spheres
   LVEL    =     F    velocity operator in full k-point grid
   CSHIFT  =0.1000    complex shift for real part using Kramers Kronig
   OMEGAMAX=  -1.0    maximum frequency
   DEG_THRESHOLD= 0.2000000E-02 threshold for treating states as degnerate
   RTIME   =   -0.100 relaxation time in fs
  (WPLASMAI=    0.000 imaginary part of plasma frequency in eV, 0.658/RTIME)
   DFIELD  = 0.0000000 0.0000000 0.0000000 field for delta impulse in time
 
  Optional k-point grid parameters
   LKPOINTS_OPT  =     F    use optional k-point grid
   KPOINTS_OPT_MODE=     1    mode for optional k-point grid
 
 Orbital magnetization related:
   ORBITALMAG=     F  switch on orbital magnetization
   LCHIMAG   =     F  perturbation theory with respect to B field
   DQ        =  0.001000  dq finite difference perturbation B field
   LLRAUG    =     F  two centre corrections for induced B field
   LBONE     =     F  B-component reconstruction in AE one-centre
   LVGVCALC  =     T  calculate vGv susceptibility
   LVGVAPPL  =     F  apply vGv susceptibility instead of pGv for G=0

 Random number generation:
   RANDOM_GENERATOR = DEFAULT
   PCG_SEED         = not used


--------------------------------------------------------------------------------------------------------


 conjugate gradient relaxation of ions
 charge density and potential will be updated during run
 non-spin polarized calculation
 RMM-DIIS sequential band-by-band and
  variant of blocked Davidson during initial phase
 perform sub-space diagonalisation
    before iterative eigenvector-optimisation
 modified Broyden-mixing scheme, WC =      100.0
 initial mixing is a Kerker type mixing with AMIX =  0.4000 and BMIX =      1.0000
 Hartree-type preconditioning will be used
 using additional bands           34
 real space projection scheme for non local part
 use partial core corrections
 calculate Harris-corrections to forces 
   (improved forces if not selfconsistent)
 use gradient corrections 
 use of overlap-Matrix (Vanderbilt PP)
 Methfessel and Paxton  Order N= 1 SIGMA  =   0.20


--------------------------------------------------------------------------------------------------------


  energy-cutoff  :      400.00
  volume of cell :     1253.43
      direct lattice vectors                 reciprocal lattice vectors
    10.817954598  0.026910004  0.000000000     0.092439491 -0.000231096  0.000000000
     0.026910004 10.764133590  0.000000000    -0.000231096  0.092901692  0.000000000
     0.000000000  0.000000000 10.764133590     0.000000000  0.000000000  0.092901114

  length of vectors
    10.817988067 10.764167227 10.764133590     0.092439780  0.092901979  0.092901114


 
 k-points in units of 2pi/SCALE and weight: Automatic mesh                          
   0.00000000  0.00000000  0.00000000       0.125
   0.04621975 -0.00011555  0.00000000       0.125
  -0.00011555  0.04645085  0.00000000       0.125
   0.04610420  0.04633530  0.00000000       0.125
   0.00000000  0.00000000  0.04645056       0.125
   0.04621975 -0.00011555  0.04645056       0.125
  -0.00011555  0.04645085  0.04645056       0.125
   0.04610420  0.04633530  0.04645056       0.125
 
 k-points in reciprocal lattice and weights: Automatic mesh                          
   0.00000000  0.00000000  0.00000000       0.125
   0.50000000  0.00000000  0.00000000       0.125
   0.00000000  0.50000000  0.00000000       0.125
   0.50000000  0.50000000  0.00000000       0.125
   0.00000000  0.00000000  0.50000000       0.125
   0.50000000  0.00000000  0.50000000       0.125
   0.00000000  0.50000000  0.50000000       0.125
   0.50000000  0.50000000  0.50000000       0.125
 
 position of ions in fractional coordinates (direct lattice) 
   0.00000000  0.00000000  0.00000000
   0.00000000  0.00000000  0.50000000
   0.00000000  0.50000000  0.00000000
   0.00000000  0.50000000  0.50000000
   0.50000000  0.00000000  0.00000000
   0.50000000  0.00000000  0.50000000
   0.50000000  0.50000000  0.00000000
   0.50000000  0.50000000  0.50000000
   0.37500000  0.37500000  0.12500000
   0.37500000  0.37500000  0.62500000
   0.37500000  0.87500000  0.12500000
   0.37500000  0.87500000  0.62500000
   0.87500000  0.37500000  0.12500000
   0.87500000  0.37500000  0.62500000
   0.87500000  0.87500000  0.12500000
   0.87500000  0.87500000  0.62500000
   0.00000000  0.25000000  0.25000000
   0.00000000  0.25000000  0.75000000
   0.00000000  0.75000000  0.25000000
   0.00000000  0.75000000  0.75000000
   0.50000000  0.25000000  0.25000000
   0.50000000  0.25000000  0.75000000
   0.50000000  0.75000000  0.25000000
   0.50000000  0.75000000  0.75000000
   0.37500000  0.12500000  0.37500000
   0.37500000  0.12500000  0.87500000
   0.37500000  0.62500000  0.37500000
   0.37500000  0.62500000  0.87500000
   0.87500000  0.12500000  0.37500000
   0.87500000  0.12500000  0.87500000
   0.87500000  0.62500000  0.37500000
   0.87500000  0.62500000  0.87500000
   0.25000000  0.00000000  0.25000000
   0.25000000  0.00000000  0.75000000
   0.25000000  0.50000000  0.25000000
   0.25000000  0.50000000  0.75000000
   0.75000000  0.00000000  0.25000000
   0.75000000  0.00000000  0.75000000
   0.75000000  0.50000000  0.25000000
   0.75000000  0.50000000  0.75000000
   0.12500000  0.37500000  0.37500000
   0.12500000  0.37500000  0.87500000
   0.12500000  0.87500000  0.37500000
   0.12500000  0.87500000  0.87500000
   0.62500000  0.37500000  0.37500000
   0.62500000  0.37500000  0.87500000
   0.62500000  0.87500000  0.37500000
   0.62500000  0.87500000  0.87500000
   0.25000000  0.25000000  0.00000000
   0.25000000  0.25000000  0.50000000
   0.25000000  0.75000000  0.00000000
   0.25000000  0.75000000  0.50000000
   0.75000000  0.25000000  0.00000000
   0.75000000  0.25000000  0.50000000
   0.75000000  0.75000000  0.00000000
   0.75000000  0.75000000  0.50000000
   0.12500000  0.12500000  0.12500000
   0.12500000  0.12500000  0.62500000
   0.12500000  0.62500000  0.12500000
   0.12500000  0.62500000  0.62500000
   0.62500000  0.12500000  0.12500000
   0.62500000  0.12500000  0.62500000
   0.62500000  0.62500000  0.12500000
   0.62500000  0.62500000  0.62500000
 
 position of ions in cartesian coordinates  (Angst):
   0.00000000  0.00000000  0.00000000
   0.00000000  0.00000000  5.38206679
   0.01345500  5.38206679  0.00000000
   0.01345500  5.38206679  5.38206679
   5.40897730  0.01345500  0.00000000
   5.40897730  0.01345500  5.38206679
   5.42243230  5.39552180  0.00000000
   5.42243230  5.39552180  5.38206679
   4.06682423  4.04664135  1.34551670
   4.06682423  4.04664135  6.72758349
   4.08027923  9.42870814  1.34551670
   4.08027923  9.42870814  6.72758349
   9.47580152  4.06009635  1.34551670
   9.47580152  4.06009635  6.72758349
   9.48925653  9.44216314  1.34551670
   9.48925653  9.44216314  6.72758349
   0.00672750  2.69103340  2.69103340
   0.00672750  2.69103340  8.07310019
   0.02018250  8.07310019  2.69103340
   0.02018250  8.07310019  8.07310019
   5.41570480  2.70448840  2.69103340
   5.41570480  2.70448840  8.07310019
   5.42915980  8.08655519  2.69103340
   5.42915980  8.08655519  8.07310019
   4.06009672  1.35560795  4.03655010
   4.06009672  1.35560795  9.41861689
   4.07355173  6.73767475  4.03655010
   4.07355173  6.73767475  9.41861689
   9.46907402  1.36906295  4.03655010
   9.46907402  1.36906295  9.41861689
   9.48252903  6.75112975  4.03655010
   9.48252903  6.75112975  9.41861689
   2.70448865  0.00672750  2.69103340
   2.70448865  0.00672750  8.07310019
   2.71794365  5.38879430  2.69103340
   2.71794365  5.38879430  8.07310019
   8.11346595  0.02018250  2.69103340
   8.11346595  0.02018250  8.07310019
   8.12692095  5.40224930  2.69103340
   8.12692095  5.40224930  8.07310019
   1.36233558  4.03991385  4.03655010
   1.36233558  4.03991385  9.41861689
   1.37579058  9.42198064  4.03655010
   1.37579058  9.42198064  9.41861689
   6.77131287  4.05336885  4.03655010
   6.77131287  4.05336885  9.41861689
   6.78476788  9.43543564  4.03655010
   6.78476788  9.43543564  9.41861689
   2.71121615  2.69776090  0.00000000
   2.71121615  2.69776090  5.38206679
   2.72467115  8.07982769  0.00000000
   2.72467115  8.07982769  5.38206679
   8.12019345  2.71121590  0.00000000
   8.12019345  2.71121590  5.38206679
   8.13364845  8.09328270  0.00000000
   8.13364845  8.09328270  5.38206679
   1.35560808  1.34888045  1.34551670
   1.35560808  1.34888045  6.72758349
   1.36906308  6.73094724  1.34551670
   1.36906308  6.73094724  6.72758349
   6.76458537  1.36233545  1.34551670
   6.76458537  1.36233545  6.72758349
   6.77804038  6.74440225  1.34551670
   6.77804038  6.74440225  6.72758349
 


--------------------------------------------------------------------------------------------------------


 k-point     1 :   0.0000 0.0000 0.0000  plane waves:   22811
 k-point     2 :   0.5000 0.0000 0.0000  plane waves:   22798
 k-point     3 :   0.0000 0.5000 0.0000  plane waves:   22780
 k-point     4 :   0.5000 0.5000 0.0000  plane waves:   22780
 k-point     5 :   0.0000 0.0000 0.5000  plane waves:   22768
 k-point     6 :   0.5000 0.0000 0.5000  plane waves:   22780
 k-point     7 :   0.0000 0.5000 0.5000  plane waves:   22780
 k-point     8 :   0.5000 0.5000 0.5000  plane waves:   22668

 maximum and minimum number of plane-waves per node :      1919     1873

 maximum number of plane-waves:     22811
 maximum index in each direction: 
   IXMAX=   17   IYMAX=   17   IZMAX=   17
   IXMIN=  -18   IYMIN=  -18   IZMIN=  -18


 real space projection operators:
  total allocation   :      11976.50 KBytes
  max/ min on nodes  :       1009.50        976.50


 parallel 3D FFT for wavefunctions:
    minimum data exchange during FFTs selected (reduces bandwidth)
 parallel 3D FFT for charge:
    minimum data exchange during FFTs selected (reduces bandwidth)


 total amount of memory used by VASP MPI-rank0    79899. kBytes
=======================================================================

   base      :      30000. kBytes
   nonlr-proj:       4608. kBytes
   fftplans  :      18113. kBytes
   grid      :       6881. kBytes
   one-center:         18. kBytes
   wavefun   :      20279. kBytes
 
     INWAV:  cpu time      0.0000: real time      0.0000
 Broyden mixing: mesh for mixing (old mesh)
   NGX = 35   NGY = 35   NGZ = 35
  (NGX  =144   NGY  =140   NGZ  =140)
  gives a total of  42875 points

 initial charge density was supplied:
 charge density of overlapping atoms calculated
 number of electron     256.0000000 magnetization 
 keeping initial charge density in first step


--------------------------------------------------------------------------------------------------------


 Maximum index for non-local projection operator          276
 Maximum index for augmentation-charges         3298 (set IRDMAX)


--------------------------------------------------------------------------------------------------------


 First call to EWALD:  gamma=   0.164
 Maximum number of real-space cells 3x 3x 3
 Maximum number of reciprocal cells 3x 3x 3

    FEWALD:  cpu time      0.0076: real time      0.0076


--------------------------------------- Ionic step        1  -------------------------------------------




--------------------------------------- Iteration      1(   1)  ---------------------------------------


    POTLOK:  cpu time      0.0953: real time      0.1041
    SETDIJ:  cpu time      0.0896: real time      0.0921
     EDDAV:  cpu time      1.3134: real time      1.3739
       DOS:  cpu time      0.0093: real time      0.0128
    --------------------------------------------
      LOOP:  cpu time      1.5076: real time      1.5830

 eigenvalue-minimisations  :  2592
 total energy-change (2. order) : 0.5628586E+03  (-0.8410664E+04)
 number of electron     256.0000000 magnetization 
 augmentation part      256.0000000 magnetization 

 Free energy of the ion-electron system (eV)
  ---------------------------------------------------
  alpha Z        PSCENC =       110.00535856
  Ewald energy   TEWEN  =     -7366.92455308
  -Hartree energ DENC   =      -341.73323271
  -exchange      EXHF   =         0.00000000
  -V(xc)+E(xc)   XCENC  =      -556.01463084
  PAW double counting   =      5598.62625415    -4492.17844134
  entropy T*S    EENTRO =         0.02166784
  eigenvalues    EBANDS =      1046.26032809
  atomic energy  EATOM  =      6564.79586099
  Solvation  Ediel_sol  =         0.00000000
  ---------------------------------------------------
  free energy    TOTEN  =       562.85861167 eV

  energy without entropy =      562.83694382  energy(sigma->0) =      562.85138905


--------------------------------------------------------------------------------------------------------




--------------------------------------- Iteration      1(   2)  ---------------------------------------


     EDDAV:  cpu time      1.3603: real time      1.3661
       DOS:  cpu time      0.0014: real time      0.0014
    --------------------------------------------
      LOOP:  cpu time      1.3617: real time      1.3675

 eigenvalue-minimisations  :  3096
 total energy-change (2. order) :-0.8733981E+03  (-0.8274177E+03)
 number of electron     256.0000000 magnetization 
 augmentation part      256.0000000 magnetization 

 Free energy of the ion-electron system (eV)
  ---------------------------------------------------
  alpha Z        PSCENC =       110.00535856
  Ewald energy   TEWEN  =     -7366.92455308
  -Hartree energ DENC   =      -341.73323271
  -exchange      EXHF   =         0.00000000
  -V(xc)+E(xc)   XCENC  =      -556.01463084
  PAW double counting   =      5598.62625415    -4492.17844134
  entropy T*S    EENTRO =         0.01268446
  eigenvalues    EBANDS =       172.87119538
  atomic energy  EATOM  =      6564.79586099
  Solvation  Ediel_sol  =         0.00000000
  ---------------------------------------------------
  free energy    TOTEN  =      -310.53950443 eV

  energy without entropy =     -310.55218889  energy(sigma->0) =     -310.54373258


--------------------------------------------------------------------------------------------------------




--------------------------------------- Iteration      1(   3)  ---------------------------------------


     EDDAV:  cpu time      1.3557: real time      1.3724
       DOS:  cpu time      0.0014: real time      0.0014
    --------------------------------------------
      LOOP:  cpu time      1.3571: real time      1.3738

 eigenvalue-minimisations  :  3144
 total energy-change (2. order) :-0.6280409E+02  (-0.6159060E+02)
 number of electron     256.0000000 magnetization 
 augmentation part      256.0000000 magnetization 

 Free energy of the ion-electron system (eV)
  ---------------------------------------------------
  alpha Z        PSCENC =       110.00535856
  Ewald energy   TEWEN  =     -7366.92455308
  -Hartree energ DENC   =      -341.73323271
  -exchange      EXHF   =         0.00000000
  -V(xc)+E(xc)   XCENC  =      -556.01463084
  PAW double counting   =      5598.62625415    -4492.17844134
  entropy T*S    EENTRO =         0.00763090
  eigenvalues    EBANDS =       110.07216366
  atomic energy  EATOM  =      6564.79586099
  Solvation  Ediel_sol  =         0.00000000
  ---------------------------------------------------
  free energy    TOTEN  =      -373.34358971 eV

  energy without entropy =     -373.35122061  energy(sigma->0) =     -373.34613334


--------------------------------------------------------------------------------------------------------




--------------------------------------- Iteration      1(   4)  ---------------------------------------


     EDDAV:  cpu time      1.3249: real time      1.3408
       DOS:  cpu time      0.0011: real time      0.0011
    --------------------------------------------
      LOOP:  cpu time      1.3260: real time      1.3419

 eigenvalue-minimisations  :  3128
 total energy-change (2. order) :-0.1619803E+01  (-0.1607396E+01)
 number of electron     256.0000000 magnetization 
 augmentation part      256.0000000 magnetization 

 Free energy of the ion-electron system (eV)
  ---------------------------------------------------
  alpha Z        PSCENC =       110.00535856
  Ewald energy   TEWEN  =     -7366.92455308
  -Hartree energ DENC   =      -341.73323271
  -exchange      EXHF   =         0.00000000
  -V(xc)+E(xc)   XCENC  =      -556.01463084
  PAW double counting   =      5598.62625415    -4492.17844134
  entropy T*S    EENTRO =         0.00834258
  eigenvalues    EBANDS =       108.45164920
  atomic energy  EATOM  =      6564.79586099
  Solvation  Ediel_sol  =         0.00000000
  ---------------------------------------------------
  free energy    TOTEN  =      -374.96339249 eV

  energy without entropy =     -374.97173507  energy(sigma->0) =     -374.96617335


--------------------------------------------------------------------------------------------------------




--------------------------------------- Iteration      1(   5)  ---------------------------------------


     EDDAV:  cpu time      1.3100: real time      1.3267
       DOS:  cpu time      0.0012: real time      0.0012
    CHARGE:  cpu time      0.2533: real time      0.2561
    MIXING:  cpu time      0.0094: real time      0.0113
    --------------------------------------------
      LOOP:  cpu time      1.5740: real time      1.5953

 eigenvalue-minimisations  :  3062
 total energy-change (2. order) :-0.5129118E-01  (-0.5117396E-01)
 number of electron     256.0000001 magnetization 
 augmentation part      -15.0152142 magnetization 

 Broyden mixing:
  rms(total) = 0.28941E+01    rms(broyden)= 0.28941E+01
  rms(prec ) = 0.31895E+01
  weight for this iteration     100.00

 Free energy of the ion-electron system (eV)
  ---------------------------------------------------
  alpha Z        PSCENC =       110.00535856
  Ewald energy   TEWEN  =     -7366.92455308
  -Hartree energ DENC   =      -341.73323271
  -exchange      EXHF   =         0.00000000
  -V(xc)+E(xc)   XCENC  =      -556.01463084
  PAW double counting   =      5598.62625415    -4492.17844134
  entropy T*S    EENTRO =         0.00832022
  eigenvalues    EBANDS =       108.40038038
  atomic energy  EATOM  =      6564.79586099
  Solvation  Ediel_sol  =         0.00000000
  ---------------------------------------------------
  free energy    TOTEN  =      -375.01468368 eV

  energy without entropy =     -375.02300389  energy(sigma->0) =     -375.01745708


--------------------------------------------------------------------------------------------------------




--------------------------------------- Iteration      1(   6)  ---------------------------------------


    POTLOK:  cpu time      0.0781: real time      0.0909
    SETDIJ:  cpu time      0.0730: real time      0.0732
    EDDIAG:  cpu time      0.1404: real time      0.1428
  RMM-DIIS:  cpu time      0.7047: real time      0.7092
    ORTHCH:  cpu time      0.0210: real time      0.0211
       DOS:  cpu time      0.0020: real time      0.0020
    CHARGE:  cpu time      0.2381: real time      0.2386
    MIXING:  cpu time      0.0073: real time      0.0087
    --------------------------------------------
      LOOP:  cpu time      1.2647: real time      1.2866

 eigenvalue-minimisations  :  2592
 total energy-change (2. order) : 0.5307375E+01  (-0.2683943E+00)
 number of electron     256.0000001 magnetization 
 augmentation part      -14.8475048 magnetization 

 Broyden mixing:
  rms(total) = 0.17423E+01    rms(broyden)= 0.17423E+01
  rms(prec ) = 0.19105E+01
  weight for this iteration     100.00

 eigenvalues of (default mixing * dielectric matrix)
  average eigenvalue GAMMA=   2.5073
  2.5073

 Free energy of the ion-electron system (eV)
  ---------------------------------------------------
  alpha Z        PSCENC =       110.00535856
  Ewald energy   TEWEN  =     -7366.92455308
  -Hartree energ DENC   =      -389.03148544
  -exchange      EXHF   =         0.00000000
  -V(xc)+E(xc)   XCENC  =      -548.53561769
  PAW double counting   =     12633.26089502   -11530.30651619
  entropy T*S    EENTRO =         0.00920846
  eigenvalues    EBANDS =       157.01954084
  atomic energy  EATOM  =      6564.79586099
  Solvation  Ediel_sol  =         0.00000000
  ---------------------------------------------------
  free energy    TOTEN  =      -369.70730854 eV

  energy without entropy =     -369.71651700  energy(sigma->0) =     -369.71037803


--------------------------------------------------------------------------------------------------------




--------------------------------------- Iteration      1(   7)  ---------------------------------------


    POTLOK:  cpu time      0.0799: real time      0.0942
    SETDIJ:  cpu time      0.0725: real time      0.0726
    EDDIAG:  cpu time      0.1350: real time      0.1353
  RMM-DIIS:  cpu time      0.7054: real time      0.7070
    ORTHCH:  cpu time      0.0210: real time      0.0210
       DOS:  cpu time      0.0014: real time      0.0014
    CHARGE:  cpu time      0.2370: real time      0.2379
    MIXING:  cpu time      0.0055: real time      0.0071
    --------------------------------------------
      LOOP:  cpu time      1.2576: real time      1.2766

 eigenvalue-minimisations  :  2653
 total energy-change (2. order) : 0.2395461E+01  (-0.6880536E+00)
 number of electron     256.0000001 magnetization 
 augmentation part      -14.6115112 magnetization 

 Broyden mixing:
  rms(total) = 0.10052E+00    rms(broyden)= 0.10052E+00
  rms(prec ) = 0.12637E+00
  weight for this iteration     100.00

 eigenvalues of (default mixing * dielectric matrix)
  average eigenvalue GAMMA=   2.2659
  2.2659  2.2659

 Free energy of the ion-electron system (eV)
  ---------------------------------------------------
  alpha Z        PSCENC =       110.00535856
  Ewald energy   TEWEN  =     -7366.92455308
  -Hartree energ DENC   =      -467.13422094
  -exchange      EXHF   =         0.00000000
  -V(xc)+E(xc)   XCENC  =      -535.61300309
  PAW double counting   =     29611.56577616   -28513.45713916
  entropy T*S    EENTRO =         0.03271483
  eigenvalues    EBANDS =       229.41735834
  atomic energy  EATOM  =      6564.79586099
  Solvation  Ediel_sol  =         0.00000000
  ---------------------------------------------------
  free energy    TOTEN  =      -367.31184740 eV

  energy without entropy =     -367.34456222  energy(sigma->0) =     -367.32275234


--------------------------------------------------------------------------------------------------------




--------------------------------------- Iteration      1(   8)  ---------------------------------------


    POTLOK:  cpu time      0.0861: real time      0.0879
    SETDIJ:  cpu time      0.0795: real time      0.0797
    EDDIAG:  cpu time      0.1371: real time      0.1374
  RMM-DIIS:  cpu time      0.7124: real time      0.7143
    ORTHCH:  cpu time      0.0210: real time      0.0211
       DOS:  cpu time      0.0017: real time      0.0017
    CHARGE:  cpu time      0.2377: real time      0.2388
    MIXING:  cpu time      0.0070: real time      0.0071
    --------------------------------------------
      LOOP:  cpu time      1.2824: real time      1.2879

 eigenvalue-minimisations  :  2615
 total energy-change (2. order) :-0.3994704E-01  (-0.6370484E-01)
 number of electron     256.0000001 magnetization 
 augmentation part      -14.6642067 magnetization 

 Broyden mixing:
  rms(total) = 0.50024E-01    rms(broyden)= 0.50023E-01
  rms(prec ) = 0.53433E-01
  weight for this iteration     100.00

 eigenvalues of (default mixing * dielectric matrix)
  average eigenvalue GAMMA=   2.1184
  2.5478  1.9037  1.9037

 Free energy of the ion-electron system (eV)
  ---------------------------------------------------
  alpha Z        PSCENC =       110.00535856
  Ewald energy   TEWEN  =     -7366.92455308
  -Hartree energ DENC   =      -459.55206729
  -exchange      EXHF   =         0.00000000
  -V(xc)+E(xc)   XCENC  =      -536.23149585
  PAW double counting   =     29283.87223122   -28184.83736351
  entropy T*S    EENTRO =         0.03016763
  eigenvalues    EBANDS =       221.49006689
  atomic energy  EATOM  =      6564.79586099
  Solvation  Ediel_sol  =         0.00000000
  ---------------------------------------------------
  free energy    TOTEN  =      -367.35179443 eV

  energy without entropy =     -367.38196207  energy(sigma->0) =     -367.36185031


--------------------------------------------------------------------------------------------------------




--------------------------------------- Iteration      1(   9)  ---------------------------------------


    POTLOK:  cpu time      0.0792: real time      0.0975
    SETDIJ:  cpu time      0.0723: real time      0.0724
    EDDIAG:  cpu time      0.1350: real time      0.1353
  RMM-DIIS:  cpu time      0.7105: real time      0.7187
    ORTHCH:  cpu time      0.0210: real time      0.0211
       DOS:  cpu time      0.0021: real time      0.0021
    CHARGE:  cpu time      0.2404: real time      0.2695
    MIXING:  cpu time      0.0043: real time      0.0044
    --------------------------------------------
      LOOP:  cpu time      1.2649: real time      1.3210

 eigenvalue-minimisations  :  2667
 total energy-change (2. order) :-0.2018641E-01  (-0.1875824E-01)
 number of electron     256.0000001 magnetization 
 augmentation part      -14.6528657 magnetization 

 Broyden mixing:
  rms(total) = 0.57748E-01    rms(broyden)= 0.57748E-01
  rms(prec ) = 0.64842E-01
  weight for this iteration     100.00

 eigenvalues of (default mixing * dielectric matrix)
  average eigenvalue GAMMA=   1.9192
  2.5375  2.3718  2.3718  0.3958

 Free energy of the ion-electron system (eV)
  ---------------------------------------------------
  alpha Z        PSCENC =       110.00535856
  Ewald energy   TEWEN  =     -7366.92455308
  -Hartree energ DENC   =      -462.34960345
  -exchange      EXHF   =         0.00000000
  -V(xc)+E(xc)   XCENC  =      -535.84880462
  PAW double counting   =     29631.40712595   -28532.60001915
  entropy T*S    EENTRO =         0.03084798
  eigenvalues    EBANDS =       224.11180598
  atomic energy  EATOM  =      6564.79586099
  Solvation  Ediel_sol  =         0.00000000
  ---------------------------------------------------
  free energy    TOTEN  =      -367.37198084 eV

  energy without entropy =     -367.40282882  energy(sigma->0) =     -367.38226350


--------------------------------------------------------------------------------------------------------




--------------------------------------- Iteration      1(  10)  ---------------------------------------


    POTLOK:  cpu time      0.0784: real time      0.0942
    SETDIJ:  cpu time      0.0738: real time      0.0739
    EDDIAG:  cpu time      0.1348: real time      0.1351
  RMM-DIIS:  cpu time      0.7067: real time      0.7493
    ORTHCH:  cpu time      0.0209: real time      0.0209
       DOS:  cpu time      0.0016: real time      0.0016
    CHARGE:  cpu time      0.2363: real time      0.2404
    MIXING:  cpu time      0.0066: real time      0.0066
    --------------------------------------------
      LOOP:  cpu time      1.2591: real time      1.3222

 eigenvalue-minimisations  :  2738
 total energy-change (2. order) :-0.3391361E-02  (-0.3322961E-02)
 number of electron     256.0000001 magnetization 
 augmentation part      -14.6595827 magnetization 

 Broyden mixing:
  rms(total) = 0.71833E-01    rms(broyden)= 0.71833E-01
  rms(prec ) = 0.78018E-01
  weight for this iteration     100.00

 eigenvalues of (default mixing * dielectric matrix)
  average eigenvalue GAMMA=   1.4801
  2.6424  2.0175  2.0175  0.6118  0.1115

 Free energy of the ion-electron system (eV)
  ---------------------------------------------------
  alpha Z        PSCENC =       110.00535856
  Ewald energy   TEWEN  =     -7366.92455308
  -Hartree energ DENC   =      -462.37049245
  -exchange      EXHF   =         0.00000000
  -V(xc)+E(xc)   XCENC  =      -535.84619889
  PAW double counting   =     29636.59886966   -28537.79263691
  entropy T*S    EENTRO =         0.03085643
  eigenvalues    EBANDS =       224.12756349
  atomic energy  EATOM  =      6564.79586099
  Solvation  Ediel_sol  =         0.00000000
  ---------------------------------------------------
  free energy    TOTEN  =      -367.37537221 eV

  energy without entropy =     -367.40622864  energy(sigma->0) =     -367.38565768


--------------------------------------------------------------------------------------------------------




--------------------------------------- Iteration      1(  11)  ---------------------------------------


    POTLOK:  cpu time      0.0831: real time      0.0949
    SETDIJ:  cpu time      0.0733: real time      0.0735
    EDDIAG:  cpu time      0.1348: real time      0.1351
  RMM-DIIS:  cpu time      0.6879: real time      0.6895
    ORTHCH:  cpu time      0.0207: real time      0.0207
       DOS:  cpu time      0.0019: real time      0.0019
    CHARGE:  cpu time      0.2364: real time      0.2372
    MIXING:  cpu time      0.0073: real time      0.0073
    --------------------------------------------
      LOOP:  cpu time      1.2455: real time      1.2601

 eigenvalue-minimisations  :  2592
 total energy-change (2. order) : 0.2614924E-02  (-0.1064553E-02)
 number of electron     256.0000001 magnetization 
 augmentation part      -14.6729150 magnetization 

 Broyden mixing:
  rms(total) = 0.77100E-01    rms(broyden)= 0.77100E-01
  rms(prec ) = 0.77842E-01
  weight for this iteration     100.00

 eigenvalues of (default mixing * dielectric matrix)
  average eigenvalue GAMMA=   1.3141
  2.5105  2.5105  1.4239  0.6551  0.6551  0.1295

 Free energy of the ion-electron system (eV)
  ---------------------------------------------------
  alpha Z        PSCENC =       110.00535856
  Ewald energy   TEWEN  =     -7366.92455308
  -Hartree energ DENC   =      -460.13950799
  -exchange      EXHF   =         0.00000000
  -V(xc)+E(xc)   XCENC  =      -535.99274142
  PAW double counting   =     29640.79457859   -28541.73920263
  entropy T*S    EENTRO =         0.02993187
  eigenvalues    EBANDS =       221.79751782
  atomic energy  EATOM  =      6564.79586099
  Solvation  Ediel_sol  =         0.00000000
  ---------------------------------------------------
  free energy    TOTEN  =      -367.37275728 eV

  energy without entropy =     -367.40268915  energy(sigma->0) =     -367.38273457


--------------------------------------------------------------------------------------------------------




--------------------------------------- Iteration      1(  12)  ---------------------------------------


    POTLOK:  cpu time      0.0796: real time      0.0938
    SETDIJ:  cpu time      0.0734: real time      0.0736
    EDDIAG:  cpu time      0.1343: real time      0.1346
  RMM-DIIS:  cpu time      0.6907: real time      0.6923
    ORTHCH:  cpu time      0.0208: real time      0.0208
       DOS:  cpu time      0.0018: real time      0.0018
    CHARGE:  cpu time      0.2376: real time      0.2383
    MIXING:  cpu time      0.0068: real time      0.0068
    --------------------------------------------
      LOOP:  cpu time      1.2449: real time      1.2621

 eigenvalue-minimisations  :  2605
 total energy-change (2. order) :-0.6108146E-05  (-0.1730591E-03)
 number of electron     256.0000001 magnetization 
 augmentation part      -14.6766247 magnetization 

 Broyden mixing:
  rms(total) = 0.84246E-01    rms(broyden)= 0.84246E-01
  rms(prec ) = 0.84835E-01
  weight for this iteration     100.00

 eigenvalues of (default mixing * dielectric matrix)
  average eigenvalue GAMMA=   1.1433
  2.5073  2.5073  1.4178  0.5065  0.5065  0.4239  0.1334

 Free energy of the ion-electron system (eV)
  ---------------------------------------------------
  alpha Z        PSCENC =       110.00535856
  Ewald energy   TEWEN  =     -7366.92455308
  -Hartree energ DENC   =      -459.87172142
  -exchange      EXHF   =         0.00000000
  -V(xc)+E(xc)   XCENC  =      -536.03172661
  PAW double counting   =     29578.51886726   -28479.46821581
  entropy T*S    EENTRO =         0.02988856
  eigenvalues    EBANDS =       221.57347817
  atomic energy  EATOM  =      6564.79586099
  Solvation  Ediel_sol  =         0.00000000
  ---------------------------------------------------
  free energy    TOTEN  =      -367.37276339 eV

  energy without entropy =     -367.40265195  energy(sigma->0) =     -367.38272624


--------------------------------------------------------------------------------------------------------




--------------------------------------- Iteration      1(  13)  ---------------------------------------


    POTLOK:  cpu time      0.0845: real time      0.0934
    SETDIJ:  cpu time      0.0730: real time      0.0732
    EDDIAG:  cpu time      0.1336: real time      0.1339
  RMM-DIIS:  cpu time      0.7252: real time      0.7270
    ORTHCH:  cpu time      0.0210: real time      0.0212
       DOS:  cpu time      0.0014: real time      0.0014
    CHARGE:  cpu time      0.2373: real time      0.2379
    MIXING:  cpu time      0.0068: real time      0.0068
    --------------------------------------------
      LOOP:  cpu time      1.2828: real time      1.2948

 eigenvalue-minimisations  :  2754
 total energy-change (2. order) :-0.7244773E-04  (-0.3342737E-04)
 number of electron     256.0000001 magnetization 
 augmentation part      -14.6770234 magnetization 

 Broyden mixing:
  rms(total) = 0.87079E-01    rms(broyden)= 0.87079E-01
  rms(prec ) = 0.87633E-01
  weight for this iteration     100.00

 eigenvalues of (default mixing * dielectric matrix)
  average eigenvalue GAMMA=   1.5202
  2.5940  2.5940  2.5415  1.7486  1.0964  0.7278  0.7278  0.1317

 Free energy of the ion-electron system (eV)
  ---------------------------------------------------
  alpha Z        PSCENC =       110.00535856
  Ewald energy   TEWEN  =     -7366.92455308
  -Hartree energ DENC   =      -459.91030755
  -exchange      EXHF   =         0.00000000
  -V(xc)+E(xc)   XCENC  =      -536.02663030
  PAW double counting   =     29595.35022824   -28496.29899210
  entropy T*S    EENTRO =         0.02989069
  eigenvalues    EBANDS =       221.60630871
  atomic energy  EATOM  =      6564.79586099
  Solvation  Ediel_sol  =         0.00000000
  ---------------------------------------------------
  free energy    TOTEN  =      -367.37283584 eV

  energy without entropy =     -367.40272653  energy(sigma->0) =     -367.38279940


--------------------------------------------------------------------------------------------------------




--------------------------------------- Iteration      1(  14)  ---------------------------------------


    POTLOK:  cpu time      0.0819: real time      0.0966
    SETDIJ:  cpu time      0.0732: real time      0.0734
    EDDIAG:  cpu time      0.1332: real time      0.1359
  RMM-DIIS:  cpu time      0.6850: real time      0.6895
    ORTHCH:  cpu time      0.0205: real time      0.0207
       DOS:  cpu time      0.0021: real time      0.0021
    CHARGE:  cpu time      0.2362: real time      0.2375
    MIXING:  cpu time      0.0067: real time      0.0067
    --------------------------------------------
      LOOP:  cpu time      1.2389: real time      1.2624

 eigenvalue-minimisations  :  2592
 total energy-change (2. order) : 0.4786462E-03  (-0.1971989E-04)
 number of electron     256.0000001 magnetization 
 augmentation part      -14.6781956 magnetization 

 Broyden mixing:
  rms(total) = 0.85132E-01    rms(broyden)= 0.85132E-01
  rms(prec ) = 0.85994E-01
  weight for this iteration     100.00

 eigenvalues of (default mixing * dielectric matrix)
  average eigenvalue GAMMA=   1.4296
  2.8927  2.4103  2.4103  1.2381  1.2381  1.0593  0.7429  0.7429  0.1317

 Free energy of the ion-electron system (eV)
  ---------------------------------------------------
  alpha Z        PSCENC =       110.00535856
  Ewald energy   TEWEN  =     -7366.92455308
  -Hartree energ DENC   =      -459.48342812
  -exchange      EXHF   =         0.00000000
  -V(xc)+E(xc)   XCENC  =      -536.07334404
  PAW double counting   =     29471.02992280   -28372.01318927
  entropy T*S    EENTRO =         0.02987423
  eigenvalues    EBANDS =       221.26114074
  atomic energy  EATOM  =      6564.79586099
  Solvation  Ediel_sol  =         0.00000000
  ---------------------------------------------------
  free energy    TOTEN  =      -367.37235719 eV

  energy without entropy =     -367.40223143  energy(sigma->0) =     -367.38231527


--------------------------------------------------------------------------------------------------------




--------------------------------------- Iteration      1(  15)  ---------------------------------------


    POTLOK:  cpu time      0.0769: real time      0.0958
    SETDIJ:  cpu time      0.0726: real time      0.0735
    EDDIAG:  cpu time      0.1330: real time      0.1345
  RMM-DIIS:  cpu time      0.6832: real time      0.6906
    ORTHCH:  cpu time      0.0203: real time      0.0207
       DOS:  cpu time      0.0027: real time      0.0027
    CHARGE:  cpu time      0.2365: real time      0.2390
    MIXING:  cpu time      0.0070: real time      0.0071
    --------------------------------------------
      LOOP:  cpu time      1.2324: real time      1.2639

 eigenvalue-minimisations  :  2592
 total energy-change (2. order) :-0.2315917E-03  (-0.9293135E-05)
 number of electron     256.0000001 magnetization 
 augmentation part      -14.6791461 magnetization 

 Broyden mixing:
  rms(total) = 0.80942E-01    rms(broyden)= 0.80942E-01
  rms(prec ) = 0.81714E-01
  weight for this iteration     100.00

 eigenvalues of (default mixing * dielectric matrix)
  average eigenvalue GAMMA=   1.4474
  2.6172  2.6172  2.4629  1.6326  1.6326  0.9933  0.8452  0.7704  0.7704  0.1317

 Free energy of the ion-electron system (eV)
  ---------------------------------------------------
  alpha Z        PSCENC =       110.00535856
  Ewald energy   TEWEN  =     -7366.92455308
  -Hartree energ DENC   =      -459.36499272
  -exchange      EXHF   =         0.00000000
  -V(xc)+E(xc)   XCENC  =      -536.07845244
  PAW double counting   =     29458.10952067   -28359.08297795
  entropy T*S    EENTRO =         0.02980428
  eigenvalues    EBANDS =       221.13784292
  atomic energy  EATOM  =      6564.79586099
  Solvation  Ediel_sol  =         0.00000000
  ---------------------------------------------------
  free energy    TOTEN  =      -367.37258878 eV

  energy without entropy =     -367.40239306  energy(sigma->0) =     -367.38252354


--------------------------------------------------------------------------------------------------------




--------------------------------------- Iteration      1(  16)  ---------------------------------------


    POTLOK:  cpu time      0.0740: real time      0.0913
    SETDIJ:  cpu time      0.0809: real time      0.0810
    EDDIAG:  cpu time      0.1389: real time      0.1391
  RMM-DIIS:  cpu time      0.6925: real time      0.6942
    ORTHCH:  cpu time      0.0211: real time      0.0212
       DOS:  cpu time      0.0015: real time      0.0015
    CHARGE:  cpu time      0.2405: real time      0.2410
    MIXING:  cpu time      0.0056: real time      0.0056
    --------------------------------------------
      LOOP:  cpu time      1.2551: real time      1.2749

 eigenvalue-minimisations  :  2592
 total energy-change (2. order) :-0.3415513E-03  (-0.7641139E-05)
 number of electron     256.0000001 magnetization 
 augmentation part      -14.6782380 magnetization 

 Broyden mixing:
  rms(total) = 0.64794E-01    rms(broyden)= 0.64794E-01
  rms(prec ) = 0.65256E-01
  weight for this iteration     100.00

 eigenvalues of (default mixing * dielectric matrix)
  average eigenvalue GAMMA=   1.4439
  2.6344  2.6344  2.4197  1.5807  1.5807  1.5493  0.8829  0.8829  0.7932  0.7932
  0.1317

 Free energy of the ion-electron system (eV)
  ---------------------------------------------------
  alpha Z        PSCENC =       110.00535856
  Ewald energy   TEWEN  =     -7366.92455308
  -Hartree energ DENC   =      -459.68617120
  -exchange      EXHF   =         0.00000000
  -V(xc)+E(xc)   XCENC  =      -536.04773508
  PAW double counting   =     29439.44197897   -28340.42050168
  entropy T*S    EENTRO =         0.02981845
  eigenvalues    EBANDS =       221.43301374
  atomic energy  EATOM  =      6564.79586099
  Solvation  Ediel_sol  =         0.00000000
  ---------------------------------------------------
  free energy    TOTEN  =      -367.37293033 eV

  energy without entropy =     -367.40274879  energy(sigma->0) =     -367.38286982


--------------------------------------------------------------------------------------------------------




--------------------------------------- Iteration      1(  17)  ---------------------------------------


    POTLOK:  cpu time      0.0764: real time      0.0900
    SETDIJ:  cpu time      0.0747: real time      0.0748
    EDDIAG:  cpu time      0.1338: real time      0.1340
  RMM-DIIS:  cpu time      0.6904: real time      0.6933
    ORTHCH:  cpu time      0.0214: real time      0.0215
       DOS:  cpu time      0.0015: real time      0.0015
    CHARGE:  cpu time      0.2363: real time      0.2378
    MIXING:  cpu time      0.0070: real time      0.0071
    --------------------------------------------
      LOOP:  cpu time      1.2414: real time      1.2600

 eigenvalue-minimisations  :  2592
 total energy-change (2. order) :-0.1318193E-03  (-0.4470800E-05)
 number of electron     256.0000001 magnetization 
 augmentation part      -14.6772979 magnetization 

 Broyden mixing:
  rms(total) = 0.45815E-01    rms(broyden)= 0.45815E-01
  rms(prec ) = 0.46144E-01
  weight for this iteration     100.00

 eigenvalues of (default mixing * dielectric matrix)
  average eigenvalue GAMMA=   1.5234
  2.5918  2.5918  2.5444  2.0033  2.0033  1.7641  1.1145  1.1145  0.8829  0.7695
  0.7695  0.1317

 Free energy of the ion-electron system (eV)
  ---------------------------------------------------
  alpha Z        PSCENC =       110.00535856
  Ewald energy   TEWEN  =     -7366.92455308
  -Hartree energ DENC   =      -459.84630721
  -exchange      EXHF   =         0.00000000
  -V(xc)+E(xc)   XCENC  =      -536.04068691
  PAW double counting   =     29353.25588228   -28254.24094485
  entropy T*S    EENTRO =         0.02982614
  eigenvalues    EBANDS =       221.59250192
  atomic energy  EATOM  =      6564.79586099
  Solvation  Ediel_sol  =         0.00000000
  ---------------------------------------------------
  free energy    TOTEN  =      -367.37306215 eV

  energy without entropy =     -367.40288829  energy(sigma->0) =     -367.38300420


--------------------------------------------------------------------------------------------------------




--------------------------------------- Iteration      1(  18)  ---------------------------------------


    POTLOK:  cpu time      0.0772: real time      0.0937
    SETDIJ:  cpu time      0.0766: real time      0.0770
    EDDIAG:  cpu time      0.1315: real time      0.1325
  RMM-DIIS:  cpu time      0.6811: real time      0.6857
    ORTHCH:  cpu time      0.0212: real time      0.0213
       DOS:  cpu time      0.0016: real time      0.0016
    CHARGE:  cpu time      0.2370: real time      0.2380
    MIXING:  cpu time      0.0074: real time      0.0074
    --------------------------------------------
      LOOP:  cpu time      1.2337: real time      1.2571

 eigenvalue-minimisations  :  2593
 total energy-change (2. order) :-0.6468507E-04  (-0.1463610E-05)
 number of electron     256.0000001 magnetization 
 augmentation part      -14.6769625 magnetization 

 Broyden mixing:
  rms(total) = 0.28361E-01    rms(broyden)= 0.28361E-01
  rms(prec ) = 0.28612E-01
  weight for this iteration     100.00

 eigenvalues of (default mixing * dielectric matrix)
  average eigenvalue GAMMA=   1.4560
  2.1462  2.1462  2.5985  2.5985  2.5339  1.6776  1.1446  1.1446  0.8825  0.7701
  0.7701  0.1317  0.3830

 Free energy of the ion-electron system (eV)
  ---------------------------------------------------
  alpha Z        PSCENC =       110.00535856
  Ewald energy   TEWEN  =     -7366.92455308
  -Hartree energ DENC   =      -459.88535233
  -exchange      EXHF   =         0.00000000
  -V(xc)+E(xc)   XCENC  =      -536.04613450
  PAW double counting   =     29254.53293764   -28155.52045787
  entropy T*S    EENTRO =         0.02981221
  eigenvalues    EBANDS =       221.63940154
  atomic energy  EATOM  =      6564.79586099
  Solvation  Ediel_sol  =         0.00000000
  ---------------------------------------------------
  free energy    TOTEN  =      -367.37312684 eV

  energy without entropy =     -367.40293905  energy(sigma->0) =     -367.38306424


--------------------------------------------------------------------------------------------------------




--------------------------------------- Iteration      1(  19)  ---------------------------------------


    POTLOK:  cpu time      0.0774: real time      0.0965
    SETDIJ:  cpu time      0.0716: real time      0.0723
    EDDIAG:  cpu time      0.1305: real time      0.1323
  RMM-DIIS:  cpu time      0.6825: real time      0.6900
    ORTHCH:  cpu time      0.0208: real time      0.0209
       DOS:  cpu time      0.0023: real time      0.0023
    CHARGE:  cpu time      0.2357: real time      0.2385
    MIXING:  cpu time      0.0066: real time      0.0067
    --------------------------------------------
      LOOP:  cpu time      1.2275: real time      1.2595

 eigenvalue-minimisations  :  2595
 total energy-change (2. order) :-0.5209339E-04  (-0.1813528E-05)
 number of electron     256.0000001 magnetization 
 augmentation part      -14.6766662 magnetization 

 Broyden mixing:
  rms(total) = 0.10906E-01    rms(broyden)= 0.10906E-01
  rms(prec ) = 0.11057E-01
  weight for this iteration     100.00

 eigenvalues of (default mixing * dielectric matrix)
  average eigenvalue GAMMA=   1.7416
  3.9461  3.9461  2.5423  2.5195  2.5195  1.5507  1.5507  1.1896  1.0186  1.0186
  0.8987  0.7752  0.7752  0.1317

 Free energy of the ion-electron system (eV)
  ---------------------------------------------------
  alpha Z        PSCENC =       110.00535856
  Ewald energy   TEWEN  =     -7366.92455308
  -Hartree energ DENC   =      -459.92360111
  -exchange      EXHF   =         0.00000000
  -V(xc)+E(xc)   XCENC  =      -536.05075390
  PAW double counting   =     29162.92001871   -28063.90832337
  entropy T*S    EENTRO =         0.02978975
  eigenvalues    EBANDS =       221.68302451
  atomic energy  EATOM  =      6564.79586099
  Solvation  Ediel_sol  =         0.00000000
  ---------------------------------------------------
  free energy    TOTEN  =      -367.37317893 eV

  energy without entropy =     -367.40296869  energy(sigma->0) =     -367.38310885


--------------------------------------------------------------------------------------------------------




--------------------------------------- Iteration      1(  20)  ---------------------------------------


    POTLOK:  cpu time      0.0862: real time      0.0948
    SETDIJ:  cpu time      0.0731: real time      0.0733
    EDDIAG:  cpu time      0.1325: real time      0.1330
  RMM-DIIS:  cpu time      0.6819: real time      0.6867
    ORTHCH:  cpu time      0.0209: real time      0.0210
       DOS:  cpu time      0.0014: real time      0.0014
    CHARGE:  cpu time      0.2377: real time      0.2390
    MIXING:  cpu time      0.0078: real time      0.0078
    --------------------------------------------
      LOOP:  cpu time      1.2415: real time      1.2572

 eigenvalue-minimisations  :  2587
 total energy-change (2. order) :-0.1742602E-04  (-0.1136044E-05)
 number of electron     256.0000001 magnetization 
 augmentation part      -14.6764239 magnetization 

 Broyden mixing:
  rms(total) = 0.19732E-02    rms(broyden)= 0.19732E-02
  rms(prec ) = 0.20446E-02
  weight for this iteration     100.00

 eigenvalues of (default mixing * dielectric matrix)
  average eigenvalue GAMMA=   1.7425
  5.0098  2.1529  2.1529  2.7633  2.7633  2.5153  2.0686  1.0955  1.0955  0.9646
  0.9646  0.9163  0.7713  0.7713  0.1317

 Free energy of the ion-electron system (eV)
  ---------------------------------------------------
  alpha Z        PSCENC =       110.00535856
  Ewald energy   TEWEN  =     -7366.92455308
  -Hartree energ DENC   =      -459.95565042
  -exchange      EXHF   =         0.00000000
  -V(xc)+E(xc)   XCENC  =      -536.05144301
  PAW double counting   =     29120.57475811   -28021.56290509
  entropy T*S    EENTRO =         0.02977342
  eigenvalues    EBANDS =       221.71560416
  atomic energy  EATOM  =      6564.79586099
  Solvation  Ediel_sol  =         0.00000000
  ---------------------------------------------------
  free energy    TOTEN  =      -367.37319636 eV

  energy without entropy =     -367.40296978  energy(sigma->0) =     -367.38312083


--------------------------------------------------------------------------------------------------------




--------------------------------------- Iteration      1(  21)  ---------------------------------------


    POTLOK:  cpu time      0.0742: real time      0.0894
    SETDIJ:  cpu time      0.0730: real time      0.0737
    EDDIAG:  cpu time      0.1327: real time      0.1336
  RMM-DIIS:  cpu time      0.4971: real time      0.5011
    ORTHCH:  cpu time      0.0213: real time      0.0214
       DOS:  cpu time      0.0014: real time      0.0014
    CHARGE:  cpu time      0.2334: real time      0.2458
    MIXING:  cpu time      0.0055: real time      0.0055
    --------------------------------------------
      LOOP:  cpu time      1.0386: real time      1.0718

 eigenvalue-minimisations  :  1768
 total energy-change (2. order) :-0.2868079E-05  (-0.2826110E-06)
 number of electron     256.0000001 magnetization 
 augmentation part      -14.6762301 magnetization 

 Broyden mixing:
  rms(total) = 0.17884E-02    rms(broyden)= 0.17884E-02
  rms(prec ) = 0.17950E-02
  weight for this iteration     100.00

 eigenvalues of (default mixing * dielectric matrix)
  average eigenvalue GAMMA=   1.6558
  4.5652  2.3001  2.3001  2.7868  2.7868  2.5330  1.9318  1.1611  1.1611  1.0159
  1.0159  0.9130  0.7724  0.7724  0.1317  0.3459

 Free energy of the ion-electron system (eV)
  ---------------------------------------------------
  alpha Z        PSCENC =       110.00535856
  Ewald energy   TEWEN  =     -7366.92455308
  -Hartree energ DENC   =      -459.97970496
  -exchange      EXHF   =         0.00000000
  -V(xc)+E(xc)   XCENC  =      -536.04928549
  PAW double counting   =     29119.11385613   -28020.10214652
  entropy T*S    EENTRO =         0.02976963
  eigenvalues    EBANDS =       221.73764552
  atomic energy  EATOM  =      6564.79586099
  Solvation  Ediel_sol  =         0.00000000
  ---------------------------------------------------
  free energy    TOTEN  =      -367.37319923 eV

  energy without entropy =     -367.40296886  energy(sigma->0) =     -367.38312244


--------------------------------------------------------------------------------------------------------




--------------------------------------- Iteration      1(  22)  ---------------------------------------


    POTLOK:  cpu time      0.0806: real time      0.0982
    SETDIJ:  cpu time      0.0726: real time      0.0734
    EDDIAG:  cpu time      0.1403: real time      0.1414
  RMM-DIIS:  cpu time      0.4440: real time      0.4468
    ORTHCH:  cpu time      0.0211: real time      0.0212
       DOS:  cpu time      0.0014: real time      0.0014
    --------------------------------------------
      LOOP:  cpu time      0.7600: real time      0.7824

 eigenvalue-minimisations  :  1564
 total energy-change (2. order) :-0.8002016E-06  (-0.4017626E-07)
 number of electron     256.0000001 magnetization 
 augmentation part      -14.6762301 magnetization 

 Free energy of the ion-electron system (eV)
  ---------------------------------------------------
  alpha Z        PSCENC =       110.00535856
  Ewald energy   TEWEN  =     -7366.92455308
  -Hartree energ DENC   =      -459.98957643
  -exchange      EXHF   =         0.00000000
  -V(xc)+E(xc)   XCENC  =      -536.04755331
  PAW double counting   =     29128.63872044   -28029.62709636
  entropy T*S    EENTRO =         0.02976958
  eigenvalues    EBANDS =       221.74586959
  atomic energy  EATOM  =      6564.79586099
  Solvation  Ediel_sol  =         0.00000000
  ---------------------------------------------------
  free energy    TOTEN  =      -367.37320003 eV

  energy without entropy =     -367.40296960  energy(sigma->0) =     -367.38312322


--------------------------------------------------------------------------------------------------------




 average (electrostatic) potential at core
  the test charge radii are     0.9892
  (the norm of the test charge is              1.0000)
       1 -82.7833       2 -82.7833       3 -82.7833       4 -82.7833       5 -82.7833
       6 -82.7833       7 -82.7833       8 -82.7833       9 -82.7834      10 -82.7834
      11 -82.7834      12 -82.7834      13 -82.7834      14 -82.7834      15 -82.7834
      16 -82.7834      17 -82.7833      18 -82.7833      19 -82.7833      20 -82.7833
      21 -82.7833      22 -82.7833      23 -82.7833      24 -82.7833      25 -82.7834
      26 -82.7834      27 -82.7834      28 -82.7834      29 -82.7834      30 -82.7834
      31 -82.7834      32 -82.7834      33 -82.7833      34 -82.7833      35 -82.7833
      36 -82.7833      37 -82.7833      38 -82.7833      39 -82.7833      40 -82.7833
      41 -82.7834      42 -82.7834      43 -82.7834      44 -82.7834      45 -82.7834
      46 -82.7834      47 -82.7834      48 -82.7834      49 -82.7833      50 -82.7833
      51 -82.7833      52 -82.7833      53 -82.7833      54 -82.7833      55 -82.7833
      56 -82.7833      57 -82.7834      58 -82.7834      59 -82.7834      60 -82.7834
      61 -82.7834      62 -82.7834      63 -82.7834      64 -82.7834
 
 
 
 E-fermi :   6.3268     XC(G=0):  -9.6370     alpha+bet :-12.2464

 val. band max:        6.0314558514   @ k =   0.0000   0.0000   0.0000
 cond. band min:       6.4683183452   @ k =   0.0000   0.0000   0.5000
 fundamental gap:      0.4368624937
 Fermi energy:         6.3267775265

 k-point     1 :       0.0000    0.0000    0.0000
  band No.  band energies     occupation 
      1      -6.1267      2.00000
      2      -5.0260      2.00000
      3      -5.0260      2.00000
      4      -5.0167      2.00000
      5      -5.0167      2.00000
      6      -5.0166      2.00000
      7      -5.0166      2.00000
      8      -4.0470      2.00000
      9      -4.0470      2.00000
     10      -4.0322      2.00000
     11      -4.0322      2.00000
     12      -4.0322      2.00000
     13      -4.0322      2.00000
     14      -4.0256      2.00000
     15      -4.0256      2.00000
     16      -4.0256      2.00000
     17      -4.0256      2.00000
     18      -4.0173      2.00000
     19      -4.0173      2.00000
     20      -3.7370      2.00000
     21      -3.7370      2.00000
     22      -3.7030      2.00000
     23      -3.7029      2.00000
     24      -1.9050      2.00000
     25      -1.9050      2.00000
     26      -1.8951      2.00000
     27      -1.8743      2.00000
     28      -1.8743      2.00000
     29      -1.8538      2.00000
     30      -1.7305      2.00000
     31      -1.7305      2.00000
     32      -1.7198      2.00000
     33      -1.7198      2.00000
     34      -1.7075      2.00000
     35      -1.7075      2.00000
     36      -1.7075      2.00000
     37      -1.7075      2.00000
     38      -1.6845      2.00000
     39      -1.6845      2.00000
     40      -1.6739      2.00000
     41      -1.6739      2.00000
     42      -1.1077      2.00000
     43      -1.1077      2.00000
     44      -1.1003      2.00000
     45      -1.1003      2.00000
     46       0.4710      2.00000
     47       0.4710      2.00000
     48       0.4710      2.00000
     49       0.4710      2.00000
     50       0.4797      2.00000
     51       0.4797      2.00000
     52       0.4892      2.00000
     53       0.4892      2.00000
     54       0.4892      2.00000
     55       0.4892      2.00000
     56       0.4986      2.00000
     57       0.4986      2.00000
     58       2.0128      2.00000
     59       2.0128      2.00000
     60       2.0132      2.00000
     61       2.0132      2.00000
     62       2.0132      2.00000
     63       2.0132      2.00000
     64       2.0134      2.00000
     65       2.0134      2.00000
     66       2.0153      2.00000
     67       2.0153      2.00000
     68       2.0160      2.00000
     69       2.0160      2.00000
     70       2.1074      2.00000
     71       2.1074      2.00000
     72       2.1074      2.00000
     73       2.1074      2.00000
     74       2.1299      2.00000
     75       2.1299      2.00000
     76       2.1356      2.00000
     77       2.1356      2.00000
     78       2.1356      2.00000
     79       2.1356      2.00000
     80       2.1411      2.00000
     81       2.1411      2.00000
     82       2.4778      2.00000
     83       2.4778      2.00000
     84       2.5139      2.00000
[...]
 -0.000  -0.000   4.174   0.000  -0.000   7.776   0.000  -0.000
  0.000   0.000   0.000   4.174   0.000   0.000   7.776   0.000
 -0.000  -0.000  -0.000   0.000   4.174  -0.000   0.000   7.776
 -0.000  -0.000   7.776   0.000  -0.000  14.497   0.000   0.000
  0.001   0.001   0.000   7.776   0.000   0.000  14.497   0.000
 -0.000  -0.000  -0.000   0.000   7.776   0.000   0.000  14.497
 total augmentation occupancy for first ion, spin component:           1
  6.108  -2.378  -0.000  -0.014   0.000  -0.000   0.005   0.000
 -2.378   1.035  -0.000   0.007   0.000   0.000  -0.002   0.000
 -0.000  -0.000   3.014  -0.000  -0.002  -0.679  -0.000  -0.000
 -0.014   0.007  -0.000   3.014  -0.000  -0.000  -0.679   0.000
  0.000   0.000  -0.002  -0.000   3.023  -0.000  -0.000  -0.682
 -0.000   0.000  -0.679  -0.000  -0.000   0.162  -0.000   0.000
  0.005  -0.002  -0.000  -0.679  -0.000  -0.000   0.162  -0.000
  0.000   0.000  -0.000   0.000  -0.682   0.000  -0.000   0.163


------------------------ aborting loop because EDIFF is reached ----------------------------------------


    CHARGE:  cpu time      0.2451: real time      0.2463
    FORLOC:  cpu time      0.0222: real time      0.0223
    FORNL :  cpu time      0.6992: real time      0.7009
    STRESS:  cpu time      2.1456: real time      2.1771
    FORCOR:  cpu time      0.0876: real time      0.0878
    FORHAR:  cpu time      0.0348: real time      0.0349
    MIXING:  cpu time      0.0041: real time      0.0041
    OFIELD:  cpu time      0.0000: real time      0.0000

  FORCE on cell =-STRESS in cart. coord.  units (eV):
  Direction    XX          YY          ZZ          XY          YZ          ZX
  --------------------------------------------------------------------------------------
  Alpha Z   110.00536   110.00536   110.00536
  Ewald   -2444.44551 -2461.29176 -2461.27717    -3.84130     0.00000     0.00000
  Hartree   155.17473   152.39232   152.37815    -2.20372    -0.00000    -0.00000
  E(xc)    -822.10318  -821.95951  -821.96207     0.03594    -0.00000    -0.00000
  Local    -933.77776  -913.52180  -913.54901     6.60132    -0.00000    -0.00000
  n-local  2499.11973  2496.75479  2496.79601    -0.37247    -0.00001    -0.00000
  augment  -368.70050  -368.71922  -368.71970     0.19463     0.00000     0.00000
  Kinetic  1821.64750  1826.78346  1826.71292    -3.31531    -0.00000     0.00000
  Fock        0.00000     0.00000     0.00000     0.00000     0.00000     0.00000
  -------------------------------------------------------------------------------------
  Total      16.92037    20.44366    20.38449    -2.90092     0.00000     0.00000
  in kB      21.62817    26.13175    26.05612    -3.70806     0.00000     0.00000
  external pressure =       24.61 kB  Pullay stress =        0.00 kB


 VOLUME and BASIS-vectors are now :
 -----------------------------------------------------------------------------
  energy-cutoff  :      400.00
  volume of cell :     1253.43
      direct lattice vectors                 reciprocal lattice vectors
    10.817954598  0.026910004  0.000000000     0.092439491 -0.000231096  0.000000000
     0.026910004 10.764133590  0.000000000    -0.000231096  0.092901692  0.000000000
     0.000000000  0.000000000 10.764133590     0.000000000  0.000000000  0.092901114

  length of vectors
    10.817988067 10.764167227 10.764133590     0.092439780  0.092901979  0.092901114


 FORCES acting on ions
    electron-ion (+dipol)            ewald-force                    non-local-force                 convergence-correction
 -----------------------------------------------------------------------------------------------
   0.403E-08 -.454E-10 -.425E+00   -.200E-14 0.215E-13 0.302E+00   -.182E-20 0.769E-20 0.122E+00   -.566E-14 0.937E-13 0.372E-05
   0.403E-08 -.454E-10 -.425E+00   -.577E-14 0.213E-13 0.302E+00   0.805E-21 0.601E-20 0.122E+00   -.247E-13 0.819E-13 0.372E-05
   0.403E-08 -.455E-10 -.425E+00   -.120E-13 0.311E-13 0.302E+00   0.628E-21 -.349E-20 0.122E+00   0.487E-13 -.964E-13 0.372E-05
   0.403E-08 -.455E-10 -.425E+00   -.142E-13 0.311E-13 0.302E+00   0.129E-20 -.608E-20 0.122E+00   -.846E-13 -.879E-13 0.372E-05
   0.403E-08 -.454E-10 -.425E+00   -.151E-13 0.155E-13 0.302E+00   -.106E-20 -.626E-20 0.122E+00   -.129E-13 0.123E-12 0.372E-05
   0.403E-08 -.454E-10 -.425E+00   -.204E-13 0.222E-13 0.302E+00   -.478E-21 -.842E-20 0.122E+00   0.243E-13 0.157E-13 0.372E-05
   0.403E-08 -.450E-10 -.425E+00   -.160E-13 0.213E-13 0.302E+00   -.473E-21 0.496E-20 0.122E+00   -.654E-13 -.118E-12 0.372E-05
   0.403E-08 -.460E-10 -.425E+00   -.142E-13 0.284E-13 0.302E+00   0.113E-20 0.402E-20 0.122E+00   0.847E-13 -.249E-13 0.372E-05
   -.240E-08 -.194E-10 0.425E+00   -.151E-13 0.302E-13 -.302E+00   -.112E-20 -.299E-20 -.122E+00   -.914E-13 -.667E-13 -.372E-05
   -.240E-08 -.194E-10 0.425E+00   -.124E-13 0.355E-13 -.302E+00   -.170E-20 -.389E-21 -.122E+00   0.907E-13 0.238E-13 -.372E-05
   -.240E-08 -.191E-10 0.425E+00   -.115E-13 0.306E-13 -.302E+00   -.116E-20 0.661E-20 -.122E+00   -.496E-13 0.624E-13 -.372E-05
   -.240E-08 -.190E-10 0.425E+00   -.160E-13 0.355E-13 -.302E+00   -.189E-20 -.642E-20 -.122E+00   0.791E-13 -.244E-13 -.372E-05
   -.240E-08 -.203E-10 0.425E+00   -.115E-13 0.324E-13 -.302E+00   -.212E-20 0.728E-20 -.122E+00   0.102E-12 -.612E-13 -.372E-05
   -.240E-08 -.201E-10 0.425E+00   -.355E-14 0.213E-13 -.302E+00   -.136E-20 0.225E-21 -.122E+00   -.922E-13 0.394E-14 -.372E-05
   -.240E-08 -.190E-10 0.425E+00   -.666E-14 0.293E-13 -.302E+00   -.216E-21 -.182E-20 -.122E+00   0.499E-13 0.511E-13 -.372E-05
   -.240E-08 -.190E-10 0.425E+00   -.355E-14 0.195E-13 -.302E+00   -.175E-20 0.673E-21 -.122E+00   -.876E-13 -.126E-13 -.372E-05
   0.403E-08 -.454E-10 -.425E+00   -.140E-13 -.289E-14 0.302E+00   0.255E-20 -.977E-20 0.122E+00   0.175E-13 0.120E-13 0.372E-05
   0.403E-08 -.455E-10 -.425E+00   0.444E-15 -.222E-14 0.302E+00   0.112E-20 0.638E-20 0.122E+00   -.671E-13 0.119E-12 0.372E-05
   0.403E-08 -.455E-10 -.425E+00   -.711E-14 0.000E+00 0.302E+00   0.204E-21 -.374E-20 0.122E+00   0.135E-13 -.210E-13 0.372E-05
   0.403E-08 -.454E-10 -.425E+00   -.124E-13 -.711E-14 0.302E+00   0.116E-20 0.186E-20 0.122E+00   -.207E-13 -.120E-12 0.372E-05
   0.403E-08 -.456E-10 -.425E+00   -.144E-13 -.266E-14 0.302E+00   0.507E-21 0.146E-20 0.122E+00   -.304E-13 -.139E-13 0.372E-05
   0.403E-08 -.455E-10 -.425E+00   -.142E-13 -.266E-14 0.302E+00   0.128E-20 0.289E-20 0.122E+00   0.638E-13 0.783E-13 0.372E-05
   0.403E-08 -.453E-10 -.425E+00   -.182E-13 -.888E-15 0.302E+00   0.174E-20 -.744E-20 0.122E+00   -.263E-13 0.183E-13 0.372E-05
   0.403E-08 -.461E-10 -.425E+00   -.178E-13 -.355E-14 0.302E+00   0.106E-20 0.521E-20 0.122E+00   0.127E-13 -.788E-13 0.372E-05
   -.240E-08 -.200E-10 0.425E+00   -.231E-13 0.813E-14 -.302E+00   -.130E-20 0.862E-20 -.122E+00   -.374E-13 0.122E-13 -.372E-05
   -.240E-08 -.192E-10 0.425E+00   -.231E-13 0.391E-14 -.302E+00   -.147E-20 -.414E-20 -.122E+00   0.736E-13 0.139E-12 -.372E-05
   -.240E-08 -.189E-10 0.425E+00   -.178E-13 0.110E-13 -.302E+00   0.883E-21 -.176E-20 -.122E+00   -.420E-14 -.693E-14 -.372E-05
   -.240E-08 -.196E-10 0.425E+00   -.107E-13 0.299E-14 -.302E+00   0.126E-21 -.136E-19 -.122E+00   0.365E-14 -.133E-12 -.372E-05
   -.240E-08 -.207E-10 0.425E+00   -.666E-14 0.413E-14 -.302E+00   0.226E-20 -.486E-20 -.122E+00   0.397E-13 0.939E-13 -.372E-05
   -.240E-08 -.194E-10 0.425E+00   -.138E-13 -.342E-14 -.302E+00   0.131E-20 -.134E-19 -.122E+00   -.782E-13 0.134E-12 -.372E-05
   -.240E-08 -.196E-10 0.425E+00   -.213E-13 -.118E-15 -.302E+00   -.207E-20 0.118E-19 -.122E+00   0.521E-14 -.946E-13 -.372E-05
   -.240E-08 -.197E-10 0.425E+00   -.711E-14 -.562E-15 -.302E+00   -.318E-20 -.644E-20 -.122E+00   -.159E-14 -.126E-12 -.372E-05
   0.403E-08 -.454E-10 -.425E+00   0.977E-14 -.799E-14 0.302E+00   -.342E-20 0.601E-20 0.122E+00   -.505E-13 0.606E-13 0.372E-05
   0.403E-08 -.454E-10 -.425E+00   0.933E-14 -.102E-13 0.302E+00   0.493E-21 -.433E-20 0.122E+00   0.105E-12 0.741E-13 0.372E-05
   0.403E-08 -.454E-10 -.425E+00   0.155E-13 -.191E-13 0.302E+00   0.805E-21 0.163E-20 0.122E+00   -.867E-13 -.633E-13 0.372E-05
   0.403E-08 -.454E-10 -.425E+00   0.133E-13 -.111E-13 0.302E+00   -.111E-20 -.294E-20 0.122E+00   0.668E-13 -.795E-13 0.372E-05
   0.403E-08 -.454E-10 -.425E+00   0.271E-13 -.666E-14 0.302E+00   0.343E-21 0.272E-20 0.122E+00   0.666E-13 0.538E-13 0.372E-05
   0.403E-08 -.455E-10 -.425E+00   0.120E-13 -.977E-14 0.302E+00   -.889E-21 -.605E-20 0.122E+00   -.102E-12 0.123E-12 0.372E-05
   0.403E-08 -.459E-10 -.425E+00   0.187E-13 -.799E-14 0.302E+00   -.264E-20 0.908E-20 0.122E+00   0.960E-13 -.617E-13 0.372E-05
   0.403E-08 -.457E-10 -.425E+00   0.249E-13 0.000E+00 0.302E+00   0.539E-21 -.403E-20 0.122E+00   -.589E-13 -.129E-12 0.372E-05
   -.240E-08 -.198E-10 0.425E+00   0.152E-13 0.622E-14 -.302E+00   0.621E-21 -.125E-19 -.122E+00   -.923E-13 -.314E-13 -.372E-05
   -.240E-08 -.196E-10 0.425E+00   0.152E-13 -.888E-15 -.302E+00   0.294E-21 -.460E-22 -.122E+00   0.343E-13 0.509E-14 -.372E-05
   -.240E-08 -.198E-10 0.425E+00   0.201E-13 -.888E-15 -.302E+00   0.133E-20 0.131E-20 -.122E+00   -.316E-14 0.271E-13 -.372E-05
   -.240E-08 -.194E-10 0.425E+00   0.148E-13 -.888E-15 -.302E+00   -.142E-20 0.108E-19 -.122E+00   0.307E-13 -.121E-13 -.372E-05
   -.240E-08 -.186E-10 0.425E+00   0.145E-13 0.533E-14 -.302E+00   0.132E-20 -.623E-21 -.122E+00   0.856E-13 0.374E-14 -.372E-05
   -.240E-08 -.203E-10 0.425E+00   0.721E-14 -.178E-14 -.302E+00   -.344E-21 0.105E-19 -.122E+00   -.352E-13 -.703E-13 -.372E-05
   -.240E-08 -.191E-10 0.425E+00   0.698E-14 0.533E-14 -.302E+00   0.804E-21 -.649E-20 -.122E+00   0.625E-14 -.496E-14 -.372E-05
   -.240E-08 -.192E-10 0.425E+00   0.654E-14 0.178E-14 -.302E+00   -.453E-21 -.607E-21 -.122E+00   -.275E-13 0.607E-13 -.372E-05
   0.403E-08 -.452E-10 -.425E+00   0.733E-14 -.278E-13 0.302E+00   -.296E-21 0.432E-22 0.122E+00   0.185E-13 0.550E-13 0.372E-05
   0.403E-08 -.456E-10 -.425E+00   0.155E-13 -.284E-13 0.302E+00   -.148E-20 0.737E-20 0.122E+00   -.191E-13 0.374E-13 0.372E-05
   0.403E-08 -.456E-10 -.425E+00   0.151E-13 -.280E-13 0.302E+00   -.113E-20 -.736E-20 0.122E+00   -.749E-14 -.648E-13 0.372E-05
   0.403E-08 -.452E-10 -.425E+00   0.151E-13 -.253E-13 0.302E+00   0.205E-20 -.808E-20 0.122E+00   0.492E-13 -.377E-13 0.372E-05
   0.403E-08 -.447E-10 -.425E+00   0.577E-14 -.235E-13 0.302E+00   0.345E-21 -.881E-20 0.122E+00   -.155E-14 0.469E-14 0.372E-05
   0.403E-08 -.465E-10 -.425E+00   0.138E-13 -.311E-13 0.302E+00   0.122E-20 -.446E-20 0.122E+00   0.141E-13 0.990E-13 0.372E-05
   0.403E-08 -.467E-10 -.425E+00   0.133E-13 -.306E-13 0.302E+00   0.453E-21 -.109E-20 0.122E+00   0.236E-13 -.856E-14 0.372E-05
   0.403E-08 -.454E-10 -.425E+00   0.142E-13 -.355E-13 0.302E+00   -.809E-21 0.479E-20 0.122E+00   -.452E-13 -.974E-13 0.372E-05
   -.240E-08 -.196E-10 0.425E+00   0.264E-14 -.185E-13 -.302E+00   0.195E-20 -.453E-21 -.122E+00   -.177E-13 0.905E-13 -.372E-05
   -.240E-08 -.196E-10 0.425E+00   0.201E-14 -.249E-13 -.302E+00   0.173E-20 0.344E-20 -.122E+00   -.750E-14 0.122E-12 -.372E-05
   -.240E-08 -.198E-10 0.425E+00   0.604E-14 -.358E-13 -.302E+00   -.135E-20 -.245E-20 -.122E+00   -.251E-13 -.831E-13 -.372E-05
   -.240E-08 -.194E-10 0.425E+00   0.963E-14 -.349E-13 -.302E+00   0.256E-20 0.762E-21 -.122E+00   0.698E-14 -.115E-12 -.372E-05
   -.240E-08 -.195E-10 0.425E+00   0.263E-13 -.229E-13 -.302E+00   -.223E-20 0.233E-20 -.122E+00   0.105E-13 0.438E-13 -.372E-05
   -.240E-08 -.191E-10 0.425E+00   0.184E-13 -.260E-13 -.302E+00   0.349E-20 0.278E-20 -.122E+00   0.141E-13 0.127E-12 -.372E-05
   -.240E-08 -.181E-10 0.425E+00   0.107E-14 -.262E-13 -.302E+00   0.173E-20 -.243E-20 -.122E+00   0.190E-13 -.359E-13 -.372E-05
   -.240E-08 -.199E-10 0.425E+00   0.736E-14 -.283E-13 -.302E+00   0.134E-20 0.660E-21 -.122E+00   -.342E-14 -.126E-12 -.372E-05
 -----------------------------------------------------------------------------------------------
   0.520E-07 -.208E-08 0.105E-04   0.337E-14 -.753E-13 0.109E-13   0.744E-21 -.339E-19 -.194E-15   -.815E-14 -.561E-13 0.113E-11
 
 
 POSITION                                       TOTAL-FORCE (eV/Angst)
 -----------------------------------------------------------------------------------
      0.00000      0.00000      0.00195         0.000000      0.000000     -0.000043
      0.00000      0.00000      5.38401        -0.000000      0.000000     -0.000043
      0.01346      5.38207      0.00195        -0.000000      0.000000     -0.000043
      0.01346      5.38207      5.38401         0.000000     -0.000000     -0.000043
      5.40898      0.01346      0.00195         0.000000     -0.000000     -0.000043
      5.40898      0.01346      5.38401         0.000000     -0.000000     -0.000043
      5.42243      5.39552      0.00195        -0.000000     -0.000000     -0.000043
      5.42243      5.39552      5.38401        -0.000000      0.000000     -0.000043
      4.06682      4.04664      1.34357        -0.000000      0.000000      0.000043
      4.06682      4.04664      6.72564        -0.000000      0.000000      0.000043
      4.08028      9.42871      1.34357         0.000000      0.000000      0.000043
      4.08028      9.42871      6.72564         0.000000     -0.000000      0.000043
      9.47580      4.06010      1.34357         0.000000     -0.000000      0.000043
      9.47580      4.06010      6.72564        -0.000000      0.000000      0.000043
      9.48926      9.44216      1.34357        -0.000000     -0.000000      0.000043
      9.48926      9.44216      6.72564         0.000000     -0.000000      0.000043
      0.00673      2.69103      2.69298         0.000000      0.000000     -0.000043
      0.00673      2.69103      8.07505        -0.000000      0.000000     -0.000043
      0.02018      8.07310      2.69298        -0.000000      0.000000     -0.000043
      0.02018      8.07310      8.07505        -0.000000      0.000000     -0.000043
      5.41570      2.70449      2.69298        -0.000000      0.000000     -0.000043
      5.41570      2.70449      8.07505         0.000000      0.000000     -0.000043
      5.42916      8.08656      2.69298        -0.000000     -0.000000     -0.000043
      5.42916      8.08656      8.07505        -0.000000     -0.000000     -0.000043
      4.06010      1.35561      4.03460        -0.000000     -0.000000      0.000043
      4.06010      1.35561      9.41667        -0.000000     -0.000000      0.000043
      4.07355      6.73767      4.03460         0.000000     -0.000000      0.000043
      4.07355      6.73767      9.41667         0.000000      0.000000      0.000043
      9.46907      1.36906      4.03460        -0.000000      0.000000      0.000043
      9.46907      1.36906      9.41667         0.000000     -0.000000      0.000043
      9.48253      6.75113      4.03460         0.000000     -0.000000      0.000043
      9.48253      6.75113      9.41667         0.000000     -0.000000      0.000043
      2.70449      0.00673      2.69298         0.000000     -0.000000     -0.000043
      2.70449      0.00673      8.07505        -0.000000     -0.000000     -0.000043
      2.71794      5.38879      2.69298         0.000000      0.000000     -0.000043
      2.71794      5.38879      8.07505         0.000000      0.000000     -0.000043
      8.11347      0.02018      2.69298         0.000000     -0.000000     -0.000043
      8.11347      0.02018      8.07505        -0.000000     -0.000000     -0.000043
      8.12692      5.40225      2.69298         0.000000     -0.000000     -0.000043
      8.12692      5.40225      8.07505         0.000000     -0.000000     -0.000043
      1.36234      4.03991      4.03460         0.000000      0.000000      0.000043
      1.36234      4.03991      9.41667         0.000000     -0.000000      0.000043
      1.37579      9.42198      4.03460         0.000000      0.000000      0.000043
      1.37579      9.42198      9.41667        -0.000000     -0.000000      0.000043
      6.77131      4.05337      4.03460        -0.000000      0.000000      0.000043
      6.77131      4.05337      9.41667        -0.000000      0.000000      0.000043
      6.78477      9.43544      4.03460        -0.000000      0.000000      0.000043
      6.78477      9.43544      9.41667        -0.000000      0.000000      0.000043
      2.71122      2.69776      0.00195        -0.000000     -0.000000     -0.000043
      2.71122      2.69776      5.38401        -0.000000      0.000000     -0.000043
      2.72467      8.07983      0.00195         0.000000     -0.000000     -0.000043
      2.72467      8.07983      5.38401         0.000000      0.000000     -0.000043
      8.12019      2.71122      0.00195         0.000000     -0.000000     -0.000043
      8.12019      2.71122      5.38401        -0.000000     -0.000000     -0.000043
      8.13365      8.09328      0.00195        -0.000000     -0.000000     -0.000043
      8.13365      8.09328      5.38401         0.000000     -0.000000     -0.000043
      1.35561      1.34888      1.34357         0.000000      0.000000      0.000043
      1.35561      1.34888      6.72564         0.000000      0.000000      0.000043
      1.36906      6.73095      1.34357        -0.000000     -0.000000      0.000043
      1.36906      6.73095      6.72564        -0.000000     -0.000000      0.000043
      6.76459      1.36234      1.34357        -0.000000      0.000000      0.000043
      6.76459      1.36234      6.72564        -0.000000      0.000000      0.000043
      6.77804      6.74440      1.34357        -0.000000      0.000000      0.000043
      6.77804      6.74440      6.72564        -0.000000      0.000000      0.000043
 -----------------------------------------------------------------------------------
    total drift:                                0.000000     -0.000000      0.000010


--------------------------------------------------------------------------------------------------------



  FREE ENERGIE OF THE ION-ELECTRON SYSTEM (eV)
  ---------------------------------------------------
  free  energy   TOTEN  =      -367.37661164 eV

  energy  without entropy=     -367.40636023  energy(sigma->0) =     -367.38652784
 
 d Force = 0.4480351E-03[ 0.192E-05, 0.894E-03]  d Energy = 0.4477068E-03 0.328E-06
 d Force =-0.1284170E-01[-0.136E-01,-0.121E-01]  d Ewald  =-0.1284170E-01-0.149E-08


--------------------------------------------------------------------------------------------------------


    POTLOK:  cpu time      0.1471: real time      0.1475


--------------------------------------------------------------------------------------------------------




--------------------------------------------------------------------------------------------------------


  
 reached required accuracy - stopping structural energy minimisation
     LOOP+:  cpu time     12.4059: real time     12.5906
    4ORBIT:  cpu time      0.0000: real time      0.0000

 total amount of memory used by VASP MPI-rank0    79899. kBytes
=======================================================================

   base      :      30000. kBytes
   nonlr-proj:       4608. kBytes
   fftplans  :      18113. kBytes
   grid      :       6881. kBytes
   one-center:         18. kBytes
   wavefun   :      20279. kBytes
 
  
  
 General timing and accounting informations for this job:
 ========================================================
  
                  Total CPU time used (sec):       62.911
                            User time (sec):       59.428
                          System time (sec):        3.483
                         Elapsed time (sec):       66.663
  
                   Maximum memory used (kb):      405944.
                   Average memory used (kb):          N/A
  
                          Minor page faults:        93864
                          Major page faults:            0
                 Voluntary context switches:         9733
