<?xml version="1.0" encoding="ISO-8859-1"?>
<modeling>
 <generator>
  <i name="program" type="string">vasp </i>
  <i name="version" type="string">6.4.3  </i>
  <i name="subversion" type="string">19Mar24 (build Oct 21 2024 22:36:34) complex                          parallel </i>
  <i name="platform" type="string">LinuxIFC </i>
  <i name="date" type="string">2024 11 01 </i>
  <i name="time" type="string">22:49:46 </i>
 </generator>
 <incar>
  <i type="string" name="SYSTEM">Si64</i>
  <i type="int" name="ISTART">     0</i>
  <i type="string" name="PREC">Accurate</i>
  <i type="string" name="ALGO">Fast</i>
  <i type="logical" name="ADDGRID"> T  </i>
  <i type="int" name="ICHARG">     2</i>
  <i type="int" name="NELM">    60</i>
  <i type="int" name="NELMIN">     8</i>
  <i type="int" name="IBRION">     2</i>
  <i name="EDIFF">      0.00000100</i>
  <i name="EDIFFG">     -0.01000000</i>
  <i type="int" name="NSW">    60</i>
  <i type="int" name="ISIF">     2</i>
  <i name="ENCUT">    400.00000000</i>
  <i type="string" name="LREAL">Auto</i>
  <i type="int" name="ISMEAR">     1</i>
  <i name="SIGMA">      0.20000000</i>
  <i type="logical" name="LWAVE"> F  </i>
  <i type="logical" name="LCHARG"> F  </i>
  <i type="logical" name="GGA_COMPAT"> F  </i>
  <i type="string" name="GGA">PS</i>
 </incar>
 <primitive_cell>
  <structure name="primitive_cell" >
   <crystal>
    <varray name="basis" >
     <v>       0.00672750       2.69103340      -2.69103340 </v>
     <v>       0.00672750       2.69103340       2.69103340 </v>
     <v>       2.69776115      -2.68430590       0.00000000 </v>
    </varray>
    <i name="volume">     39.16973499 </i>
    <varray name="rec_basis" >
     <v>       0.18441679       0.18534119      -0.18580223 </v>
     <v>       0.18441679       0.18534119       0.18580223 </v>
     <v>       0.36975796      -0.00092438      -0.00000000 </v>
    </varray>
   </crystal>
   <varray name="positions" >
    <v>       0.00000000       0.00000000       0.00000000 </v>
    <v>       0.25000000       0.75000000       0.50000000 </v>
   </varray>
  </structure>
  <varray name="primitive_index" >
   <v type="int" >        1 </v>
   <v type="int" >       15 </v>
  </varray>
 </primitive_cell>
 <kpoints>
  <generation param="Gamma">
   <v type="int" name="divisions">       2        2        2 </v>
   <v name="usershift">      0.00000000       0.00000000       0.00000000 </v>
   <v name="genvec1">      0.50000000       0.00000000       0.00000000 </v>
   <v name="genvec2">     -0.00000000       0.50000000       0.00000000 </v>
   <v name="genvec3">      0.00000000       0.00000000       0.50000000 </v>
   <v name="shift">      0.00000000       0.00000000       0.00000000 </v>
  </generation>
  <varray name="kpointlist" >
   <v>       0.00000000       0.00000000       0.00000000 </v>
   <v>       0.50000000       0.00000000       0.00000000 </v>
   <v>       0.00000000       0.50000000       0.00000000 </v>
   <v>       0.50000000       0.50000000       0.00000000 </v>
   <v>       0.00000000       0.00000000       0.50000000 </v>
   <v>       0.50000000       0.00000000       0.50000000 </v>
   <v>       0.00000000       0.50000000       0.50000000 </v>
   <v>       0.50000000       0.50000000       0.50000000 </v>
  </varray>
  <varray name="weights" >
   <v>       0.12500000 </v>
   <v>       0.12500000 </v>
   <v>       0.12500000 </v>
   <v>       0.12500000 </v>
   <v>       0.12500000 </v>
   <v>       0.12500000 </v>
   <v>       0.12500000 </v>
   <v>       0.12500000 </v>
  </varray>
 </kpoints>
 <parameters>
  <separator name="general" >
   <i type="string" name="SYSTEM">Si64</i>
   <i type="logical" name="LCOMPAT"> F  </i>
  </separator>
  <separator name="electronic" >
   <i type="string" name="PREC">accura</i>
   <i name="ENMAX">    400.00000000</i>
   <i name="ENAUG">    322.06900000</i>
   <i name="EDIFF">      0.00000100</i>
   <i type="int" name="IALGO">    68</i>
   <i type="int" name="IWAVPR">    11</i>
   <i type="int" name="NBANDS">   162</i>
   <i type="int" name="NBANDSLOW">    -1</i>
   <i type="int" name="NBANDSHIGH">    -1</i>
   <i name="NELECT">    256.00000000</i>
   <i type="int" name="TURBO">     0</i>
   <i type="int" name="IRESTART">     0</i>
   <i type="int" name="NREBOOT">     0</i>
   <i type="int" name="NMIN">     0</i>
   <i name="EREF">      0.00000000</i>
   <separator name="electronic smearing" >
    <i type="int" name="ISMEAR">     1</i>
    <i name="SIGMA">      0.20000000</i>
    <i name="KSPACING">      0.50000000</i>
    <i type="logical" name="KGAMMA"> T  </i>
    <i type="logical" name="KBLOWUP"> T  </i>
   </separator>
   <separator name="electronic projectors" >
    <i type="logical" name="LREAL"> T  </i>
    <v name="ROPT">     -0.00025000</v>
    <i type="int" name="LMAXPAW">  -100</i>
    <i type="int" name="LMAXMIX">     2</i>
    <i type="logical" name="NLSPLINE"> F  </i>
   </separator>
   <separator name="electronic startup" >
    <i type="int" name="ISTART">     0</i>
    <i type="int" name="ICHARG">     2</i>
    <i type="int" name="INIWAV">     1</i>
   </separator>
   <separator name="electronic spin" >
    <i type="int" name="ISPIN">     1</i>
    <i type="logical" name="LNONCOLLINEAR"> F  </i>
    <v name="MAGMOM">      1.00000000      1.00000000      1.00000000      1.00000000      1.00000000      1.00000000      1.00000000      1.00000000      1.00000000      1.00000000      1.00000000      1.00000000      1.00000000      1.00000000      1.00000000      1.00000000      1.00000000      1.00000000      1.00000000      1.00000000
      1.00000000      1.00000000      1.00000000      1.00000000      1.00000000      1.00000000      1.00000000      1.00000000      1.00000000      1.00000000      1.00000000      1.00000000      1.00000000      1.00000000      1.00000000      1.00000000      1.00000000      1.00000000      1.00000000      1.00000000
      1.00000000      1.00000000      1.00000000      1.00000000      1.00000000      1.00000000      1.00000000      1.00000000      1.00000000      1.00000000      1.00000000      1.00000000      1.00000000      1.00000000      1.00000000      1.00000000      1.00000000      1.00000000      1.00000000      1.00000000
      1.00000000      1.00000000      1.00000000      1.00000000</v>
    <i name="NUPDOWN">     -1.00000000</i>
    <i type="logical" name="LSORBIT"> F  </i>
    <v name="SAXIS">      0.00000000      0.00000000      1.00000000</v>
    <i type="logical" name="LSPIRAL"> F  </i>
    <v name="QSPIRAL">      0.00000000      0.00000000      0.00000000</v>
    <i type="logical" name="LZEROZ"> F  </i>
   </separator>
   <separator name="electronic exchange-correlation" >
    <i type="logical" name="LASPH"> F  </i>
   </separator>
   <separator name="electronic convergence" >
    <i type="int" name="NELM">    60</i>
    <i type="int" name="NELMDL">    -5</i>
    <i type="int" name="NELMIN">     8</i>
    <i name="ENINI">    400.00000000</i>
    <separator name="electronic convergence detail" >
     <i type="logical" name="LDIAG"> T  </i>
     <i type="logical" name="LSUBROT"> F  </i>
     <i name="WEIMIN">      0.00100000</i>
     <i name="EBREAK">      0.00000000</i>
     <i name="DEPER">      0.30000000</i>
     <i type="int" name="NRMM">     4</i>
     <i name="TIME">      0.40000000</i>
    </separator>
   </separator>
   <separator name="electronic mixer" >
    <i name="AMIX">      0.40000000</i>
    <i name="BMIX">      1.00000000</i>
    <i name="AMIN">      0.10000000</i>
    <i name="AMIX_MAG">      1.60000000</i>
    <i name="BMIX_MAG">      1.00000000</i>
    <separator name="electronic mixer details" >
     <i type="int" name="IMIX">     4</i>
     <i type="logical" name="MIXFIRST"> F  </i>
     <i type="int" name="MAXMIX">   -45</i>
     <i name="WC">    100.00000000</i>
     <i type="int" name="INIMIX">     1</i>
     <i type="int" name="MIXPRE">     1</i>
     <i type="int" name="MREMOVE">     5</i>
    </separator>
   </separator>
   <separator name="electronic dipolcorrection" >
    <i type="logical" name="LDIPOL"> F  </i>
    <i type="logical" name="LMONO"> F  </i>
    <i type="int" name="IDIPOL">     0</i>
    <i name="EPSILON">      1.00000000</i>
    <v name="DIPOL">   -100.00000000   -100.00000000   -100.00000000</v>
    <i name="EFIELD">      0.00000000</i>
    <i type="logical" name="LVACPOTAV"> F  </i>
   </separator>
  </separator>
  <separator name="grids" >
   <i type="int" name="NGX">    72</i>
   <i type="int" name="NGY">    70</i>
   <i type="int" name="NGZ">    70</i>
   <i type="int" name="NGXF">   144</i>
   <i type="int" name="NGYF">   140</i>
   <i type="int" name="NGZF">   140</i>
   <i type="logical" name="ADDGRID"> T  </i>
  </separator>
  <separator name="ionic" >
   <i type="int" name="NSW">    60</i>
   <i type="int" name="IBRION">     2</i>
   <i type="int" name="MDALGO">     0</i>
   <i type="int" name="ISIF">     2</i>
   <i name="PSTRESS">      0.00000000</i>
   <i name="EDIFFG">     -0.01000000</i>
   <i type="int" name="NFREE">     1</i>
   <i name="POTIM">      0.50000000</i>
   <i name="SMASS">     -3.00000000</i>
   <i name="SCALEE">      1.00000000</i>
  </separator>
  <separator name="ionic md" >
   <i name="TEBEG">      0.00010000</i>
   <i name="TEEND">      0.00010000</i>
   <i type="int" name="NBLOCK">     1</i>
   <i type="int" name="KBLOCK">    60</i>
   <i type="int" name="NPACO">   256</i>
   <i name="APACO">     10.00000000</i>
  </separator>
  <separator name="symmetry" >
   <i type="int" name="ISYM">     2</i>
   <i name="SYMPREC">      0.00001000</i>
  </separator>
  <separator name="dos" >
   <i type="int" name="LORBIT">     0</i>
   <v name="RWIGS">     -1.00000000</v>
   <i type="int" name="NEDOS">   301</i>
   <i name="EMIN">     10.00000000</i>
   <i name="EMAX">    -10.00000000</i>
   <i name="EFERMI">      0.00000000</i>
  </separator>
  <separator name="writing" >
   <i type="int" name="NWRITE">     2</i>
   <i type="logical" name="LWAVE"> F  </i>
   <i type="logical" name="LDOWNSAMPLE"> F  </i>
   <i type="logical" name="LCHARG"> F  </i>
   <i type="logical" name="LPARD"> F  </i>
   <i type="logical" name="LVTOT"> F  </i>
   <i type="logical" name="LVHAR"> F  </i>
   <i type="logical" name="LELF"> F  </i>
   <i type="logical" name="LOPTICS"> F  </i>
   <v name="STM">      0.00000000      0.00000000      0.00000000      0.00000000      0.00000000      0.00000000      0.00000000</v>
  </separator>
  <separator name="performance" >
   <i type="int" name="NPAR">     2</i>
   <i type="int" name="NSIM">     4</i>
   <i type="int" name="NBLK">    -1</i>
   <i type="logical" name="LPLANE"> T  </i>
   <i type="logical" name="LSCALAPACK"> T  </i>
   <i type="logical" name="LSCAAWARE"> F  </i>
   <i type="logical" name="LSCALU"> F  </i>
   <i type="logical" name="LASYNC"> F  </i>
   <i type="logical" name="LORBITALREAL"> F  </i>
  </separator>
  <separator name="miscellaneous" >
   <i type="int" name="IDIOT">     3</i>
   <i type="int" name="PHON_NSTRUCT">    -1</i>
   <i type="logical" name="LMUSIC"> F  </i>
   <v name="POMASS">     28.08500000</v>
   <v name="DARWINR">      0.00000000</v>
   <v name="DARWINV">      1.00000000</v>
   <i type="logical" name="LCORR"> T  </i>
  </separator>
  <i type="logical" name="GGA_COMPAT"> F  </i>
  <i type="logical" name="LBERRY"> F  </i>
  <i type="int" name="ICORELEVEL">     0</i>
  <i type="logical" name="LDAU"> F  </i>
  <i type="int" name="I_CONSTRAINED_M">     0</i>
  <separator name="electronic exchange-correlation" >
   <i type="string" name="GGA    ">PS</i>
   <i type="string" name="XC_C">1</i>
   <i type="int" name="VOSKOWN">     0</i>
   <i type="logical" name="LHFCALC"> F  </i>
   <i type="string" name="PRECFOCK"></i>
   <i type="logical" name="LSYMGRAD"> F  </i>
   <i type="logical" name="LHFONE"> F  </i>
   <i type="logical" name="LRHFCALC"> F  </i>
   <i type="logical" name="LTHOMAS"> F  </i>
   <i type="logical" name="LMODELHF"> F  </i>
   <i type="logical" name="LFOCKACE"> F  </i>
   <i name="ENCUT4O">     -1.00000000</i>
   <i type="int" name="EXXOEP">     0</i>
   <i type="int" name="FOURORBIT">     0</i>
   <i name="AEXX">      0.00000000</i>
   <i name="HFALPHA">      0.00000000</i>
   <i name="MCALPHA">      0.00000000</i>
   <i name="ALDAX">      1.00000000</i>
   <i name="AGGAX">      1.00000000</i>
   <i name="AMGGAX">      1.00000000</i>
   <i name="ALDAC">      1.00000000</i>
   <i name="AGGAC">      1.00000000</i>
   <i name="AMGGAC">      1.00000000</i>
   <i type="int" name="NKREDX">     1</i>
   <i type="int" name="NKREDY">     1</i>
   <i type="int" name="NKREDZ">     1</i>
   <i type="logical" name="SHIFTRED"> F  </i>
   <i type="logical" name="ODDONLY"> F  </i>
   <i type="logical" name="EVENONLY"> F  </i>
   <i type="int" name="LMAXFOCK">     0</i>
   <i type="int" name="NMAXFOCKAE">     0</i>
   <i type="logical" name="LFOCKAEDFT"> F  </i>
   <i name="HFSCREEN">      0.00000000</i>
   <i name="HFSCREENC">      0.00000000</i>
   <i type="int" name="NBANDSGWLOW">     0</i>
  </separator>
  <separator name="vdW DFT" >
   <i type="logical" name="LUSE_VDW"> F  </i>
   <i type="int" name="IVDW_NL">    -1</i>
   <i type="logical" name="LSPIN_VDW"> F  </i>
   <i name="ZAB_VDW">     -0.84910000</i>
   <i name="GAMMA_VDW">      1.39626340</i>
   <i name="ALPHA_VDW">      0.00000000</i>
   <i name="PARAM1">      0.12340000</i>
   <i name="PARAM2">      1.00000000</i>
   <i name="BPARAM">      6.30000000</i>
   <i name="CPARAM">      0.00930000</i>
  </separator>
  <separator name="model GW" >
   <i type="int" name="MODEL_GW">     0</i>
   <i name="MODEL_EPS0">     11.75092050</i>
   <i name="MODEL_ALPHA">      1.00000000</i>
  </separator>
  <separator name="linear response parameters" >
   <i type="logical" name="LEPSILON"> F  </i>
   <i type="logical" name="LRPA"> F  </i>
   <i type="logical" name="LNABLA"> F  </i>
   <i type="logical" name="LVEL"> F  </i>
   <i name="CSHIFT">      0.10000000</i>
   <i name="OMEGAMAX">     -1.00000000</i>
   <i name="DEG_THRESHOLD">      0.00200000</i>
   <i name="RTIME">     -0.10000000</i>
   <i name="WPLASMAI">      0.00000000</i>
   <v name="DFIELD">      0.00000000      0.00000000      0.00000000</v>
   <v name="WPLASMA">      0.00000000      0.00000000      0.00000000      0.00000000      0.00000000      0.00000000      0.00000000      0.00000000      0.00000000</v>
  </separator>
  <separator name="orbital magnetization" >
   <i type="logical" name="NUCIND"> F  </i>
   <v name="MAGPOS">      0.00000000      0.00000000      0.00000000</v>
   <i type="logical" name="LNICSALL"> T  </i>
   <i type="logical" name="ORBITALMAG"> F  </i>
   <i type="logical" name="LMAGBLOCH"> F  </i>
   <i type="logical" name="LCHIMAG"> F  </i>
   <i type="logical" name="LGAUGE"> T  </i>
   <i type="int" name="MAGATOM">     0</i>
   <v name="MAGDIPOL">      0.00000000      0.00000000      0.00000000</v>
   <v name="AVECCONST">      0.00000000      0.00000000      0.00000000</v>
  </separator>
  <separator name="response functions" >
   <i type="logical" name="LALL_IN_ONE"> F  </i>
   <i type="int" name="IALL_IN_ONE">    -1</i>
   <i type="int" name="NBANDS_WAVE">    -1</i>
   <i type="logical" name="LFINITE_TEMPERATURE"> F  </i>
   <i type="logical" name="LADDER"> F  </i>
   <i type="logical" name="LRPAFORCE"> F  </i>
   <i type="logical" name="LFXC"> F  </i>
   <i type="logical" name="LHARTREE"> T  </i>
   <i type="int" name="IBSE">     0</i>
   <v type="int" name="KPOINT">    -1     0     0     0</v>
   <i type="logical" name="LTCTC"> F  </i>
   <i type="logical" name="LTCTE"> F  </i>
   <i type="logical" name="LTETE"> F  </i>
   <i type="logical" name="LTRIPLET"> F  </i>
   <i type="logical" name="LFXCEPS"> F  </i>
   <i type="logical" name="LFXHEG"> F  </i>
   <i type="int" name="NATURALO">     2</i>
   <i type="logical" name="LHOLEGF"> F  </i>
   <i type="logical" name="L2ORDER"> F  </i>
   <i type="logical" name="LDMP1"> F  </i>
   <i type="logical" name="LMP2LT"> F  </i>
   <i type="logical" name="LSMP2LT"> F  </i>
   <i type="logical" name="LGWLF"> F  </i>
   <i name="ENCUTGW">     -1.60000002</i>
   <i name="ENCUTGWSOFT">     -1.60000002</i>
   <i name="ENCUTLF">     -1.00000000</i>
   <i type="logical" name="ESF_SPLINES"> F  </i>
   <i name="ESF_CONV">      0.01000000</i>
   <i type="int" name="ESF_NINTER">    15</i>
   <i type="int" name="LMAXMP2">    -1</i>
   <i name="SCISSOR">      0.00000000</i>
   <i type="int" name="NOMEGA">     0</i>
   <i type="int" name="NOMEGAR">     0</i>
   <i type="int" name="NBANDSGW">    -1</i>
   <i type="int" name="NBANDSO">    -1</i>
   <i type="int" name="NBANDSV">    -1</i>
   <i type="int" name="NELMGW">     1</i>
   <i type="int" name="NELMHF">     1</i>
   <i type="int" name="DIM">     3</i>
   <i type="int" name="IESPILON">     4</i>
   <i type="int" name="ANTIRES">     0</i>
   <i name="OMEGAMAX">    -30.00000000</i>
   <i name="OMEGAMIN">    -30.00000000</i>
   <i name="OMEGATL">   -200.00000000</i>
   <i type="int" name="OMEGAGRID">     0</i>
   <i name="CSHIFT">     -0.10000000</i>
   <i type="logical" name="LSELFENERGY"> F  </i>
   <i type="logical" name="LSPECTRAL"> F  </i>
   <i type="logical" name="LSPECTRALGW"> F  </i>
   <i type="logical" name="LSINGLES"> F  </i>
   <i type="logical" name="LFERMIGW"> F  </i>
   <i type="logical" name="ODDONLYGW"> F  </i>
   <i type="logical" name="EVENONLYGW"> F  </i>
   <i type="int" name="NKREDLFX">     1</i>
   <i type="int" name="NKREDLFY">     1</i>
   <i type="int" name="NKREDLFZ">     1</i>
   <i type="int" name="MAXMEM">  2800</i>
   <i type="int" name="TELESCOPE">     0</i>
   <i type="int" name="NTAUPAR">    -1</i>
   <i type="int" name="NOMEGAPAR">    -1</i>
   <i name="DAMP_NEWTON">      0.80000001</i>
   <i name="LAMBDA">      1.00000000</i>
  </separator>
  <separator name="External order field" >
   <i name="OFIELD_KAPPA">      0.00000000</i>
   <v name="OFIELD_K">      0.00000000      0.00000000      0.00000000</v>
   <i name="OFIELD_Q6_NEAR">      0.00000000</i>
   <i name="OFIELD_Q6_FAR">      0.00000000</i>
   <i name="OFIELD_A">      0.00000000</i>
  </separator>
  <separator name="optional k-points parameters" >
   <i type="int" name="KPOINTS_OPT_MODE">     1</i>
   <i type="logical" name="LKPOINTS_OPT"> F  </i>
  </separator>
 </parameters>
 <atominfo>
  <atoms>      64 </atoms>
  <types>       1 </types>
  <array name="atoms" >
   <dimension dim="1">ion</dimension>
   <field type="string">element</field>
   <field type="int">atomtype</field>
   <set>
    <rc><c>Si</c><c>   1</c></rc>
    <rc><c>Si</c><c>   1</c></rc>
    <rc><c>Si</c><c>   1</c></rc>
    <rc><c>Si</c><c>   1</c></rc>
    <rc><c>Si</c><c>   1</c></rc>
    <rc><c>Si</c><c>   1</c></rc>
    <rc><c>Si</c><c>   1</c></rc>
    <rc><c>Si</c><c>   1</c></rc>
    <rc><c>Si</c><c>   1</c></rc>
    <rc><c>Si</c><c>   1</c></rc>
    <rc><c>Si</c><c>   1</c></rc>
    <rc><c>Si</c><c>   1</c></rc>
    <rc><c>Si</c><c>   1</c></rc>
    <rc><c>Si</c><c>   1</c></rc>
    <rc><c>Si</c><c>   1</c></rc>
    <rc><c>Si</c><c>   1</c></rc>
    <rc><c>Si</c><c>   1</c></rc>
    <rc><c>Si</c><c>   1</c></rc>
    <rc><c>Si</c><c>   1</c></rc>
    <rc><c>Si</c><c>   1</c></rc>
    <rc><c>Si</c><c>   1</c></rc>
    <rc><c>Si</c><c>   1</c></rc>
    <rc><c>Si</c><c>   1</c></rc>
    <rc><c>Si</c><c>   1</c></rc>
    <rc><c>Si</c><c>   1</c></rc>
    <rc><c>Si</c><c>   1</c></rc>
    <rc><c>Si</c><c>   1</c></rc>
    <rc><c>Si</c><c>   1</c></rc>
    <rc><c>Si</c><c>   1</c></rc>
    <rc><c>Si</c><c>   1</c></rc>
    <rc><c>Si</c><c>   1</c></rc>
    <rc><c>Si</c><c>   1</c></rc>
    <rc><c>Si</c><c>   1</c></rc>
    <rc><c>Si</c><c>   1</c></rc>
    <rc><c>Si</c><c>   1</c></rc>
    <rc><c>Si</c><c>   1</c></rc>
    <rc><c>Si</c><c>   1</c></rc>
    <rc><c>Si</c><c>   1</c></rc>
    <rc><c>Si</c><c>   1</c></rc>
    <rc><c>Si</c><c>   1</c></rc>
    <rc><c>Si</c><c>   1</c></rc>
    <rc><c>Si</c><c>   1</c></rc>
    <rc><c>Si</c><c>   1</c></rc>
    <rc><c>Si</c><c>   1</c></rc>
    <rc><c>Si</c><c>   1</c></rc>
    <rc><c>Si</c><c>   1</c></rc>
    <rc><c>Si</c><c>   1</c></rc>
    <rc><c>Si</c><c>   1</c></rc>
    <rc><c>Si</c><c>   1</c></rc>
    <rc><c>Si</c><c>   1</c></rc>
    <rc><c>Si</c><c>   1</c></rc>
    <rc><c>Si</c><c>   1</c></rc>
    <rc><c>Si</c><c>   1</c></rc>
    <rc><c>Si</c><c>   1</c></rc>
    <rc><c>Si</c><c>   1</c></rc>
    <rc><c>Si</c><c>   1</c></rc>
    <rc><c>Si</c><c>   1</c></rc>
    <rc><c>Si</c><c>   1</c></rc>
    <rc><c>Si</c><c>   1</c></rc>
    <rc><c>Si</c><c>   1</c></rc>
    <rc><c>Si</c><c>   1</c></rc>
    <rc><c>Si</c><c>   1</c></rc>
    <rc><c>Si</c><c>   1</c></rc>
    <rc><c>Si</c><c>   1</c></rc>
   </set>
  </array>
  <array name="atomtypes" >
   <dimension dim="1">type</dimension>
   <field type="int">atomspertype</field>
   <field type="string">element</field>
   <field>mass</field>
   <field>valence</field>
   <field type="string">pseudopotential</field>
   <set>
    <rc><c>  64</c><c>Si</c><c>     28.08500000</c><c>      4.00000000</c><c>  PAW_PBE Si 05Jan2001                  </c></rc>
   </set>
  </array>
 </atominfo>
 <structure name="initialpos" >
  <crystal>
   <varray name="basis" >
    <v>      10.81795460       0.02691000       0.00000000 </v>
    <v>       0.02691000      10.76413359       0.00000000 </v>
    <v>       0.00000000       0.00000000      10.76413359 </v>
   </varray>
   <i name="volume">   1253.43151975 </i>
   <varray name="rec_basis" >
    <v>       0.09243949      -0.00023110       0.00000000 </v>
    <v>      -0.00023110       0.09290169       0.00000000 </v>
    <v>       0.00000000       0.00000000       0.09290111 </v>
   </varray>
  </crystal>
  <varray name="positions" >
   <v>       0.00000000       0.00000000       0.00000000 </v>
   <v>       0.00000000       0.00000000       0.50000000 </v>
   <v>       0.00000000       0.50000000       0.00000000 </v>
   <v>       0.00000000       0.50000000       0.50000000 </v>
   <v>       0.50000000       0.00000000       0.00000000 </v>
   <v>       0.50000000       0.00000000       0.50000000 </v>
   <v>       0.50000000       0.50000000       0.00000000 </v>
   <v>       0.50000000       0.50000000       0.50000000 </v>
   <v>       0.37500000       0.37500000       0.12500000 </v>
   <v>       0.37500000       0.37500000       0.62500000 </v>
   <v>       0.37500000       0.87500000       0.12500000 </v>
   <v>       0.37500000       0.87500000       0.62500000 </v>
   <v>       0.87500000       0.37500000       0.12500000 </v>
   <v>       0.87500000       0.37500000       0.62500000 </v>
   <v>       0.87500000       0.87500000       0.12500000 </v>
   <v>       0.87500000       0.87500000       0.62500000 </v>
   <v>       0.00000000       0.25000000       0.25000000 </v>
   <v>       0.00000000       0.25000000       0.75000000 </v>
   <v>       0.00000000       0.75000000       0.25000000 </v>
   <v>       0.00000000       0.75000000       0.75000000 </v>
   <v>       0.50000000       0.25000000       0.25000000 </v>
   <v>       0.50000000       0.25000000       0.75000000 </v>
   <v>       0.50000000       0.75000000       0.25000000 </v>
   <v>       0.50000000       0.75000000       0.75000000 </v>
   <v>       0.37500000       0.12500000       0.37500000 </v>
   <v>       0.37500000       0.12500000       0.87500000 </v>
   <v>       0.37500000       0.62500000       0.37500000 </v>
   <v>       0.37500000       0.62500000       0.87500000 </v>
   <v>       0.87500000       0.12500000       0.37500000 </v>
   <v>       0.87500000       0.12500000       0.87500000 </v>
   <v>       0.87500000       0.62500000       0.37500000 </v>
   <v>       0.87500000       0.62500000       0.87500000 </v>
   <v>       0.25000000       0.00000000       0.25000000 </v>
   <v>       0.25000000       0.00000000       0.75000000 </v>
   <v>       0.25000000       0.50000000       0.25000000 </v>
   <v>       0.25000000       0.50000000       0.75000000 </v>
   <v>       0.75000000       0.00000000       0.25000000 </v>
   <v>       0.75000000       0.00000000       0.75000000 </v>
   <v>       0.75000000       0.50000000       0.25000000 </v>
   <v>       0.75000000       0.50000000       0.75000000 </v>
   <v>       0.12500000       0.37500000       0.37500000 </v>
   <v>       0.12500000       0.37500000       0.87500000 </v>
   <v>       0.12500000       0.87500000       0.37500000 </v>
   <v>       0.12500000       0.87500000       0.87500000 </v>
   <v>       0.62500000       0.37500000       0.37500000 </v>
   <v>       0.62500000       0.37500000       0.87500000 </v>
   <v>       0.62500000       0.87500000       0.37500000 </v>
   <v>       0.62500000       0.87500000       0.87500000 </v>
   <v>       0.25000000       0.25000000       0.00000000 </v>
   <v>       0.25000000       0.25000000       0.50000000 </v>
   <v>       0.25000000       0.75000000       0.00000000 </v>
   <v>       0.25000000       0.75000000       0.50000000 </v>
   <v>       0.75000000       0.25000000       0.00000000 </v>
   <v>       0.75000000       0.25000000       0.50000000 </v>
   <v>       0.75000000       0.75000000       0.00000000 </v>
   <v>       0.75000000       0.75000000       0.50000000 </v>
   <v>       0.12500000       0.12500000       0.12500000 </v>
   <v>       0.12500000       0.12500000       0.62500000 </v>
   <v>       0.12500000       0.62500000       0.12500000 </v>
   <v>       0.12500000       0.62500000       0.62500000 </v>
   <v>       0.62500000       0.12500000       0.12500000 </v>
   <v>       0.62500000       0.12500000       0.62500000 </v>
   <v>       0.62500000       0.62500000       0.12500000 </v>
   <v>       0.62500000       0.62500000       0.62500000 </v>
  </varray>
 </structure>
 <calculation>
  <scstep>
   <time name="dav">    1.31    1.37</time>
   <time name="total">    1.51    1.58</time>
   <energy>
    <i name="alphaZ">    110.00535856 </i>
    <i name="ewald">  -7366.92455308 </i>
    <i name="hartreedc">   -341.73323271 </i>
    <i name="XCdc">   -556.01463084 </i>
    <i name="pawpsdc">   5598.62625415 </i>
    <i name="pawaedc">  -4492.17844134 </i>
    <i name="eentropy">      0.02166784 </i>
    <i name="bandstr">   1046.26032809 </i>
    <i name="atom">   6564.79586099 </i>
    <i name="e_fr_energy">    562.85861167 </i>
    <i name="e_wo_entrp">    562.83694382 </i>
    <i name="e_0_energy">    562.85138905 </i>
   </energy>
  </scstep>
  <scstep>
   <time name="dav">    1.36    1.37</time>
   <time name="total">    1.36    1.37</time>
   <energy>
    <i name="e_fr_energy">   -310.53950443 </i>
    <i name="e_wo_entrp">   -310.55218889 </i>
    <i name="e_0_energy">   -310.54373258 </i>
   </energy>
  </scstep>
  <scstep>
   <time name="dav">    1.36    1.37</time>
   <time name="total">    1.36    1.37</time>
   <energy>
    <i name="e_fr_energy">   -373.34358971 </i>
    <i name="e_wo_entrp">   -373.35122061 </i>
    <i name="e_0_energy">   -373.34613334 </i>
   </energy>
  </scstep>
  <scstep>
   <time name="dav">    1.32    1.34</time>
   <time name="total">    1.33    1.34</time>
   <energy>
    <i name="e_fr_energy">   -374.96339249 </i>
    <i name="e_wo_entrp">   -374.97173507 </i>
    <i name="e_0_energy">   -374.96617335 </i>
   </energy>
  </scstep>
  <scstep>
   <time name="dav">    1.31    1.33</time>
   <time name="total">    1.57    1.60</time>
   <energy>
    <i name="e_fr_energy">   -375.01468368 </i>
    <i name="e_wo_entrp">   -375.02300389 </i>
    <i name="e_0_energy">   -375.01745708 </i>
   </energy>
  </scstep>
  <scstep>
   <time name="diag">    0.14    0.14</time>
   <time name="diis">    0.70    0.71</time>
   <time name="orth">    0.02    0.02</time>
   <time name="total">    1.26    1.29</time>
   <energy>
    <i name="e_fr_energy">   -369.70730854 </i>
    <i name="e_wo_entrp">   -369.71651700 </i>
    <i name="e_0_energy">   -369.71037803 </i>
   </energy>
  </scstep>
  <scstep>
   <time name="diag">    0.13    0.14</time>
   <time name="diis">    0.71    0.71</time>
   <time name="orth">    0.02    0.02</time>
   <time name="total">    1.26    1.28</time>
   <energy>
    <i name="e_fr_energy">   -367.31184740 </i>
    <i name="e_wo_entrp">   -367.34456222 </i>
    <i name="e_0_energy">   -367.32275234 </i>
   </energy>
  </scstep>
  <scstep>
   <time name="diag">    0.14    0.14</time>
   <time name="diis">    0.71    0.71</time>
   <time name="orth">    0.02    0.02</time>
   <time name="total">    1.28    1.29</time>
   <energy>
    <i name="e_fr_energy">   -367.35179443 </i>
    <i name="e_wo_entrp">   -367.38196207 </i>
    <i name="e_0_energy">   -367.36185031 </i>
   </energy>
  </scstep>
  <scstep>
   <time name="diag">    0.13    0.14</time>
   <time name="diis">    0.71    0.72</time>
   <time name="orth">    0.02    0.02</time>
   <time name="total">    1.26    1.32</time>
   <energy>
    <i name="e_fr_energy">   -367.37198084 </i>
    <i name="e_wo_entrp">   -367.40282882 </i>
    <i name="e_0_energy">   -367.38226350 </i>
   </energy>
  </scstep>
  <scstep>
   <time name="diag">    0.13    0.14</time>
   <time name="diis">    0.71    0.75</time>
   <time name="orth">    0.02    0.02</time>
   <time name="total">    1.26    1.32</time>
   <energy>
    <i name="e_fr_energy">   -367.37537221 </i>
    <i name="e_wo_entrp">   -367.40622864 </i>
    <i name="e_0_energy">   -367.38565768 </i>
   </energy>
  </scstep>
  <scstep>
   <time name="diag">    0.13    0.14</time>
   <time name="diis">    0.69    0.69</time>
   <time name="orth">    0.02    0.02</time>
   <time name="total">    1.25    1.26</time>
   <energy>
    <i name="e_fr_energy">   -367.37275728 </i>
    <i name="e_wo_entrp">   -367.40268915 </i>
    <i name="e_0_energy">   -367.38273457 </i>
   </energy>
  </scstep>
  <scstep>
   <time name="diag">    0.13    0.13</time>
   <time name="diis">    0.69    0.69</time>
   <time name="orth">    0.02    0.02</time>
   <time name="total">    1.24    1.26</time>
   <energy>
    <i name="e_fr_energy">   -367.37276339 </i>
    <i name="e_wo_entrp">   -367.40265195 </i>
    <i name="e_0_energy">   -367.38272624 </i>
   </energy>
  </scstep>
  <scstep>
   <time name="diag">    0.13    0.13</time>
   <time name="diis">    0.73    0.73</time>
   <time name="orth">    0.02    0.02</time>
   <time name="total">    1.28    1.29</time>
   <energy>
    <i name="e_fr_energy">   -367.37283584 </i>
    <i name="e_wo_entrp">   -367.40272653 </i>
    <i name="e_0_energy">   -367.38279940 </i>
   </energy>
  </scstep>
  <scstep>
   <time name="diag">    0.13    0.14</time>
   <time name="diis">    0.68    0.69</time>
   <time name="orth">    0.02    0.02</time>
   <time name="total">    1.24    1.26</time>
   <energy>
    <i name="e_fr_energy">   -367.37235719 </i>
    <i name="e_wo_entrp">   -367.40223143 </i>
    <i name="e_0_energy">   -367.38231527 </i>
   </energy>
  </scstep>
  <scstep>
   <time name="diag">    0.13    0.13</time>
   <time name="diis">    0.68    0.69</time>
   <time name="orth">    0.02    0.02</time>
   <time name="total">    1.23    1.26</time>
   <energy>
    <i name="e_fr_energy">   -367.37258878 </i>
    <i name="e_wo_entrp">   -367.40239306 </i>
    <i name="e_0_energy">   -367.38252354 </i>
   </energy>
  </scstep>
  <scstep>
   <time name="diag">    0.14    0.14</time>
   <time name="diis">    0.69    0.69</time>
   <time name="orth">    0.02    0.02</time>
   <time name="total">    1.26    1.27</time>
   <energy>
    <i name="e_fr_energy">   -367.37293033 </i>
    <i name="e_wo_entrp">   -367.40274879 </i>
    <i name="e_0_energy">   -367.38286982 </i>
   </energy>
  </scstep>
  <scstep>
   <time name="diag">    0.13    0.13</time>
   <time name="diis">    0.69    0.69</time>
   <time name="orth">    0.02    0.02</time>
   <time name="total">    1.24    1.26</time>
   <energy>
    <i name="e_fr_energy">   -367.37306215 </i>
    <i name="e_wo_entrp">   -367.40288829 </i>
    <i name="e_0_energy">   -367.38300420 </i>
   </energy>
  </scstep>
  <scstep>
   <time name="diag">    0.13    0.13</time>
   <time name="diis">    0.68    0.69</time>
   <time name="orth">    0.02    0.02</time>
   <time name="total">    1.23    1.26</time>
   <energy>
    <i name="e_fr_energy">   -367.37312684 </i>
    <i name="e_wo_entrp">   -367.40293905 </i>
    <i name="e_0_energy">   -367.38306424 </i>
   </energy>
  </scstep>
  <scstep>
   <time name="diag">    0.13    0.13</time>
   <time name="diis">    0.68    0.69</time>
   <time name="orth">    0.02    0.02</time>
   <time name="total">    1.23    1.26</time>
   <energy>
    <i name="e_fr_energy">   -367.37317893 </i>
    <i name="e_wo_entrp">   -367.40296869 </i>
    <i name="e_0_energy">   -367.38310885 </i>
   </energy>
  </scstep>
  <scstep>
   <time name="diag">    0.13    0.13</time>
   <time name="diis">    0.68    0.69</time>
   <time name="orth">    0.02    0.02</time>
   <time name="total">    1.24    1.26</time>
   <energy>
    <i name="e_fr_energy">   -367.37319636 </i>
    <i name="e_wo_entrp">   -367.40296978 </i>
    <i name="e_0_energy">   -367.38312083 </i>
   </energy>
  </scstep>
  <scstep>
   <time name="diag">    0.13    0.13</time>
   <time name="diis">    0.50    0.50</time>
   <time name="orth">    0.02    0.02</time>
   <time name="total">    1.04    1.07</time>
   <energy>
    <i name="e_fr_energy">   -367.37319923 </i>
    <i name="e_wo_entrp">   -367.40296886 </i>
    <i name="e_0_energy">   -367.38312244 </i>
   </energy>
  </scstep>
  <scstep>
   <time name="diag">    0.14    0.14</time>
   <time name="diis">    0.44    0.45</time>
   <time name="orth">    0.02    0.02</time>
   <time name="total">    0.76    0.78</time>
   <energy>
    <i name="alphaZ">    110.00535856 </i>
    <i name="ewald">  -7366.92455308 </i>
    <i name="hartreedc">   -459.98957643 </i>
    <i name="XCdc">   -536.04755331 </i>
    <i name="pawpsdc">  29128.63872044 </i>
    <i name="pawaedc"> -28029.62709636 </i>
    <i name="eentropy">      0.02976958 </i>
    <i name="bandstr">    221.74586959 </i>
    <i name="atom">   6564.79586099 </i>
    <i name="e_fr_energy">   -367.37320003 </i>
    <i name="e_wo_entrp">   -367.40296960 </i>
    <i name="e_0_energy">   -367.38312322 </i>
   </energy>
  </scstep>
  <structure>
   <crystal>
    <varray name="basis" >
     <v>      10.81795460       0.02691000       0.00000000 </v>
     <v>       0.02691000      10.76413359       0.00000000 </v>
     <v>       0.00000000       0.00000000      10.76413359 </v>
    </varray>
    <i name="volume">   1253.43151975 </i>
    <varray name="rec_basis" >
     <v>       0.09243949      -0.00023110       0.00000000 </v>
     <v>      -0.00023110       0.09290169       0.00000000 </v>
     <v>       0.00000000       0.00000000       0.09290111 </v>
    </varray>
   </crystal>
   <varray name="positions" >
    <v>       0.00000000       0.00000000       0.00000000 </v>
    <v>       0.00000000       0.00000000       0.50000000 </v>
    <v>       0.00000000       0.50000000       0.00000000 </v>
    <v>       0.00000000       0.50000000       0.50000000 </v>
    <v>       0.50000000       0.00000000       0.00000000 </v>
    <v>       0.50000000       0.00000000       0.50000000 </v>
    <v>       0.50000000       0.50000000       0.00000000 </v>
    <v>       0.50000000       0.50000000       0.50000000 </v>
    <v>       0.37500000       0.37500000       0.12500000 </v>
    <v>       0.37500000       0.37500000       0.62500000 </v>
    <v>       0.37500000       0.87500000       0.12500000 </v>
    <v>       0.37500000       0.87500000       0.62500000 </v>
    <v>       0.87500000       0.37500000       0.12500000 </v>
    <v>       0.87500000       0.37500000       0.62500000 </v>
    <v>       0.87500000       0.87500000       0.12500000 </v>
    <v>       0.87500000       0.87500000       0.62500000 </v>
    <v>       0.00000000       0.25000000       0.25000000 </v>
    <v>       0.00000000       0.25000000       0.75000000 </v>
    <v>       0.00000000       0.75000000       0.25000000 </v>
    <v>       0.00000000       0.75000000       0.75000000 </v>
    <v>       0.50000000       0.25000000       0.25000000 </v>
    <v>       0.50000000       0.25000000       0.75000000 </v>
    <v>       0.50000000       0.75000000       0.25000000 </v>
    <v>       0.50000000       0.75000000       0.75000000 </v>
    <v>       0.37500000       0.12500000       0.37500000 </v>
    <v>       0.37500000       0.12500000       0.87500000 </v>
    <v>       0.37500000       0.62500000       0.37500000 </v>
    <v>       0.37500000       0.62500000       0.87500000 </v>
    <v>       0.87500000       0.12500000       0.37500000 </v>
    <v>       0.87500000       0.12500000       0.87500000 </v>
    <v>       0.87500000       0.62500000       0.37500000 </v>
    <v>       0.87500000       0.62500000       0.87500000 </v>
    <v>       0.25000000       0.00000000       0.25000000 </v>
    <v>       0.25000000       0.00000000       0.75000000 </v>
    <v>       0.25000000       0.50000000       0.25000000 </v>
    <v>       0.25000000       0.50000000       0.75000000 </v>
    <v>       0.75000000       0.00000000       0.25000000 </v>
    <v>       0.75000000       0.00000000       0.75000000 </v>
    <v>       0.75000000       0.50000000       0.25000000 </v>
    <v>       0.75000000       0.50000000       0.75000000 </v>
    <v>       0.12500000       0.37500000       0.37500000 </v>
    <v>       0.12500000       0.37500000       0.87500000 </v>
    <v>       0.12500000       0.87500000       0.37500000 </v>
    <v>       0.12500000       0.87500000       0.87500000 </v>
    <v>       0.62500000       0.37500000       0.37500000 </v>
    <v>       0.62500000       0.37500000       0.87500000 </v>
    <v>       0.62500000       0.87500000       0.37500000 </v>
    <v>       0.62500000       0.87500000       0.87500000 </v>
    <v>       0.25000000       0.25000000       0.00000000 </v>
    <v>       0.25000000       0.25000000       0.50000000 </v>
    <v>       0.25000000       0.75000000       0.00000000 </v>
    <v>       0.25000000       0.75000000       0.50000000 </v>
    <v>       0.75000000       0.25000000       0.00000000 </v>
    <v>       0.75000000       0.25000000       0.50000000 </v>
    <v>       0.75000000       0.75000000       0.00000000 </v>
    <v>       0.75000000       0.75000000       0.50000000 </v>
    <v>       0.12500000       0.12500000       0.12500000 </v>
    <v>       0.12500000       0.12500000       0.62500000 </v>
    <v>       0.12500000       0.62500000       0.12500000 </v>
    <v>       0.12500000       0.62500000       0.62500000 </v>
    <v>       0.62500000       0.12500000       0.12500000 </v>
    <v>       0.62500000       0.12500000       0.62500000 </v>
    <v>       0.62500000       0.62500000       0.12500000 </v>
    <v>       0.62500000       0.62500000       0.62500000 </v>
   </varray>
  </structure>
  <varray name="forces" >
   <v>      -0.00000000      -0.00000000       0.05493499 </v>
   <v>      -0.00000000       0.00000000       0.05493499 </v>
   <v>      -0.00000000       0.00000000       0.05493499 </v>
   <v>      -0.00000000       0.00000000       0.05493499 </v>
   <v>       0.00000000       0.00000000       0.05493499 </v>
   <v>       0.00000000       0.00000000       0.05493499 </v>
   <v>      -0.00000000      -0.00000000       0.05493499 </v>
   <v>       0.00000000      -0.00000000       0.05493499 </v>
   <v>       0.00000000       0.00000000      -0.05493499 </v>
   <v>       0.00000000      -0.00000000      -0.05493499 </v>
   <v>      -0.00000000       0.00000000      -0.05493499 </v>
   <v>       0.00000000       0.00000000      -0.05493499 </v>
   <v>      -0.00000000      -0.00000000      -0.05493499 </v>
   <v>      -0.00000000      -0.00000000      -0.05493499 </v>
   <v>      -0.00000000      -0.00000000      -0.05493499 </v>
   <v>      -0.00000000      -0.00000000      -0.05493499 </v>
   <v>      -0.00000000       0.00000000       0.05493499 </v>
   <v>      -0.00000000       0.00000000       0.05493499 </v>
   <v>      -0.00000000       0.00000000       0.05493499 </v>
   <v>      -0.00000000       0.00000000       0.05493499 </v>
   <v>       0.00000000      -0.00000000       0.05493499 </v>
   <v>       0.00000000      -0.00000000       0.05493499 </v>
   <v>       0.00000000       0.00000000       0.05493499 </v>
   <v>       0.00000000      -0.00000000       0.05493499 </v>
   <v>       0.00000000       0.00000000      -0.05493499 </v>
   <v>       0.00000000       0.00000000      -0.05493499 </v>
   <v>       0.00000000       0.00000000      -0.05493499 </v>
   <v>       0.00000000       0.00000000      -0.05493499 </v>
   <v>      -0.00000000      -0.00000000      -0.05493499 </v>
   <v>      -0.00000000       0.00000000      -0.05493499 </v>
   <v>      -0.00000000      -0.00000000      -0.05493499 </v>
   <v>      -0.00000000      -0.00000000      -0.05493499 </v>
   <v>      -0.00000000       0.00000000       0.05493499 </v>
   <v>      -0.00000000       0.00000000       0.05493499 </v>
   <v>      -0.00000000      -0.00000000       0.05493499 </v>
   <v>       0.00000000      -0.00000000       0.05493499 </v>
   <v>       0.00000000       0.00000000       0.05493499 </v>
   <v>       0.00000000      -0.00000000       0.05493499 </v>
   <v>       0.00000000      -0.00000000       0.05493499 </v>
   <v>       0.00000000      -0.00000000       0.05493499 </v>
   <v>      -0.00000000      -0.00000000      -0.05493499 </v>
   <v>      -0.00000000      -0.00000000      -0.05493499 </v>
   <v>      -0.00000000      -0.00000000      -0.05493499 </v>
   <v>      -0.00000000      -0.00000000      -0.05493499 </v>
   <v>      -0.00000000       0.00000000      -0.05493499 </v>
   <v>       0.00000000       0.00000000      -0.05493499 </v>
   <v>       0.00000000       0.00000000      -0.05493499 </v>
   <v>       0.00000000       0.00000000      -0.05493499 </v>
   <v>      -0.00000000      -0.00000000       0.05493499 </v>
   <v>      -0.00000000       0.00000000       0.05493499 </v>
   <v>      -0.00000000      -0.00000000       0.05493499 </v>
   <v>       0.00000000      -0.00000000       0.05493499 </v>
   <v>       0.00000000      -0.00000000       0.05493499 </v>
   <v>      -0.00000000       0.00000000       0.05493499 </v>
   <v>       0.00000000      -0.00000000       0.05493499 </v>
   <v>       0.00000000      -0.00000000       0.05493499 </v>
   <v>      -0.00000000      -0.00000000      -0.05493499 </v>
   <v>      -0.00000000      -0.00000000      -0.05493499 </v>
   <v>      -0.00000000      -0.00000000      -0.05493499 </v>
   <v>      -0.00000000      -0.00000000      -0.05493499 </v>
   <v>       0.00000000       0.00000000      -0.05493499 </v>
   <v>      -0.00000000       0.00000000      -0.05493499 </v>
   <v>      -0.00000000       0.00000000      -0.05493499 </v>
   <v>      -0.00000000       0.00000000      -0.05493499 </v>
  </varray>
  <varray name="stress" >
   <v>      21.63041161      -5.46153021       0.00000000 </v>
   <v>      -5.46153023      26.11063619       0.00000000 </v>
   <v>       0.00000000       0.00000000      26.05386860 </v>
  </varray>
  <energy>
   <i name="e_fr_energy">   -367.37320003 </i>
   <i name="e_wo_entrp">   -367.40296960 </i>
   <i name="e_0_energy">   -367.38312322 </i>
  </energy>
  <time name="totalsc">   31.40   32.04</time>
 </calculation>
 <calculation>
  <scstep>
   <time name="dav">    1.29    1.30</time>
   <time name="total">    1.69    1.69</time>
   <energy>
    <i name="alphaZ">    110.00535856 </i>
    <i name="ewald">  -7366.98100112 </i>
    <i name="hartreedc">   -459.95958702 </i>
    <i name="XCdc">   -536.04791063 </i>
    <i name="pawpsdc">  29139.33597137 </i>
    <i name="pawaedc"> -28040.32417633 </i>
    <i name="eentropy">      0.02972289 </i>
    <i name="bandstr">    221.77030264 </i>
    <i name="atom">   6564.79586099 </i>
    <i name="e_fr_energy">   -367.37545864 </i>
    <i name="e_wo_entrp">   -367.40518153 </i>
    <i name="e_0_energy">   -367.38536627 </i>
   </energy>
  </scstep>
  <scstep>
   <time name="diag">    0.13    0.13</time>
   <time name="diis">    0.69    0.69</time>
   <time name="orth">    0.02    0.02</time>
   <time name="total">    1.24    1.26</time>
   <energy>
    <i name="e_fr_energy">   -367.37606510 </i>
    <i name="e_wo_entrp">   -367.40578561 </i>
    <i name="e_0_energy">   -367.38597193 </i>
   </energy>
  </scstep>
  <scstep>
   <time name="diag">    0.13    0.13</time>
   <time name="diis">    0.71    0.71</time>
   <time name="orth">    0.02    0.02</time>
   <time name="total">    1.26    1.28</time>
   <energy>
    <i name="e_fr_energy">   -367.37616195 </i>
    <i name="e_wo_entrp">   -367.40588413 </i>
    <i name="e_0_energy">   -367.38606934 </i>
   </energy>
  </scstep>
  <scstep>
   <time name="diag">    0.13    0.13</time>
   <time name="diis">    0.70    0.70</time>
   <time name="orth">    0.02    0.02</time>
   <time name="total">    1.25    1.27</time>
   <energy>
    <i name="e_fr_energy">   -367.37616223 </i>
    <i name="e_wo_entrp">   -367.40588683 </i>
    <i name="e_0_energy">   -367.38607043 </i>
   </energy>
  </scstep>
  <scstep>
   <time name="diag">    0.14    0.14</time>
   <time name="diis">    0.71    0.71</time>
   <time name="orth">    0.02    0.02</time>
   <time name="total">    1.29    1.32</time>
   <energy>
    <i name="e_fr_energy">   -367.37616327 </i>
    <i name="e_wo_entrp">   -367.40588890 </i>
    <i name="e_0_energy">   -367.38607181 </i>
   </energy>
  </scstep>
  <scstep>
   <time name="diag">    0.13    0.13</time>
   <time name="diis">    0.56    0.56</time>
   <time name="orth">    0.02    0.02</time>
   <time name="total">    1.11    1.13</time>
   <energy>
    <i name="e_fr_energy">   -367.37616383 </i>
    <i name="e_wo_entrp">   -367.40588953 </i>
    <i name="e_0_energy">   -367.38607240 </i>
   </energy>
  </scstep>
  <scstep>
   <time name="diag">    0.14    0.14</time>
   <time name="diis">    0.45    0.45</time>
   <time name="orth">    0.02    0.02</time>
   <time name="total">    1.01    1.03</time>
   <energy>
    <i name="e_fr_energy">   -367.37616391 </i>
    <i name="e_wo_entrp">   -367.40588962 </i>
    <i name="e_0_energy">   -367.38607248 </i>
   </energy>
  </scstep>
  <scstep>
   <time name="diag">    0.13    0.13</time>
   <time name="diis">    0.42    0.42</time>
   <time name="orth">    0.02    0.02</time>
   <time name="total">    0.72    0.74</time>
   <energy>
    <i name="alphaZ">    110.00535856 </i>
    <i name="ewald">  -7366.98100112 </i>
    <i name="hartreedc">   -459.93680147 </i>
    <i name="XCdc">   -536.05114654 </i>
    <i name="pawpsdc">  29137.03582689 </i>
    <i name="pawaedc"> -28038.02268620 </i>
    <i name="eentropy">      0.02972570 </i>
    <i name="bandstr">    221.74869926 </i>
    <i name="atom">   6564.79586099 </i>
    <i name="e_fr_energy">   -367.37616393 </i>
    <i name="e_wo_entrp">   -367.40588964 </i>
    <i name="e_0_energy">   -367.38607250 </i>
   </energy>
  </scstep>
  <structure>
   <crystal>
    <varray name="basis" >
     <v>      10.81795460       0.02691000       0.00000000 </v>
     <v>       0.02691000      10.76413359       0.00000000 </v>
     <v>       0.00000000       0.00000000      10.76413359 </v>
    </varray>
    <i name="volume">   1253.43151975 </i>
    <varray name="rec_basis" >
     <v>       0.09243949      -0.00023110       0.00000000 </v>
     <v>      -0.00023110       0.09290169       0.00000000 </v>
     <v>       0.00000000       0.00000000       0.09290111 </v>
    </varray>
   </crystal>
   <varray name="positions" >
    <v>       1.00000000       1.00000000       0.00024621 </v>
    <v>       1.00000000       0.00000000       0.50024621 </v>
    <v>       1.00000000       0.50000000       0.00024621 </v>
    <v>       1.00000000       0.50000000       0.50024621 </v>
    <v>       0.50000000       1.00000000       0.00024621 </v>
    <v>       0.50000000       0.00000000       0.50024621 </v>
    <v>       0.50000000       0.50000000       0.00024621 </v>
    <v>       0.50000000       0.50000000       0.50024621 </v>
    <v>       0.37500000       0.37500000       0.12475379 </v>
    <v>       0.37500000       0.37500000       0.62475379 </v>
    <v>       0.37500000       0.87500000       0.12475379 </v>
    <v>       0.37500000       0.87500000       0.62475379 </v>
    <v>       0.87500000       0.37500000       0.12475379 </v>
    <v>       0.87500000       0.37500000       0.62475379 </v>
    <v>       0.87500000       0.87500000       0.12475379 </v>
    <v>       0.87500000       0.87500000       0.62475379 </v>
    <v>       1.00000000       0.25000000       0.25024621 </v>
    <v>       1.00000000       0.25000000       0.75024621 </v>
    <v>       1.00000000       0.75000000       0.25024621 </v>
    <v>       1.00000000       0.75000000       0.75024621 </v>
    <v>       0.50000000       0.25000000       0.25024621 </v>
    <v>       0.50000000       0.25000000       0.75024621 </v>
    <v>       0.50000000       0.75000000       0.25024621 </v>
    <v>       0.50000000       0.75000000       0.75024621 </v>
    <v>       0.37500000       0.12500000       0.37475379 </v>
    <v>       0.37500000       0.12500000       0.87475379 </v>
    <v>       0.37500000       0.62500000       0.37475379 </v>
    <v>       0.37500000       0.62500000       0.87475379 </v>
    <v>       0.87500000       0.12500000       0.37475379 </v>
    <v>       0.87500000       0.12500000       0.87475379 </v>
    <v>       0.87500000       0.62500000       0.37475379 </v>
    <v>       0.87500000       0.62500000       0.87475379 </v>
    <v>       0.25000000       0.00000000       0.25024621 </v>
    <v>       0.25000000       0.00000000       0.75024621 </v>
    <v>       0.25000000       0.50000000       0.25024621 </v>
    <v>       0.25000000       0.50000000       0.75024621 </v>
    <v>       0.75000000       0.00000000       0.25024621 </v>
    <v>       0.75000000       1.00000000       0.75024621 </v>
    <v>       0.75000000       0.50000000       0.25024621 </v>
    <v>       0.75000000       0.50000000       0.75024621 </v>
    <v>       0.12500000       0.37500000       0.37475379 </v>
    <v>       0.12500000       0.37500000       0.87475379 </v>
    <v>       0.12500000       0.87500000       0.37475379 </v>
    <v>       0.12500000       0.87500000       0.87475379 </v>
    <v>       0.62500000       0.37500000       0.37475379 </v>
    <v>       0.62500000       0.37500000       0.87475379 </v>
    <v>       0.62500000       0.87500000       0.37475379 </v>
    <v>       0.62500000       0.87500000       0.87475379 </v>
    <v>       0.25000000       0.25000000       0.00024621 </v>
    <v>       0.25000000       0.25000000       0.50024621 </v>
    <v>       0.25000000       0.75000000       0.00024621 </v>
    <v>       0.25000000       0.75000000       0.50024621 </v>
    <v>       0.75000000       0.25000000       0.00024621 </v>
    <v>       0.75000000       0.25000000       0.50024621 </v>
    <v>       0.75000000       0.75000000       0.00024621 </v>
    <v>       0.75000000       0.75000000       0.50024621 </v>
    <v>       0.12500000       0.12500000       0.12475379 </v>
    <v>       0.12500000       0.12500000       0.62475379 </v>
    <v>       0.12500000       0.62500000       0.12475379 </v>
    <v>       0.12500000       0.62500000       0.62475379 </v>
    <v>       0.62500000       0.12500000       0.12475379 </v>
    <v>       0.62500000       0.12500000       0.62475379 </v>
    <v>       0.62500000       0.62500000       0.12475379 </v>
    <v>       0.62500000       0.62500000       0.62475379 </v>
   </varray>
  </structure>
  <varray name="forces" >
   <v>      -0.00000000      -0.00000000      -0.01985647 </v>
   <v>      -0.00000000      -0.00000000      -0.01985647 </v>
   <v>      -0.00000000      -0.00000000      -0.01985647 </v>
   <v>      -0.00000000      -0.00000000      -0.01985647 </v>
   <v>       0.00000000       0.00000000      -0.01985647 </v>
   <v>      -0.00000000       0.00000000      -0.01985647 </v>
   <v>       0.00000000       0.00000000      -0.01985647 </v>
   <v>       0.00000000       0.00000000      -0.01985647 </v>
   <v>       0.00000000      -0.00000000       0.01985647 </v>
   <v>      -0.00000000       0.00000000       0.01985647 </v>
   <v>       0.00000000       0.00000000       0.01985647 </v>
   <v>       0.00000000       0.00000000       0.01985647 </v>
   <v>      -0.00000000       0.00000000       0.01985647 </v>
   <v>      -0.00000000      -0.00000000       0.01985647 </v>
   <v>       0.00000000      -0.00000000       0.01985647 </v>
   <v>       0.00000000       0.00000000       0.01985647 </v>
   <v>      -0.00000000      -0.00000000      -0.01985647 </v>
   <v>      -0.00000000      -0.00000000      -0.01985647 </v>
   <v>      -0.00000000      -0.00000000      -0.01985647 </v>
   <v>      -0.00000000      -0.00000000      -0.01985647 </v>
   <v>       0.00000000       0.00000000      -0.01985647 </v>
   <v>       0.00000000      -0.00000000      -0.01985647 </v>
   <v>       0.00000000      -0.00000000      -0.01985647 </v>
   <v>       0.00000000       0.00000000      -0.01985647 </v>
   <v>       0.00000000       0.00000000       0.01985647 </v>
   <v>       0.00000000       0.00000000       0.01985647 </v>
   <v>      -0.00000000      -0.00000000       0.01985647 </v>
   <v>       0.00000000       0.00000000       0.01985647 </v>
   <v>       0.00000000      -0.00000000       0.01985647 </v>
   <v>      -0.00000000      -0.00000000       0.01985647 </v>
   <v>      -0.00000000       0.00000000       0.01985647 </v>
   <v>      -0.00000000       0.00000000       0.01985647 </v>
   <v>       0.00000000       0.00000000      -0.01985647 </v>
   <v>       0.00000000       0.00000000      -0.01985647 </v>
   <v>      -0.00000000      -0.00000000      -0.01985647 </v>
   <v>      -0.00000000       0.00000000      -0.01985647 </v>
   <v>       0.00000000      -0.00000000      -0.01985647 </v>
   <v>       0.00000000      -0.00000000      -0.01985647 </v>
   <v>      -0.00000000      -0.00000000      -0.01985647 </v>
   <v>       0.00000000      -0.00000000      -0.01985647 </v>
   <v>      -0.00000000       0.00000000       0.01985647 </v>
   <v>      -0.00000000       0.00000000       0.01985647 </v>
   <v>      -0.00000000      -0.00000000       0.01985647 </v>
   <v>      -0.00000000       0.00000000       0.01985647 </v>
   <v>       0.00000000      -0.00000000       0.01985647 </v>
   <v>       0.00000000      -0.00000000       0.01985647 </v>
   <v>       0.00000000      -0.00000000       0.01985647 </v>
   <v>       0.00000000      -0.00000000       0.01985647 </v>
   <v>      -0.00000000      -0.00000000      -0.01985647 </v>
   <v>      -0.00000000       0.00000000      -0.01985647 </v>
   <v>       0.00000000      -0.00000000      -0.01985647 </v>
   <v>      -0.00000000       0.00000000      -0.01985647 </v>
   <v>       0.00000000       0.00000000      -0.01985647 </v>
   <v>      -0.00000000       0.00000000      -0.01985647 </v>
   <v>       0.00000000      -0.00000000      -0.01985647 </v>
   <v>       0.00000000       0.00000000      -0.01985647 </v>
   <v>      -0.00000000       0.00000000       0.01985647 </v>
   <v>      -0.00000000       0.00000000       0.01985647 </v>
   <v>       0.00000000       0.00000000       0.01985647 </v>
   <v>      -0.00000000       0.00000000       0.01985647 </v>
   <v>       0.00000000      -0.00000000       0.01985647 </v>
   <v>       0.00000000      -0.00000000       0.01985647 </v>
   <v>       0.00000000       0.00000000       0.01985647 </v>
   <v>       0.00000000       0.00000000       0.01985647 </v>
  </varray>
  <varray name="stress" >
   <v>      21.62729023      -3.07446331       0.00000000 </v>
   <v>      -3.07446329      26.13394779       0.00000000 </v>
   <v>       0.00000000       0.00000000      26.03093422 </v>
  </varray>
  <energy>
   <i name="e_fr_energy">   -367.37616393 </i>
   <i name="e_wo_entrp">   -367.40588964 </i>
   <i name="e_0_energy">   -367.38607250 </i>
  </energy>
  <time name="totalsc">   13.27   13.49</time>
 </calculation>
 <calculation>
  <scstep>
   <time name="dav">    1.28    1.28</time>
   <time name="total">    1.66    1.68</time>
   <energy>
    <i name="alphaZ">    110.00535856 </i>
    <i name="ewald">  -7366.96815942 </i>
    <i name="hartreedc">   -459.94441963 </i>
    <i name="XCdc">   -536.05079852 </i>
    <i name="pawpsdc">  29137.00189008 </i>
    <i name="pawaedc"> -28037.98874695 </i>
    <i name="eentropy">      0.02974955 </i>
    <i name="bandstr">    221.74270282 </i>
    <i name="atom">   6564.79586099 </i>
    <i name="e_fr_energy">   -367.37656252 </i>
    <i name="e_wo_entrp">   -367.40631207 </i>
    <i name="e_0_energy">   -367.38647903 </i>
   </energy>
  </scstep>
  <scstep>
   <time name="diag">    0.13    0.13</time>
   <time name="diis">    0.69    0.69</time>
   <time name="orth">    0.02    0.02</time>
   <time name="total">    1.24    1.26</time>
   <energy>
    <i name="e_fr_energy">   -367.37660475 </i>
    <i name="e_wo_entrp">   -367.40635431 </i>
    <i name="e_0_energy">   -367.38652127 </i>
   </energy>
  </scstep>
  <scstep>
   <time name="diag">    0.13    0.13</time>
   <time name="diis">    0.70    0.70</time>
   <time name="orth">    0.02    0.02</time>
   <time name="total">    1.26    1.28</time>
   <energy>
    <i name="e_fr_energy">   -367.37661145 </i>
    <i name="e_wo_entrp">   -367.40636059 </i>
    <i name="e_0_energy">   -367.38652783 </i>
   </energy>
  </scstep>
  <scstep>
   <time name="diag">    0.13    0.13</time>
   <time name="diis">    0.67    0.67</time>
   <time name="orth">    0.02    0.02</time>
   <time name="total">    1.22    1.23</time>
   <energy>
    <i name="e_fr_energy">   -367.37661152 </i>
    <i name="e_wo_entrp">   -367.40636027 </i>
    <i name="e_0_energy">   -367.38652777 </i>
   </energy>
  </scstep>
  <scstep>
   <time name="diag">    0.13    0.13</time>
   <time name="diis">    0.45    0.46</time>
   <time name="orth">    0.02    0.02</time>
   <time name="total">    1.01    1.02</time>
   <energy>
    <i name="e_fr_energy">   -367.37661160 </i>
    <i name="e_wo_entrp">   -367.40636019 </i>
    <i name="e_0_energy">   -367.38652780 </i>
   </energy>
  </scstep>
  <scstep>
   <time name="diag">    0.13    0.13</time>
   <time name="diis">    0.44    0.44</time>
   <time name="orth">    0.02    0.02</time>
   <time name="total">    0.99    1.01</time>
   <energy>
    <i name="e_fr_energy">   -367.37661163 </i>
    <i name="e_wo_entrp">   -367.40636022 </i>
    <i name="e_0_energy">   -367.38652783 </i>
   </energy>
  </scstep>
  <scstep>
   <time name="diag">    0.13    0.13</time>
   <time name="diis">    0.36    0.36</time>
   <time name="orth">    0.02    0.02</time>
   <time name="total">    0.92    0.93</time>
   <energy>
    <i name="e_fr_energy">   -367.37661164 </i>
    <i name="e_wo_entrp">   -367.40636023 </i>
    <i name="e_0_energy">   -367.38652784 </i>
   </energy>
  </scstep>
  <scstep>
   <time name="diag">    0.13    0.13</time>
   <time name="diis">    0.32    0.32</time>
   <time name="orth">    0.02    0.02</time>
   <time name="total">    0.62    0.64</time>
   <energy>
    <i name="alphaZ">    110.00535856 </i>
    <i name="ewald">  -7366.96815942 </i>
    <i name="hartreedc">   -459.94520637 </i>
    <i name="XCdc">   -536.05057496 </i>
    <i name="pawpsdc">  29137.48865432 </i>
    <i name="pawaedc"> -28038.47573047 </i>
    <i name="eentropy">      0.02974859 </i>
    <i name="bandstr">    221.74343713 </i>
    <i name="atom">   6564.79586099 </i>
    <i name="e_fr_energy">   -367.37661164 </i>
    <i name="e_wo_entrp">   -367.40636023 </i>
    <i name="e_0_energy">   -367.38652784 </i>
   </energy>
  </scstep>
  <structure>
   <crystal>
    <varray name="basis" >
     <v>      10.81795460       0.02691000       0.00000000 </v>
     <v>       0.02691000      10.76413359       0.00000000 </v>
     <v>       0.00000000       0.00000000      10.76413359 </v>
    </varray>
    <i name="volume">   1253.43151975 </i>
    <varray name="rec_basis" >
     <v>       0.09243949      -0.00023110       0.00000000 </v>
     <v>      -0.00023110       0.09290169       0.00000000 </v>
     <v>       0.00000000       0.00000000       0.09290111 </v>
    </varray>
   </crystal>
   <varray name="positions" >
    <v>       0.00000000       0.00000000       0.00018084 </v>
    <v>       0.00000000       0.00000000       0.50018084 </v>
    <v>       0.00000000       0.50000000       0.00018084 </v>
    <v>       0.00000000       0.50000000       0.50018084 </v>
    <v>       0.50000000       0.00000000       0.00018084 </v>
    <v>       0.50000000       0.00000000       0.50018084 </v>
    <v>       0.50000000       0.50000000       0.00018084 </v>
    <v>       0.50000000       0.50000000       0.50018084 </v>
    <v>       0.37500000       0.37500000       0.12481916 </v>
    <v>       0.37500000       0.37500000       0.62481916 </v>
    <v>       0.37500000       0.87500000       0.12481916 </v>
    <v>       0.37500000       0.87500000       0.62481916 </v>
    <v>       0.87500000       0.37500000       0.12481916 </v>
    <v>       0.87500000       0.37500000       0.62481916 </v>
    <v>       0.87500000       0.87500000       0.12481916 </v>
    <v>       0.87500000       0.87500000       0.62481916 </v>
    <v>       0.00000000       0.25000000       0.25018084 </v>
    <v>       0.00000000       0.25000000       0.75018084 </v>
    <v>       0.00000000       0.75000000       0.25018084 </v>
    <v>       0.00000000       0.75000000       0.75018084 </v>
    <v>       0.50000000       0.25000000       0.25018084 </v>
    <v>       0.50000000       0.25000000       0.75018084 </v>
    <v>       0.50000000       0.75000000       0.25018084 </v>
    <v>       0.50000000       0.75000000       0.75018084 </v>
    <v>       0.37500000       0.12500000       0.37481916 </v>
    <v>       0.37500000       0.12500000       0.87481916 </v>
    <v>       0.37500000       0.62500000       0.37481916 </v>
    <v>       0.37500000       0.62500000       0.87481916 </v>
    <v>       0.87500000       0.12500000       0.37481916 </v>
    <v>       0.87500000       0.12500000       0.87481916 </v>
    <v>       0.87500000       0.62500000       0.37481916 </v>
    <v>       0.87500000       0.62500000       0.87481916 </v>
    <v>       0.25000000       0.00000000       0.25018084 </v>
    <v>       0.25000000       0.00000000       0.75018084 </v>
    <v>       0.25000000       0.50000000       0.25018084 </v>
    <v>       0.25000000       0.50000000       0.75018084 </v>
    <v>       0.75000000       0.00000000       0.25018084 </v>
    <v>       0.75000000       0.00000000       0.75018084 </v>
    <v>       0.75000000       0.50000000       0.25018084 </v>
    <v>       0.75000000       0.50000000       0.75018084 </v>
    <v>       0.12500000       0.37500000       0.37481916 </v>
    <v>       0.12500000       0.37500000       0.87481916 </v>
    <v>       0.12500000       0.87500000       0.37481916 </v>
    <v>       0.12500000       0.87500000       0.87481916 </v>
    <v>       0.62500000       0.37500000       0.37481916 </v>
    <v>       0.62500000       0.37500000       0.87481916 </v>
    <v>       0.62500000       0.87500000       0.37481916 </v>
    <v>       0.62500000       0.87500000       0.87481916 </v>
    <v>       0.25000000       0.25000000       0.00018084 </v>
    <v>       0.25000000       0.25000000       0.50018084 </v>
    <v>       0.25000000       0.75000000       0.00018084 </v>
    <v>       0.25000000       0.75000000       0.50018084 </v>
    <v>       0.75000000       0.25000000       0.00018084 </v>
    <v>       0.75000000       0.25000000       0.50018084 </v>
    <v>       0.75000000       0.75000000       0.00018084 </v>
    <v>       0.75000000       0.75000000       0.50018084 </v>
    <v>       0.12500000       0.12500000       0.12481916 </v>
    <v>       0.12500000       0.12500000       0.62481916 </v>
    <v>       0.12500000       0.62500000       0.12481916 </v>
    <v>       0.12500000       0.62500000       0.62481916 </v>
    <v>       0.62500000       0.12500000       0.12481916 </v>
    <v>       0.62500000       0.12500000       0.62481916 </v>
    <v>       0.62500000       0.62500000       0.12481916 </v>
    <v>       0.62500000       0.62500000       0.62481916 </v>
   </varray>
  </structure>
  <varray name="forces" >
   <v>       0.00000000       0.00000000      -0.00004256 </v>
   <v>      -0.00000000       0.00000000      -0.00004256 </v>
   <v>      -0.00000000       0.00000000      -0.00004256 </v>
   <v>       0.00000000      -0.00000000      -0.00004256 </v>
   <v>       0.00000000      -0.00000000      -0.00004256 </v>
   <v>       0.00000000      -0.00000000      -0.00004256 </v>
   <v>      -0.00000000      -0.00000000      -0.00004256 </v>
   <v>      -0.00000000       0.00000000      -0.00004256 </v>
   <v>      -0.00000000       0.00000000       0.00004256 </v>
   <v>      -0.00000000       0.00000000       0.00004256 </v>
   <v>       0.00000000       0.00000000       0.00004256 </v>
   <v>       0.00000000      -0.00000000       0.00004256 </v>
   <v>       0.00000000      -0.00000000       0.00004256 </v>
   <v>      -0.00000000       0.00000000       0.00004256 </v>
   <v>      -0.00000000      -0.00000000       0.00004256 </v>
   <v>       0.00000000      -0.00000000       0.00004256 </v>
   <v>       0.00000000       0.00000000      -0.00004256 </v>
   <v>      -0.00000000       0.00000000      -0.00004256 </v>
   <v>      -0.00000000       0.00000000      -0.00004256 </v>
   <v>      -0.00000000       0.00000000      -0.00004256 </v>
   <v>      -0.00000000       0.00000000      -0.00004256 </v>
   <v>       0.00000000       0.00000000      -0.00004256 </v>
   <v>      -0.00000000      -0.00000000      -0.00004256 </v>
   <v>      -0.00000000      -0.00000000      -0.00004256 </v>
   <v>      -0.00000000      -0.00000000       0.00004256 </v>
   <v>      -0.00000000      -0.00000000       0.00004256 </v>
   <v>       0.00000000      -0.00000000       0.00004256 </v>
   <v>       0.00000000       0.00000000       0.00004256 </v>
   <v>      -0.00000000       0.00000000       0.00004256 </v>
   <v>       0.00000000      -0.00000000       0.00004256 </v>
   <v>       0.00000000      -0.00000000       0.00004256 </v>
   <v>       0.00000000      -0.00000000       0.00004256 </v>
   <v>       0.00000000      -0.00000000      -0.00004256 </v>
   <v>      -0.00000000      -0.00000000      -0.00004256 </v>
   <v>       0.00000000       0.00000000      -0.00004256 </v>
   <v>       0.00000000       0.00000000      -0.00004256 </v>
   <v>       0.00000000      -0.00000000      -0.00004256 </v>
   <v>      -0.00000000      -0.00000000      -0.00004256 </v>
   <v>       0.00000000      -0.00000000      -0.00004256 </v>
   <v>       0.00000000      -0.00000000      -0.00004256 </v>
   <v>       0.00000000       0.00000000       0.00004256 </v>
   <v>       0.00000000      -0.00000000       0.00004256 </v>
   <v>       0.00000000       0.00000000       0.00004256 </v>
   <v>      -0.00000000      -0.00000000       0.00004256 </v>
   <v>      -0.00000000       0.00000000       0.00004256 </v>
   <v>      -0.00000000       0.00000000       0.00004256 </v>
   <v>      -0.00000000       0.00000000       0.00004256 </v>
   <v>      -0.00000000       0.00000000       0.00004256 </v>
   <v>      -0.00000000      -0.00000000      -0.00004256 </v>
   <v>      -0.00000000       0.00000000      -0.00004256 </v>
   <v>       0.00000000      -0.00000000      -0.00004256 </v>
   <v>       0.00000000       0.00000000      -0.00004256 </v>
   <v>       0.00000000      -0.00000000      -0.00004256 </v>
   <v>      -0.00000000      -0.00000000      -0.00004256 </v>
   <v>      -0.00000000      -0.00000000      -0.00004256 </v>
   <v>       0.00000000      -0.00000000      -0.00004256 </v>
   <v>       0.00000000       0.00000000       0.00004256 </v>
   <v>       0.00000000       0.00000000       0.00004256 </v>
   <v>      -0.00000000      -0.00000000       0.00004256 </v>
   <v>      -0.00000000      -0.00000000       0.00004256 </v>
   <v>      -0.00000000       0.00000000       0.00004256 </v>
   <v>      -0.00000000       0.00000000       0.00004256 </v>
   <v>      -0.00000000       0.00000000       0.00004256 </v>
   <v>      -0.00000000       0.00000000       0.00004256 </v>
  </varray>
  <varray name="stress" >
   <v>      21.62817197      -3.70805628       0.00000000 </v>
   <v>      -3.70805625      26.13175371       0.00000000 </v>
   <v>       0.00000000       0.00000000      26.05612138 </v>
  </varray>
  <energy>
   <i name="e_fr_energy">   -367.37661164 </i>
   <i name="e_wo_entrp">   -367.40636023 </i>
   <i name="e_0_energy">   -367.38652784 </i>
  </energy>
  <time name="totalsc">   12.41   12.59</time>
  <eigenvalues>
   <array>
    <dimension dim="1">band</dimension>
    <dimension dim="2">kpoint</dimension>
    <dimension dim="3">spin</dimension>
    <field>eigene</field>
    <field>occ</field>
    <set>
     <set comment="spin 1">
      <set comment="kpoint 1">
       <r>   -6.1267    1.0000 </r>
       <r>   -5.0260    1.0000 </r>
       <r>   -5.0260    1.0000 </r>
       <r>   -5.0166    1.0000 </r>
       <r>   -5.0166    1.0000 </r>
       <r>   -5.0166    1.0000 </r>
       <r>   -5.0166    1.0000 </r>
       <r>   -4.0442    1.0000 </r>
       <r>   -4.0442    1.0000 </r>
       <r>   -4.0322    1.0000 </r>
       <r>   -4.0322    1.0000 </r>
       <r>   -4.0322    1.0000 </r>
       <r>   -4.0322    1.0000 </r>
       <r>   -4.0255    1.0000 </r>
       <r>   -4.0255    1.0000 </r>
       <r>   -4.0255    1.0000 </r>
       <r>   -4.0255    1.0000 </r>
       <r>   -4.0201    1.0000 </r>
       <r>   -4.0201    1.0000 </r>
       <r>   -3.7325    1.0000 </r>
       <r>   -3.7325    1.0000 </r>
       <r>   -3.7074    1.0000 </r>
       <r>   -3.7074    1.0000 </r>
       <r>   -1.9050    1.0000 </r>
       <r>   -1.9050    1.0000 </r>
       <r>   -1.8829    1.0000 </r>
       <r>   -1.8743    1.0000 </r>
       <r>   -1.8743    1.0000 </r>
       <r>   -1.8660    1.0000 </r>
       <r>   -1.7212    1.0000 </r>
       <r>   -1.7212    1.0000 </r>
       <r>   -1.7105    1.0000 </r>
       <r>   -1.7105    1.0000 </r>
       <r>   -1.7075    1.0000 </r>
       <r>   -1.7075    1.0000 </r>
       <r>   -1.7075    1.0000 </r>
       <r>   -1.7075    1.0000 </r>
       <r>   -1.6939    1.0000 </r>
       <r>   -1.6939    1.0000 </r>
       <r>   -1.6834    1.0000 </r>
       <r>   -1.6834    1.0000 </r>
       <r>   -1.1095    1.0000 </r>
       <r>   -1.1095    1.0000 </r>
       <r>   -1.0985    1.0000 </r>
       <r>   -1.0985    1.0000 </r>
       <r>    0.4709    1.0000 </r>
       <r>    0.4709    1.0000 </r>
       <r>    0.4709    1.0000 </r>
       <r>    0.4709    1.0000 </r>
       <r>    0.4861    1.0000 </r>
       <r>    0.4861    1.0000 </r>
       <r>    0.4891    1.0000 </r>
       <r>    0.4891    1.0000 </r>
       <r>    0.4891    1.0000 </r>
       <r>    0.4891    1.0000 </r>
       <r>    0.4921    1.0000 </r>
       <r>    0.4921    1.0000 </r>
       <r>    2.0073    1.0000 </r>
       <r>    2.0073    1.0000 </r>
       <r>    2.0097    1.0000 </r>
       <r>    2.0097    1.0000 </r>
       <r>    2.0131    1.0000 </r>
       <r>    2.0131    1.0000 </r>
       <r>    2.0131    1.0000 </r>
       <r>    2.0131    1.0000 </r>
       <r>    2.0190    1.0000 </r>
       <r>    2.0190    1.0000 </r>
       <r>    2.0217    1.0000 </r>
       <r>    2.0217    1.0000 </r>
       <r>    2.1075    1.0000 </r>
       <r>    2.1075    1.0000 </r>
       <r>    2.1075    1.0000 </r>
       <r>    2.1075    1.0000 </r>
       <r>    2.1309    1.0000 </r>
       <r>    2.1309    1.0000 </r>
       <r>    2.1357    1.0000 </r>
       <r>    2.1357    1.0000 </r>
       <r>    2.1357    1.0000 </r>
       <r>    2.1357    1.0000 </r>
       <r>    2.1400    1.0000 </r>
       <r>    2.1400    1.0000 </r>
       <r>    2.4777    1.0000 </r>
       <r>    2.4777    1.0000 </r>
       <r>    2.5139    1.0000 </r>
       <r>    2.5139    1.0000 </r>
       <r>    2.5142    1.0000 </r>
       <r>    2.5142    1.0000 </r>
       <r>    3.0379    1.0000 </r>
       <r>    3.0717    1.0000 </r>
       <r>    3.0717    1.0000 </r>
       <r>    3.1058    1.0000 </r>
       <r>    3.1107    1.0000 </r>
       <r>    3.1107    1.0000 </r>
       <r>    4.0251    1.0000 </r>
       <r>    4.0251    1.0000 </r>
       <r>    4.0520    1.0000 </r>
       <r>    4.0520    1.0000 </r>
       <r>    4.0631    1.0000 </r>
       <r>    4.0631    1.0000 </r>
       <r>    4.0878    1.0000 </r>
       <r>    4.0878    1.0000 </r>
       <r>    4.0879    1.0000 </r>
       <r>    4.0879    1.0000 </r>
       <r>    4.0903    1.0000 </r>
       <r>    4.0903    1.0000 </r>
       <r>    4.6188    1.0000 </r>
       <r>    4.6188    1.0000 </r>
       <r>    4.6424    1.0000 </r>
       <r>    4.6424    1.0000 </r>
       <r>    4.6424    1.0000 </r>
       <r>    4.6424    1.0000 </r>
       <r>    4.6665    1.0000 </r>
       <r>    4.6665    1.0000 </r>
       <r>    4.6832    1.0000 </r>
       <r>    4.6832    1.0000 </r>
       <r>    4.6832    1.0000 </r>
       <r>    4.6832    1.0000 </r>
       <r>    4.7506    1.0000 </r>
       <r>    4.7506    1.0000 </r>
       <r>    4.7883    1.0000 </r>
       <r>    4.7883    1.0000 </r>
       <r>    4.8106    1.0000 </r>
       <r>    4.8106    1.0000 </r>
       <r>    4.8309    1.0000 </r>
       <r>    4.8309    1.0000 </r>
       <r>    5.9815    1.0177 </r>
       <r>    6.0300    1.0286 </r>
       <r>    6.0435    1.0314 </r>
       <r>    6.5105   -0.0154 </r>
       <r>    6.5485   -0.0333 </r>
       <r>    6.5485   -0.0333 </r>
       <r>    6.5867   -0.0346 </r>
       <r>    6.5887   -0.0343 </r>
       <r>    6.5887   -0.0343 </r>
       <r>    7.0160   -0.0000 </r>
       <r>    7.0160   -0.0000 </r>
       <r>    7.0164   -0.0000 </r>
       <r>    7.0164   -0.0000 </r>
       <r>    7.0564   -0.0000 </r>
       <r>    7.0564   -0.0000 </r>
       <r>    7.5336   -0.0000 </r>
       <r>    7.5336   -0.0000 </r>
       <r>    7.5863   -0.0000 </r>
       <r>    7.5863   -0.0000 </r>
       <r>    8.3503   -0.0000 </r>
       <r>    8.3503   -0.0000 </r>
       <r>    8.3776   -0.0000 </r>
       <r>    8.3776   -0.0000 </r>
       <r>    8.3776   -0.0000 </r>
       <r>    8.3776   -0.0000 </r>
       <r>    8.4052   -0.0000 </r>
       <r>    8.4052   -0.0000 </r>
       <r>    8.4247   -0.0000 </r>
       <r>    8.4247   -0.0000 </r>
       <r>    8.4247   -0.0000 </r>
       <r>    8.4247   -0.0000 </r>
       <r>    8.5166   -0.0000 </r>
       <r>    8.5348   -0.0000 </r>
       <r>    8.5754   -0.0000 </r>
       <r>    9.0292   -0.0000 </r>
       <r>    9.0359   -0.0000 </r>
       <r>    9.0372   -0.0000 </r>
      </set>
      <set comment="kpoint 2">
       <r>   -5.8491    1.0000 </r>
       <r>   -5.8491    1.0000 </r>
       <r>   -4.7699    1.0000 </r>
       <r>   -4.7699    1.0000 </r>
       <r>   -4.7637    1.0000 </r>
       <r>   -4.7637    1.0000 </r>
       <r>   -4.7637    1.0000 </r>
       <r>   -4.7637    1.0000 </r>
       <r>   -4.7574    1.0000 </r>
       <r>   -4.7574    1.0000 </r>
       <r>   -3.8964    1.0000 </r>
       <r>   -3.8964    1.0000 </r>
       <r>   -3.8964    1.0000 </r>
       <r>   -3.8964    1.0000 </r>
       <r>   -3.8809    1.0000 </r>
       <r>   -3.8809    1.0000 </r>
       <r>   -3.8809    1.0000 </r>
       <r>   -3.8809    1.0000 </r>
       <r>   -3.6894    1.0000 </r>
       <r>   -3.6894    1.0000 </r>
       <r>   -2.9457    1.0000 </r>
       <r>   -2.9457    1.0000 </r>
       <r>   -2.9298    1.0000 </r>
       <r>   -2.9298    1.0000 </r>
       <r>   -2.9298    1.0000 </r>
       <r>   -2.9298    1.0000 </r>
       <r>   -2.9139    1.0000 </r>
       <r>   -2.9139    1.0000 </r>
       <r>   -1.8007    1.0000 </r>
       <r>   -1.8007    1.0000 </r>
       <r>   -1.8001    1.0000 </r>
       <r>   -1.8001    1.0000 </r>
       <r>   -1.7804    1.0000 </r>
       <r>   -1.7804    1.0000 </r>
       <r>   -1.7800    1.0000 </r>
       <r>   -1.7800    1.0000 </r>
       <r>   -0.6140    1.0000 </r>
       <r>   -0.6140    1.0000 </r>
       <r>   -0.6092    1.0000 </r>
       <r>   -0.6092    1.0000 </r>
       <r>   -0.6091    1.0000 </r>
       <r>   -0.6091    1.0000 </r>
       <r>   -0.6045    1.0000 </r>
       <r>   -0.6045    1.0000 </r>
       <r>   -0.4940    1.0000 </r>
       <r>   -0.4940    1.0000 </r>
       <r>   -0.4940    1.0000 </r>
       <r>   -0.4940    1.0000 </r>
       <r>   -0.4761    1.0000 </r>
       <r>   -0.4761    1.0000 </r>
       <r>   -0.4761    1.0000 </r>
       <r>   -0.4761    1.0000 </r>
       <r>    0.2092    1.0000 </r>
       <r>    0.2092    1.0000 </r>
       <r>    1.6383    1.0000 </r>
       <r>    1.6383    1.0000 </r>
       <r>    1.6405    1.0000 </r>
       <r>    1.6405    1.0000 </r>
       <r>    1.6405    1.0000 </r>
       <r>    1.6405    1.0000 </r>
       <r>    1.6426    1.0000 </r>
       <r>    1.6426    1.0000 </r>
       <r>    1.6982    1.0000 </r>
       <r>    1.6982    1.0000 </r>
       <r>    1.7040    1.0000 </r>
       <r>    1.7040    1.0000 </r>
       <r>    1.7040    1.0000 </r>
       <r>    1.7040    1.0000 </r>
       <r>    1.7105    1.0000 </r>
       <r>    1.7105    1.0000 </r>
       <r>    2.4510    1.0000 </r>
       <r>    2.4510    1.0000 </r>
       <r>    2.4710    1.0000 </r>
       <r>    2.4710    1.0000 </r>
       <r>    2.4757    1.0000 </r>
       <r>    2.4757    1.0000 </r>
       <r>    2.4960    1.0000 </r>
       <r>    2.4960    1.0000 </r>
       <r>    3.1983    1.0000 </r>
       <r>    3.1983    1.0000 </r>
       <r>    3.2061    1.0000 </r>
       <r>    3.2061    1.0000 </r>
       <r>    3.2061    1.0000 </r>
       <r>    3.2061    1.0000 </r>
       <r>    3.2131    1.0000 </r>
       <r>    3.2131    1.0000 </r>
       <r>    3.3056    1.0000 </r>
       <r>    3.3056    1.0000 </r>
       <r>    3.3225    1.0000 </r>
       <r>    3.3225    1.0000 </r>
       <r>    3.3225    1.0000 </r>
       <r>    3.3225    1.0000 </r>
       <r>    3.3396    1.0000 </r>
       <r>    3.3396    1.0000 </r>
       <r>    3.3598    1.0000 </r>
       <r>    3.3598    1.0000 </r>
       <r>    3.3599    1.0000 </r>
       <r>    3.3599    1.0000 </r>
       <r>    3.4466    1.0000 </r>
       <r>    3.4466    1.0000 </r>
       <r>    3.4466    1.0000 </r>
       <r>    3.4466    1.0000 </r>
       <r>    3.4835    1.0000 </r>
       <r>    3.4835    1.0000 </r>
       <r>    3.4835    1.0000 </r>
       <r>    3.4835    1.0000 </r>
       <r>    4.5309    1.0000 </r>
       <r>    4.5309    1.0000 </r>
       <r>    4.5436    1.0000 </r>
       <r>    4.5436    1.0000 </r>
       <r>    4.5436    1.0000 </r>
       <r>    4.5436    1.0000 </r>
       <r>    4.5566    1.0000 </r>
       <r>    4.5566    1.0000 </r>
       <r>    4.6787    1.0000 </r>
       <r>    4.6787    1.0000 </r>
       <r>    4.7420    1.0000 </r>
       <r>    4.7420    1.0000 </r>
       <r>    4.7420    1.0000 </r>
       <r>    4.7420    1.0000 </r>
       <r>    4.7553    1.0000 </r>
       <r>    4.7553    1.0000 </r>
       <r>    4.7554    1.0000 </r>
       <r>    4.7554    1.0000 </r>
[...]
      </set>
     </set>
    </set>
   </array>
  </eigenvalues>
  <separator name="orbital magnetization" >
   <v name="MAGDIPOLOUT">      0.00000000      0.00000000      0.00000000</v>
  </separator>
  <dos>
   <i name="efermi">      6.32561255 </i>
   <total>
    <array>
     <dimension dim="1">gridpoints</dimension>
     <dimension dim="2">spin</dimension>
     <field>energy</field>
     <field>total</field>
     <field>integrated</field>
     <set>
      <set comment="spin 1">
       <r>    -8.1267     0.0000     0.0000 </r>
       <r>    -8.0613     0.0000     0.0000 </r>
       <r>    -7.9960     0.0000     0.0000 </r>
       <r>    -7.9306     0.0000     0.0000 </r>
       <r>    -7.8652     0.0000     0.0000 </r>
       <r>    -7.7998     0.0000     0.0000 </r>
       <r>    -7.7345    -0.0000    -0.0000 </r>
       <r>    -7.6691    -0.0000    -0.0000 </r>
       <r>    -7.6037    -0.0000    -0.0000 </r>
       <r>    -7.5384    -0.0000    -0.0000 </r>
       <r>    -7.4730    -0.0000    -0.0000 </r>
       <r>    -7.4076    -0.0000    -0.0000 </r>
       <r>    -7.3422    -0.0000    -0.0000 </r>
       <r>    -7.2769    -0.0000    -0.0000 </r>
       <r>    -7.2115    -0.0000    -0.0000 </r>
       <r>    -7.1461    -0.0000    -0.0000 </r>
       <r>    -7.0808    -0.0000    -0.0000 </r>
       <r>    -7.0154    -0.0000    -0.0000 </r>
       <r>    -6.9500    -0.0000    -0.0000 </r>
       <r>    -6.8846    -0.0000    -0.0000 </r>
       <r>    -6.8193    -0.0000    -0.0000 </r>
       <r>    -6.7539    -0.0001    -0.0000 </r>
       <r>    -6.6885    -0.0008    -0.0001 </r>
       <r>    -6.6232    -0.0038    -0.0003 </r>
       <r>    -6.5578    -0.0132    -0.0012 </r>
       <r>    -6.4924    -0.0337    -0.0034 </r>
       <r>    -6.4271    -0.0575    -0.0071 </r>
       <r>    -6.3617    -0.0441    -0.0100 </r>
       <r>    -6.2963     0.0709    -0.0054 </r>
       <r>    -6.2309     0.2972     0.0140 </r>
       <r>    -6.1656     0.5364     0.0491 </r>
       <r>    -6.1002     0.7483     0.0980 </r>
       <r>    -6.0348     1.2232     0.1780 </r>
       <r>    -5.9695     2.3934     0.3344 </r>
       <r>    -5.9041     4.0997     0.6024 </r>
       <r>    -5.8387     5.4685     0.9599 </r>
       <r>    -5.7733     6.1370     1.3611 </r>
       <r>    -5.7080     7.1064     1.8257 </r>
       <r>    -5.6426     9.2794     2.4323 </r>
       <r>    -5.5772    11.5538     3.1875 </r>
       <r>    -5.5119    11.9295     3.9674 </r>
       <r>    -5.4465    10.3625     4.6448 </r>
       <r>    -5.3811     8.7458     5.2165 </r>
       <r>    -5.3157     8.0339     5.7417 </r>
       <r>    -5.2504     7.2936     6.2185 </r>
       <r>    -5.1850     5.8502     6.6009 </r>
       <r>    -5.1196     4.5125     6.8959 </r>
       <r>    -5.0543     4.2422     7.1732 </r>
       <r>    -4.9889     5.3626     7.5238 </r>
       <r>    -4.9235     8.5264     8.0812 </r>
       <r>    -4.8581    14.3526     9.0194 </r>
       <r>    -4.7928    21.2255    10.4069 </r>
       <r>    -4.7274    25.8655    12.0978 </r>
       <r>    -4.6620    27.2948    13.8821 </r>
       <r>    -4.5967    27.4820    15.6786 </r>
       <r>    -4.5313    26.9238    17.4386 </r>
       <r>    -4.4659    23.1209    18.9501 </r>
       <r>    -4.4006    15.0211    19.9320 </r>
       <r>    -4.3352     5.7838    20.3101 </r>
       <r>    -4.2698    -0.2832    20.2916 </r>
       <r>    -4.2044    -1.1865    20.2140 </r>
       <r>    -4.1391     2.9201    20.4049 </r>
       <r>    -4.0737    10.9909    21.1234 </r>
       <r>    -4.0083    20.9036    22.4899 </r>
       <r>    -3.9430    29.0526    24.3891 </r>
       <r>    -3.8776    31.7345    26.4636 </r>
       <r>    -3.8122    27.9150    28.2884 </r>
       <r>    -3.7468    20.4794    29.6272 </r>
       <r>    -3.6815    14.2928    30.5615 </r>
       <r>    -3.6161    13.2352    31.4267 </r>
       <r>    -3.5507    18.5203    32.6374 </r>
       <r>    -3.4854    28.0563    34.4715 </r>
       <r>    -3.4200    37.2671    36.9077 </r>
       <r>    -3.3546    42.1559    39.6634 </r>
       <r>    -3.2892    41.9435    42.4053 </r>
       <r>    -3.2239    38.2353    44.9048 </r>
       <r>    -3.1585    32.7574    47.0462 </r>
       <r>    -3.0931    27.3399    48.8334 </r>
       <r>    -3.0278    24.4434    50.4313 </r>
       <r>    -2.9624    24.6542    52.0430 </r>
       <r>    -2.8970    24.5061    53.6450 </r>
       <r>    -2.8316    19.9649    54.9501 </r>
       <r>    -2.7663    11.5609    55.7058 </r>
       <r>    -2.7009     3.5806    55.9399 </r>
       <r>    -2.6355    -0.9046    55.8808 </r>
       <r>    -2.5702    -2.0031    55.7498 </r>
       <r>    -2.5048    -0.8504    55.6942 </r>
       <r>    -2.4394     2.2337    55.8402 </r>
       <r>    -2.3741     6.8638    56.2889 </r>
       <r>    -2.3087    11.0214    57.0094 </r>
       <r>    -2.2433    11.8498    57.7840 </r>
       <r>    -2.1779     8.4734    58.3380 </r>
       <r>    -2.1126     3.3670    58.5581 </r>
       <r>    -2.0472     0.7476    58.6069 </r>
       <r>    -1.9818     4.0336    58.8706 </r>
       <r>    -1.9165    13.9185    59.7805 </r>
       <r>    -1.8511    27.0213    61.5469 </r>
       <r>    -1.7857    36.5935    63.9390 </r>
       <r>    -1.7203    36.8084    66.3452 </r>
       <r>    -1.6550    27.5519    68.1463 </r>
       <r>    -1.5896    14.5018    69.0943 </r>
       <r>    -1.5242     4.4592    69.3858 </r>
       <r>    -1.4589     0.9883    69.4504 </r>
       <r>    -1.3935     3.4751    69.6776 </r>
       <r>    -1.3281     8.4705    70.2313 </r>
       <r>    -1.2627    11.8785    71.0078 </r>
       <r>    -1.1974    11.5904    71.7655 </r>
       <r>    -1.1320     9.0740    72.3587 </r>
       <r>    -1.0666     8.1825    72.8936 </r>
       <r>    -1.0013    11.6869    73.6576 </r>
       <r>    -0.9359    18.1474    74.8439 </r>
       <r>    -0.8705    22.6022    76.3214 </r>
       <r>    -0.8051    22.0448    77.7625 </r>
       <r>    -0.7398    20.0149    79.0709 </r>
       <r>    -0.6744    23.5957    80.6134 </r>
       <r>    -0.6090    35.6376    82.9430 </r>
       <r>    -0.5437    50.9940    86.2765 </r>
       <r>    -0.4783    59.8409    90.1884 </r>
       <r>    -0.4129    54.8575    93.7745 </r>
       <r>    -0.3476    37.3042    96.2131 </r>
       <r>    -0.2822    16.6082    97.2988 </r>
       <r>    -0.2168     3.1289    97.5033 </r>
       <r>    -0.1514     1.4006    97.5949 </r>
       <r>    -0.0861     9.0264    98.1850 </r>
       <r>    -0.0207    19.1847    99.4391 </r>
       <r>     0.0447    24.6239   101.0488 </r>
       <r>     0.1100    22.3866   102.5122 </r>
       <r>     0.1754    15.4089   103.5195 </r>
       <r>     0.2408     8.7953   104.0945 </r>
       <r>     0.3062     5.5660   104.4583 </r>
       <r>     0.3715     6.3404   104.8728 </r>
       <r>     0.4369    10.8341   105.5810 </r>
       <r>     0.5023    18.0276   106.7595 </r>
       <r>     0.5676    25.4727   108.4247 </r>
       <r>     0.6330    29.4369   110.3490 </r>
       <r>     0.6984    26.9089   112.1080 </r>
       <r>     0.7638    18.4817   113.3162 </r>
       <r>     0.8291     8.5472   113.8750 </r>
       <r>     0.8945     1.5938   113.9791 </r>
       <r>     0.9599    -1.1664   113.9029 </r>
       <r>     1.0252    -1.3285   113.8160 </r>
       <r>     1.0906    -0.8408   113.7611 </r>
       <r>     1.1560    -0.7217   113.7139 </r>
       <r>     1.2213    -1.2283   113.6336 </r>
       <r>     1.2867    -2.0402   113.5002 </r>
       <r>     1.3521    -1.7502   113.3858 </r>
       <r>     1.4175     2.5246   113.5509 </r>
       <r>     1.4828    13.7057   114.4468 </r>
       <r>     1.5482    31.1278   116.4817 </r>
       <r>     1.6136    47.9667   119.6173 </r>
       <r>     1.6789    54.4281   123.1753 </r>
       <r>     1.7443    46.1008   126.1890 </r>
       <r>     1.8097    29.2452   128.1008 </r>
       <r>     1.8751    16.0549   129.1503 </r>
       <r>     1.9404    13.9443   130.0618 </r>
       <r>     2.0058    19.8409   131.3588 </r>
       <r>     2.0712    24.6990   132.9734 </r>
       <r>     2.1365    23.0386   134.4795 </r>
       <r>     2.2019    18.5195   135.6901 </r>
       <r>     2.2673    21.0113   137.0637 </r>
       <r>     2.3327    37.6023   139.5218 </r>
       <r>     2.3980    64.4492   143.7349 </r>
       <r>     2.4634    86.7293   149.4044 </r>
       <r>     2.5288    89.0204   155.2238 </r>
       <r>     2.5941    68.4273   159.6969 </r>
       <r>     2.6595    37.1081   162.1227 </r>
       <r>     2.7249    10.9361   162.8376 </r>
       <r>     2.7903    -2.8695   162.6501 </r>
       <r>     2.8556    -6.6958   162.2123 </r>
       <r>     2.9210    -4.7740   161.9003 </r>
       <r>     2.9864     2.5687   162.0682 </r>
       <r>     3.0517    17.4312   163.2077 </r>
       <r>     3.1171    38.9643   165.7548 </r>
       <r>     3.1825    61.0529   169.7459 </r>
       <r>     3.2478    76.1302   174.7226 </r>
       <r>     3.3132    80.5414   179.9877 </r>
       <r>     3.3786    75.5729   184.9279 </r>
       <r>     3.4440    64.6648   189.1551 </r>
       <r>     3.5093    51.4045   192.5155 </r>
       <r>     3.5747    40.2041   195.1437 </r>
       <r>     3.6401    36.1487   197.5068 </r>
       <r>     3.7054    40.2594   200.1385 </r>
       <r>     3.7708    45.4589   203.1102 </r>
       <r>     3.8362    42.5110   205.8892 </r>
       <r>     3.9016    31.2697   207.9334 </r>
       <r>     3.9669    21.5437   209.3417 </r>
       <r>     4.0323    21.3537   210.7376 </r>
       <r>     4.0977    28.2719   212.5858 </r>
       <r>     4.1630    34.3219   214.8294 </r>
       <r>     4.2284    36.0640   217.1869 </r>
       <r>     4.2938    36.3293   219.5618 </r>
       <r>     4.3592    37.8702   222.0374 </r>
       <r>     4.4245    40.1136   224.6597 </r>
       <r>     4.4899    42.4636   227.4356 </r>
       <r>     4.5553    46.3614   230.4663 </r>
       <r>     4.6206    52.1046   233.8724 </r>
       <r>     4.6860    55.8803   237.5254 </r>
       <r>     4.7514    52.1100   240.9318 </r>
       <r>     4.8168    39.0452   243.4842 </r>
       <r>     4.8821    21.4151   244.8842 </r>
       <r>     4.9475     7.1554   245.3519 </r>
       <r>     5.0129     1.9700   245.4807 </r>
       <r>     5.0782     6.5551   245.9092 </r>
       <r>     5.1436    16.7234   247.0025 </r>
       <r>     5.2090    25.3119   248.6571 </r>
       <r>     5.2743    26.3230   250.3779 </r>
       <r>     5.3397    19.2881   251.6387 </r>
       <r>     5.4051     9.1999   252.2402 </r>
       <r>     5.4705     1.8658   252.3621 </r>
       <r>     5.5358    -0.0050   252.3618 </r>
       <r>     5.6012     2.9380   252.5539 </r>
       <r>     5.6666     7.9758   253.0752 </r>
       <r>     5.7319    11.5915   253.8330 </r>
       <r>     5.7973    11.4800   254.5834 </r>
       <r>     5.8627     8.3327   255.1282 </r>
       <r>     5.9281     4.8898   255.4478 </r>
       <r>     5.9934     3.0051   255.6443 </r>
       <r>     6.0588     2.3213   255.7960 </r>
       <r>     6.1242     1.6377   255.9031 </r>
       <r>     6.1895     0.6045   255.9426 </r>
       <r>     6.2549    -0.0457   255.9396 </r>
       <r>     6.3203     0.7637   255.9895 </r>
       <r>     6.3857     3.5764   256.2233 </r>
       <r>     6.4510     7.6250   256.7218 </r>
       <r>     6.5164    10.7997   257.4278 </r>
       <r>     6.5818    11.0314   258.1489 </r>
       <r>     6.6471     8.0703   258.6765 </r>
       <r>     6.7125     3.7185   258.9195 </r>
       <r>     6.7779     0.4381   258.9482 </r>
       <r>     6.8432     0.0959   258.9544 </r>
       <r>     6.9086     3.4668   259.1811 </r>
       <r>     6.9740     9.5189   259.8033 </r>
       <r>     7.0394    14.9470   260.7804 </r>
       <r>     7.1047    16.2078   261.8400 </r>
       <r>     7.1701    13.5132   262.7233 </r>
       <r>     7.2355    11.8538   263.4982 </r>
       <r>     7.3008    16.0668   264.5485 </r>
       <r>     7.3662    24.6832   266.1621 </r>
       <r>     7.4316    30.3460   268.1458 </r>
       <r>     7.4970    27.2384   269.9264 </r>
       <r>     7.5623    17.1642   271.0485 </r>
       <r>     7.6277     8.1077   271.5785 </r>
       <r>     7.6931     8.1478   272.1111 </r>
       <r>     7.7584    19.9262   273.4137 </r>
       <r>     7.8238    37.8821   275.8901 </r>
       <r>     7.8892    50.8441   279.2138 </r>
       <r>     7.9546    50.7815   282.5335 </r>
       <r>     8.0199    40.1822   285.1602 </r>
       <r>     8.0853    29.3846   287.0811 </r>
       <r>     8.1507    27.1967   288.8590 </r>
       <r>     8.2160    35.4724   291.1778 </r>
       <r>     8.2814    50.4260   294.4742 </r>
       <r>     8.3468    65.3654   298.7472 </r>
       <r>     8.4122    72.9424   303.5155 </r>
       <r>     8.4775    68.8740   308.0179 </r>
       <r>     8.5429    54.9273   311.6085 </r>
       <r>     8.6083    37.3857   314.0525 </r>
       <r>     8.6736    22.6387   315.5324 </r>
       <r>     8.7390    13.9213   316.4424 </r>
       <r>     8.8044    10.9528   317.1584 </r>
       <r>     8.8697    12.0197   317.9442 </r>
       <r>     8.9351    15.6827   318.9694 </r>
       <r>     9.0005    19.8714   320.2684 </r>
       <r>     9.0659    21.1392   321.6503 </r>
       <r>     9.1312    17.2519   322.7781 </r>
       <r>     9.1966     9.9429   323.4280 </r>
       <r>     9.2620     3.3601   323.6477 </r>
       <r>     9.3273     0.1625   323.6583 </r>
       <r>     9.3927     0.0203   323.6596 </r>
       <r>     9.4581     1.0689   323.7295 </r>
       <r>     9.5235     1.7472   323.8437 </r>
       <r>     9.5888     1.5583   323.9456 </r>
       <r>     9.6542     0.8651   324.0022 </r>
       <r>     9.7196     0.2370   324.0176 </r>
       <r>     9.7849    -0.0627   324.0135 </r>
       <r>     9.8503    -0.1081   324.0065 </r>
       <r>     9.9157    -0.0647   324.0023 </r>
       <r>     9.9811    -0.0253   324.0006 </r>
       <r>    10.0464    -0.0073   324.0001 </r>
       <r>    10.1118    -0.0016   324.0000 </r>
       <r>    10.1772    -0.0003   324.0000 </r>
       <r>    10.2425    -0.0000   324.0000 </r>
       <r>    10.3079    -0.0000   324.0000 </r>
       <r>    10.3733    -0.0000   324.0000 </r>
       <r>    10.4387    -0.0000   324.0000 </r>
       <r>    10.5040    -0.0000   324.0000 </r>
       <r>    10.5694    -0.0000   324.0000 </r>
       <r>    10.6348    -0.0000   324.0000 </r>
       <r>    10.7001    -0.0000   324.0000 </r>
       <r>    10.7655    -0.0000   324.0000 </r>
       <r>    10.8309     0.0000   324.0000 </r>
       <r>    10.8962     0.0000   324.0000 </r>
       <r>    10.9616     0.0000   324.0000 </r>
       <r>    11.0270     0.0000   324.0000 </r>
       <r>    11.0924     0.0000   324.0000 </r>
       <r>    11.1577     0.0000   324.0000 </r>
       <r>    11.2231     0.0000   324.0000 </r>
       <r>    11.2885     0.0000   324.0000 </r>
       <r>    11.3538     0.0000   324.0000 </r>
       <r>    11.4192     0.0000   324.0000 </r>
       <r>    11.4846     0.0000   324.0000 </r>
      </set>
     </set>
    </array>
   </total>
  </dos>
 </calculation>
 <structure name="finalpos" >
  <crystal>
   <varray name="basis" >
    <v>      10.81795460       0.02691000       0.00000000 </v>
    <v>       0.02691000      10.76413359       0.00000000 </v>
    <v>       0.00000000       0.00000000      10.76413359 </v>
   </varray>
   <i name="volume">   1253.43151975 </i>
   <varray name="rec_basis" >
    <v>       0.09243949      -0.00023110       0.00000000 </v>
    <v>      -0.00023110       0.09290169       0.00000000 </v>
    <v>       0.00000000       0.00000000       0.09290111 </v>
   </varray>
  </crystal>
  <varray name="positions" >
   <v>       0.00000000       0.00000000       0.00018084 </v>
   <v>       0.00000000       0.00000000       0.50018084 </v>
   <v>       0.00000000       0.50000000       0.00018084 </v>
   <v>       0.00000000       0.50000000       0.50018084 </v>
   <v>       0.50000000       0.00000000       0.00018084 </v>
   <v>       0.50000000       0.00000000       0.50018084 </v>
   <v>       0.50000000       0.50000000       0.00018084 </v>
   <v>       0.50000000       0.50000000       0.50018084 </v>
   <v>       0.37500000       0.37500000       0.12481916 </v>
   <v>       0.37500000       0.37500000       0.62481916 </v>
   <v>       0.37500000       0.87500000       0.12481916 </v>
   <v>       0.37500000       0.87500000       0.62481916 </v>
   <v>       0.87500000       0.37500000       0.12481916 </v>
   <v>       0.87500000       0.37500000       0.62481916 </v>
   <v>       0.87500000       0.87500000       0.12481916 </v>
   <v>       0.87500000       0.87500000       0.62481916 </v>
   <v>       0.00000000       0.25000000       0.25018084 </v>
   <v>       0.00000000       0.25000000       0.75018084 </v>
   <v>       0.00000000       0.75000000       0.25018084 </v>
   <v>       0.00000000       0.75000000       0.75018084 </v>
   <v>       0.50000000       0.25000000       0.25018084 </v>
   <v>       0.50000000       0.25000000       0.75018084 </v>
   <v>       0.50000000       0.75000000       0.25018084 </v>
   <v>       0.50000000       0.75000000       0.75018084 </v>
   <v>       0.37500000       0.12500000       0.37481916 </v>
   <v>       0.37500000       0.12500000       0.87481916 </v>
   <v>       0.37500000       0.62500000       0.37481916 </v>
   <v>       0.37500000       0.62500000       0.87481916 </v>
   <v>       0.87500000       0.12500000       0.37481916 </v>
   <v>       0.87500000       0.12500000       0.87481916 </v>
   <v>       0.87500000       0.62500000       0.37481916 </v>
   <v>       0.87500000       0.62500000       0.87481916 </v>
   <v>       0.25000000       0.00000000       0.25018084 </v>
   <v>       0.25000000       0.00000000       0.75018084 </v>
   <v>       0.25000000       0.50000000       0.25018084 </v>
   <v>       0.25000000       0.50000000       0.75018084 </v>
   <v>       0.75000000       0.00000000       0.25018084 </v>
   <v>       0.75000000       0.00000000       0.75018084 </v>
   <v>       0.75000000       0.50000000       0.25018084 </v>
   <v>       0.75000000       0.50000000       0.75018084 </v>
   <v>       0.12500000       0.37500000       0.37481916 </v>
   <v>       0.12500000       0.37500000       0.87481916 </v>
   <v>       0.12500000       0.87500000       0.37481916 </v>
   <v>       0.12500000       0.87500000       0.87481916 </v>
   <v>       0.62500000       0.37500000       0.37481916 </v>
   <v>       0.62500000       0.37500000       0.87481916 </v>
   <v>       0.62500000       0.87500000       0.37481916 </v>
   <v>       0.62500000       0.87500000       0.87481916 </v>
   <v>       0.25000000       0.25000000       0.00018084 </v>
   <v>       0.25000000       0.25000000       0.50018084 </v>
   <v>       0.25000000       0.75000000       0.00018084 </v>
   <v>       0.25000000       0.75000000       0.50018084 </v>
   <v>       0.75000000       0.25000000       0.00018084 </v>
   <v>       0.75000000       0.25000000       0.50018084 </v>
   <v>       0.75000000       0.75000000       0.00018084 </v>
   <v>       0.75000000       0.75000000       0.50018084 </v>
   <v>       0.12500000       0.12500000       0.12481916 </v>
   <v>       0.12500000       0.12500000       0.62481916 </v>
   <v>       0.12500000       0.62500000       0.12481916 </v>
   <v>       0.12500000       0.62500000       0.62481916 </v>
   <v>       0.62500000       0.12500000       0.12481916 </v>
   <v>       0.62500000       0.12500000       0.62481916 </v>
   <v>       0.62500000       0.62500000       0.12481916 </v>
   <v>       0.62500000       0.62500000       0.62481916 </v>
  </varray>
 </structure>
</modeling>
