Si64                                    
           1
    10.817955    0.026910    0.000000
     0.026910   10.764134    0.000000
     0.000000    0.000000   10.764134
   Si
    64
Direct configuration=     1
   0.00000000  0.00000000  0.00000000
   0.00000000  0.00000000  0.50000000
   0.00000000  0.50000000  0.00000000
   0.00000000  0.50000000  0.50000000
   0.50000000  0.00000000  0.00000000
   0.50000000  0.00000000  0.50000000
   0.50000000  0.50000000  0.00000000
   0.50000000  0.50000000  0.50000000
   0.37500000  0.37500000  0.12500000
   0.37500000  0.37500000  0.62500000
   0.37500000  0.87500000  0.12500000
   0.37500000  0.87500000  0.62500000
   0.87500000  0.37500000  0.12500000
   0.87500000  0.37500000  0.62500000
   0.87500000  0.87500000  0.12500000
   0.87500000  0.87500000  0.62500000
   0.00000000  0.25000000  0.25000000
   0.00000000  0.25000000  0.75000000
   0.00000000  0.75000000  0.25000000
   0.00000000  0.75000000  0.75000000
   0.50000000  0.25000000  0.25000000
   0.50000000  0.25000000  0.75000000
   0.50000000  0.75000000  0.25000000
   0.50000000  0.75000000  0.75000000
   0.37500000  0.12500000  0.37500000
   0.37500000  0.12500000  0.87500000
   0.37500000  0.62500000  0.37500000
   0.37500000  0.62500000  0.87500000
   0.87500000  0.12500000  0.37500000
   0.87500000  0.12500000  0.87500000
   0.87500000  0.62500000  0.37500000
   0.87500000  0.62500000  0.87500000
   0.25000000  0.00000000  0.25000000
   0.25000000  0.00000000  0.75000000
   0.25000000  0.50000000  0.25000000
   0.25000000  0.50000000  0.75000000
   0.75000000  0.00000000  0.25000000
   0.75000000  0.00000000  0.75000000
   0.75000000  0.50000000  0.25000000
   0.75000000  0.50000000  0.75000000
   0.12500000  0.37500000  0.37500000
   0.12500000  0.37500000  0.87500000
   0.12500000  0.87500000  0.37500000
   0.12500000  0.87500000  0.87500000
   0.62500000  0.37500000  0.37500000
   0.62500000  0.37500000  0.87500000
   0.62500000  0.87500000  0.37500000
   0.62500000  0.87500000  0.87500000
   0.25000000  0.25000000  0.00000000
   0.25000000  0.25000000  0.50000000
   0.25000000  0.75000000  0.00000000
   0.25000000  0.75000000  0.50000000
   0.75000000  0.25000000  0.00000000
   0.75000000  0.25000000  0.50000000
   0.75000000  0.75000000  0.00000000
   0.75000000  0.75000000  0.50000000
   0.12500000  0.12500000  0.12500000
   0.12500000  0.12500000  0.62500000
   0.12500000  0.62500000  0.12500000
   0.12500000  0.62500000  0.62500000
   0.62500000  0.12500000  0.12500000
   0.62500000  0.12500000  0.62500000
   0.62500000  0.62500000  0.12500000
   0.62500000  0.62500000  0.62500000
Direct configuration=     2
   1.00000000  1.00000000  0.00024621
   1.00000000  0.00000000  0.50024621
   1.00000000  0.50000000  0.00024621
   1.00000000  0.50000000  0.50024621
   0.50000000  1.00000000  0.00024621
   0.50000000  0.00000000  0.50024621
   0.50000000  0.50000000  0.00024621
   0.50000000  0.50000000  0.50024621
   0.37500000  0.37500000  0.12475379
   0.37500000  0.37500000  0.62475379
   0.37500000  0.87500000  0.12475379
   0.37500000  0.87500000  0.62475379
   0.87500000  0.37500000  0.12475379
   0.87500000  0.37500000  0.62475379
   0.87500000  0.87500000  0.12475379
   0.87500000  0.87500000  0.62475379
   1.00000000  0.25000000  0.25024621
   1.00000000  0.25000000  0.75024621
   1.00000000  0.75000000  0.25024621
   1.00000000  0.75000000  0.75024621
   0.50000000  0.25000000  0.25024621
   0.50000000  0.25000000  0.75024621
   0.50000000  0.75000000  0.25024621
   0.50000000  0.75000000  0.75024621
   0.37500000  0.12500000  0.37475379
   0.37500000  0.12500000  0.87475379
   0.37500000  0.62500000  0.37475379
   0.37500000  0.62500000  0.87475379
   0.87500000  0.12500000  0.37475379
   0.87500000  0.12500000  0.87475379
   0.87500000  0.62500000  0.37475379
   0.87500000  0.62500000  0.87475379
   0.25000000  0.00000000  0.25024621
   0.25000000  0.00000000  0.75024621
   0.25000000  0.50000000  0.25024621
   0.25000000  0.50000000  0.75024621
   0.75000000  0.00000000  0.25024621
   0.75000000  1.00000000  0.75024621
   0.75000000  0.50000000  0.25024621
   0.75000000  0.50000000  0.75024621
   0.12500000  0.37500000  0.37475379
   0.12500000  0.37500000  0.87475379
   0.12500000  0.87500000  0.37475379
   0.12500000  0.87500000  0.87475379
   0.62500000  0.37500000  0.37475379
   0.62500000  0.37500000  0.87475379
   0.62500000  0.87500000  0.37475379
   0.62500000  0.87500000  0.87475379
   0.25000000  0.25000000  0.00024621
   0.25000000  0.25000000  0.50024621
   0.25000000  0.75000000  0.00024621
   0.25000000  0.75000000  0.50024621
   0.75000000  0.25000000  0.00024621
   0.75000000  0.25000000  0.50024621
   0.75000000  0.75000000  0.00024621
   0.75000000  0.75000000  0.50024621
   0.12500000  0.12500000  0.12475379
   0.12500000  0.12500000  0.62475379
   0.12500000  0.62500000  0.12475379
   0.12500000  0.62500000  0.62475379
   0.62500000  0.12500000  0.12475379
   0.62500000  0.12500000  0.62475379
   0.62500000  0.62500000  0.12475379
   0.62500000  0.62500000  0.62475379
Direct configuration=     3
   0.00000000  0.00000000  0.00018084
   0.00000000  0.00000000  0.50018084
   0.00000000  0.50000000  0.00018084
   0.00000000  0.50000000  0.50018084
   0.50000000  0.00000000  0.00018084
   0.50000000  0.00000000  0.50018084
   0.50000000  0.50000000  0.00018084
   0.50000000  0.50000000  0.50018084
   0.37500000  0.37500000  0.12481916
   0.37500000  0.37500000  0.62481916
   0.37500000  0.87500000  0.12481916
   0.37500000  0.87500000  0.62481916
   0.87500000  0.37500000  0.12481916
   0.87500000  0.37500000  0.62481916
   0.87500000  0.87500000  0.12481916
   0.87500000  0.87500000  0.62481916
   0.00000000  0.25000000  0.25018084
   0.00000000  0.25000000  0.75018084
   0.00000000  0.75000000  0.25018084
   0.00000000  0.75000000  0.75018084
   0.50000000  0.25000000  0.25018084
   0.50000000  0.25000000  0.75018084
   0.50000000  0.75000000  0.25018084
   0.50000000  0.75000000  0.75018084
   0.37500000  0.12500000  0.37481916
   0.37500000  0.12500000  0.87481916
   0.37500000  0.62500000  0.37481916
   0.37500000  0.62500000  0.87481916
   0.87500000  0.12500000  0.37481916
   0.87500000  0.12500000  0.87481916
   0.87500000  0.62500000  0.37481916
   0.87500000  0.62500000  0.87481916
   0.25000000  0.00000000  0.25018084
   0.25000000  0.00000000  0.75018084
   0.25000000  0.50000000  0.25018084
   0.25000000  0.50000000  0.75018084
   0.75000000  0.00000000  0.25018084
   0.75000000  0.00000000  0.75018084
   0.75000000  0.50000000  0.25018084
   0.75000000  0.50000000  0.75018084
   0.12500000  0.37500000  0.37481916
   0.12500000  0.37500000  0.87481916
   0.12500000  0.87500000  0.37481916
   0.12500000  0.87500000  0.87481916
   0.62500000  0.37500000  0.37481916
   0.62500000  0.37500000  0.87481916
   0.62500000  0.87500000  0.37481916
   0.62500000  0.87500000  0.87481916
   0.25000000  0.25000000  0.00018084
   0.25000000  0.25000000  0.50018084
   0.25000000  0.75000000  0.00018084
   0.25000000  0.75000000  0.50018084
   0.75000000  0.25000000  0.00018084
   0.75000000  0.25000000  0.50018084
   0.75000000  0.75000000  0.00018084
   0.75000000  0.75000000  0.50018084
   0.12500000  0.12500000  0.12481916
   0.12500000  0.12500000  0.62481916
   0.12500000  0.62500000  0.12481916
   0.12500000  0.62500000  0.62481916
   0.62500000  0.12500000  0.12481916
   0.62500000  0.12500000  0.62481916
   0.62500000  0.62500000  0.12481916
   0.62500000  0.62500000  0.62481916
