       N       E                     dE             d eps       ncg     rms          rms(c)
DAV:   1     0.557247407567E+03    0.55725E+03   -0.83685E+04  2592   0.106E+03
DAV:   2    -0.311257533857E+03   -0.86850E+03   -0.82322E+03  3088   0.172E+02
DAV:   3    -0.373198340428E+03   -0.61941E+02   -0.60713E+02  3152   0.408E+01
DAV:   4    -0.374804799191E+03   -0.16065E+01   -0.15946E+01  3128   0.795E+00
DAV:   5    -0.374852696838E+03   -0.47898E-01   -0.47790E-01  3086   0.131E+00    0.282E+01
RMM:   6    -0.369837223981E+03    0.50155E+01   -0.24893E+00  2592   0.246E+00    0.170E+01
RMM:   7    -0.367538641541E+03    0.22986E+01   -0.64122E+00  2645   0.397E+00    0.942E-01
RMM:   8    -0.367581564247E+03   -0.42923E-01   -0.61116E-01  2619   0.151E+00    0.490E-01
RMM:   9    -0.367600639171E+03   -0.19075E-01   -0.17662E-01  2659   0.745E-01    0.568E-01
RMM:  10    -0.367603955318E+03   -0.33161E-02   -0.31834E-02  2743   0.352E-01    0.729E-01
RMM:  11    -0.367601967217E+03    0.19881E-02   -0.10210E-02  2592   0.207E-01    0.699E-01
RMM:  12    -0.367602046639E+03   -0.79422E-04   -0.17099E-03  2611   0.972E-02    0.729E-01
RMM:  13    -0.367602095230E+03   -0.48591E-04   -0.30651E-04  2778   0.392E-02    0.772E-01
RMM:  14    -0.367601995670E+03    0.99560E-04   -0.90654E-05  2593   0.237E-02    0.553E-01
RMM:  15    -0.367602142899E+03   -0.14723E-03   -0.59396E-05  2592   0.148E-02    0.488E-01
RMM:  16    -0.367602271320E+03   -0.12842E-03   -0.35146E-05  2592   0.139E-02    0.349E-01
RMM:  17    -0.367602333699E+03   -0.62379E-04   -0.30633E-05  2592   0.131E-02    0.166E-01
RMM:  18    -0.367602348305E+03   -0.14606E-04   -0.94915E-06  2592   0.756E-03    0.552E-02
RMM:  19    -0.367602352048E+03   -0.37437E-05   -0.27596E-06  1763   0.397E-03    0.938E-03
RMM:  20    -0.367602352807E+03   -0.75918E-06   -0.77078E-07  1567   0.200E-03
   1 F= -.36760235E+03 E0= -.36761131E+03  d E =-.367602E+03
       N       E                     dE             d eps       ncg     rms          rms(c)
DAV:   1    -0.367604536561E+03   -0.21845E-02   -0.10088E-01  2984   0.606E-01    0.136E-01
RMM:   2    -0.367605048888E+03   -0.51233E-03   -0.53742E-03  2593   0.152E-01    0.550E-02
RMM:   3    -0.367605135412E+03   -0.86524E-04   -0.87859E-04  2646   0.692E-02    0.234E-02
RMM:   4    -0.367605136988E+03   -0.15752E-05   -0.12154E-04  2689   0.289E-02    0.823E-03
RMM:   5    -0.367605137792E+03   -0.80400E-06   -0.19395E-05  2583   0.112E-02    0.180E-03
RMM:   6    -0.367605138255E+03   -0.46306E-06   -0.45902E-06  1939   0.503E-03    0.345E-04
RMM:   7    -0.367605138327E+03   -0.72397E-07   -0.74588E-07  1538   0.200E-03    0.251E-04
RMM:   8    -0.367605138345E+03   -0.17999E-07   -0.20031E-07  1311   0.999E-04
   2 F= -.36760514E+03 E0= -.36761413E+03  d E =-.278554E-02
       N       E                     dE             d eps       ncg     rms          rms(c)
DAV:   1    -0.367605362705E+03   -0.22438E-03   -0.50857E-03  3000   0.136E-01    0.303E-02
RMM:   2    -0.367605388208E+03   -0.25503E-04   -0.26614E-04  2592   0.341E-02    0.123E-02
RMM:   3    -0.367605392517E+03   -0.43087E-05   -0.42973E-05  2632   0.154E-02    0.522E-03
RMM:   4    -0.367605392620E+03   -0.10300E-06   -0.57578E-06  2111   0.643E-03    0.179E-03
RMM:   5    -0.367605392670E+03   -0.50658E-07   -0.95031E-07  1538   0.257E-03    0.438E-04
RMM:   6    -0.367605392693E+03   -0.22617E-07   -0.22434E-07  1372   0.113E-03    0.735E-05
RMM:   7    -0.367605392698E+03   -0.54642E-08   -0.51954E-08   822   0.631E-04    0.616E-05
RMM:   8    -0.367605392700E+03   -0.14215E-08   -0.91966E-09   530   0.465E-04
   3 F= -.36760539E+03 E0= -.36761438E+03  d E =-.303989E-02
