 vasp.6.4.3 19Mar24 (build Oct 21 2024 22:36:34) complex                        
  
 executed on             LinuxIFC date 2024.11.01  22:46:16
 running   96 mpi-ranks, on    1 nodes
 distrk:  each k-point on   24 cores,    4 groups
 distr:  one band on NCORE=  12 cores,    2 groups


--------------------------------------------------------------------------------------------------------


 INCAR:
   SYSTEM = Si64
   ISTART = 0
   ICHARG = 2
   LREAL = Auto
   PREC = Accurate
   LWAVE = .False.
   LCHARG = .False.
   ADDGRID = .True.
   ENCUT = 400
   GGA = PS
   GGA_COMPAT = .FALSE.
   ISMEAR = 1
   SIGMA = 0.2
   NELM = 60
   NELMIN = 8
   EDIFF = 1e-06
   EDIFFG = -0.01
   NSW = 60
   IBRION = 2
   ISIF = 2
   KPAR = 4
   NPAR = 2
   ALGO = Fast

 POTCAR:    PAW_PBE Si 05Jan2001                  
 POTCAR:    PAW_PBE Si 05Jan2001                  
   VRHFIN =Si: s2p2                                                                                 
   LEXCH  = PE                                                                                      
   EATOM  =   103.0669 eV,    7.5752 Ry                                                             
                                                                                                    
   TITEL  = PAW_PBE Si 05Jan2001                                                                    
   LULTRA =        F    use ultrasoft PP ?                                                          
   IUNSCR =        1    unscreen: 0-lin 1-nonlin 2-no                                               
   RPACOR =    1.500    partial core radius                                                         
   POMASS =   28.085; ZVAL   =    4.000    mass and valenz                                          
   RCORE  =    1.900    outmost cutoff radius                                                       
   RWIGS  =    2.480; RWIGS  =    1.312    wigner-seitz radius (au A)                               
   ENMAX  =  245.345; ENMIN  =  184.009 eV                                                          
   ICORE  =        2    local potential                                                             
   LCOR   =        T    correct aug charges                                                         
   LPAW   =        T    paw PP                                                                      
   EAUG   =  322.069                                                                                
   DEXC   =    0.000                                                                                
   RMAX   =    1.950    core radius for proj-oper                                                   
   RAUG   =    1.300    factor for augmentation sphere                                              
   RDEP   =    1.993    radius for radial grids                                                     
   RDEPT  =    1.837    core radius for aug-charge                                                  
                                                                                                    
   Atomic configuration                                                                             
    6 entries                                                                                       
     n  l   j            E        occ.                                                              
     1  0  0.50     -1785.8828   2.0000                                                             
     2  0  0.50      -139.4969   2.0000                                                             
     2  1  1.50       -95.5546   6.0000                                                             
     3  0  0.50       -10.8127   2.0000                                                             
     3  1  0.50        -4.0811   2.0000                                                             
     3  2  1.50        -4.0817   0.0000                                                             
   Description                                                                                      
     l       E           TYP  RCUT    TYP  RCUT                                                     
     0    -10.8127223     23  1.900                                                                 
     0     -7.6451159     23  1.900                                                                 
     1     -4.0811372     23  1.900                                                                 
     1      2.4879257     23  1.900                                                                 
     2     -4.0817478      7  1.900                                                                 
  local pseudopotential read in
  partial core-charges read in
  partial kinetic energy density read in
  atomic valenz-charges read in
  non local Contribution for L=           0  read in
    real space projection operators read in
  non local Contribution for L=           0  read in
    real space projection operators read in
  non local Contribution for L=           1  read in
    real space projection operators read in
  non local Contribution for L=           1  read in
    real space projection operators read in
    PAW grid and wavefunctions read in
 
   number of l-projection  operators is LMAX  =           4
   number of lm-projection operators is LMMAX =           8
 
 Optimization of the real space projectors (new method)

 maximal supplied QI-value         = 19.84
 optimisation between [QCUT,QGAM] = [ 10.12, 20.44] = [ 28.68,116.96] Ry 
 Optimized for a Real-space Cutoff    1.38 Angstroem

   l    n(q)    QCUT    max X(q) W(low)/X(q) W(high)/X(q)  e(spline) 
   0      8    10.119   159.560    0.58E-04    0.11E-03    0.54E-07
   0      8    10.119   115.863    0.56E-04    0.11E-03    0.54E-07
   1      8    10.119    88.339    0.22E-03    0.17E-03    0.19E-06
   1      8    10.119    48.592    0.22E-03    0.17E-03    0.18E-06
 -----------------------------------------------------------------------------
|                                                                             |
|               ----> ADVICE to this user running VASP <----                  |
|                                                                             |
|     You enforced a specific xc type in the INCAR file but a different       |
|     type was found in the POTCAR file.                                      |
|     I HOPE YOU KNOW WHAT YOU ARE DOING!                                     |
|                                                                             |
 -----------------------------------------------------------------------------

  PAW_PBE Si 05Jan2001                  :
 energy of atom  1       EATOM= -103.0669
 kinetic energy error for atom=    0.0012 (will be added to EATOM!!)
 
 
 POSCAR: Si8
  positions in direct lattice
  velocities in cartesian coordinates


 exchange-correlation table for PS
   RHO(1)=    0.500       N(1)  =     2000
   RHO(2)=  100.500       N(2)  =     4000
 


--------------------------------------------------------------------------------------------------------


 ion  position               nearest neighbor table
   1  0.000  0.000  0.000-  30 2.35  44 2.35  15 2.35  57 2.35
   2  0.000  0.000  0.500-  29 2.35  43 2.35  16 2.35  58 2.35
   3  0.000  0.500  0.000-  32 2.35  42 2.35  13 2.35  59 2.35
   4  0.000  0.500  0.500-  31 2.35  41 2.35  14 2.35  60 2.35
   5  0.500  0.000  0.000-  26 2.35  48 2.35  11 2.35  61 2.35
   6  0.500  0.000  0.500-  25 2.35  47 2.35  12 2.35  62 2.35
   7  0.500  0.500  0.000-  28 2.35  46 2.35   9 2.35  63 2.35
   8  0.500  0.500  0.500-  27 2.35  45 2.35  10 2.35  64 2.35
   9  0.375  0.375  0.125-  21 2.35  35 2.35   7 2.35  49 2.35
  10  0.375  0.375  0.625-  22 2.35  36 2.35   8 2.35  50 2.35
  11  0.375  0.875  0.125-  23 2.35  33 2.35   5 2.35  51 2.35
  12  0.375  0.875  0.625-  24 2.35  34 2.35   6 2.35  52 2.35
  13  0.875  0.375  0.125-  17 2.35  39 2.35   3 2.35  53 2.35
  14  0.875  0.375  0.625-  18 2.35  40 2.35   4 2.35  54 2.35
  15  0.875  0.875  0.125-  19 2.35  37 2.35   1 2.35  55 2.35
  16  0.875  0.875  0.625-  20 2.35  38 2.35   2 2.35  56 2.35
  17  0.000  0.250  0.250-  13 2.35  57 2.35  41 2.35  29 2.35
  18  0.000  0.250  0.750-  14 2.35  58 2.35  42 2.35  30 2.35
  19  0.000  0.750  0.250-  15 2.35  59 2.35  43 2.35  31 2.35
  20  0.000  0.750  0.750-  16 2.35  60 2.35  44 2.35  32 2.35
  21  0.500  0.250  0.250-   9 2.35  61 2.35  45 2.35  25 2.35
  22  0.500  0.250  0.750-  10 2.35  62 2.35  46 2.35  26 2.35
  23  0.500  0.750  0.250-  11 2.35  63 2.35  47 2.35  27 2.35
  24  0.500  0.750  0.750-  12 2.35  64 2.35  48 2.35  28 2.35
  25  0.375  0.125  0.375-   6 2.35  50 2.35  33 2.35  21 2.35
  26  0.375  0.125  0.875-   5 2.35  49 2.35  34 2.35  22 2.35
  27  0.375  0.625  0.375-   8 2.35  52 2.35  35 2.35  23 2.35
  28  0.375  0.625  0.875-   7 2.35  51 2.35  36 2.35  24 2.35
  29  0.875  0.125  0.375-   2 2.35  54 2.35  37 2.35  17 2.35
  30  0.875  0.125  0.875-   1 2.35  53 2.35  38 2.35  18 2.35
  31  0.875  0.625  0.375-   4 2.35  56 2.35  39 2.35  19 2.35
  32  0.875  0.625  0.875-   3 2.35  55 2.35  40 2.35  20 2.35
  33  0.250  0.000  0.250-  11 2.35  57 2.35  43 2.35  25 2.35
  34  0.250  0.000  0.750-  12 2.35  58 2.35  44 2.35  26 2.35
  35  0.250  0.500  0.250-   9 2.35  59 2.35  41 2.35  27 2.35
  36  0.250  0.500  0.750-  10 2.35  60 2.35  42 2.35  28 2.35
  37  0.750  0.000  0.250-  15 2.35  61 2.35  47 2.35  29 2.35
  38  0.750  0.000  0.750-  16 2.35  62 2.35  48 2.35  30 2.35
  39  0.750  0.500  0.250-  13 2.35  63 2.35  45 2.35  31 2.35
  40  0.750  0.500  0.750-  14 2.35  64 2.35  46 2.35  32 2.35
  41  0.125  0.375  0.375-   4 2.35  50 2.35  35 2.35  17 2.35
  42  0.125  0.375  0.875-   3 2.35  49 2.35  36 2.35  18 2.35
  43  0.125  0.875  0.375-   2 2.35  52 2.35  33 2.35  19 2.35
  44  0.125  0.875  0.875-   1 2.35  51 2.35  34 2.35  20 2.35
  45  0.625  0.375  0.375-   8 2.35  54 2.35  39 2.35  21 2.35
  46  0.625  0.375  0.875-   7 2.35  53 2.35  40 2.35  22 2.35
  47  0.625  0.875  0.375-   6 2.35  56 2.35  37 2.35  23 2.35
  48  0.625  0.875  0.875-   5 2.35  55 2.35  38 2.35  24 2.35
  49  0.250  0.250  0.000-  26 2.35  42 2.35   9 2.35  57 2.35
  50  0.250  0.250  0.500-  25 2.35  41 2.35  10 2.35  58 2.35
  51  0.250  0.750  0.000-  28 2.35  44 2.35  11 2.35  59 2.35
  52  0.250  0.750  0.500-  27 2.35  43 2.35  12 2.35  60 2.35
  53  0.750  0.250  0.000-  30 2.35  46 2.35  13 2.35  61 2.35
  54  0.750  0.250  0.500-  29 2.35  45 2.35  14 2.35  62 2.35
  55  0.750  0.750  0.000-  32 2.35  48 2.35  15 2.35  63 2.35
  56  0.750  0.750  0.500-  31 2.35  47 2.35  16 2.35  64 2.35
  57  0.125  0.125  0.125-  17 2.35  33 2.35   1 2.35  49 2.35
  58  0.125  0.125  0.625-  18 2.35  34 2.35   2 2.35  50 2.35
  59  0.125  0.625  0.125-  19 2.35  35 2.35   3 2.35  51 2.35
  60  0.125  0.625  0.625-  20 2.35  36 2.35   4 2.35  52 2.35
  61  0.625  0.125  0.125-  21 2.35  37 2.35   5 2.35  53 2.35
  62  0.625  0.125  0.625-  22 2.35  38 2.35   6 2.35  54 2.35
  63  0.625  0.625  0.125-  23 2.35  39 2.35   7 2.35  55 2.35
  64  0.625  0.625  0.625-  24 2.35  40 2.35   8 2.35  56 2.35
 
  LATTYP: Found a simple monoclinic cell.
 ALAT       =    10.8339544564
 B/A-ratio  =     0.9999968750
 C/A-ratio  =     1.0050000062
 COS(beta)  =    -0.0049875684
  
  Lattice vectors:
  
 A1 = (   0.0270850040,  10.8339206000,   0.0000000000)
 A2 = (   0.0000000000,   0.0000000000, -10.8339206000)
 A3 = ( -10.8880906080,  -0.0270850040,   0.0000000000)


Analysis of symmetry for initial positions (statically):
=====================================================================
 Subroutine PRICEL returns following result:
 
  LATTYP: Found a base centered monoclinic cell.
 ALAT       =     5.4169772282
 B/A-ratio  =     0.9999968750
 C/A-ratio  =     0.7071067812
 COS(beta)  =    -0.7035624040
  
  Lattice vectors:
  
 A1 = (   0.0067712510,   2.7084801500,  -2.7084801500)
 A2 = (   0.0067712510,   2.7084801500,   2.7084801500)
 A3 = (   2.7152514010,  -2.7017088990,   0.0000000000)
 
  32 primitive cells build up your supercell.
 

 Routine SETGRP: Setting up the symmetry group for a 
 simple monoclinic supercell.


 Subroutine GETGRP returns: Found  4 space group operations
 (whereof  2 operations were pure point group operations)
 out of a pool of  4 trial point group operations.


The static configuration has the point symmetry C_2 .
 The point group associated with its full space group is C_2h.


Analysis of symmetry for dynamics (positions and initial velocities):
=====================================================================
 Subroutine PRICEL returns following result:
 
  LATTYP: Found a base centered monoclinic cell.
 ALAT       =     5.4169772282
 B/A-ratio  =     0.9999968750
 C/A-ratio  =     0.7071067812
 COS(beta)  =    -0.7035624040
  
  Lattice vectors:
  
 A1 = (   0.0067712510,   2.7084801500,  -2.7084801500)
 A2 = (   0.0067712510,   2.7084801500,   2.7084801500)
 A3 = (   2.7152514010,  -2.7017088990,   0.0000000000)
 
  32 primitive cells build up your supercell.
 

 Routine SETGRP: Setting up the symmetry group for a 
 simple monoclinic supercell.


 Subroutine GETGRP returns: Found  4 space group operations
 (whereof  2 operations were pure point group operations)
 out of a pool of  4 trial point group operations.


The dynamic configuration has the point symmetry C_2 .
 The point group associated with its full space group is C_2h.


 Subroutine INISYM returns: Found  4 space group operations
 (whereof  2 operations are pure point group operations),
 and found    32 'primitive' translations


----------------------------------------------------------------------------------------

                                     Primitive cell                                     

  volume of cell :      39.9365

  direct lattice vectors                    reciprocal lattice vectors
     0.006771251  2.708480150 -2.708480150     0.183228854  0.184147302 -0.184605377
     0.006771251  2.708480150  2.708480150     0.183228854  0.184147302  0.184605377
     2.715251401 -2.701708899  0.000000000     0.367376156 -0.000918447  0.000000000

  length of vectors
     3.830375347  3.830375347  3.830381332     0.318688229  0.318688229  0.367377304

  position of ions in fractional coordinates (direct lattice)
     0.000000000  0.000000000  0.000000000
     0.250000000  0.750000000  0.500000000

  ion indices of the primitive-cell ions
   primitive index   ion index
                 1           1
                 2          15

----------------------------------------------------------------------------------------

 
 
 KPOINTS: Automatic mesh                          

Automatic generation of k-mesh.
 Grid dimensions read from file:
 generate k-points for:    2    2    2

 Generating k-lattice:

  Cartesian coordinates                     Fractional coordinates (reciprocal lattice)
     0.045922020 -0.000114806  0.000000000     0.500000000  0.000000000  0.000000000
    -0.000114806  0.046151631  0.000000000    -0.000000000  0.500000000  0.000000000
     0.000000000  0.000000000  0.046151344     0.000000000  0.000000000  0.500000000

  Length of vectors
     0.045922163  0.046151774  0.046151344

  Shift w.r.t. Gamma in fractional coordinates (k-lattice)
     0.000000000  0.000000000  0.000000000

 
 Subroutine IBZKPT returns following result:
 ===========================================
 
 Found      8 irreducible k-points:
 
 Following reciprocal coordinates:
            Coordinates               Weight
  0.000000  0.000000  0.000000      1.000000
  0.500000  0.000000  0.000000      1.000000
 -0.000000  0.500000  0.000000      1.000000
  0.500000  0.500000  0.000000      1.000000
  0.000000  0.000000  0.500000      1.000000
  0.500000  0.000000  0.500000      1.000000
 -0.000000  0.500000  0.500000      1.000000
  0.500000  0.500000  0.500000      1.000000
 
 Following cartesian coordinates:
            Coordinates               Weight
  0.000000  0.000000  0.000000      1.000000
  0.045922 -0.000115  0.000000      1.000000
 -0.000115  0.046152  0.000000      1.000000
  0.045807  0.046037  0.000000      1.000000
  0.000000  0.000000  0.046151      1.000000
  0.045922 -0.000115  0.046151      1.000000
 -0.000115  0.046152  0.046151      1.000000
  0.045807  0.046037  0.046151      1.000000
 


--------------------------------------------------------------------------------------------------------




 Dimension of arrays:
   k-points           NKPTS =      8   k-points in BZ     NKDIM =      8   number of bands    NBANDS=    162
   number of dos      NEDOS =    301   number of ions     NIONS =     64
   non local maximal  LDIM  =      4   non local SUM 2l+1 LMDIM =      8
   total plane-waves  NPLWV = 373248
   max r-space proj   IRMAX =   3268   max aug-charges    IRDMAX=  78311
   dimension x,y,z NGX =    72 NGY =   72 NGZ =   72
   dimension x,y,z NGXF=   144 NGYF=  144 NGZF=  144
   support grid    NGXF=   288 NGYF=  288 NGZF=  288
   ions per type =              64
   NGX,Y,Z   is equivalent  to a cutoff of  10.99, 11.05, 11.05 a.u.
   NGXF,Y,Z  is equivalent  to a cutoff of  21.99, 22.10, 22.10 a.u.

 SYSTEM =  Si64                                    
 POSCAR =  Si8                                     

 Startparameter for this run:
   NWRITE =      2    write-flag & timer
   PREC   = accura    normal or accurate (medium, high low for compatibility)
   ISTART =      0    job   : 0-new  1-cont  2-samecut
   ICHARG =      2    charge: 1-file 2-atom 10-const
   ISPIN  =      1    spin polarized calculation?
   LNONCOLLINEAR =      F non collinear calculations
   LSORBIT =      F    spin-orbit coupling
   INIWAV =      1    electr: 0-lowe 1-rand  2-diag
   LASPH  =      F    aspherical Exc in radial PAW
 Electronic Relaxation 1
   ENCUT  =  400.0 eV  29.40 Ry    5.42 a.u.  17.76 17.67 17.67*2*pi/ulx,y,z
   ENINI  =  400.0     initial cutoff
   ENAUG  =  322.1 eV  augmentation charge cutoff
   NELM   =     60;   NELMIN=  8; NELMDL= -5     # of ELM steps 
   EDIFF  = 0.1E-05   stopping-criterion for ELM
   LREAL  =      T    real-space projection
   NLSPLINE    = F    spline interpolate recip. space projectors
   LCOMPAT=      F    compatible to vasp.4.4
   GGA_COMPAT  = F    GGA compatible to vasp.4.4-vasp.4.6
   LMAXPAW     = -100 max onsite density
   LMAXMIX     =    2 max onsite mixed and CHGCAR
   VOSKOWN=      0    Vosko Wilk Nusair interpolation
   ROPT   =   -0.00025
 Ionic relaxation
   EDIFFG = -.1E-01   stopping-criterion for IOM
   NSW    =     60    number of steps for IOM
   NBLOCK =      1;   KBLOCK =     60    inner block; outer block 
   IBRION =      2    ionic relax: 0-MD 1-quasi-New 2-CG
   NFREE  =      1    steps in history (QN), initial steepest desc. (CG)
   ISIF   =      2    stress and relaxation
   IWAVPR =     11    prediction:  0-non 1-charg 2-wave 3-comb
   ISYM   =      2    0-nonsym 1-usesym 2-fastsym
   LCORR  =      T    Harris-Foulkes like correction to forces

   POTIM  = 0.5000    time-step for ionic-motion
   TEIN   =    0.0    initial temperature
   TEBEG  =    0.0;   TEEND  =   0.0 temperature during run
   SMASS  =  -3.00    Nose mass-parameter (am)
   estimated Nose-frequenzy (Omega)   =  0.10E-29 period in steps = 0.13E+47 mass=  -0.271E-26a.u.
   SCALEE = 1.0000    scale energy and forces
   NPACO  =    256;   APACO  = 10.0  distance and # of slots for P.C.
   PSTRESS=    0.0 pullay stress

  Mass of Ions in am
   POMASS =  28.09
  Ionic Valenz
   ZVAL   =   4.00
  Atomic Wigner-Seitz radii
   RWIGS  =  -1.00
  virtual crystal weights 
   VCA    =   1.00
   NELECT =     256.0000    total number of electrons
   NUPDOWN=      -1.0000    fix difference up-down

 DOS related values:
   EMIN   =  10.00;   EMAX   =-10.00  energy-range for DOS
   EFERMI =   0.00;   METHOD = LEGACY      
   ISMEAR =     1;   SIGMA  =   0.20  broadening in eV -4-tet -1-fermi 0-gaus

 Electronic relaxation 2 (details)
   IALGO  =     68    algorithm
   LDIAG  =      T    sub-space diagonalisation (order eigenvalues)
   LSUBROT=      F    optimize rotation matrix (better conditioning)
   TURBO    =      0    0=normal 1=particle mesh
   IRESTART =      0    0=no restart 2=restart with 2 vectors
   NREBOOT  =      0    no. of reboots
   NMIN     =      0    reboot dimension
   EREF     =   0.00    reference energy to select bands
   IMIX   =      4    mixing-type and parameters
     AMIX     =   0.40;   BMIX     =  1.00
     AMIX_MAG =   1.60;   BMIX_MAG =  1.00
     AMIN     =   0.10
     WC   =   100.;   INIMIX=   1;  MIXPRE=   1;  MAXMIX= -45

 Intra band minimization:
   WEIMIN = 0.0010     energy-eigenvalue tresh-hold
   EBREAK =  0.15E-08  absolut break condition
   DEPER  =   0.30     relativ break condition  

   TIME   =   0.40     timestep for ELM

  volume/ion in A,a.u.               =      19.97       134.75
  Fermi-wavevector in a.u.,A,eV,Ry     =   0.957888  1.810146 12.484017  0.917549
  Thomas-Fermi vector in A             =   2.086946
 
 Write flags
   LWAVE        =      F    write WAVECAR
   LDOWNSAMPLE  =      F    k-point downsampling of WAVECAR
   LCHARG       =      F    write CHGCAR
   LVTOT        =      F    write LOCPOT, total local potential
   LVHAR        =      F    write LOCPOT, Hartree potential only
   WRT_POTENTIAL= false  ! write potential to hdf5 file
   LELF         =      F    write electronic localiz. function (ELF)
   LORBIT       =      0    0 simple, 1 ext, 2 COOP (PROOUT), +10 PAW based schemes


 Dipole corrections
   LMONO      =      F    monopole corrections only (constant potential shift)
   LDIPOL     =      F    correct potential (dipole corrections)
   IDIPOL     =      0    1-x, 2-y, 3-z, 4-all directions 
   EPSILON    =  1.0000000 bulk dielectric constant
   LVACPOTAV  =      F  vacuum potentials using an averaging scheme for the charge density
   VACPOTFLAT =  0.1000000 required flatness to determine vacuum potential
 Exchange correlation treatment:
   GGA     = PS    functional components
   XC_C    = 1    coefficients multiplying the functional components
   LIBXC   =     F    Libxc                    
   VOSKOWN =     0    Vosko Wilk Nusair interpolation
   LHFCALC =     F    Hartree Fock is set to
   LHFONE  =     F    Hartree Fock one center treatment
   AEXX    =    0.0000 exact exchange contribution

 Parameters of functionals:
   PS:
     No parameter
 
 Van der Waals corrections
   IVDW    =     0    specifies the selected vdW correction

 Linear response parameters
   LEPSILON=     F    determine dielectric tensor
   LRPA    =     F    only Hartree local field effects (RPA)
   LNABLA  =     F    use nabla operator in PAW spheres
   LVEL    =     F    velocity operator in full k-point grid
   CSHIFT  =0.1000    complex shift for real part using Kramers Kronig
   OMEGAMAX=  -1.0    maximum frequency
   DEG_THRESHOLD= 0.2000000E-02 threshold for treating states as degnerate
   RTIME   =   -0.100 relaxation time in fs
  (WPLASMAI=    0.000 imaginary part of plasma frequency in eV, 0.658/RTIME)
   DFIELD  = 0.0000000 0.0000000 0.0000000 field for delta impulse in time
 
  Optional k-point grid parameters
   LKPOINTS_OPT  =     F    use optional k-point grid
   KPOINTS_OPT_MODE=     1    mode for optional k-point grid
 
 Orbital magnetization related:
   ORBITALMAG=     F  switch on orbital magnetization
   LCHIMAG   =     F  perturbation theory with respect to B field
   DQ        =  0.001000  dq finite difference perturbation B field
   LLRAUG    =     F  two centre corrections for induced B field
   LBONE     =     F  B-component reconstruction in AE one-centre
   LVGVCALC  =     T  calculate vGv susceptibility
   LVGVAPPL  =     F  apply vGv susceptibility instead of pGv for G=0

 Random number generation:
   RANDOM_GENERATOR = DEFAULT
   PCG_SEED         = not used


--------------------------------------------------------------------------------------------------------


 conjugate gradient relaxation of ions
 charge density and potential will be updated during run
 non-spin polarized calculation
 RMM-DIIS sequential band-by-band and
  variant of blocked Davidson during initial phase
 perform sub-space diagonalisation
    before iterative eigenvector-optimisation
 modified Broyden-mixing scheme, WC =      100.0
 initial mixing is a Kerker type mixing with AMIX =  0.4000 and BMIX =      1.0000
 Hartree-type preconditioning will be used
 using additional bands           34
 real space projection scheme for non local part
 use partial core corrections
 calculate Harris-corrections to forces 
   (improved forces if not selfconsistent)
 use gradient corrections 
 use of overlap-Matrix (Vanderbilt PP)
 Methfessel and Paxton  Order N= 1 SIGMA  =   0.20


--------------------------------------------------------------------------------------------------------


  energy-cutoff  :      400.00
  volume of cell :     1277.97
      direct lattice vectors                 reciprocal lattice vectors
    10.888090608  0.027085004  0.000000000     0.091844039 -0.000229612  0.000000000
     0.027085004 10.833920600  0.000000000    -0.000229612  0.092303263  0.000000000
     0.000000000  0.000000000 10.833920600     0.000000000  0.000000000  0.092302689

  length of vectors
    10.888124296 10.833954456 10.833920600     0.091844326  0.092303548  0.092302689


 
 k-points in units of 2pi/SCALE and weight: Automatic mesh                          
   0.00000000  0.00000000  0.00000000       0.125
   0.04592203 -0.00011481  0.00000000       0.125
  -0.00011481  0.04615164  0.00000000       0.125
   0.04580722  0.04603683  0.00000000       0.125
   0.00000000  0.00000000  0.04615135       0.125
   0.04592203 -0.00011481  0.04615135       0.125
  -0.00011481  0.04615164  0.04615135       0.125
   0.04580722  0.04603683  0.04615135       0.125
 
 k-points in reciprocal lattice and weights: Automatic mesh                          
   0.00000000  0.00000000  0.00000000       0.125
   0.50000000  0.00000000  0.00000000       0.125
  -0.00000000  0.50000000  0.00000000       0.125
   0.50000000  0.50000000  0.00000000       0.125
   0.00000000  0.00000000  0.50000000       0.125
   0.50000000  0.00000000  0.50000000       0.125
  -0.00000000  0.50000000  0.50000000       0.125
   0.50000000  0.50000000  0.50000000       0.125
 
 position of ions in fractional coordinates (direct lattice) 
   0.00000000  0.00000000  0.00000000
   0.00000000  0.00000000  0.50000000
   0.00000000  0.50000000  0.00000000
   0.00000000  0.50000000  0.50000000
   0.50000000  0.00000000  0.00000000
   0.50000000  0.00000000  0.50000000
   0.50000000  0.50000000  0.00000000
   0.50000000  0.50000000  0.50000000
   0.37500000  0.37500000  0.12500000
   0.37500000  0.37500000  0.62500000
   0.37500000  0.87500000  0.12500000
   0.37500000  0.87500000  0.62500000
   0.87500000  0.37500000  0.12500000
   0.87500000  0.37500000  0.62500000
   0.87500000  0.87500000  0.12500000
   0.87500000  0.87500000  0.62500000
   0.00000000  0.25000000  0.25000000
   0.00000000  0.25000000  0.75000000
   0.00000000  0.75000000  0.25000000
   0.00000000  0.75000000  0.75000000
   0.50000000  0.25000000  0.25000000
   0.50000000  0.25000000  0.75000000
   0.50000000  0.75000000  0.25000000
   0.50000000  0.75000000  0.75000000
   0.37500000  0.12500000  0.37500000
   0.37500000  0.12500000  0.87500000
   0.37500000  0.62500000  0.37500000
   0.37500000  0.62500000  0.87500000
   0.87500000  0.12500000  0.37500000
   0.87500000  0.12500000  0.87500000
   0.87500000  0.62500000  0.37500000
   0.87500000  0.62500000  0.87500000
   0.25000000  0.00000000  0.25000000
   0.25000000  0.00000000  0.75000000
   0.25000000  0.50000000  0.25000000
   0.25000000  0.50000000  0.75000000
   0.75000000  0.00000000  0.25000000
   0.75000000  0.00000000  0.75000000
   0.75000000  0.50000000  0.25000000
   0.75000000  0.50000000  0.75000000
   0.12500000  0.37500000  0.37500000
   0.12500000  0.37500000  0.87500000
   0.12500000  0.87500000  0.37500000
   0.12500000  0.87500000  0.87500000
   0.62500000  0.37500000  0.37500000
   0.62500000  0.37500000  0.87500000
   0.62500000  0.87500000  0.37500000
   0.62500000  0.87500000  0.87500000
   0.25000000  0.25000000  0.00000000
   0.25000000  0.25000000  0.50000000
   0.25000000  0.75000000  0.00000000
   0.25000000  0.75000000  0.50000000
   0.75000000  0.25000000  0.00000000
   0.75000000  0.25000000  0.50000000
   0.75000000  0.75000000  0.00000000
   0.75000000  0.75000000  0.50000000
   0.12500000  0.12500000  0.12500000
   0.12500000  0.12500000  0.62500000
   0.12500000  0.62500000  0.12500000
   0.12500000  0.62500000  0.62500000
   0.62500000  0.12500000  0.12500000
   0.62500000  0.12500000  0.62500000
   0.62500000  0.62500000  0.12500000
   0.62500000  0.62500000  0.62500000
 
 position of ions in cartesian coordinates  (Angst):
   0.00000000  0.00000000  0.00000000
   0.00000000  0.00000000  5.41696030
   0.01354250  5.41696030  0.00000000
   0.01354250  5.41696030  5.41696030
   5.44404530  0.01354250  0.00000000
   5.44404530  0.01354250  5.41696030
   5.45758781  5.43050280  0.00000000
   5.45758781  5.43050280  5.41696030
   4.09319085  4.07287710  1.35424007
   4.09319085  4.07287710  6.77120037
   4.10673336  9.48983740  1.35424007
   4.10673336  9.48983740  6.77120037
   9.53723616  4.08641960  1.35424007
   9.53723616  4.08641960  6.77120037
   9.55077866  9.50337990  1.35424007
   9.55077866  9.50337990  6.77120037
   0.00677125  2.70848015  2.70848015
   0.00677125  2.70848015  8.12544045
   0.02031375  8.12544045  2.70848015
   0.02031375  8.12544045  8.12544045
   5.45081655  2.72202265  2.70848015
   5.45081655  2.72202265  8.12544045
   5.46435906  8.13898295  2.70848015
   5.46435906  8.13898295  8.12544045
   4.08641960  1.36439695  4.06272022
   4.08641960  1.36439695  9.47968052
   4.09996211  6.78135725  4.06272022
   4.09996211  6.78135725  9.47968052
   9.53046491  1.37793945  4.06272022
   9.53046491  1.37793945  9.47968052
   9.54400741  6.79489975  4.06272022
   9.54400741  6.79489975  9.47968052
   2.72202265  0.00677125  2.70848015
   2.72202265  0.00677125  8.12544045
   2.73556515  5.42373155  2.70848015
   2.73556515  5.42373155  8.12544045
   8.16606796  0.02031375  2.70848015
   8.16606796  0.02031375  8.12544045
   8.17961046  5.43727405  2.70848015
   8.17961046  5.43727405  8.12544045
   1.37116820  4.06610585  4.06272022
   1.37116820  4.06610585  9.47968052
   1.38471070  9.48306615  4.06272022
   1.38471070  9.48306615  9.47968052
   6.81521351  4.07964835  4.06272022
   6.81521351  4.07964835  9.47968052
   6.82875601  9.49660865  4.06272022
   6.82875601  9.49660865  9.47968052
   2.72879390  2.71525140  0.00000000
   2.72879390  2.71525140  5.41696030
   2.74233640  8.13221170  0.00000000
   2.74233640  8.13221170  5.41696030
   8.17283921  2.72879390  0.00000000
   8.17283921  2.72879390  5.41696030
   8.18638171  8.14575420  0.00000000
   8.18638171  8.14575420  5.41696030
   1.36439695  1.35762570  1.35424007
   1.36439695  1.35762570  6.77120037
   1.37793945  6.77458600  1.35424007
   1.37793945  6.77458600  6.77120037
   6.80844226  1.37116820  1.35424007
   6.80844226  1.37116820  6.77120037
   6.82198476  6.78812850  1.35424007
   6.82198476  6.78812850  6.77120037
 


--------------------------------------------------------------------------------------------------------


 k-point     1 :   0.0000 0.0000 0.0000  plane waves:   23163
 k-point     2 :   0.5000 0.0000 0.0000  plane waves:   23244
 k-point     3 :  -0.0000 0.5000 0.0000  plane waves:   23214
 k-point     4 :   0.5000 0.5000 0.0000  plane waves:   23236
 k-point     5 :   0.0000 0.0000 0.5000  plane waves:   23212
 k-point     6 :   0.5000 0.0000 0.5000  plane waves:   23228
 k-point     7 :  -0.0000 0.5000 0.5000  plane waves:   23212
 k-point     8 :   0.5000 0.5000 0.5000  plane waves:   23140

 maximum and minimum number of plane-waves per node :      1967     1904

 maximum number of plane-waves:     23244
 maximum index in each direction: 
   IXMAX=   17   IYMAX=   17   IZMAX=   17
   IXMIN=  -18   IYMIN=  -18   IZMIN=  -18


 real space projection operators:
  total allocation   :      12428.00 KBytes
  max/ min on nodes  :       1044.00       1019.00


 parallel 3D FFT for wavefunctions:
    minimum data exchange during FFTs selected (reduces bandwidth)
 parallel 3D FFT for charge:
    minimum data exchange during FFTs selected (reduces bandwidth)


 total amount of memory used by VASP MPI-rank0    81747. kBytes
=======================================================================

   base      :      30000. kBytes
   nonlr-proj:       4751. kBytes
   fftplans  :      19172. kBytes
   grid      :       7278. kBytes
   one-center:         18. kBytes
   wavefun   :      20528. kBytes
 
     INWAV:  cpu time      0.0000: real time      0.0000
 Broyden mixing: mesh for mixing (old mesh)
   NGX = 35   NGY = 35   NGZ = 35
  (NGX  =144   NGY  =144   NGZ  =144)
  gives a total of  42875 points

 initial charge density was supplied:
 charge density of overlapping atoms calculated
 number of electron     256.0000000 magnetization 
 keeping initial charge density in first step


--------------------------------------------------------------------------------------------------------


 Maximum index for non-local projection operator          290
 Maximum index for augmentation-charges         3438 (set IRDMAX)


--------------------------------------------------------------------------------------------------------


 First call to EWALD:  gamma=   0.163
 Maximum number of real-space cells 3x 3x 3
 Maximum number of reciprocal cells 3x 3x 3

    FEWALD:  cpu time      0.0036: real time      0.0036


--------------------------------------- Ionic step        1  -------------------------------------------




--------------------------------------- Iteration      1(   1)  ---------------------------------------


    POTLOK:  cpu time      0.0866: real time      0.0881
    SETDIJ:  cpu time      0.0806: real time      0.0809
     EDDAV:  cpu time      1.2926: real time      1.3772
       DOS:  cpu time      0.0039: real time      0.0039
    --------------------------------------------
      LOOP:  cpu time      1.4636: real time      1.5501

 eigenvalue-minimisations  :  2592
 total energy-change (2. order) : 0.5572474E+03  (-0.8368547E+04)
 number of electron     256.0000000 magnetization 
 augmentation part      256.0000000 magnetization 

 Free energy of the ion-electron system (eV)
  ---------------------------------------------------
  alpha Z        PSCENC =       107.89321399
  Ewald energy   TEWEN  =     -7319.47028250
  -Hartree energ DENC   =      -350.96728193
  -exchange      EXHF   =         0.00000000
  -V(xc)+E(xc)   XCENC  =      -558.29788983
  PAW double counting   =      5598.62625415    -4492.17844134
  entropy T*S    EENTRO =        -0.00252126
  eigenvalues    EBANDS =      1006.84849529
  atomic energy  EATOM  =      6564.79586099
  Solvation  Ediel_sol  =         0.00000000
  ---------------------------------------------------
  free energy    TOTEN  =       557.24740757 eV

  energy without entropy =      557.24992883  energy(sigma->0) =      557.24824799


--------------------------------------------------------------------------------------------------------




--------------------------------------- Iteration      1(   2)  ---------------------------------------


     EDDAV:  cpu time      1.3503: real time      1.3661
       DOS:  cpu time      0.0015: real time      0.0018
    --------------------------------------------
      LOOP:  cpu time      1.3518: real time      1.3679

 eigenvalue-minimisations  :  3088
 total energy-change (2. order) :-0.8685049E+03  (-0.8232239E+03)
 number of electron     256.0000000 magnetization 
 augmentation part      256.0000000 magnetization 

 Free energy of the ion-electron system (eV)
  ---------------------------------------------------
  alpha Z        PSCENC =       107.89321399
  Ewald energy   TEWEN  =     -7319.47028250
  -Hartree energ DENC   =      -350.96728193
  -exchange      EXHF   =         0.00000000
  -V(xc)+E(xc)   XCENC  =      -558.29788983
  PAW double counting   =      5598.62625415    -4492.17844134
  entropy T*S    EENTRO =        -0.00188005
  eigenvalues    EBANDS =       138.34291266
  atomic energy  EATOM  =      6564.79586099
  Solvation  Ediel_sol  =         0.00000000
  ---------------------------------------------------
  free energy    TOTEN  =      -311.25753386 eV

  energy without entropy =     -311.25565381  energy(sigma->0) =     -311.25690717


--------------------------------------------------------------------------------------------------------




--------------------------------------- Iteration      1(   3)  ---------------------------------------


     EDDAV:  cpu time      1.4213: real time      1.4536
       DOS:  cpu time      0.0015: real time      0.0015
    --------------------------------------------
      LOOP:  cpu time      1.4227: real time      1.4551

 eigenvalue-minimisations  :  3152
 total energy-change (2. order) :-0.6194081E+02  (-0.6071325E+02)
 number of electron     256.0000000 magnetization 
 augmentation part      256.0000000 magnetization 

 Free energy of the ion-electron system (eV)
  ---------------------------------------------------
  alpha Z        PSCENC =       107.89321399
  Ewald energy   TEWEN  =     -7319.47028250
  -Hartree energ DENC   =      -350.96728193
  -exchange      EXHF   =         0.00000000
  -V(xc)+E(xc)   XCENC  =      -558.29788983
  PAW double counting   =      5598.62625415    -4492.17844134
  entropy T*S    EENTRO =         0.00784258
  eigenvalues    EBANDS =        76.39238346
  atomic energy  EATOM  =      6564.79586099
  Solvation  Ediel_sol  =         0.00000000
  ---------------------------------------------------
  free energy    TOTEN  =      -373.19834043 eV

  energy without entropy =     -373.20618301  energy(sigma->0) =     -373.20095462


--------------------------------------------------------------------------------------------------------




--------------------------------------- Iteration      1(   4)  ---------------------------------------


     EDDAV:  cpu time      1.4026: real time      1.4169
       DOS:  cpu time      0.0014: real time      0.0014
    --------------------------------------------
      LOOP:  cpu time      1.4040: real time      1.4183

 eigenvalue-minimisations  :  3128
 total energy-change (2. order) :-0.1606459E+01  (-0.1594591E+01)
 number of electron     256.0000000 magnetization 
 augmentation part      256.0000000 magnetization 

 Free energy of the ion-electron system (eV)
  ---------------------------------------------------
  alpha Z        PSCENC =       107.89321399
  Ewald energy   TEWEN  =     -7319.47028250
  -Hartree energ DENC   =      -350.96728193
  -exchange      EXHF   =         0.00000000
  -V(xc)+E(xc)   XCENC  =      -558.29788983
  PAW double counting   =      5598.62625415    -4492.17844134
  entropy T*S    EENTRO =         0.00847315
  eigenvalues    EBANDS =        74.78529412
  atomic energy  EATOM  =      6564.79586099
  Solvation  Ediel_sol  =         0.00000000
  ---------------------------------------------------
  free energy    TOTEN  =      -374.80479919 eV

  energy without entropy =     -374.81327234  energy(sigma->0) =     -374.80762358


--------------------------------------------------------------------------------------------------------




--------------------------------------- Iteration      1(   5)  ---------------------------------------


     EDDAV:  cpu time      1.3668: real time      1.3853
       DOS:  cpu time      0.0012: real time      0.0012
    CHARGE:  cpu time      0.2552: real time      0.2578
    MIXING:  cpu time      0.0069: real time      0.0069
    --------------------------------------------
      LOOP:  cpu time      1.6301: real time      1.6511

 eigenvalue-minimisations  :  3086
 total energy-change (2. order) :-0.4789765E-01  (-0.4779036E-01)
 number of electron     255.9999996 magnetization 
 augmentation part      -14.9748359 magnetization 

 Broyden mixing:
  rms(total) = 0.28219E+01    rms(broyden)= 0.28219E+01
  rms(prec ) = 0.31114E+01
  weight for this iteration     100.00

 Free energy of the ion-electron system (eV)
  ---------------------------------------------------
  alpha Z        PSCENC =       107.89321399
  Ewald energy   TEWEN  =     -7319.47028250
  -Hartree energ DENC   =      -350.96728193
  -exchange      EXHF   =         0.00000000
  -V(xc)+E(xc)   XCENC  =      -558.29788983
  PAW double counting   =      5598.62625415    -4492.17844134
  entropy T*S    EENTRO =         0.00847720
  eigenvalues    EBANDS =        74.73739242
  atomic energy  EATOM  =      6564.79586099
  Solvation  Ediel_sol  =         0.00000000
  ---------------------------------------------------
  free energy    TOTEN  =      -374.85269684 eV

  energy without entropy =     -374.86117404  energy(sigma->0) =     -374.85552257


--------------------------------------------------------------------------------------------------------




--------------------------------------- Iteration      1(   6)  ---------------------------------------


    POTLOK:  cpu time      0.0873: real time      0.0983
    SETDIJ:  cpu time      0.0723: real time      0.0724
    EDDIAG:  cpu time      0.1362: real time      0.1366
  RMM-DIIS:  cpu time      0.7213: real time      0.7235
    ORTHCH:  cpu time      0.0208: real time      0.0208
       DOS:  cpu time      0.0023: real time      0.0023
    CHARGE:  cpu time      0.2467: real time      0.2473
    MIXING:  cpu time      0.0063: real time      0.0088
    --------------------------------------------
      LOOP:  cpu time      1.2933: real time      1.3101

 eigenvalue-minimisations  :  2592
 total energy-change (2. order) : 0.5015473E+01  (-0.2489315E+00)
 number of electron     255.9999996 magnetization 
 augmentation part      -14.8153201 magnetization 

 Broyden mixing:
  rms(total) = 0.16972E+01    rms(broyden)= 0.16972E+01
  rms(prec ) = 0.18633E+01
  weight for this iteration     100.00

 eigenvalues of (default mixing * dielectric matrix)
  average eigenvalue GAMMA=   2.5039
  2.5039

 Free energy of the ion-electron system (eV)
  ---------------------------------------------------
  alpha Z        PSCENC =       107.89321399
  Ewald energy   TEWEN  =     -7319.47028250
  -Hartree energ DENC   =      -397.23343396
  -exchange      EXHF   =         0.00000000
  -V(xc)+E(xc)   XCENC  =      -550.98802597
  PAW double counting   =     12358.13593697   -11254.96898673
  entropy T*S    EENTRO =         0.00879978
  eigenvalues    EBANDS =       121.98969345
  atomic energy  EATOM  =      6564.79586099
  Solvation  Ediel_sol  =         0.00000000
  ---------------------------------------------------
  free energy    TOTEN  =      -369.83722398 eV

  energy without entropy =     -369.84602376  energy(sigma->0) =     -369.84015724


--------------------------------------------------------------------------------------------------------




--------------------------------------- Iteration      1(   7)  ---------------------------------------


    POTLOK:  cpu time      0.0791: real time      0.0924
    SETDIJ:  cpu time      0.0729: real time      0.0730
    EDDIAG:  cpu time      0.1333: real time      0.1336
  RMM-DIIS:  cpu time      0.7336: real time      0.7356
    ORTHCH:  cpu time      0.0219: real time      0.0220
       DOS:  cpu time      0.0030: real time      0.0033
    CHARGE:  cpu time      0.2480: real time      0.2485
    MIXING:  cpu time      0.0054: real time      0.0055
    --------------------------------------------
      LOOP:  cpu time      1.2972: real time      1.3140

 eigenvalue-minimisations  :  2645
 total energy-change (2. order) : 0.2298582E+01  (-0.6412153E+00)
 number of electron     255.9999996 magnetization 
 augmentation part      -14.5917097 magnetization 

 Broyden mixing:
  rms(total) = 0.94197E-01    rms(broyden)= 0.94197E-01
  rms(prec ) = 0.11855E+00
  weight for this iteration     100.00

 eigenvalues of (default mixing * dielectric matrix)
  average eigenvalue GAMMA=   2.2628
  2.2628  2.2628

 Free energy of the ion-electron system (eV)
  ---------------------------------------------------
  alpha Z        PSCENC =       107.89321399
  Ewald energy   TEWEN  =     -7319.47028250
  -Hartree energ DENC   =      -473.77952329
  -exchange      EXHF   =         0.00000000
  -V(xc)+E(xc)   XCENC  =      -538.32885890
  PAW double counting   =     28485.99238315   -27387.35177823
  entropy T*S    EENTRO =         0.03020653
  eigenvalues    EBANDS =       192.68013671
  atomic energy  EATOM  =      6564.79586099
  Solvation  Ediel_sol  =         0.00000000
  ---------------------------------------------------
  free energy    TOTEN  =      -367.53864154 eV

  energy without entropy =     -367.56884807  energy(sigma->0) =     -367.54871039


--------------------------------------------------------------------------------------------------------




--------------------------------------- Iteration      1(   8)  ---------------------------------------


    POTLOK:  cpu time      0.0809: real time      0.0947
    SETDIJ:  cpu time      0.0727: real time      0.0732
    EDDIAG:  cpu time      0.1385: real time      0.1388
  RMM-DIIS:  cpu time      0.7228: real time      0.7248
    ORTHCH:  cpu time      0.0210: real time      0.0210
       DOS:  cpu time      0.0015: real time      0.0015
    CHARGE:  cpu time      0.2483: real time      0.2489
    MIXING:  cpu time      0.0058: real time      0.0058
    --------------------------------------------
      LOOP:  cpu time      1.2914: real time      1.3087

 eigenvalue-minimisations  :  2619
 total energy-change (2. order) :-0.4292271E-01  (-0.6111602E-01)
 number of electron     255.9999996 magnetization 
 augmentation part      -14.6422720 magnetization 

 Broyden mixing:
  rms(total) = 0.49006E-01    rms(broyden)= 0.49005E-01
  rms(prec ) = 0.52416E-01
  weight for this iteration     100.00

 eigenvalues of (default mixing * dielectric matrix)
  average eigenvalue GAMMA=   2.1308
  2.5482  1.9221  1.9221

 Free energy of the ion-electron system (eV)
  ---------------------------------------------------
  alpha Z        PSCENC =       107.89321399
  Ewald energy   TEWEN  =     -7319.47028250
  -Hartree energ DENC   =      -466.74285240
  -exchange      EXHF   =         0.00000000
  -V(xc)+E(xc)   XCENC  =      -538.89916923
  PAW double counting   =     28102.12208332   -27002.61137688
  entropy T*S    EENTRO =         0.02729793
  eigenvalues    EBANDS =       185.30366052
  atomic energy  EATOM  =      6564.79586099
  Solvation  Ediel_sol  =         0.00000000
  ---------------------------------------------------
  free energy    TOTEN  =      -367.58156425 eV

  energy without entropy =     -367.60886218  energy(sigma->0) =     -367.59066356


--------------------------------------------------------------------------------------------------------




--------------------------------------- Iteration      1(   9)  ---------------------------------------


    POTLOK:  cpu time      0.0849: real time      0.1007
    SETDIJ:  cpu time      0.0703: real time      0.0705
    EDDIAG:  cpu time      0.1348: real time      0.1351
  RMM-DIIS:  cpu time      0.7405: real time      0.7426
    ORTHCH:  cpu time      0.0204: real time      0.0205
       DOS:  cpu time      0.0023: real time      0.0023
    CHARGE:  cpu time      0.2464: real time      0.2470
    MIXING:  cpu time      0.0057: real time      0.0057
    --------------------------------------------
      LOOP:  cpu time      1.3054: real time      1.3243

 eigenvalue-minimisations  :  2659
 total energy-change (2. order) :-0.1907492E-01  (-0.1766166E-01)
 number of electron     255.9999996 magnetization 
 augmentation part      -14.6323411 magnetization 

 Broyden mixing:
  rms(total) = 0.56839E-01    rms(broyden)= 0.56838E-01
  rms(prec ) = 0.63285E-01
  weight for this iteration     100.00

 eigenvalues of (default mixing * dielectric matrix)
  average eigenvalue GAMMA=   1.8485
  2.5412  2.2669  2.2669  0.3188

 Free energy of the ion-electron system (eV)
  ---------------------------------------------------
  alpha Z        PSCENC =       107.89321399
  Ewald energy   TEWEN  =     -7319.47028250
  -Hartree energ DENC   =      -469.33613000
  -exchange      EXHF   =         0.00000000
  -V(xc)+E(xc)   XCENC  =      -538.54005366
  PAW double counting   =     28426.63259850   -27327.32547797
  entropy T*S    EENTRO =         0.02793051
  eigenvalues    EBANDS =       187.72170097
  atomic energy  EATOM  =      6564.79586099
  Solvation  Ediel_sol  =         0.00000000
  ---------------------------------------------------
  free energy    TOTEN  =      -367.60063917 eV

  energy without entropy =     -367.62856968  energy(sigma->0) =     -367.60994934


--------------------------------------------------------------------------------------------------------




--------------------------------------- Iteration      1(  10)  ---------------------------------------


    POTLOK:  cpu time      0.0805: real time      0.0948
    SETDIJ:  cpu time      0.0730: real time      0.0732
    EDDIAG:  cpu time      0.1332: real time      0.1338
  RMM-DIIS:  cpu time      0.7577: real time      0.7595
    ORTHCH:  cpu time      0.0208: real time      0.0209
       DOS:  cpu time      0.0024: real time      0.0024
    CHARGE:  cpu time      0.2456: real time      0.2462
    MIXING:  cpu time      0.0053: real time      0.0053
    --------------------------------------------
      LOOP:  cpu time      1.3186: real time      1.3361

 eigenvalue-minimisations  :  2743
 total energy-change (2. order) :-0.3316147E-02  (-0.3183374E-02)
 number of electron     255.9999996 magnetization 
 augmentation part      -14.6388669 magnetization 

 Broyden mixing:
  rms(total) = 0.72862E-01    rms(broyden)= 0.72862E-01
  rms(prec ) = 0.78544E-01
  weight for this iteration     100.00

 eigenvalues of (default mixing * dielectric matrix)
  average eigenvalue GAMMA=   1.5232
  2.6531  2.0505  2.0505  0.5257  0.3363

 Free energy of the ion-electron system (eV)
  ---------------------------------------------------
  alpha Z        PSCENC =       107.89321399
  Ewald energy   TEWEN  =     -7319.47028250
  -Hartree energ DENC   =      -469.39724290
  -exchange      EXHF   =         0.00000000
  -V(xc)+E(xc)   XCENC  =      -538.53273566
  PAW double counting   =     28442.02742928   -27342.72271336
  entropy T*S    EENTRO =         0.02795701
  eigenvalues    EBANDS =       187.77455783
  atomic energy  EATOM  =      6564.79586099
  Solvation  Ediel_sol  =         0.00000000
  ---------------------------------------------------
  free energy    TOTEN  =      -367.60395532 eV

  energy without entropy =     -367.63191232  energy(sigma->0) =     -367.61327432


--------------------------------------------------------------------------------------------------------




--------------------------------------- Iteration      1(  11)  ---------------------------------------


    POTLOK:  cpu time      0.0816: real time      0.0986
    SETDIJ:  cpu time      0.0727: real time      0.0732
    EDDIAG:  cpu time      0.1340: real time      0.1343
  RMM-DIIS:  cpu time      0.7204: real time      0.7220
    ORTHCH:  cpu time      0.0208: real time      0.0209
       DOS:  cpu time      0.0025: real time      0.0025
    CHARGE:  cpu time      0.2443: real time      0.2449
    MIXING:  cpu time      0.0055: real time      0.0055
    --------------------------------------------
      LOOP:  cpu time      1.2818: real time      1.3019

 eigenvalue-minimisations  :  2592
 total energy-change (2. order) : 0.1988101E-02  (-0.1021024E-02)
 number of electron     255.9999996 magnetization 
 augmentation part      -14.6516413 magnetization 

 Broyden mixing:
  rms(total) = 0.69931E-01    rms(broyden)= 0.69931E-01
  rms(prec ) = 0.70584E-01
  weight for this iteration     100.00

 eigenvalues of (default mixing * dielectric matrix)
  average eigenvalue GAMMA=   1.3742
  2.5264  2.5264  1.4524  0.7471  0.7471  0.2462

 Free energy of the ion-electron system (eV)
  ---------------------------------------------------
  alpha Z        PSCENC =       107.89321399
  Ewald energy   TEWEN  =     -7319.47028250
  -Hartree energ DENC   =      -467.30304864
  -exchange      EXHF   =         0.00000000
  -V(xc)+E(xc)   XCENC  =      -538.66588989
  PAW double counting   =     28402.62646579   -27303.08915311
  entropy T*S    EENTRO =         0.02702845
  eigenvalues    EBANDS =       185.58383770
  atomic energy  EATOM  =      6564.79586099
  Solvation  Ediel_sol  =         0.00000000
  ---------------------------------------------------
  free energy    TOTEN  =      -367.60196722 eV

  energy without entropy =     -367.62899567  energy(sigma->0) =     -367.61097670


--------------------------------------------------------------------------------------------------------




--------------------------------------- Iteration      1(  12)  ---------------------------------------


    POTLOK:  cpu time      0.0826: real time      0.1011
    SETDIJ:  cpu time      0.0691: real time      0.0693
    EDDIAG:  cpu time      0.1333: real time      0.1336
  RMM-DIIS:  cpu time      0.7430: real time      0.7483
    ORTHCH:  cpu time      0.0210: real time      0.0211
       DOS:  cpu time      0.0021: real time      0.0021
    CHARGE:  cpu time      0.2448: real time      0.2453
    MIXING:  cpu time      0.0057: real time      0.0057
    --------------------------------------------
      LOOP:  cpu time      1.3016: real time      1.3265

 eigenvalue-minimisations  :  2611
 total energy-change (2. order) :-0.7942195E-04  (-0.1709950E-03)
 number of electron     255.9999996 magnetization 
 augmentation part      -14.6553624 magnetization 

 Broyden mixing:
  rms(total) = 0.72854E-01    rms(broyden)= 0.72854E-01
  rms(prec ) = 0.73314E-01
  weight for this iteration     100.00

 eigenvalues of (default mixing * dielectric matrix)
  average eigenvalue GAMMA=   1.1846
  2.5250  2.5250  1.4474  0.7276  0.7276  0.1934  0.1458

 Free energy of the ion-electron system (eV)
  ---------------------------------------------------
  alpha Z        PSCENC =       107.89321399
  Ewald energy   TEWEN  =     -7319.47028250
  -Hartree energ DENC   =      -467.06170810
  -exchange      EXHF   =         0.00000000
  -V(xc)+E(xc)   XCENC  =      -538.70215557
  PAW double counting   =     28332.91140154   -27233.38000553
  entropy T*S    EENTRO =         0.02698039
  eigenvalues    EBANDS =       185.38464814
  atomic energy  EATOM  =      6564.79586099
  Solvation  Ediel_sol  =         0.00000000
  ---------------------------------------------------
  free energy    TOTEN  =      -367.60204664 eV

  energy without entropy =     -367.62902703  energy(sigma->0) =     -367.61104010


--------------------------------------------------------------------------------------------------------




--------------------------------------- Iteration      1(  13)  ---------------------------------------


    POTLOK:  cpu time      0.0831: real time      0.1004
    SETDIJ:  cpu time      0.0708: real time      0.0709
    EDDIAG:  cpu time      0.1325: real time      0.1328
  RMM-DIIS:  cpu time      0.7694: real time      0.7713
    ORTHCH:  cpu time      0.0206: real time      0.0207
       DOS:  cpu time      0.0019: real time      0.0019
    CHARGE:  cpu time      0.2449: real time      0.2458
    MIXING:  cpu time      0.0057: real time      0.0057
    --------------------------------------------
      LOOP:  cpu time      1.3290: real time      1.3495

 eigenvalue-minimisations  :  2778
 total energy-change (2. order) :-0.4859078E-04  (-0.3065114E-04)
 number of electron     255.9999996 magnetization 
 augmentation part      -14.6557612 magnetization 

 Broyden mixing:
  rms(total) = 0.77187E-01    rms(broyden)= 0.77187E-01
  rms(prec ) = 0.77632E-01
  weight for this iteration     100.00

 eigenvalues of (default mixing * dielectric matrix)
  average eigenvalue GAMMA=   1.5434
  2.6850  2.6850  2.4806  1.7355  1.0060  0.7313  0.7313  0.2926

 Free energy of the ion-electron system (eV)
  ---------------------------------------------------
  alpha Z        PSCENC =       107.89321399
  Ewald energy   TEWEN  =     -7319.47028250
  -Hartree energ DENC   =      -467.09015516
  -exchange      EXHF   =         0.00000000
  -V(xc)+E(xc)   XCENC  =      -538.69731115
  PAW double counting   =     28353.82661518   -27254.29472598
  entropy T*S    EENTRO =         0.02698349
  eigenvalues    EBANDS =       185.40770590
  atomic energy  EATOM  =      6564.79586099
  Solvation  Ediel_sol  =         0.00000000
  ---------------------------------------------------
  free energy    TOTEN  =      -367.60209523 eV

  energy without entropy =     -367.62907872  energy(sigma->0) =     -367.61108973


--------------------------------------------------------------------------------------------------------




--------------------------------------- Iteration      1(  14)  ---------------------------------------


    POTLOK:  cpu time      0.0819: real time      0.0982
    SETDIJ:  cpu time      0.0720: real time      0.0722
    EDDIAG:  cpu time      0.1729: real time      0.1735
  RMM-DIIS:  cpu time      0.7241: real time      0.7258
    ORTHCH:  cpu time      0.0206: real time      0.0207
       DOS:  cpu time      0.0018: real time      0.0018
    CHARGE:  cpu time      0.2452: real time      0.2459
    MIXING:  cpu time      0.0060: real time      0.0060
    --------------------------------------------
      LOOP:  cpu time      1.3244: real time      1.3441

 eigenvalue-minimisations  :  2593
 total energy-change (2. order) : 0.9956006E-04  (-0.9065377E-05)
 number of electron     255.9999996 magnetization 
 augmentation part      -14.6563134 magnetization 

 Broyden mixing:
  rms(total) = 0.55341E-01    rms(broyden)= 0.55341E-01
  rms(prec ) = 0.55839E-01
  weight for this iteration     100.00

 eigenvalues of (default mixing * dielectric matrix)
  average eigenvalue GAMMA=   1.4236
  2.6386  2.5213  2.5213  1.5055  0.9529  0.9529  0.7834  0.6406  0.2955

 Free energy of the ion-electron system (eV)
  ---------------------------------------------------
  alpha Z        PSCENC =       107.89321399
  Ewald energy   TEWEN  =     -7319.47028250
  -Hartree energ DENC   =      -466.82757325
  -exchange      EXHF   =         0.00000000
  -V(xc)+E(xc)   XCENC  =      -538.73675911
  PAW double counting   =     28170.07568548   -27070.57682951
  entropy T*S    EENTRO =         0.02695444
  eigenvalues    EBANDS =       185.21773380
  atomic energy  EATOM  =      6564.79586099
  Solvation  Ediel_sol  =         0.00000000
  ---------------------------------------------------
  free energy    TOTEN  =      -367.60199567 eV

  energy without entropy =     -367.62895011  energy(sigma->0) =     -367.61098048


--------------------------------------------------------------------------------------------------------




--------------------------------------- Iteration      1(  15)  ---------------------------------------


    POTLOK:  cpu time      0.0804: real time      0.0941
    SETDIJ:  cpu time      0.0734: real time      0.0735
    EDDIAG:  cpu time      0.1336: real time      0.1339
  RMM-DIIS:  cpu time      0.7221: real time      0.7238
    ORTHCH:  cpu time      0.0216: real time      0.0216
       DOS:  cpu time      0.0023: real time      0.0023
    CHARGE:  cpu time      0.2487: real time      0.2495
    MIXING:  cpu time      0.0075: real time      0.0075
    --------------------------------------------
      LOOP:  cpu time      1.2894: real time      1.3062

 eigenvalue-minimisations  :  2592
 total energy-change (2. order) :-0.1472294E-03  (-0.5939645E-05)
 number of electron     255.9999996 magnetization 
 augmentation part      -14.6568581 magnetization 

 Broyden mixing:
  rms(total) = 0.48822E-01    rms(broyden)= 0.48822E-01
  rms(prec ) = 0.49233E-01
  weight for this iteration     100.00

 eigenvalues of (default mixing * dielectric matrix)
  average eigenvalue GAMMA=   1.4006
  2.6460  2.6460  2.4334  1.2130  1.2130  1.2347  0.8365  0.7446  0.7446  0.2941

 Free energy of the ion-electron system (eV)
  ---------------------------------------------------
  alpha Z        PSCENC =       107.89321399
  Ewald energy   TEWEN  =     -7319.47028250
  -Hartree energ DENC   =      -466.76121082
  -exchange      EXHF   =         0.00000000
  -V(xc)+E(xc)   XCENC  =      -538.73859972
  PAW double counting   =     28146.39973462   -27046.89279582
  entropy T*S    EENTRO =         0.02689869
  eigenvalues    EBANDS =       185.14503766
  atomic energy  EATOM  =      6564.79586099
  Solvation  Ediel_sol  =         0.00000000
  ---------------------------------------------------
  free energy    TOTEN  =      -367.60214290 eV

  energy without entropy =     -367.62904159  energy(sigma->0) =     -367.61110913


--------------------------------------------------------------------------------------------------------




--------------------------------------- Iteration      1(  16)  ---------------------------------------


    POTLOK:  cpu time      0.0768: real time      0.0943
    SETDIJ:  cpu time      0.0785: real time      0.0787
    EDDIAG:  cpu time      0.1341: real time      0.1344
  RMM-DIIS:  cpu time      0.7189: real time      0.7209
    ORTHCH:  cpu time      0.0205: real time      0.0206
       DOS:  cpu time      0.0024: real time      0.0028
    CHARGE:  cpu time      0.2457: real time      0.2463
    MIXING:  cpu time      0.0070: real time      0.0070
    --------------------------------------------
      LOOP:  cpu time      1.2840: real time      1.3049

 eigenvalue-minimisations  :  2592
 total energy-change (2. order) :-0.1284206E-03  (-0.3514574E-05)
 number of electron     255.9999996 magnetization 
 augmentation part      -14.6563495 magnetization 

 Broyden mixing:
  rms(total) = 0.34931E-01    rms(broyden)= 0.34931E-01
  rms(prec ) = 0.35167E-01
  weight for this iteration     100.00

 eigenvalues of (default mixing * dielectric matrix)
  average eigenvalue GAMMA=   1.3612
  2.6672  2.6672  2.3922  1.4783  1.1388  1.1388  0.8718  0.8718  0.7600  0.6925
  0.2944

 Free energy of the ion-electron system (eV)
  ---------------------------------------------------
  alpha Z        PSCENC =       107.89321399
  Ewald energy   TEWEN  =     -7319.47028250
  -Hartree energ DENC   =      -466.93423555
  -exchange      EXHF   =         0.00000000
  -V(xc)+E(xc)   XCENC  =      -538.72462844
  PAW double counting   =     28102.21964564   -27002.71542546
  entropy T*S    EENTRO =         0.02689762
  eigenvalues    EBANDS =       185.30668239
  atomic energy  EATOM  =      6564.79586099
  Solvation  Ediel_sol  =         0.00000000
  ---------------------------------------------------
  free energy    TOTEN  =      -367.60227132 eV

  energy without entropy =     -367.62916894  energy(sigma->0) =     -367.61123719


--------------------------------------------------------------------------------------------------------




--------------------------------------- Iteration      1(  17)  ---------------------------------------


    POTLOK:  cpu time      0.0943: real time      0.0954
    SETDIJ:  cpu time      0.0719: real time      0.0720
    EDDIAG:  cpu time      0.1348: real time      0.1352
  RMM-DIIS:  cpu time      0.7183: real time      0.7202
    ORTHCH:  cpu time      0.0208: real time      0.0208
       DOS:  cpu time      0.0022: real time      0.0022
    CHARGE:  cpu time      0.2443: real time      0.2449
    MIXING:  cpu time      0.0065: real time      0.0065
    --------------------------------------------
      LOOP:  cpu time      1.2931: real time      1.2972

 eigenvalue-minimisations  :  2592
 total energy-change (2. order) :-0.6237905E-04  (-0.3063258E-05)
 number of electron     255.9999996 magnetization 
 augmentation part      -14.6557091 magnetization 

 Broyden mixing:
  rms(total) = 0.16637E-01    rms(broyden)= 0.16637E-01
  rms(prec ) = 0.16743E-01
  weight for this iteration     100.00

 eigenvalues of (default mixing * dielectric matrix)
  average eigenvalue GAMMA=   1.5531
  2.1960  2.1960  2.6302  2.6302  2.4878  1.7056  1.0637  1.0637  0.8756  0.7473
  0.7473  0.2943

 Free energy of the ion-electron system (eV)
  ---------------------------------------------------
  alpha Z        PSCENC =       107.89321399
  Ewald energy   TEWEN  =     -7319.47028250
  -Hartree energ DENC   =      -467.05210640
  -exchange      EXHF   =         0.00000000
  -V(xc)+E(xc)   XCENC  =      -538.72162179
  PAW double counting   =     28014.32681335   -26914.82562483
  entropy T*S    EENTRO =         0.02689127
  eigenvalues    EBANDS =       185.42452222
  atomic energy  EATOM  =      6564.79586099
  Solvation  Ediel_sol  =         0.00000000
  ---------------------------------------------------
  free energy    TOTEN  =      -367.60233370 eV

  energy without entropy =     -367.62922497  energy(sigma->0) =     -367.61129746


--------------------------------------------------------------------------------------------------------




--------------------------------------- Iteration      1(  18)  ---------------------------------------


    POTLOK:  cpu time      0.0781: real time      0.0938
    SETDIJ:  cpu time      0.0737: real time      0.0739
    EDDIAG:  cpu time      0.1325: real time      0.1328
  RMM-DIIS:  cpu time      0.7192: real time      0.7212
    ORTHCH:  cpu time      0.0208: real time      0.0209
       DOS:  cpu time      0.0027: real time      0.0027
    CHARGE:  cpu time      0.2446: real time      0.2452
    MIXING:  cpu time      0.0064: real time      0.0064
    --------------------------------------------
      LOOP:  cpu time      1.2780: real time      1.2969

 eigenvalue-minimisations  :  2592
 total energy-change (2. order) :-0.1460582E-04  (-0.9491511E-06)
 number of electron     255.9999996 magnetization 
 augmentation part      -14.6553428 magnetization 

 Broyden mixing:
  rms(total) = 0.55217E-02    rms(broyden)= 0.55217E-02
  rms(prec ) = 0.55772E-02
  weight for this iteration     100.00

 eigenvalues of (default mixing * dielectric matrix)
  average eigenvalue GAMMA=   1.5831
  2.2995  2.6432  2.6432  2.4919  1.9046  1.9046  1.9085  1.0509  1.0509  0.8856
  0.7515  0.7515  0.2943

 Free energy of the ion-electron system (eV)
  ---------------------------------------------------
  alpha Z        PSCENC =       107.89321399
  Ewald energy   TEWEN  =     -7319.47028250
  -Hartree energ DENC   =      -467.09004482
  -exchange      EXHF   =         0.00000000
  -V(xc)+E(xc)   XCENC  =      -538.72393426
  PAW double counting   =     27952.69520478   -26853.19535109
  entropy T*S    EENTRO =         0.02688395
  eigenvalues    EBANDS =       185.46610065
  atomic energy  EATOM  =      6564.79586099
  Solvation  Ediel_sol  =         0.00000000
  ---------------------------------------------------
  free energy    TOTEN  =      -367.60234830 eV

  energy without entropy =     -367.62923226  energy(sigma->0) =     -367.61130962


--------------------------------------------------------------------------------------------------------




--------------------------------------- Iteration      1(  19)  ---------------------------------------


    POTLOK:  cpu time      0.0854: real time      0.1003
    SETDIJ:  cpu time      0.0696: real time      0.0697
    EDDIAG:  cpu time      0.1319: real time      0.1322
  RMM-DIIS:  cpu time      0.5130: real time      0.5142
    ORTHCH:  cpu time      0.0208: real time      0.0208
       DOS:  cpu time      0.0021: real time      0.0021
    CHARGE:  cpu time      0.2440: real time      0.2448
    MIXING:  cpu time      0.0077: real time      0.0077
    --------------------------------------------
      LOOP:  cpu time      1.0745: real time      1.0919

 eigenvalue-minimisations  :  1763
 total energy-change (2. order) :-0.3743672E-05  (-0.2759610E-06)
 number of electron     255.9999996 magnetization 
 augmentation part      -14.6551331 magnetization 

 Broyden mixing:
  rms(total) = 0.93761E-03    rms(broyden)= 0.93761E-03
  rms(prec ) = 0.97356E-03
  weight for this iteration     100.00

 eigenvalues of (default mixing * dielectric matrix)
  average eigenvalue GAMMA=   1.6932
  3.2103  3.2103  2.7946  2.7946  2.4213  2.1549  1.1882  1.1882  1.0086  1.0086
  0.9188  0.7557  0.7557  0.2943

 Free energy of the ion-electron system (eV)
  ---------------------------------------------------
  alpha Z        PSCENC =       107.89321399
  Ewald energy   TEWEN  =     -7319.47028250
  -Hartree energ DENC   =      -467.11514681
  -exchange      EXHF   =         0.00000000
  -V(xc)+E(xc)   XCENC  =      -538.72426029
  PAW double counting   =     27924.20500684   -26824.70597574
  entropy T*S    EENTRO =         0.02688141
  eigenvalues    EBANDS =       185.49235006
  atomic energy  EATOM  =      6564.79586099
  Solvation  Ediel_sol  =         0.00000000
  ---------------------------------------------------
  free energy    TOTEN  =      -367.60235205 eV

  energy without entropy =     -367.62923346  energy(sigma->0) =     -367.61131252


--------------------------------------------------------------------------------------------------------




--------------------------------------- Iteration      1(  20)  ---------------------------------------


    POTLOK:  cpu time      0.0823: real time      0.1008
    SETDIJ:  cpu time      0.0692: real time      0.0694
    EDDIAG:  cpu time      0.1320: real time      0.1323
  RMM-DIIS:  cpu time      0.4657: real time      0.4668
    ORTHCH:  cpu time      0.0209: real time      0.0210
       DOS:  cpu time      0.0021: real time      0.0021
    --------------------------------------------
      LOOP:  cpu time      0.7722: real time      0.7924

 eigenvalue-minimisations  :  1567
 total energy-change (2. order) :-0.7591789E-06  (-0.7707831E-07)
 number of electron     255.9999996 magnetization 
 augmentation part      -14.6551331 magnetization 

 Free energy of the ion-electron system (eV)
  ---------------------------------------------------
  alpha Z        PSCENC =       107.89321399
  Ewald energy   TEWEN  =     -7319.47028250
  -Hartree energ DENC   =      -467.13056186
  -exchange      EXHF   =         0.00000000
  -V(xc)+E(xc)   XCENC  =      -538.72310980
  PAW double counting   =     27920.37680373   -26820.87777994
  entropy T*S    EENTRO =         0.02687995
  eigenvalues    EBANDS =       185.50662262
  atomic energy  EATOM  =      6564.79586099
  Solvation  Ediel_sol  =         0.00000000
  ---------------------------------------------------
  free energy    TOTEN  =      -367.60235281 eV

  energy without entropy =     -367.62923276  energy(sigma->0) =     -367.61131279


--------------------------------------------------------------------------------------------------------




 average (electrostatic) potential at core
  the test charge radii are     0.9892
  (the norm of the test charge is              1.0000)
       1 -83.0026       2 -83.0026       3 -83.0026       4 -83.0026       5 -83.0026
       6 -83.0026       7 -83.0026       8 -83.0026       9 -83.0026      10 -83.0026
      11 -83.0026      12 -83.0026      13 -83.0026      14 -83.0026      15 -83.0026
      16 -83.0026      17 -83.0026      18 -83.0026      19 -83.0026      20 -83.0026
      21 -83.0026      22 -83.0026      23 -83.0026      24 -83.0026      25 -83.0026
      26 -83.0026      27 -83.0026      28 -83.0026      29 -83.0026      30 -83.0026
      31 -83.0026      32 -83.0026      33 -83.0026      34 -83.0026      35 -83.0026
      36 -83.0026      37 -83.0026      38 -83.0026      39 -83.0026      40 -83.0026
      41 -83.0026      42 -83.0026      43 -83.0026      44 -83.0026      45 -83.0026
      46 -83.0026      47 -83.0026      48 -83.0026      49 -83.0026      50 -83.0026
      51 -83.0026      52 -83.0026      53 -83.0026      54 -83.0026      55 -83.0026
      56 -83.0026      57 -83.0026      58 -83.0026      59 -83.0026      60 -83.0026
      61 -83.0026      62 -83.0026      63 -83.0026      64 -83.0026
 
 
 
 E-fermi :   6.1635     XC(G=0):  -9.5625     alpha+bet :-12.0113

 val. band max:        5.8323561168   @ k =   0.0000   0.0000   0.0000
 cond. band min:       6.3019643213   @ k =   0.0000   0.0000   0.5000
 fundamental gap:      0.4696082046
 Fermi energy:         6.1635474584

 k-point     1 :       0.0000    0.0000    0.0000
  band No.  band energies     occupation 
      1      -6.1902      2.00000
      2      -5.1076      2.00000
      3      -5.1076      2.00000
      4      -5.0985      2.00000
      5      -5.0985      2.00000
      6      -5.0984      2.00000
      7      -5.0984      2.00000
      8      -4.1475      2.00000
      9      -4.1475      2.00000
     10      -4.1329      2.00000
     11      -4.1329      2.00000
     12      -4.1329      2.00000
     13      -4.1329      2.00000
     14      -4.1265      2.00000
     15      -4.1265      2.00000
     16      -4.1265      2.00000
     17      -4.1265      2.00000
     18      -4.1182      2.00000
     19      -4.1182      2.00000
     20      -3.8501      2.00000
     21      -3.8501      2.00000
     22      -3.8166      2.00000
     23      -3.8166      2.00000
     24      -2.0392      2.00000
     25      -2.0392      2.00000
     26      -2.0302      2.00000
     27      -2.0093      2.00000
     28      -2.0093      2.00000
     29      -1.9887      2.00000
     30      -1.8742      2.00000
     31      -1.8742      2.00000
     32      -1.8637      2.00000
     33      -1.8637      2.00000
     34      -1.8514      2.00000
     35      -1.8514      2.00000
     36      -1.8514      2.00000
     37      -1.8514      2.00000
     38      -1.8286      2.00000
     39      -1.8286      2.00000
     40      -1.8183      2.00000
     41      -1.8183      2.00000
     42      -1.2132      2.00000
     43      -1.2132      2.00000
     44      -1.2053      2.00000
     45      -1.2053      2.00000
     46       0.3093      2.00000
     47       0.3093      2.00000
     48       0.3093      2.00000
     49       0.3093      2.00000
     50       0.3171      2.00000
     51       0.3171      2.00000
     52       0.3269      2.00000
     53       0.3269      2.00000
     54       0.3269      2.00000
     55       0.3269      2.00000
     56       0.3365      2.00000
     57       0.3365      2.00000
     58       1.8979      2.00000
     59       1.8979      2.00000
     60       1.8982      2.00000
     61       1.8982      2.00000
     62       1.8982      2.00000
     63       1.8982      2.00000
     64       1.8983      2.00000
     65       1.8983      2.00000
     66       1.9002      2.00000
     67       1.9002      2.00000
     68       1.9008      2.00000
     69       1.9008      2.00000
     70       1.9845      2.00000
     71       1.9845      2.00000
     72       1.9845      2.00000
     73       1.9845      2.00000
     74       2.0066      2.00000
     75       2.0066      2.00000
     76       2.0121      2.00000
     77       2.0121      2.00000
     78       2.0121      2.00000
     79       2.0121      2.00000
     80       2.0174      2.00000
     81       2.0174      2.00000
     82       2.2767      2.00000
     83       2.2767      2.00000
     84       2.3118      2.00000
     85       2.3118      2.00000
     86       2.3122      2.00000
     87       2.3122      2.00000
     88       2.8981      2.00000
     89       2.9247      2.00000
     90       2.9247      2.00000
     91       2.9515      2.00000
     92       2.9630      2.00000
     93       2.9630      2.00000
     94       3.8719      2.00000
     95       3.8719      2.00000
     96       3.8900      2.00000
     97       3.8900      2.00000
     98       3.9013      2.00000
     99       3.9013      2.00000
    100       3.9196      2.00000
    101       3.9196      2.00000
    102       3.9254      2.00000
    103       3.9254      2.00000
    104       3.9254      2.00000
    105       3.9254      2.00000
    106       4.4538      2.00000
    107       4.4538      2.00000
    108       4.4661      2.00000
    109       4.4661      2.00000
    110       4.4661      2.00000
    111       4.4661      2.00000
    112       4.4785      2.00000
    113       4.4785      2.00000
    114       4.5060      2.00000
    115       4.5060      2.00000
    116       4.5060      2.00000
    117       4.5060      2.00000
    118       4.5778      2.00000
    119       4.5778      2.00000
    120       4.6010      2.00000
    121       4.6010      2.00000
    122       4.6248      2.00000
    123       4.6248      2.00000
    124       4.6498      2.00000
    125       4.6498      2.00000
    126       5.7951      2.02571
    127       5.8311      2.04044
    128       5.8324      2.04101
    129       6.3605     -0.04698
    130       6.3889     -0.06754
    131       6.3889     -0.06754
    132       6.4176     -0.07031
    133       6.4287     -0.06818
    134       6.4287     -0.06818
    135       6.8365     -0.00002
    136       6.8365     -0.00002
    137       6.8365     -0.00002
    138       6.8365     -0.00002
    139       6.8763     -0.00001
    140       6.8763     -0.00001
    141       7.2689     -0.00000
    142       7.2689     -0.00000
    143       7.3166     -0.00000
    144       7.3166     -0.00000
    145       8.1528     -0.00000
    146       8.1532     -0.00000
    147       8.1696     -0.00000
    148       8.1697     -0.00000
    149       8.1699     -0.00000
    150       8.1701     -0.00000
    151       8.1873     -0.00000
    152       8.1877     -0.00000
    153       8.2161     -0.00000
    154       8.2163     -0.00000
    155       8.2166     -0.00000
    156       8.2168     -0.00000
    157       8.3014     -0.00000
    158       8.3294     -0.00000
    159       8.3843     -0.00000
    160       8.8483     -0.00000
    161       8.8699     -0.00000
    162       8.9885     -0.00000

 k-point     2 :       0.5000    0.0000    0.0000
  band No.  band energies     occupation 
      1      -5.9172      2.00000
      2      -5.9172      2.00000
      3      -4.8576      2.00000
      4      -4.8576      2.00000
      5      -4.8503      2.00000
      6      -4.8503      2.00000
      7      -4.8503      2.00000
      8      -4.8503      2.00000
      9      -4.8428      2.00000
     10      -4.8428      2.00000
     11      -4.0049      2.00000
     12      -4.0049      2.00000
     13      -4.0049      2.00000
     14      -4.0049      2.00000
     15      -3.9845      2.00000
     16      -3.9845      2.00000
     17      -3.9845      2.00000
     18      -3.9845      2.00000
     19      -3.7933      2.00000
     20      -3.7933      2.00000
     21      -3.0735      2.00000
     22      -3.0735      2.00000
     23      -3.0525      2.00000
     24      -3.0525      2.00000
     25      -3.0525      2.00000
     26      -3.0525      2.00000
     27      -3.0313      2.00000
     28      -3.0313      2.00000
     29      -1.9516      2.00000
     30      -1.9516      2.00000
     31      -1.9436      2.00000
     32      -1.9436      2.00000
     33      -1.9151      2.00000
     34      -1.9151      2.00000
     35      -1.9073      2.00000
     36      -1.9073      2.00000
     37      -0.7794      2.00000
     38      -0.7794      2.00000
     39      -0.7626      2.00000
     40      -0.7626      2.00000
     41      -0.7626      2.00000
     42      -0.7626      2.00000
[...]
 -0.000  -0.000   4.176   0.000  -0.000   7.781   0.000  -0.000
  0.000   0.000   0.000   4.176   0.000   0.000   7.781   0.000
 -0.000  -0.000  -0.000   0.000   4.176  -0.000   0.000   7.780
 -0.000  -0.000   7.781   0.000  -0.000  14.506   0.000   0.000
  0.001   0.001   0.000   7.781   0.000   0.000  14.506   0.000
 -0.000  -0.000  -0.000   0.000   7.780   0.000   0.000  14.506
 total augmentation occupancy for first ion, spin component:           1
  5.939  -2.285   0.000  -0.013  -0.000  -0.000   0.005  -0.000
 -2.285   0.989   0.000   0.007   0.000  -0.000  -0.002   0.000
  0.000   0.000   2.941   0.000  -0.003  -0.657   0.000   0.000
 -0.013   0.007   0.000   2.941  -0.000  -0.000  -0.657   0.000
 -0.000   0.000  -0.003  -0.000   2.950   0.000   0.000  -0.661
 -0.000  -0.000  -0.657  -0.000   0.000   0.156  -0.000   0.000
  0.005  -0.002   0.000  -0.657   0.000  -0.000   0.156  -0.000
 -0.000   0.000   0.000   0.000  -0.661   0.000  -0.000   0.157


------------------------ aborting loop because EDIFF is reached ----------------------------------------


    CHARGE:  cpu time      0.2475: real time      0.2489
    FORLOC:  cpu time      0.0230: real time      0.0232
    FORNL :  cpu time      0.6725: real time      0.6785
    STRESS:  cpu time      2.0873: real time      2.1052
    FORCOR:  cpu time      0.0922: real time      0.0928
    FORHAR:  cpu time      0.0373: real time      0.0376
    MIXING:  cpu time      0.0575: real time      0.0578
    OFIELD:  cpu time      0.0001: real time      0.0001

  FORCE on cell =-STRESS in cart. coord.  units (eV):
  Direction    XX          YY          ZZ          XY          YZ          ZX
  --------------------------------------------------------------------------------------
  Alpha Z   107.89321   107.89321   107.89321
  Ewald   -2428.69932 -2445.43710 -2445.42176    -4.18628     0.00000     0.00000
  Hartree   157.59968   154.76192   154.74782    -2.24738    -0.00000    -0.00000
  E(xc)    -818.28509  -818.14776  -818.14995     0.04170    -0.00000    -0.00000
  Local    -942.09062  -921.84641  -921.87026     6.98377    -0.00000    -0.00000
  n-local  2486.78069  2484.48779  2484.52640    -0.43136    -0.00000    -0.00000
  augment  -368.39277  -368.40925  -368.40946     0.19740     0.00000     0.00000
  Kinetic  1806.98302  1812.06491  1811.99698    -3.23195    -0.00000     0.00000
  Fock        0.00000     0.00000     0.00000     0.00000     0.00000     0.00000
  -------------------------------------------------------------------------------------
  Total       1.78882     5.36731     5.31298    -2.87410     0.00000     0.00000
  in kB       2.24262     6.72895     6.66083    -3.60323     0.00000     0.00000
  external pressure =        5.21 kB  Pullay stress =        0.00 kB


 VOLUME and BASIS-vectors are now :
 -----------------------------------------------------------------------------
  energy-cutoff  :      400.00
  volume of cell :     1277.97
      direct lattice vectors                 reciprocal lattice vectors
    10.888090608  0.027085004  0.000000000     0.091844039 -0.000229612  0.000000000
     0.027085004 10.833920600  0.000000000    -0.000229612  0.092303263  0.000000000
     0.000000000  0.000000000 10.833920600     0.000000000  0.000000000  0.092302689

  length of vectors
    10.888124296 10.833954456 10.833920600     0.091844326  0.092303548  0.092302689


 FORCES acting on ions
    electron-ion (+dipol)            ewald-force                    non-local-force                 convergence-correction
 -----------------------------------------------------------------------------------------------
   -.585E-10 -.614E-10 -.423E+00   0.222E-15 0.298E-13 0.302E+00   0.509E-23 0.863E-23 0.121E+00   -.899E-14 0.113E-13 0.297E-05
   -.585E-10 -.614E-10 -.423E+00   -.133E-14 0.293E-13 0.302E+00   0.302E-23 0.130E-23 0.121E+00   -.573E-13 0.642E-13 0.297E-05
   -.585E-10 -.614E-10 -.423E+00   -.444E-14 0.409E-13 0.302E+00   0.787E-23 0.143E-23 0.121E+00   0.802E-13 -.114E-13 0.297E-05
   -.585E-10 -.614E-10 -.423E+00   -.266E-14 0.338E-13 0.302E+00   -.316E-23 0.127E-23 0.121E+00   -.142E-12 -.667E-13 0.297E-05
   -.586E-10 -.613E-10 -.423E+00   -.666E-14 0.315E-13 0.302E+00   -.978E-25 0.316E-23 0.121E+00   0.579E-14 0.105E-13 0.297E-05
   -.586E-10 -.614E-10 -.423E+00   0.400E-14 0.311E-13 0.302E+00   0.190E-22 0.342E-23 0.121E+00   0.352E-13 0.856E-13 0.297E-05
   -.586E-10 -.618E-10 -.423E+00   -.178E-13 0.360E-13 0.302E+00   -.882E-24 0.172E-22 0.121E+00   -.842E-13 -.735E-14 0.297E-05
   -.586E-10 -.618E-10 -.423E+00   0.711E-14 0.355E-13 0.302E+00   -.171E-23 0.130E-22 0.121E+00   0.121E-12 -.919E-13 0.297E-05
   0.585E-10 0.614E-10 0.423E+00   0.888E-15 0.413E-13 -.302E+00   -.135E-22 0.247E-23 -.121E+00   0.475E-13 -.646E-13 -.297E-05
   0.585E-10 0.615E-10 0.423E+00   -.178E-14 0.391E-13 -.302E+00   -.368E-23 -.402E-23 -.121E+00   -.611E-14 0.107E-13 -.297E-05
   0.585E-10 0.611E-10 0.423E+00   0.266E-14 0.338E-13 -.302E+00   0.465E-23 -.199E-22 -.121E+00   0.947E-13 0.600E-13 -.297E-05
   0.585E-10 0.611E-10 0.423E+00   0.888E-14 0.373E-13 -.302E+00   -.614E-23 -.144E-22 -.121E+00   -.815E-13 -.117E-13 -.297E-05
   0.585E-10 0.608E-10 0.423E+00   -.400E-14 0.391E-13 -.302E+00   -.138E-22 -.484E-23 -.121E+00   -.501E-13 -.108E-12 -.297E-05
   0.585E-10 0.622E-10 0.423E+00   0.178E-14 0.320E-13 -.302E+00   -.851E-23 -.354E-23 -.121E+00   0.738E-14 0.366E-13 -.297E-05
   0.585E-10 0.619E-10 0.423E+00   -.444E-14 0.364E-13 -.302E+00   -.107E-23 -.403E-23 -.121E+00   -.976E-13 0.111E-12 -.297E-05
   0.585E-10 0.622E-10 0.423E+00   0.888E-14 0.355E-13 -.302E+00   -.104E-22 -.289E-24 -.121E+00   0.791E-13 -.413E-13 -.297E-05
   -.585E-10 -.614E-10 -.423E+00   -.184E-13 -.622E-14 0.302E+00   0.300E-23 0.493E-23 0.121E+00   -.112E-12 -.403E-13 0.297E-05
   -.585E-10 -.614E-10 -.423E+00   -.844E-14 -.622E-14 0.302E+00   0.906E-24 0.189E-23 0.121E+00   0.333E-13 0.392E-13 0.297E-05
   -.585E-10 -.614E-10 -.423E+00   -.400E-14 -.555E-14 0.302E+00   -.408E-23 0.134E-23 0.121E+00   -.585E-13 0.406E-13 0.297E-05
   -.585E-10 -.614E-10 -.423E+00   -.115E-13 -.178E-14 0.302E+00   -.545E-23 0.470E-24 0.121E+00   0.238E-13 -.411E-13 0.297E-05
   -.586E-10 -.615E-10 -.423E+00   -.129E-13 -.400E-14 0.302E+00   -.101E-22 0.132E-22 0.121E+00   0.949E-13 -.847E-13 0.297E-05
   -.586E-10 -.615E-10 -.423E+00   -.129E-13 -.888E-15 0.302E+00   0.625E-23 0.294E-22 0.121E+00   -.408E-13 0.875E-13 0.297E-05
   -.586E-10 -.620E-10 -.423E+00   -.111E-13 -.355E-14 0.302E+00   0.132E-22 0.105E-22 0.121E+00   0.446E-13 0.833E-13 0.297E-05
   -.586E-10 -.612E-10 -.423E+00   -.355E-14 -.355E-14 0.302E+00   0.739E-23 -.172E-22 0.121E+00   -.336E-13 -.887E-13 0.297E-05
   0.585E-10 0.617E-10 0.423E+00   -.444E-14 0.407E-14 -.302E+00   0.105E-22 -.203E-22 -.121E+00   0.765E-13 0.258E-13 -.297E-05
   0.585E-10 0.609E-10 0.423E+00   -.444E-14 0.384E-14 -.302E+00   -.613E-23 0.854E-23 -.121E+00   -.298E-13 0.312E-13 -.297E-05
   0.585E-10 0.613E-10 0.423E+00   -.711E-14 0.736E-14 -.302E+00   -.542E-23 0.732E-23 -.121E+00   0.575E-13 -.246E-13 -.297E-05
   0.585E-10 0.613E-10 0.423E+00   -.711E-14 0.479E-15 -.302E+00   0.454E-23 -.209E-22 -.121E+00   -.429E-13 -.335E-13 -.297E-05
   0.585E-10 0.617E-10 0.423E+00   -.266E-14 -.615E-14 -.302E+00   -.652E-24 0.261E-23 -.121E+00   -.814E-13 0.886E-13 -.297E-05
   0.585E-10 0.616E-10 0.423E+00   0.888E-15 0.951E-15 -.302E+00   -.137E-23 0.197E-22 -.121E+00   0.304E-13 -.194E-13 -.297E-05
   0.585E-10 0.615E-10 0.423E+00   -.107E-13 0.257E-15 -.302E+00   -.522E-23 -.717E-23 -.121E+00   -.606E-13 -.942E-13 -.297E-05
   0.585E-10 0.628E-10 0.423E+00   -.142E-13 0.701E-15 -.302E+00   0.323E-23 0.209E-23 -.121E+00   0.465E-13 0.239E-13 -.297E-05
   -.586E-10 -.614E-10 -.423E+00   0.933E-14 -.600E-14 0.302E+00   0.324E-23 0.186E-22 0.121E+00   0.717E-13 0.480E-13 0.297E-05
   -.586E-10 -.614E-10 -.423E+00   0.533E-14 0.133E-14 0.302E+00   -.610E-23 -.104E-22 0.121E+00   -.847E-13 0.114E-13 0.297E-05
   -.586E-10 -.614E-10 -.423E+00   0.577E-14 -.377E-14 0.302E+00   0.162E-24 -.173E-23 0.121E+00   0.308E-13 -.501E-13 0.297E-05
   -.586E-10 -.614E-10 -.423E+00   0.178E-14 -.355E-14 0.302E+00   -.658E-23 -.821E-23 0.121E+00   -.400E-13 -.131E-13 0.297E-05
   -.586E-10 -.615E-10 -.423E+00   0.622E-14 -.533E-14 0.302E+00   -.955E-23 -.552E-23 0.121E+00   -.656E-13 0.100E-12 0.297E-05
   -.586E-10 -.613E-10 -.423E+00   -.888E-15 -.888E-14 0.302E+00   0.122E-22 -.223E-23 0.121E+00   0.876E-13 0.421E-14 0.297E-05
   -.586E-10 -.603E-10 -.423E+00   0.400E-14 0.444E-15 0.302E+00   0.812E-23 -.926E-23 0.121E+00   -.193E-13 -.105E-12 0.297E-05
   -.586E-10 -.617E-10 -.423E+00   0.355E-14 -.711E-14 0.302E+00   0.552E-23 0.130E-22 0.121E+00   0.383E-13 -.422E-14 0.297E-05
   0.586E-10 0.615E-10 0.423E+00   -.437E-14 0.622E-14 -.302E+00   -.368E-24 0.462E-23 -.121E+00   -.116E-12 -.592E-13 -.297E-05
   0.586E-10 0.615E-10 0.423E+00   0.651E-14 0.266E-14 -.302E+00   -.982E-24 0.658E-23 -.121E+00   0.693E-13 0.165E-13 -.297E-05
   0.586E-10 0.614E-10 0.423E+00   0.806E-14 -.888E-15 -.302E+00   0.407E-23 0.205E-22 -.121E+00   -.522E-13 0.611E-13 -.297E-05
   0.586E-10 0.614E-10 0.423E+00   0.450E-14 0.622E-14 -.302E+00   0.636E-24 0.987E-23 -.121E+00   0.191E-13 -.229E-13 -.297E-05
   0.585E-10 0.608E-10 0.423E+00   0.229E-13 0.888E-14 -.302E+00   -.409E-23 -.200E-22 -.121E+00   0.126E-12 -.828E-13 -.297E-05
   0.585E-10 0.606E-10 0.423E+00   0.229E-13 0.888E-14 -.302E+00   -.554E-23 -.224E-22 -.121E+00   -.735E-13 0.365E-14 -.297E-05
   0.585E-10 0.618E-10 0.423E+00   0.145E-13 0.533E-14 -.302E+00   -.151E-22 0.361E-24 -.121E+00   0.554E-13 0.780E-13 -.297E-05
   0.585E-10 0.618E-10 0.423E+00   0.212E-13 0.888E-14 -.302E+00   0.131E-22 -.172E-22 -.121E+00   -.167E-13 -.532E-14 -.297E-05
   -.586E-10 -.612E-10 -.423E+00   -.622E-14 -.431E-13 0.302E+00   -.646E-23 -.491E-23 0.121E+00   0.587E-13 -.500E-14 0.297E-05
   -.586E-10 -.612E-10 -.423E+00   -.102E-13 -.431E-13 0.302E+00   0.959E-23 -.935E-23 0.121E+00   -.573E-13 0.658E-14 0.297E-05
   -.586E-10 -.617E-10 -.423E+00   -.933E-14 -.340E-13 0.302E+00   -.114E-22 -.351E-24 0.121E+00   0.575E-13 0.308E-15 0.297E-05
   -.586E-10 -.616E-10 -.423E+00   -.977E-14 -.342E-13 0.302E+00   -.251E-23 -.717E-23 0.121E+00   -.782E-13 -.689E-14 0.297E-05
   -.586E-10 -.608E-10 -.423E+00   0.333E-14 -.382E-13 0.302E+00   -.266E-24 0.529E-23 0.121E+00   -.596E-13 -.946E-13 0.297E-05
   -.586E-10 -.607E-10 -.423E+00   -.444E-15 -.382E-13 0.302E+00   0.314E-23 -.651E-23 0.121E+00   0.682E-13 0.948E-13 0.297E-05
   -.586E-10 -.611E-10 -.423E+00   0.000E+00 -.395E-13 0.302E+00   -.478E-23 0.591E-23 0.121E+00   -.648E-13 0.897E-13 0.297E-05
   -.586E-10 -.613E-10 -.423E+00   -.107E-13 -.391E-13 0.302E+00   -.149E-23 0.541E-23 0.121E+00   0.949E-13 -.912E-13 0.297E-05
   0.586E-10 0.615E-10 0.423E+00   -.801E-15 -.283E-13 -.302E+00   0.897E-23 0.111E-22 -.121E+00   0.228E-13 -.319E-14 -.297E-05
   0.586E-10 0.615E-10 0.423E+00   -.746E-14 -.354E-13 -.302E+00   -.584E-24 0.124E-22 -.121E+00   -.720E-13 0.486E-13 -.297E-05
   0.585E-10 0.615E-10 0.423E+00   0.590E-14 -.298E-13 -.302E+00   -.794E-23 0.318E-23 -.121E+00   0.696E-13 0.230E-14 -.297E-05
   0.586E-10 0.614E-10 0.423E+00   0.990E-14 -.437E-13 -.302E+00   0.179E-23 0.466E-23 -.121E+00   -.100E-12 -.510E-13 -.297E-05
   0.585E-10 0.616E-10 0.423E+00   0.107E-13 -.296E-13 -.302E+00   0.496E-23 -.178E-22 -.121E+00   -.180E-13 -.523E-13 -.297E-05
   0.585E-10 0.602E-10 0.423E+00   -.681E-14 -.366E-13 -.302E+00   -.256E-23 -.482E-23 -.121E+00   0.758E-13 0.124E-12 -.297E-05
   0.585E-10 0.611E-10 0.423E+00   0.142E-13 -.383E-13 -.302E+00   -.152E-22 -.728E-23 -.121E+00   -.660E-13 0.495E-13 -.297E-05
   0.585E-10 0.613E-10 0.423E+00   0.106E-13 -.387E-13 -.302E+00   -.123E-22 -.619E-23 -.121E+00   0.102E-12 -.123E-12 -.297E-05
 -----------------------------------------------------------------------------------------------
   -.138E-11 0.199E-11 -.341E-11   -.170E-13 -.345E-13 0.439E-13   -.510E-22 -.249E-23 -.333E-15   -.469E-13 -.495E-13 -.148E-12
 
 
 POSITION                                       TOTAL-FORCE (eV/Angst)
 -----------------------------------------------------------------------------------
      0.00000      0.00000      0.00189         0.000000      0.000000      0.000047
      0.00000      0.00000      5.41885         0.000000     -0.000000      0.000047
      0.01354      5.41696      0.00189         0.000000     -0.000000      0.000047
      0.01354      5.41696      5.41885         0.000000     -0.000000      0.000047
      5.44405      0.01354      0.00189        -0.000000      0.000000      0.000047
      5.44405      0.01354      5.41885        -0.000000      0.000000      0.000047
      5.45759      5.43050      0.00189        -0.000000     -0.000000      0.000047
      5.45759      5.43050      5.41885        -0.000000     -0.000000      0.000047
      4.09319      4.07288      1.35235         0.000000     -0.000000     -0.000047
      4.09319      4.07288      6.76931         0.000000     -0.000000     -0.000047
      4.10673      9.48984      1.35235         0.000000      0.000000     -0.000047
      4.10673      9.48984      6.76931         0.000000      0.000000     -0.000047
      9.53724      4.08642      1.35235        -0.000000      0.000000     -0.000047
      9.53724      4.08642      6.76931        -0.000000      0.000000     -0.000047
      9.55078      9.50338      1.35235         0.000000      0.000000     -0.000047
      9.55078      9.50338      6.76931        -0.000000     -0.000000     -0.000047
      0.00677      2.70848      2.71037         0.000000     -0.000000      0.000047
      0.00677      2.70848      8.12733         0.000000      0.000000      0.000047
      0.02031      8.12544      2.71037         0.000000     -0.000000      0.000047
      0.02031      8.12544      8.12733         0.000000     -0.000000      0.000047
      5.45082      2.72202      2.71037        -0.000000     -0.000000      0.000047
      5.45082      2.72202      8.12733        -0.000000     -0.000000      0.000047
      5.46436      8.13898      2.71037        -0.000000      0.000000      0.000047
      5.46436      8.13898      8.12733        -0.000000     -0.000000      0.000047
      4.08642      1.36440      4.06083         0.000000      0.000000     -0.000047
      4.08642      1.36440      9.47779         0.000000      0.000000     -0.000047
      4.09996      6.78136      4.06083         0.000000     -0.000000     -0.000047
      4.09996      6.78136      9.47779        -0.000000     -0.000000     -0.000047
      9.53046      1.37794      4.06083        -0.000000      0.000000     -0.000047
      9.53046      1.37794      9.47779        -0.000000     -0.000000     -0.000047
      9.54401      6.79490      4.06083        -0.000000      0.000000     -0.000047
      9.54401      6.79490      9.47779         0.000000      0.000000     -0.000047
      2.72202      0.00677      2.71037         0.000000     -0.000000      0.000047
      2.72202      0.00677      8.12733         0.000000     -0.000000      0.000047
      2.73557      5.42373      2.71037        -0.000000      0.000000      0.000047
      2.73557      5.42373      8.12733         0.000000     -0.000000      0.000047
      8.16607      0.02031      2.71037         0.000000      0.000000      0.000047
      8.16607      0.02031      8.12733         0.000000     -0.000000      0.000047
      8.17961      5.43727      2.71037        -0.000000      0.000000      0.000047
      8.17961      5.43727      8.12733        -0.000000      0.000000      0.000047
      1.37117      4.06611      4.06083        -0.000000     -0.000000     -0.000047
      1.37117      4.06611      9.47779        -0.000000     -0.000000     -0.000047
      1.38471      9.48307      4.06083        -0.000000     -0.000000     -0.000047
      1.38471      9.48307      9.47779        -0.000000     -0.000000     -0.000047
      6.81521      4.07965      4.06083         0.000000      0.000000     -0.000047
      6.81521      4.07965      9.47779         0.000000     -0.000000     -0.000047
      6.82876      9.49661      4.06083        -0.000000     -0.000000     -0.000047
      6.82876      9.49661      9.47779         0.000000     -0.000000     -0.000047
      2.72879      2.71525      0.00189         0.000000     -0.000000      0.000047
      2.72879      2.71525      5.41885         0.000000      0.000000      0.000047
      2.74234      8.13221      0.00189         0.000000     -0.000000      0.000047
      2.74234      8.13221      5.41885         0.000000      0.000000      0.000047
      8.17284      2.72879      0.00189        -0.000000      0.000000      0.000047
      8.17284      2.72879      5.41885         0.000000     -0.000000      0.000047
      8.18638      8.14575      0.00189         0.000000      0.000000      0.000047
      8.18638      8.14575      5.41885         0.000000      0.000000      0.000047
      1.36440      1.35763      1.35235        -0.000000      0.000000     -0.000047
      1.36440      1.35763      6.76931        -0.000000     -0.000000     -0.000047
      1.37794      6.77459      1.35235        -0.000000     -0.000000     -0.000047
      1.37794      6.77459      6.76931        -0.000000      0.000000     -0.000047
      6.80844      1.37117      1.35235         0.000000     -0.000000     -0.000047
      6.80844      1.37117      6.76931         0.000000     -0.000000     -0.000047
      6.82198      6.78813      1.35235         0.000000      0.000000     -0.000047
      6.82198      6.78813      6.76931        -0.000000     -0.000000     -0.000047
 -----------------------------------------------------------------------------------
    total drift:                               -0.000000      0.000000     -0.000000


--------------------------------------------------------------------------------------------------------



  FREE ENERGIE OF THE ION-ELECTRON SYSTEM (eV)
  ---------------------------------------------------
  free  energy   TOTEN  =      -367.60539270 eV

  energy  without entropy=     -367.63234271  energy(sigma->0) =     -367.61437604
 
 d Force = 0.2537140E-03[-0.164E-05, 0.509E-03]  d Energy = 0.2543549E-03-0.641E-06
 d Force =-0.1008861E-01[-0.105E-01,-0.963E-02]  d Ewald  =-0.1008861E-01-0.694E-09


--------------------------------------------------------------------------------------------------------


    POTLOK:  cpu time      0.1501: real time      0.1505


--------------------------------------------------------------------------------------------------------




--------------------------------------------------------------------------------------------------------


  
 reached required accuracy - stopping structural energy minimisation
     LOOP+:  cpu time     12.5279: real time     12.7262
    4ORBIT:  cpu time      0.0000: real time      0.0000

 total amount of memory used by VASP MPI-rank0    81747. kBytes
=======================================================================

   base      :      30000. kBytes
   nonlr-proj:       4751. kBytes
   fftplans  :      19172. kBytes
   grid      :       7278. kBytes
   one-center:         18. kBytes
   wavefun   :      20528. kBytes
 
  
  
 General timing and accounting informations for this job:
 ========================================================
  
                  Total CPU time used (sec):       61.507
                            User time (sec):       58.170
                          System time (sec):        3.337
                         Elapsed time (sec):       65.103
  
                   Maximum memory used (kb):      414348.
                   Average memory used (kb):          N/A
  
                          Minor page faults:        95189
                          Major page faults:            0
                 Voluntary context switches:         8738
