<?xml version="1.0" encoding="ISO-8859-1"?>
<modeling>
 <generator>
  <i name="program" type="string">vasp </i>
  <i name="version" type="string">6.4.3  </i>
  <i name="subversion" type="string">19Mar24 (build Oct 21 2024 22:36:34) complex                          parallel </i>
  <i name="platform" type="string">LinuxIFC </i>
  <i name="date" type="string">2024 11 01 </i>
  <i name="time" type="string">22:46:16 </i>
 </generator>
 <incar>
  <i type="string" name="SYSTEM">Si64</i>
  <i type="int" name="ISTART">     0</i>
  <i type="string" name="PREC">Accurate</i>
  <i type="string" name="ALGO">Fast</i>
  <i type="logical" name="ADDGRID"> T  </i>
  <i type="int" name="ICHARG">     2</i>
  <i type="int" name="NELM">    60</i>
  <i type="int" name="NELMIN">     8</i>
  <i type="int" name="IBRION">     2</i>
  <i name="EDIFF">      0.00000100</i>
  <i name="EDIFFG">     -0.01000000</i>
  <i type="int" name="NSW">    60</i>
  <i type="int" name="ISIF">     2</i>
  <i name="ENCUT">    400.00000000</i>
  <i type="string" name="LREAL">Auto</i>
  <i type="int" name="ISMEAR">     1</i>
  <i name="SIGMA">      0.20000000</i>
  <i type="logical" name="LWAVE"> F  </i>
  <i type="logical" name="LCHARG"> F  </i>
  <i type="logical" name="GGA_COMPAT"> F  </i>
  <i type="string" name="GGA">PS</i>
 </incar>
 <primitive_cell>
  <structure name="primitive_cell" >
   <crystal>
    <varray name="basis" >
     <v>       0.00677125       2.70848015      -2.70848015 </v>
     <v>       0.00677125       2.70848015       2.70848015 </v>
     <v>       2.71525140      -2.70170890       0.00000000 </v>
    </varray>
    <i name="volume">     39.93653153 </i>
    <varray name="rec_basis" >
     <v>       0.18322885       0.18414730      -0.18460538 </v>
     <v>       0.18322885       0.18414730       0.18460538 </v>
     <v>       0.36737616      -0.00091845       0.00000000 </v>
    </varray>
   </crystal>
   <varray name="positions" >
    <v>       0.00000000       0.00000000       0.00000000 </v>
    <v>       0.25000000       0.75000000       0.50000000 </v>
   </varray>
  </structure>
  <varray name="primitive_index" >
   <v type="int" >        1 </v>
   <v type="int" >       15 </v>
  </varray>
 </primitive_cell>
 <kpoints>
  <generation param="Gamma">
   <v type="int" name="divisions">       2        2        2 </v>
   <v name="usershift">      0.00000000       0.00000000       0.00000000 </v>
   <v name="genvec1">      0.50000000       0.00000000       0.00000000 </v>
   <v name="genvec2">     -0.00000000       0.50000000       0.00000000 </v>
   <v name="genvec3">      0.00000000       0.00000000       0.50000000 </v>
   <v name="shift">      0.00000000       0.00000000       0.00000000 </v>
  </generation>
  <varray name="kpointlist" >
   <v>       0.00000000       0.00000000       0.00000000 </v>
   <v>       0.50000000       0.00000000       0.00000000 </v>
   <v>      -0.00000000       0.50000000       0.00000000 </v>
   <v>       0.50000000       0.50000000       0.00000000 </v>
   <v>       0.00000000       0.00000000       0.50000000 </v>
   <v>       0.50000000       0.00000000       0.50000000 </v>
   <v>      -0.00000000       0.50000000       0.50000000 </v>
   <v>       0.50000000       0.50000000       0.50000000 </v>
  </varray>
  <varray name="weights" >
   <v>       0.12500000 </v>
   <v>       0.12500000 </v>
   <v>       0.12500000 </v>
   <v>       0.12500000 </v>
   <v>       0.12500000 </v>
   <v>       0.12500000 </v>
   <v>       0.12500000 </v>
   <v>       0.12500000 </v>
  </varray>
 </kpoints>
 <parameters>
  <separator name="general" >
   <i type="string" name="SYSTEM">Si64</i>
   <i type="logical" name="LCOMPAT"> F  </i>
  </separator>
  <separator name="electronic" >
   <i type="string" name="PREC">accura</i>
   <i name="ENMAX">    400.00000000</i>
   <i name="ENAUG">    322.06900000</i>
   <i name="EDIFF">      0.00000100</i>
   <i type="int" name="IALGO">    68</i>
   <i type="int" name="IWAVPR">    11</i>
   <i type="int" name="NBANDS">   162</i>
   <i type="int" name="NBANDSLOW">    -1</i>
   <i type="int" name="NBANDSHIGH">    -1</i>
   <i name="NELECT">    256.00000000</i>
   <i type="int" name="TURBO">     0</i>
   <i type="int" name="IRESTART">     0</i>
   <i type="int" name="NREBOOT">     0</i>
   <i type="int" name="NMIN">     0</i>
   <i name="EREF">      0.00000000</i>
   <separator name="electronic smearing" >
    <i type="int" name="ISMEAR">     1</i>
    <i name="SIGMA">      0.20000000</i>
    <i name="KSPACING">      0.50000000</i>
    <i type="logical" name="KGAMMA"> T  </i>
    <i type="logical" name="KBLOWUP"> T  </i>
   </separator>
   <separator name="electronic projectors" >
    <i type="logical" name="LREAL"> T  </i>
    <v name="ROPT">     -0.00025000</v>
    <i type="int" name="LMAXPAW">  -100</i>
    <i type="int" name="LMAXMIX">     2</i>
    <i type="logical" name="NLSPLINE"> F  </i>
   </separator>
   <separator name="electronic startup" >
    <i type="int" name="ISTART">     0</i>
    <i type="int" name="ICHARG">     2</i>
    <i type="int" name="INIWAV">     1</i>
   </separator>
   <separator name="electronic spin" >
    <i type="int" name="ISPIN">     1</i>
    <i type="logical" name="LNONCOLLINEAR"> F  </i>
    <v name="MAGMOM">      1.00000000      1.00000000      1.00000000      1.00000000      1.00000000      1.00000000      1.00000000      1.00000000      1.00000000      1.00000000      1.00000000      1.00000000      1.00000000      1.00000000      1.00000000      1.00000000      1.00000000      1.00000000      1.00000000      1.00000000
      1.00000000      1.00000000      1.00000000      1.00000000      1.00000000      1.00000000      1.00000000      1.00000000      1.00000000      1.00000000      1.00000000      1.00000000      1.00000000      1.00000000      1.00000000      1.00000000      1.00000000      1.00000000      1.00000000      1.00000000
      1.00000000      1.00000000      1.00000000      1.00000000      1.00000000      1.00000000      1.00000000      1.00000000      1.00000000      1.00000000      1.00000000      1.00000000      1.00000000      1.00000000      1.00000000      1.00000000      1.00000000      1.00000000      1.00000000      1.00000000
      1.00000000      1.00000000      1.00000000      1.00000000</v>
    <i name="NUPDOWN">     -1.00000000</i>
    <i type="logical" name="LSORBIT"> F  </i>
    <v name="SAXIS">      0.00000000      0.00000000      1.00000000</v>
    <i type="logical" name="LSPIRAL"> F  </i>
    <v name="QSPIRAL">      0.00000000      0.00000000      0.00000000</v>
    <i type="logical" name="LZEROZ"> F  </i>
   </separator>
   <separator name="electronic exchange-correlation" >
    <i type="logical" name="LASPH"> F  </i>
   </separator>
   <separator name="electronic convergence" >
    <i type="int" name="NELM">    60</i>
    <i type="int" name="NELMDL">    -5</i>
    <i type="int" name="NELMIN">     8</i>
    <i name="ENINI">    400.00000000</i>
    <separator name="electronic convergence detail" >
     <i type="logical" name="LDIAG"> T  </i>
     <i type="logical" name="LSUBROT"> F  </i>
     <i name="WEIMIN">      0.00100000</i>
     <i name="EBREAK">      0.00000000</i>
     <i name="DEPER">      0.30000000</i>
     <i type="int" name="NRMM">     4</i>
     <i name="TIME">      0.40000000</i>
    </separator>
   </separator>
   <separator name="electronic mixer" >
    <i name="AMIX">      0.40000000</i>
    <i name="BMIX">      1.00000000</i>
    <i name="AMIN">      0.10000000</i>
    <i name="AMIX_MAG">      1.60000000</i>
    <i name="BMIX_MAG">      1.00000000</i>
    <separator name="electronic mixer details" >
     <i type="int" name="IMIX">     4</i>
     <i type="logical" name="MIXFIRST"> F  </i>
     <i type="int" name="MAXMIX">   -45</i>
     <i name="WC">    100.00000000</i>
     <i type="int" name="INIMIX">     1</i>
     <i type="int" name="MIXPRE">     1</i>
     <i type="int" name="MREMOVE">     5</i>
    </separator>
   </separator>
   <separator name="electronic dipolcorrection" >
    <i type="logical" name="LDIPOL"> F  </i>
    <i type="logical" name="LMONO"> F  </i>
    <i type="int" name="IDIPOL">     0</i>
    <i name="EPSILON">      1.00000000</i>
    <v name="DIPOL">   -100.00000000   -100.00000000   -100.00000000</v>
    <i name="EFIELD">      0.00000000</i>
    <i type="logical" name="LVACPOTAV"> F  </i>
   </separator>
  </separator>
  <separator name="grids" >
   <i type="int" name="NGX">    72</i>
   <i type="int" name="NGY">    72</i>
   <i type="int" name="NGZ">    72</i>
   <i type="int" name="NGXF">   144</i>
   <i type="int" name="NGYF">   144</i>
   <i type="int" name="NGZF">   144</i>
   <i type="logical" name="ADDGRID"> T  </i>
  </separator>
  <separator name="ionic" >
   <i type="int" name="NSW">    60</i>
   <i type="int" name="IBRION">     2</i>
   <i type="int" name="MDALGO">     0</i>
   <i type="int" name="ISIF">     2</i>
   <i name="PSTRESS">      0.00000000</i>
   <i name="EDIFFG">     -0.01000000</i>
   <i type="int" name="NFREE">     1</i>
   <i name="POTIM">      0.50000000</i>
   <i name="SMASS">     -3.00000000</i>
   <i name="SCALEE">      1.00000000</i>
  </separator>
  <separator name="ionic md" >
   <i name="TEBEG">      0.00010000</i>
   <i name="TEEND">      0.00010000</i>
   <i type="int" name="NBLOCK">     1</i>
   <i type="int" name="KBLOCK">    60</i>
   <i type="int" name="NPACO">   256</i>
   <i name="APACO">     10.00000000</i>
  </separator>
  <separator name="symmetry" >
   <i type="int" name="ISYM">     2</i>
   <i name="SYMPREC">      0.00001000</i>
  </separator>
  <separator name="dos" >
   <i type="int" name="LORBIT">     0</i>
   <v name="RWIGS">     -1.00000000</v>
   <i type="int" name="NEDOS">   301</i>
   <i name="EMIN">     10.00000000</i>
   <i name="EMAX">    -10.00000000</i>
   <i name="EFERMI">      0.00000000</i>
  </separator>
  <separator name="writing" >
   <i type="int" name="NWRITE">     2</i>
   <i type="logical" name="LWAVE"> F  </i>
   <i type="logical" name="LDOWNSAMPLE"> F  </i>
   <i type="logical" name="LCHARG"> F  </i>
   <i type="logical" name="LPARD"> F  </i>
   <i type="logical" name="LVTOT"> F  </i>
   <i type="logical" name="LVHAR"> F  </i>
   <i type="logical" name="LELF"> F  </i>
   <i type="logical" name="LOPTICS"> F  </i>
   <v name="STM">      0.00000000      0.00000000      0.00000000      0.00000000      0.00000000      0.00000000      0.00000000</v>
  </separator>
  <separator name="performance" >
   <i type="int" name="NPAR">     2</i>
   <i type="int" name="NSIM">     4</i>
   <i type="int" name="NBLK">    -1</i>
   <i type="logical" name="LPLANE"> T  </i>
   <i type="logical" name="LSCALAPACK"> T  </i>
   <i type="logical" name="LSCAAWARE"> F  </i>
   <i type="logical" name="LSCALU"> F  </i>
   <i type="logical" name="LASYNC"> F  </i>
   <i type="logical" name="LORBITALREAL"> F  </i>
  </separator>
  <separator name="miscellaneous" >
   <i type="int" name="IDIOT">     3</i>
   <i type="int" name="PHON_NSTRUCT">    -1</i>
   <i type="logical" name="LMUSIC"> F  </i>
   <v name="POMASS">     28.08500000</v>
   <v name="DARWINR">      0.00000000</v>
   <v name="DARWINV">      1.00000000</v>
   <i type="logical" name="LCORR"> T  </i>
  </separator>
  <i type="logical" name="GGA_COMPAT"> F  </i>
  <i type="logical" name="LBERRY"> F  </i>
  <i type="int" name="ICORELEVEL">     0</i>
  <i type="logical" name="LDAU"> F  </i>
  <i type="int" name="I_CONSTRAINED_M">     0</i>
  <separator name="electronic exchange-correlation" >
   <i type="string" name="GGA    ">PS</i>
   <i type="string" name="XC_C">1</i>
   <i type="int" name="VOSKOWN">     0</i>
   <i type="logical" name="LHFCALC"> F  </i>
   <i type="string" name="PRECFOCK"></i>
   <i type="logical" name="LSYMGRAD"> F  </i>
   <i type="logical" name="LHFONE"> F  </i>
   <i type="logical" name="LRHFCALC"> F  </i>
   <i type="logical" name="LTHOMAS"> F  </i>
   <i type="logical" name="LMODELHF"> F  </i>
   <i type="logical" name="LFOCKACE"> F  </i>
   <i name="ENCUT4O">     -1.00000000</i>
   <i type="int" name="EXXOEP">     0</i>
   <i type="int" name="FOURORBIT">     0</i>
   <i name="AEXX">      0.00000000</i>
   <i name="HFALPHA">      0.00000000</i>
   <i name="MCALPHA">      0.00000000</i>
   <i name="ALDAX">      1.00000000</i>
   <i name="AGGAX">      1.00000000</i>
   <i name="AMGGAX">      1.00000000</i>
   <i name="ALDAC">      1.00000000</i>
   <i name="AGGAC">      1.00000000</i>
   <i name="AMGGAC">      1.00000000</i>
   <i type="int" name="NKREDX">     1</i>
   <i type="int" name="NKREDY">     1</i>
   <i type="int" name="NKREDZ">     1</i>
   <i type="logical" name="SHIFTRED"> F  </i>
   <i type="logical" name="ODDONLY"> F  </i>
   <i type="logical" name="EVENONLY"> F  </i>
   <i type="int" name="LMAXFOCK">     0</i>
   <i type="int" name="NMAXFOCKAE">     0</i>
   <i type="logical" name="LFOCKAEDFT"> F  </i>
   <i name="HFSCREEN">      0.00000000</i>
   <i name="HFSCREENC">      0.00000000</i>
   <i type="int" name="NBANDSGWLOW">     0</i>
  </separator>
  <separator name="vdW DFT" >
   <i type="logical" name="LUSE_VDW"> F  </i>
   <i type="int" name="IVDW_NL">    -1</i>
   <i type="logical" name="LSPIN_VDW"> F  </i>
   <i name="ZAB_VDW">     -0.84910000</i>
   <i name="GAMMA_VDW">      1.39626340</i>
   <i name="ALPHA_VDW">      0.00000000</i>
   <i name="PARAM1">      0.12340000</i>
   <i name="PARAM2">      1.00000000</i>
   <i name="BPARAM">      6.30000000</i>
   <i name="CPARAM">      0.00930000</i>
  </separator>
  <separator name="model GW" >
   <i type="int" name="MODEL_GW">     0</i>
   <i name="MODEL_EPS0">     11.98095946</i>
   <i name="MODEL_ALPHA">      1.00000000</i>
  </separator>
  <separator name="linear response parameters" >
   <i type="logical" name="LEPSILON"> F  </i>
   <i type="logical" name="LRPA"> F  </i>
   <i type="logical" name="LNABLA"> F  </i>
   <i type="logical" name="LVEL"> F  </i>
   <i name="CSHIFT">      0.10000000</i>
   <i name="OMEGAMAX">     -1.00000000</i>
   <i name="DEG_THRESHOLD">      0.00200000</i>
   <i name="RTIME">     -0.10000000</i>
   <i name="WPLASMAI">      0.00000000</i>
   <v name="DFIELD">      0.00000000      0.00000000      0.00000000</v>
   <v name="WPLASMA">      0.00000000      0.00000000      0.00000000      0.00000000      0.00000000      0.00000000      0.00000000      0.00000000      0.00000000</v>
  </separator>
  <separator name="orbital magnetization" >
   <i type="logical" name="NUCIND"> F  </i>
   <v name="MAGPOS">      0.00000000      0.00000000      0.00000000</v>
   <i type="logical" name="LNICSALL"> T  </i>
   <i type="logical" name="ORBITALMAG"> F  </i>
   <i type="logical" name="LMAGBLOCH"> F  </i>
   <i type="logical" name="LCHIMAG"> F  </i>
   <i type="logical" name="LGAUGE"> T  </i>
   <i type="int" name="MAGATOM">     0</i>
   <v name="MAGDIPOL">      0.00000000      0.00000000      0.00000000</v>
   <v name="AVECCONST">      0.00000000      0.00000000      0.00000000</v>
  </separator>
  <separator name="response functions" >
   <i type="logical" name="LALL_IN_ONE"> F  </i>
   <i type="int" name="IALL_IN_ONE">    -1</i>
   <i type="int" name="NBANDS_WAVE">    -1</i>
   <i type="logical" name="LFINITE_TEMPERATURE"> F  </i>
   <i type="logical" name="LADDER"> F  </i>
   <i type="logical" name="LRPAFORCE"> F  </i>
   <i type="logical" name="LFXC"> F  </i>
   <i type="logical" name="LHARTREE"> T  </i>
   <i type="int" name="IBSE">     0</i>
   <v type="int" name="KPOINT">    -1     0     0     0</v>
   <i type="logical" name="LTCTC"> F  </i>
   <i type="logical" name="LTCTE"> F  </i>
   <i type="logical" name="LTETE"> F  </i>
   <i type="logical" name="LTRIPLET"> F  </i>
   <i type="logical" name="LFXCEPS"> F  </i>
   <i type="logical" name="LFXHEG"> F  </i>
   <i type="int" name="NATURALO">     2</i>
   <i type="logical" name="LHOLEGF"> F  </i>
   <i type="logical" name="L2ORDER"> F  </i>
   <i type="logical" name="LDMP1"> F  </i>
   <i type="logical" name="LMP2LT"> F  </i>
   <i type="logical" name="LSMP2LT"> F  </i>
   <i type="logical" name="LGWLF"> F  </i>
   <i name="ENCUTGW">     -1.60000002</i>
   <i name="ENCUTGWSOFT">     -1.60000002</i>
   <i name="ENCUTLF">     -1.00000000</i>
   <i type="logical" name="ESF_SPLINES"> F  </i>
   <i name="ESF_CONV">      0.01000000</i>
   <i type="int" name="ESF_NINTER">    15</i>
   <i type="int" name="LMAXMP2">    -1</i>
   <i name="SCISSOR">      0.00000000</i>
   <i type="int" name="NOMEGA">     0</i>
   <i type="int" name="NOMEGAR">     0</i>
   <i type="int" name="NBANDSGW">    -1</i>
   <i type="int" name="NBANDSO">    -1</i>
   <i type="int" name="NBANDSV">    -1</i>
   <i type="int" name="NELMGW">     1</i>
   <i type="int" name="NELMHF">     1</i>
   <i type="int" name="DIM">     3</i>
   <i type="int" name="IESPILON">     4</i>
   <i type="int" name="ANTIRES">     0</i>
   <i name="OMEGAMAX">    -30.00000000</i>
   <i name="OMEGAMIN">    -30.00000000</i>
   <i name="OMEGATL">   -200.00000000</i>
   <i type="int" name="OMEGAGRID">     0</i>
   <i name="CSHIFT">     -0.10000000</i>
   <i type="logical" name="LSELFENERGY"> F  </i>
   <i type="logical" name="LSPECTRAL"> F  </i>
   <i type="logical" name="LSPECTRALGW"> F  </i>
   <i type="logical" name="LSINGLES"> F  </i>
   <i type="logical" name="LFERMIGW"> F  </i>
   <i type="logical" name="ODDONLYGW"> F  </i>
   <i type="logical" name="EVENONLYGW"> F  </i>
   <i type="int" name="NKREDLFX">     1</i>
   <i type="int" name="NKREDLFY">     1</i>
   <i type="int" name="NKREDLFZ">     1</i>
   <i type="int" name="MAXMEM">  2800</i>
   <i type="int" name="TELESCOPE">     0</i>
   <i type="int" name="NTAUPAR">    -1</i>
   <i type="int" name="NOMEGAPAR">    -1</i>
   <i name="DAMP_NEWTON">      0.80000001</i>
   <i name="LAMBDA">      1.00000000</i>
  </separator>
  <separator name="External order field" >
   <i name="OFIELD_KAPPA">      0.00000000</i>
   <v name="OFIELD_K">      0.00000000      0.00000000      0.00000000</v>
   <i name="OFIELD_Q6_NEAR">      0.00000000</i>
   <i name="OFIELD_Q6_FAR">      0.00000000</i>
   <i name="OFIELD_A">      0.00000000</i>
  </separator>
  <separator name="optional k-points parameters" >
   <i type="int" name="KPOINTS_OPT_MODE">     1</i>
   <i type="logical" name="LKPOINTS_OPT"> F  </i>
  </separator>
 </parameters>
 <atominfo>
  <atoms>      64 </atoms>
  <types>       1 </types>
  <array name="atoms" >
   <dimension dim="1">ion</dimension>
   <field type="string">element</field>
   <field type="int">atomtype</field>
   <set>
    <rc><c>Si</c><c>   1</c></rc>
    <rc><c>Si</c><c>   1</c></rc>
    <rc><c>Si</c><c>   1</c></rc>
    <rc><c>Si</c><c>   1</c></rc>
    <rc><c>Si</c><c>   1</c></rc>
    <rc><c>Si</c><c>   1</c></rc>
    <rc><c>Si</c><c>   1</c></rc>
    <rc><c>Si</c><c>   1</c></rc>
    <rc><c>Si</c><c>   1</c></rc>
    <rc><c>Si</c><c>   1</c></rc>
    <rc><c>Si</c><c>   1</c></rc>
    <rc><c>Si</c><c>   1</c></rc>
    <rc><c>Si</c><c>   1</c></rc>
    <rc><c>Si</c><c>   1</c></rc>
    <rc><c>Si</c><c>   1</c></rc>
    <rc><c>Si</c><c>   1</c></rc>
    <rc><c>Si</c><c>   1</c></rc>
    <rc><c>Si</c><c>   1</c></rc>
    <rc><c>Si</c><c>   1</c></rc>
    <rc><c>Si</c><c>   1</c></rc>
    <rc><c>Si</c><c>   1</c></rc>
    <rc><c>Si</c><c>   1</c></rc>
    <rc><c>Si</c><c>   1</c></rc>
    <rc><c>Si</c><c>   1</c></rc>
    <rc><c>Si</c><c>   1</c></rc>
    <rc><c>Si</c><c>   1</c></rc>
    <rc><c>Si</c><c>   1</c></rc>
    <rc><c>Si</c><c>   1</c></rc>
    <rc><c>Si</c><c>   1</c></rc>
    <rc><c>Si</c><c>   1</c></rc>
    <rc><c>Si</c><c>   1</c></rc>
    <rc><c>Si</c><c>   1</c></rc>
    <rc><c>Si</c><c>   1</c></rc>
    <rc><c>Si</c><c>   1</c></rc>
    <rc><c>Si</c><c>   1</c></rc>
    <rc><c>Si</c><c>   1</c></rc>
    <rc><c>Si</c><c>   1</c></rc>
    <rc><c>Si</c><c>   1</c></rc>
    <rc><c>Si</c><c>   1</c></rc>
    <rc><c>Si</c><c>   1</c></rc>
    <rc><c>Si</c><c>   1</c></rc>
    <rc><c>Si</c><c>   1</c></rc>
    <rc><c>Si</c><c>   1</c></rc>
    <rc><c>Si</c><c>   1</c></rc>
    <rc><c>Si</c><c>   1</c></rc>
    <rc><c>Si</c><c>   1</c></rc>
    <rc><c>Si</c><c>   1</c></rc>
    <rc><c>Si</c><c>   1</c></rc>
    <rc><c>Si</c><c>   1</c></rc>
    <rc><c>Si</c><c>   1</c></rc>
    <rc><c>Si</c><c>   1</c></rc>
    <rc><c>Si</c><c>   1</c></rc>
    <rc><c>Si</c><c>   1</c></rc>
    <rc><c>Si</c><c>   1</c></rc>
    <rc><c>Si</c><c>   1</c></rc>
    <rc><c>Si</c><c>   1</c></rc>
    <rc><c>Si</c><c>   1</c></rc>
    <rc><c>Si</c><c>   1</c></rc>
    <rc><c>Si</c><c>   1</c></rc>
    <rc><c>Si</c><c>   1</c></rc>
    <rc><c>Si</c><c>   1</c></rc>
    <rc><c>Si</c><c>   1</c></rc>
    <rc><c>Si</c><c>   1</c></rc>
    <rc><c>Si</c><c>   1</c></rc>
   </set>
  </array>
  <array name="atomtypes" >
   <dimension dim="1">type</dimension>
   <field type="int">atomspertype</field>
   <field type="string">element</field>
   <field>mass</field>
   <field>valence</field>
   <field type="string">pseudopotential</field>
   <set>
    <rc><c>  64</c><c>Si</c><c>     28.08500000</c><c>      4.00000000</c><c>  PAW_PBE Si 05Jan2001                  </c></rc>
   </set>
  </array>
 </atominfo>
 <structure name="initialpos" >
  <crystal>
   <varray name="basis" >
    <v>      10.88809061       0.02708500       0.00000000 </v>
    <v>       0.02708500      10.83392060       0.00000000 </v>
    <v>       0.00000000       0.00000000      10.83392060 </v>
   </varray>
   <i name="volume">   1277.96900891 </i>
   <varray name="rec_basis" >
    <v>       0.09184404      -0.00022961       0.00000000 </v>
    <v>      -0.00022961       0.09230326       0.00000000 </v>
    <v>       0.00000000       0.00000000       0.09230269 </v>
   </varray>
  </crystal>
  <varray name="positions" >
   <v>       0.00000000       0.00000000       0.00000000 </v>
   <v>       0.00000000       0.00000000       0.50000000 </v>
   <v>       0.00000000       0.50000000       0.00000000 </v>
   <v>       0.00000000       0.50000000       0.50000000 </v>
   <v>       0.50000000       0.00000000       0.00000000 </v>
   <v>       0.50000000       0.00000000       0.50000000 </v>
   <v>       0.50000000       0.50000000       0.00000000 </v>
   <v>       0.50000000       0.50000000       0.50000000 </v>
   <v>       0.37500000       0.37500000       0.12500000 </v>
   <v>       0.37500000       0.37500000       0.62500000 </v>
   <v>       0.37500000       0.87500000       0.12500000 </v>
   <v>       0.37500000       0.87500000       0.62500000 </v>
   <v>       0.87500000       0.37500000       0.12500000 </v>
   <v>       0.87500000       0.37500000       0.62500000 </v>
   <v>       0.87500000       0.87500000       0.12500000 </v>
   <v>       0.87500000       0.87500000       0.62500000 </v>
   <v>       0.00000000       0.25000000       0.25000000 </v>
   <v>       0.00000000       0.25000000       0.75000000 </v>
   <v>       0.00000000       0.75000000       0.25000000 </v>
   <v>       0.00000000       0.75000000       0.75000000 </v>
   <v>       0.50000000       0.25000000       0.25000000 </v>
   <v>       0.50000000       0.25000000       0.75000000 </v>
   <v>       0.50000000       0.75000000       0.25000000 </v>
   <v>       0.50000000       0.75000000       0.75000000 </v>
   <v>       0.37500000       0.12500000       0.37500000 </v>
   <v>       0.37500000       0.12500000       0.87500000 </v>
   <v>       0.37500000       0.62500000       0.37500000 </v>
   <v>       0.37500000       0.62500000       0.87500000 </v>
   <v>       0.87500000       0.12500000       0.37500000 </v>
   <v>       0.87500000       0.12500000       0.87500000 </v>
   <v>       0.87500000       0.62500000       0.37500000 </v>
   <v>       0.87500000       0.62500000       0.87500000 </v>
   <v>       0.25000000       0.00000000       0.25000000 </v>
   <v>       0.25000000       0.00000000       0.75000000 </v>
   <v>       0.25000000       0.50000000       0.25000000 </v>
   <v>       0.25000000       0.50000000       0.75000000 </v>
   <v>       0.75000000       0.00000000       0.25000000 </v>
   <v>       0.75000000       0.00000000       0.75000000 </v>
   <v>       0.75000000       0.50000000       0.25000000 </v>
   <v>       0.75000000       0.50000000       0.75000000 </v>
   <v>       0.12500000       0.37500000       0.37500000 </v>
   <v>       0.12500000       0.37500000       0.87500000 </v>
   <v>       0.12500000       0.87500000       0.37500000 </v>
   <v>       0.12500000       0.87500000       0.87500000 </v>
   <v>       0.62500000       0.37500000       0.37500000 </v>
   <v>       0.62500000       0.37500000       0.87500000 </v>
   <v>       0.62500000       0.87500000       0.37500000 </v>
   <v>       0.62500000       0.87500000       0.87500000 </v>
   <v>       0.25000000       0.25000000       0.00000000 </v>
   <v>       0.25000000       0.25000000       0.50000000 </v>
   <v>       0.25000000       0.75000000       0.00000000 </v>
   <v>       0.25000000       0.75000000       0.50000000 </v>
   <v>       0.75000000       0.25000000       0.00000000 </v>
   <v>       0.75000000       0.25000000       0.50000000 </v>
   <v>       0.75000000       0.75000000       0.00000000 </v>
   <v>       0.75000000       0.75000000       0.50000000 </v>
   <v>       0.12500000       0.12500000       0.12500000 </v>
   <v>       0.12500000       0.12500000       0.62500000 </v>
   <v>       0.12500000       0.62500000       0.12500000 </v>
   <v>       0.12500000       0.62500000       0.62500000 </v>
   <v>       0.62500000       0.12500000       0.12500000 </v>
   <v>       0.62500000       0.12500000       0.62500000 </v>
   <v>       0.62500000       0.62500000       0.12500000 </v>
   <v>       0.62500000       0.62500000       0.62500000 </v>
  </varray>
 </structure>
 <calculation>
  <scstep>
   <time name="dav">    1.29    1.38</time>
   <time name="total">    1.46    1.55</time>
   <energy>
    <i name="alphaZ">    107.89321399 </i>
    <i name="ewald">  -7319.47028250 </i>
    <i name="hartreedc">   -350.96728193 </i>
    <i name="XCdc">   -558.29788983 </i>
    <i name="pawpsdc">   5598.62625415 </i>
    <i name="pawaedc">  -4492.17844134 </i>
    <i name="eentropy">     -0.00252126 </i>
    <i name="bandstr">   1006.84849529 </i>
    <i name="atom">   6564.79586099 </i>
    <i name="e_fr_energy">    557.24740757 </i>
    <i name="e_wo_entrp">    557.24992883 </i>
    <i name="e_0_energy">    557.24824799 </i>
   </energy>
  </scstep>
  <scstep>
   <time name="dav">    1.35    1.37</time>
   <time name="total">    1.35    1.37</time>
   <energy>
    <i name="e_fr_energy">   -311.25753386 </i>
    <i name="e_wo_entrp">   -311.25565381 </i>
    <i name="e_0_energy">   -311.25690717 </i>
   </energy>
  </scstep>
  <scstep>
   <time name="dav">    1.42    1.45</time>
   <time name="total">    1.42    1.46</time>
   <energy>
    <i name="e_fr_energy">   -373.19834043 </i>
    <i name="e_wo_entrp">   -373.20618301 </i>
    <i name="e_0_energy">   -373.20095462 </i>
   </energy>
  </scstep>
  <scstep>
   <time name="dav">    1.40    1.42</time>
   <time name="total">    1.40    1.42</time>
   <energy>
    <i name="e_fr_energy">   -374.80479919 </i>
    <i name="e_wo_entrp">   -374.81327234 </i>
    <i name="e_0_energy">   -374.80762358 </i>
   </energy>
  </scstep>
  <scstep>
   <time name="dav">    1.37    1.39</time>
   <time name="total">    1.63    1.65</time>
   <energy>
    <i name="e_fr_energy">   -374.85269684 </i>
    <i name="e_wo_entrp">   -374.86117404 </i>
    <i name="e_0_energy">   -374.85552257 </i>
   </energy>
  </scstep>
  <scstep>
   <time name="diag">    0.14    0.14</time>
   <time name="diis">    0.72    0.72</time>
   <time name="orth">    0.02    0.02</time>
   <time name="total">    1.29    1.31</time>
   <energy>
    <i name="e_fr_energy">   -369.83722398 </i>
    <i name="e_wo_entrp">   -369.84602376 </i>
    <i name="e_0_energy">   -369.84015724 </i>
   </energy>
  </scstep>
  <scstep>
   <time name="diag">    0.13    0.13</time>
   <time name="diis">    0.73    0.74</time>
   <time name="orth">    0.02    0.02</time>
   <time name="total">    1.30    1.31</time>
   <energy>
    <i name="e_fr_energy">   -367.53864154 </i>
    <i name="e_wo_entrp">   -367.56884807 </i>
    <i name="e_0_energy">   -367.54871039 </i>
   </energy>
  </scstep>
  <scstep>
   <time name="diag">    0.14    0.14</time>
   <time name="diis">    0.72    0.72</time>
   <time name="orth">    0.02    0.02</time>
   <time name="total">    1.29    1.31</time>
   <energy>
    <i name="e_fr_energy">   -367.58156425 </i>
    <i name="e_wo_entrp">   -367.60886218 </i>
    <i name="e_0_energy">   -367.59066356 </i>
   </energy>
  </scstep>
  <scstep>
   <time name="diag">    0.13    0.14</time>
   <time name="diis">    0.74    0.74</time>
   <time name="orth">    0.02    0.02</time>
   <time name="total">    1.31    1.32</time>
   <energy>
    <i name="e_fr_energy">   -367.60063917 </i>
    <i name="e_wo_entrp">   -367.62856968 </i>
    <i name="e_0_energy">   -367.60994934 </i>
   </energy>
  </scstep>
  <scstep>
   <time name="diag">    0.13    0.13</time>
   <time name="diis">    0.76    0.76</time>
   <time name="orth">    0.02    0.02</time>
   <time name="total">    1.32    1.34</time>
   <energy>
    <i name="e_fr_energy">   -367.60395532 </i>
    <i name="e_wo_entrp">   -367.63191232 </i>
    <i name="e_0_energy">   -367.61327432 </i>
   </energy>
  </scstep>
  <scstep>
   <time name="diag">    0.13    0.13</time>
   <time name="diis">    0.72    0.72</time>
   <time name="orth">    0.02    0.02</time>
   <time name="total">    1.28    1.30</time>
   <energy>
    <i name="e_fr_energy">   -367.60196722 </i>
    <i name="e_wo_entrp">   -367.62899567 </i>
    <i name="e_0_energy">   -367.61097670 </i>
   </energy>
  </scstep>
  <scstep>
   <time name="diag">    0.13    0.13</time>
   <time name="diis">    0.74    0.75</time>
   <time name="orth">    0.02    0.02</time>
   <time name="total">    1.30    1.33</time>
   <energy>
    <i name="e_fr_energy">   -367.60204664 </i>
    <i name="e_wo_entrp">   -367.62902703 </i>
    <i name="e_0_energy">   -367.61104010 </i>
   </energy>
  </scstep>
  <scstep>
   <time name="diag">    0.13    0.13</time>
   <time name="diis">    0.77    0.77</time>
   <time name="orth">    0.02    0.02</time>
   <time name="total">    1.33    1.35</time>
   <energy>
    <i name="e_fr_energy">   -367.60209523 </i>
    <i name="e_wo_entrp">   -367.62907872 </i>
    <i name="e_0_energy">   -367.61108973 </i>
   </energy>
  </scstep>
  <scstep>
   <time name="diag">    0.17    0.17</time>
   <time name="diis">    0.72    0.73</time>
   <time name="orth">    0.02    0.02</time>
   <time name="total">    1.32    1.34</time>
   <energy>
    <i name="e_fr_energy">   -367.60199567 </i>
    <i name="e_wo_entrp">   -367.62895011 </i>
    <i name="e_0_energy">   -367.61098048 </i>
   </energy>
  </scstep>
  <scstep>
   <time name="diag">    0.13    0.13</time>
   <time name="diis">    0.72    0.72</time>
   <time name="orth">    0.02    0.02</time>
   <time name="total">    1.29    1.31</time>
   <energy>
    <i name="e_fr_energy">   -367.60214290 </i>
    <i name="e_wo_entrp">   -367.62904159 </i>
    <i name="e_0_energy">   -367.61110913 </i>
   </energy>
  </scstep>
  <scstep>
   <time name="diag">    0.13    0.13</time>
   <time name="diis">    0.72    0.72</time>
   <time name="orth">    0.02    0.02</time>
   <time name="total">    1.28    1.30</time>
   <energy>
    <i name="e_fr_energy">   -367.60227132 </i>
    <i name="e_wo_entrp">   -367.62916894 </i>
    <i name="e_0_energy">   -367.61123719 </i>
   </energy>
  </scstep>
  <scstep>
   <time name="diag">    0.13    0.14</time>
   <time name="diis">    0.72    0.72</time>
   <time name="orth">    0.02    0.02</time>
   <time name="total">    1.29    1.30</time>
   <energy>
    <i name="e_fr_energy">   -367.60233370 </i>
    <i name="e_wo_entrp">   -367.62922497 </i>
    <i name="e_0_energy">   -367.61129746 </i>
   </energy>
  </scstep>
  <scstep>
   <time name="diag">    0.13    0.13</time>
   <time name="diis">    0.72    0.72</time>
   <time name="orth">    0.02    0.02</time>
   <time name="total">    1.28    1.30</time>
   <energy>
    <i name="e_fr_energy">   -367.60234830 </i>
    <i name="e_wo_entrp">   -367.62923226 </i>
    <i name="e_0_energy">   -367.61130962 </i>
   </energy>
  </scstep>
  <scstep>
   <time name="diag">    0.13    0.13</time>
   <time name="diis">    0.51    0.51</time>
   <time name="orth">    0.02    0.02</time>
   <time name="total">    1.07    1.09</time>
   <energy>
    <i name="e_fr_energy">   -367.60235205 </i>
    <i name="e_wo_entrp">   -367.62923346 </i>
    <i name="e_0_energy">   -367.61131252 </i>
   </energy>
  </scstep>
  <scstep>
   <time name="diag">    0.13    0.13</time>
   <time name="diis">    0.47    0.47</time>
   <time name="orth">    0.02    0.02</time>
   <time name="total">    0.77    0.79</time>
   <energy>
    <i name="alphaZ">    107.89321399 </i>
    <i name="ewald">  -7319.47028250 </i>
    <i name="hartreedc">   -467.13056186 </i>
    <i name="XCdc">   -538.72310980 </i>
    <i name="pawpsdc">  27920.37680373 </i>
    <i name="pawaedc"> -26820.87777994 </i>
    <i name="eentropy">      0.02687995 </i>
    <i name="bandstr">    185.50662262 </i>
    <i name="atom">   6564.79586099 </i>
    <i name="e_fr_energy">   -367.60235281 </i>
    <i name="e_wo_entrp">   -367.62923276 </i>
    <i name="e_0_energy">   -367.61131279 </i>
   </energy>
  </scstep>
  <structure>
   <crystal>
    <varray name="basis" >
     <v>      10.88809061       0.02708500       0.00000000 </v>
     <v>       0.02708500      10.83392060       0.00000000 </v>
     <v>       0.00000000       0.00000000      10.83392060 </v>
    </varray>
    <i name="volume">   1277.96900891 </i>
    <varray name="rec_basis" >
     <v>       0.09184404      -0.00022961       0.00000000 </v>
     <v>      -0.00022961       0.09230326       0.00000000 </v>
     <v>       0.00000000       0.00000000       0.09230269 </v>
    </varray>
   </crystal>
   <varray name="positions" >
    <v>       0.00000000       0.00000000       0.00000000 </v>
    <v>       0.00000000       0.00000000       0.50000000 </v>
    <v>       0.00000000       0.50000000       0.00000000 </v>
    <v>       0.00000000       0.50000000       0.50000000 </v>
    <v>       0.50000000       0.00000000       0.00000000 </v>
    <v>       0.50000000       0.00000000       0.50000000 </v>
    <v>       0.50000000       0.50000000       0.00000000 </v>
    <v>       0.50000000       0.50000000       0.50000000 </v>
    <v>       0.37500000       0.37500000       0.12500000 </v>
    <v>       0.37500000       0.37500000       0.62500000 </v>
    <v>       0.37500000       0.87500000       0.12500000 </v>
    <v>       0.37500000       0.87500000       0.62500000 </v>
    <v>       0.87500000       0.37500000       0.12500000 </v>
    <v>       0.87500000       0.37500000       0.62500000 </v>
    <v>       0.87500000       0.87500000       0.12500000 </v>
    <v>       0.87500000       0.87500000       0.62500000 </v>
    <v>       0.00000000       0.25000000       0.25000000 </v>
    <v>       0.00000000       0.25000000       0.75000000 </v>
    <v>       0.00000000       0.75000000       0.25000000 </v>
    <v>       0.00000000       0.75000000       0.75000000 </v>
    <v>       0.50000000       0.25000000       0.25000000 </v>
    <v>       0.50000000       0.25000000       0.75000000 </v>
    <v>       0.50000000       0.75000000       0.25000000 </v>
    <v>       0.50000000       0.75000000       0.75000000 </v>
    <v>       0.37500000       0.12500000       0.37500000 </v>
    <v>       0.37500000       0.12500000       0.87500000 </v>
    <v>       0.37500000       0.62500000       0.37500000 </v>
    <v>       0.37500000       0.62500000       0.87500000 </v>
    <v>       0.87500000       0.12500000       0.37500000 </v>
    <v>       0.87500000       0.12500000       0.87500000 </v>
    <v>       0.87500000       0.62500000       0.37500000 </v>
    <v>       0.87500000       0.62500000       0.87500000 </v>
    <v>       0.25000000       0.00000000       0.25000000 </v>
    <v>       0.25000000       0.00000000       0.75000000 </v>
    <v>       0.25000000       0.50000000       0.25000000 </v>
    <v>       0.25000000       0.50000000       0.75000000 </v>
    <v>       0.75000000       0.00000000       0.25000000 </v>
    <v>       0.75000000       0.00000000       0.75000000 </v>
    <v>       0.75000000       0.50000000       0.25000000 </v>
    <v>       0.75000000       0.50000000       0.75000000 </v>
    <v>       0.12500000       0.37500000       0.37500000 </v>
    <v>       0.12500000       0.37500000       0.87500000 </v>
    <v>       0.12500000       0.87500000       0.37500000 </v>
    <v>       0.12500000       0.87500000       0.87500000 </v>
    <v>       0.62500000       0.37500000       0.37500000 </v>
    <v>       0.62500000       0.37500000       0.87500000 </v>
    <v>       0.62500000       0.87500000       0.37500000 </v>
    <v>       0.62500000       0.87500000       0.87500000 </v>
    <v>       0.25000000       0.25000000       0.00000000 </v>
    <v>       0.25000000       0.25000000       0.50000000 </v>
    <v>       0.25000000       0.75000000       0.00000000 </v>
    <v>       0.25000000       0.75000000       0.50000000 </v>
    <v>       0.75000000       0.25000000       0.00000000 </v>
    <v>       0.75000000       0.25000000       0.50000000 </v>
    <v>       0.75000000       0.75000000       0.00000000 </v>
    <v>       0.75000000       0.75000000       0.50000000 </v>
    <v>       0.12500000       0.12500000       0.12500000 </v>
    <v>       0.12500000       0.12500000       0.62500000 </v>
    <v>       0.12500000       0.62500000       0.12500000 </v>
    <v>       0.12500000       0.62500000       0.62500000 </v>
    <v>       0.62500000       0.12500000       0.12500000 </v>
    <v>       0.62500000       0.12500000       0.62500000 </v>
    <v>       0.62500000       0.62500000       0.12500000 </v>
    <v>       0.62500000       0.62500000       0.62500000 </v>
   </varray>
  </structure>
  <varray name="forces" >
   <v>       0.00000000      -0.00000000       0.05039997 </v>
   <v>       0.00000000      -0.00000000       0.05039997 </v>
   <v>       0.00000000       0.00000000       0.05039997 </v>
   <v>       0.00000000       0.00000000       0.05039997 </v>
   <v>      -0.00000000       0.00000000       0.05039997 </v>
   <v>      -0.00000000      -0.00000000       0.05039997 </v>
   <v>      -0.00000000      -0.00000000       0.05039997 </v>
   <v>      -0.00000000       0.00000000       0.05039997 </v>
   <v>       0.00000000       0.00000000      -0.05039997 </v>
   <v>       0.00000000      -0.00000000      -0.05039997 </v>
   <v>       0.00000000       0.00000000      -0.05039997 </v>
   <v>       0.00000000      -0.00000000      -0.05039997 </v>
   <v>      -0.00000000      -0.00000000      -0.05039997 </v>
   <v>      -0.00000000      -0.00000000      -0.05039997 </v>
   <v>       0.00000000       0.00000000      -0.05039997 </v>
   <v>      -0.00000000      -0.00000000      -0.05039997 </v>
   <v>       0.00000000      -0.00000000       0.05039997 </v>
   <v>       0.00000000       0.00000000       0.05039997 </v>
   <v>       0.00000000      -0.00000000       0.05039997 </v>
   <v>       0.00000000      -0.00000000       0.05039997 </v>
   <v>      -0.00000000      -0.00000000       0.05039997 </v>
   <v>      -0.00000000       0.00000000       0.05039997 </v>
   <v>      -0.00000000       0.00000000       0.05039997 </v>
   <v>      -0.00000000       0.00000000       0.05039997 </v>
   <v>       0.00000000       0.00000000      -0.05039997 </v>
   <v>       0.00000000       0.00000000      -0.05039997 </v>
   <v>       0.00000000      -0.00000000      -0.05039997 </v>
   <v>       0.00000000       0.00000000      -0.05039997 </v>
   <v>      -0.00000000      -0.00000000      -0.05039997 </v>
   <v>      -0.00000000      -0.00000000      -0.05039997 </v>
   <v>      -0.00000000      -0.00000000      -0.05039997 </v>
   <v>      -0.00000000      -0.00000000      -0.05039997 </v>
   <v>       0.00000000      -0.00000000       0.05039997 </v>
   <v>      -0.00000000      -0.00000000       0.05039997 </v>
   <v>       0.00000000      -0.00000000       0.05039997 </v>
   <v>       0.00000000      -0.00000000       0.05039997 </v>
   <v>      -0.00000000       0.00000000       0.05039997 </v>
   <v>      -0.00000000      -0.00000000       0.05039997 </v>
   <v>       0.00000000      -0.00000000       0.05039997 </v>
   <v>      -0.00000000      -0.00000000       0.05039997 </v>
   <v>      -0.00000000       0.00000000      -0.05039997 </v>
   <v>      -0.00000000       0.00000000      -0.05039997 </v>
   <v>      -0.00000000       0.00000000      -0.05039997 </v>
   <v>      -0.00000000       0.00000000      -0.05039997 </v>
   <v>       0.00000000      -0.00000000      -0.05039997 </v>
   <v>       0.00000000      -0.00000000      -0.05039997 </v>
   <v>       0.00000000       0.00000000      -0.05039997 </v>
   <v>       0.00000000      -0.00000000      -0.05039997 </v>
   <v>       0.00000000       0.00000000       0.05039997 </v>
   <v>       0.00000000      -0.00000000       0.05039997 </v>
   <v>       0.00000000      -0.00000000       0.05039997 </v>
   <v>       0.00000000      -0.00000000       0.05039997 </v>
   <v>      -0.00000000      -0.00000000       0.05039997 </v>
   <v>      -0.00000000      -0.00000000       0.05039997 </v>
   <v>      -0.00000000      -0.00000000       0.05039997 </v>
   <v>      -0.00000000       0.00000000       0.05039997 </v>
   <v>      -0.00000000       0.00000000      -0.05039997 </v>
   <v>      -0.00000000       0.00000000      -0.05039997 </v>
   <v>      -0.00000000       0.00000000      -0.05039997 </v>
   <v>      -0.00000000       0.00000000      -0.05039997 </v>
   <v>       0.00000000       0.00000000      -0.05039997 </v>
   <v>       0.00000000      -0.00000000      -0.05039997 </v>
   <v>       0.00000000       0.00000000      -0.05039997 </v>
   <v>       0.00000000       0.00000000      -0.05039997 </v>
  </varray>
  <varray name="stress" >
   <v>       2.26043867      -5.13161027       0.00000000 </v>
   <v>      -5.13161025       6.73841718       0.00000000 </v>
   <v>       0.00000000       0.00000000       6.70449435 </v>
  </varray>
  <energy>
   <i name="e_fr_energy">   -367.60235281 </i>
   <i name="e_wo_entrp">   -367.62923276 </i>
   <i name="e_0_energy">   -367.61131279 </i>
  </energy>
  <time name="totalsc">   29.74   30.19</time>
 </calculation>
 <calculation>
  <scstep>
   <time name="dav">    1.33    1.34</time>
   <time name="total">    1.74    1.74</time>
   <energy>
    <i name="alphaZ">    107.89321399 </i>
    <i name="ewald">  -7319.52228794 </i>
    <i name="hartreedc">   -467.11107856 </i>
    <i name="XCdc">   -538.72271892 </i>
    <i name="pawpsdc">  27927.67352067 </i>
    <i name="pawaedc"> -26828.17441894 </i>
    <i name="eentropy">      0.02699280 </i>
    <i name="bandstr">    185.53637935 </i>
    <i name="atom">   6564.79586099 </i>
    <i name="e_fr_energy">   -367.60453656 </i>
    <i name="e_wo_entrp">   -367.63152936 </i>
    <i name="e_0_energy">   -367.61353416 </i>
   </energy>
  </scstep>
  <scstep>
   <time name="diag">    0.13    0.13</time>
   <time name="diis">    0.72    0.72</time>
   <time name="orth">    0.02    0.02</time>
   <time name="total">    1.29    1.30</time>
   <energy>
    <i name="e_fr_energy">   -367.60504889 </i>
    <i name="e_wo_entrp">   -367.63204228 </i>
    <i name="e_0_energy">   -367.61404669 </i>
   </energy>
  </scstep>
  <scstep>
   <time name="diag">    0.14    0.14</time>
   <time name="diis">    0.74    0.74</time>
   <time name="orth">    0.02    0.02</time>
   <time name="total">    1.31    1.32</time>
   <energy>
    <i name="e_fr_energy">   -367.60513541 </i>
    <i name="e_wo_entrp">   -367.63212468 </i>
    <i name="e_0_energy">   -367.61413183 </i>
   </energy>
  </scstep>
  <scstep>
   <time name="diag">    0.13    0.14</time>
   <time name="diis">    0.74    0.75</time>
   <time name="orth">    0.02    0.02</time>
   <time name="total">    1.30    1.32</time>
   <energy>
    <i name="e_fr_energy">   -367.60513699 </i>
    <i name="e_wo_entrp">   -367.63212228 </i>
    <i name="e_0_energy">   -367.61413209 </i>
   </energy>
  </scstep>
  <scstep>
   <time name="diag">    0.13    0.13</time>
   <time name="diis">    0.73    0.73</time>
   <time name="orth">    0.02    0.02</time>
   <time name="total">    1.29    1.31</time>
   <energy>
    <i name="e_fr_energy">   -367.60513779 </i>
    <i name="e_wo_entrp">   -367.63212162 </i>
    <i name="e_0_energy">   -367.61413240 </i>
   </energy>
  </scstep>
  <scstep>
   <time name="diag">    0.13    0.13</time>
   <time name="diis">    0.57    0.57</time>
   <time name="orth">    0.02    0.02</time>
   <time name="total">    1.14    1.15</time>
   <energy>
    <i name="e_fr_energy">   -367.60513825 </i>
    <i name="e_wo_entrp">   -367.63212212 </i>
    <i name="e_0_energy">   -367.61413288 </i>
   </energy>
  </scstep>
  <scstep>
   <time name="diag">    0.13    0.13</time>
   <time name="diis">    0.46    0.47</time>
   <time name="orth">    0.02    0.02</time>
   <time name="total">    1.03    1.04</time>
   <energy>
    <i name="e_fr_energy">   -367.60513833 </i>
    <i name="e_wo_entrp">   -367.63212223 </i>
    <i name="e_0_energy">   -367.61413296 </i>
   </energy>
  </scstep>
  <scstep>
   <time name="diag">    0.13    0.13</time>
   <time name="diis">    0.44    0.44</time>
   <time name="orth">    0.02    0.02</time>
   <time name="total">    0.75    0.76</time>
   <energy>
    <i name="alphaZ">    107.89321399 </i>
    <i name="ewald">  -7319.52228794 </i>
    <i name="hartreedc">   -467.10335346 </i>
    <i name="XCdc">   -538.72354735 </i>
    <i name="pawpsdc">  27933.52743470 </i>
    <i name="pawaedc"> -26834.02720740 </i>
    <i name="eentropy">      0.02698390 </i>
    <i name="bandstr">    185.52776422 </i>
    <i name="atom">   6564.79586099 </i>
    <i name="e_fr_energy">   -367.60513835 </i>
    <i name="e_wo_entrp">   -367.63212224 </i>
    <i name="e_0_energy">   -367.61413298 </i>
   </energy>
  </scstep>
  <structure>
   <crystal>
    <varray name="basis" >
     <v>      10.88809061       0.02708500       0.00000000 </v>
     <v>       0.02708500      10.83392060       0.00000000 </v>
     <v>       0.00000000       0.00000000      10.83392060 </v>
    </varray>
    <i name="volume">   1277.96900891 </i>
    <varray name="rec_basis" >
     <v>       0.09184404      -0.00022961       0.00000000 </v>
     <v>      -0.00022961       0.09230326       0.00000000 </v>
     <v>       0.00000000       0.00000000       0.09230269 </v>
    </varray>
   </crystal>
   <varray name="positions" >
    <v>       0.00000000       1.00000000       0.00022443 </v>
    <v>       0.00000000       1.00000000       0.50022443 </v>
    <v>       0.00000000       0.50000000       0.00022443 </v>
    <v>       0.00000000       0.50000000       0.50022443 </v>
    <v>       0.50000000       0.00000000       0.00022443 </v>
    <v>       0.50000000       1.00000000       0.50022443 </v>
    <v>       0.50000000       0.50000000       0.00022443 </v>
    <v>       0.50000000       0.50000000       0.50022443 </v>
    <v>       0.37500000       0.37500000       0.12477557 </v>
    <v>       0.37500000       0.37500000       0.62477557 </v>
    <v>       0.37500000       0.87500000       0.12477557 </v>
    <v>       0.37500000       0.87500000       0.62477557 </v>
    <v>       0.87500000       0.37500000       0.12477557 </v>
    <v>       0.87500000       0.37500000       0.62477557 </v>
    <v>       0.87500000       0.87500000       0.12477557 </v>
    <v>       0.87500000       0.87500000       0.62477557 </v>
    <v>       0.00000000       0.25000000       0.25022443 </v>
    <v>       0.00000000       0.25000000       0.75022443 </v>
    <v>       0.00000000       0.75000000       0.25022443 </v>
    <v>       0.00000000       0.75000000       0.75022443 </v>
    <v>       0.50000000       0.25000000       0.25022443 </v>
    <v>       0.50000000       0.25000000       0.75022443 </v>
    <v>       0.50000000       0.75000000       0.25022443 </v>
    <v>       0.50000000       0.75000000       0.75022443 </v>
    <v>       0.37500000       0.12500000       0.37477557 </v>
    <v>       0.37500000       0.12500000       0.87477557 </v>
    <v>       0.37500000       0.62500000       0.37477557 </v>
    <v>       0.37500000       0.62500000       0.87477557 </v>
    <v>       0.87500000       0.12500000       0.37477557 </v>
    <v>       0.87500000       0.12500000       0.87477557 </v>
    <v>       0.87500000       0.62500000       0.37477557 </v>
    <v>       0.87500000       0.62500000       0.87477557 </v>
    <v>       0.25000000       1.00000000       0.25022443 </v>
    <v>       0.25000000       1.00000000       0.75022443 </v>
    <v>       0.25000000       0.50000000       0.25022443 </v>
    <v>       0.25000000       0.50000000       0.75022443 </v>
    <v>       0.75000000       0.00000000       0.25022443 </v>
    <v>       0.75000000       1.00000000       0.75022443 </v>
    <v>       0.75000000       0.50000000       0.25022443 </v>
    <v>       0.75000000       0.50000000       0.75022443 </v>
    <v>       0.12500000       0.37500000       0.37477557 </v>
    <v>       0.12500000       0.37500000       0.87477557 </v>
    <v>       0.12500000       0.87500000       0.37477557 </v>
    <v>       0.12500000       0.87500000       0.87477557 </v>
    <v>       0.62500000       0.37500000       0.37477557 </v>
    <v>       0.62500000       0.37500000       0.87477557 </v>
    <v>       0.62500000       0.87500000       0.37477557 </v>
    <v>       0.62500000       0.87500000       0.87477557 </v>
    <v>       0.25000000       0.25000000       0.00022443 </v>
    <v>       0.25000000       0.25000000       0.50022443 </v>
    <v>       0.25000000       0.75000000       0.00022443 </v>
    <v>       0.25000000       0.75000000       0.50022443 </v>
    <v>       0.75000000       0.25000000       0.00022443 </v>
    <v>       0.75000000       0.25000000       0.50022443 </v>
    <v>       0.75000000       0.75000000       0.00022443 </v>
    <v>       0.75000000       0.75000000       0.50022443 </v>
    <v>       0.12500000       0.12500000       0.12477557 </v>
    <v>       0.12500000       0.12500000       0.62477557 </v>
    <v>       0.12500000       0.62500000       0.12477557 </v>
    <v>       0.12500000       0.62500000       0.62477557 </v>
    <v>       0.62500000       0.12500000       0.12477557 </v>
    <v>       0.62500000       0.12500000       0.62477557 </v>
    <v>       0.62500000       0.62500000       0.12477557 </v>
    <v>       0.62500000       0.62500000       0.62477557 </v>
   </varray>
  </structure>
  <varray name="forces" >
   <v>       0.00000000      -0.00000000      -0.01457992 </v>
   <v>       0.00000000       0.00000000      -0.01457992 </v>
   <v>       0.00000000      -0.00000000      -0.01457992 </v>
   <v>       0.00000000      -0.00000000      -0.01457992 </v>
   <v>      -0.00000000       0.00000000      -0.01457992 </v>
   <v>      -0.00000000       0.00000000      -0.01457992 </v>
   <v>      -0.00000000      -0.00000000      -0.01457992 </v>
   <v>      -0.00000000       0.00000000      -0.01457992 </v>
   <v>       0.00000000      -0.00000000       0.01457992 </v>
   <v>       0.00000000      -0.00000000       0.01457992 </v>
   <v>       0.00000000       0.00000000       0.01457992 </v>
   <v>       0.00000000       0.00000000       0.01457992 </v>
   <v>      -0.00000000      -0.00000000       0.01457992 </v>
   <v>      -0.00000000       0.00000000       0.01457992 </v>
   <v>      -0.00000000       0.00000000       0.01457992 </v>
   <v>      -0.00000000       0.00000000       0.01457992 </v>
   <v>       0.00000000       0.00000000      -0.01457992 </v>
   <v>       0.00000000      -0.00000000      -0.01457992 </v>
   <v>       0.00000000      -0.00000000      -0.01457992 </v>
   <v>       0.00000000       0.00000000      -0.01457992 </v>
   <v>      -0.00000000       0.00000000      -0.01457992 </v>
   <v>      -0.00000000       0.00000000      -0.01457992 </v>
   <v>      -0.00000000       0.00000000      -0.01457992 </v>
   <v>      -0.00000000       0.00000000      -0.01457992 </v>
   <v>       0.00000000      -0.00000000       0.01457992 </v>
   <v>       0.00000000      -0.00000000       0.01457992 </v>
   <v>       0.00000000      -0.00000000       0.01457992 </v>
   <v>       0.00000000       0.00000000       0.01457992 </v>
   <v>      -0.00000000      -0.00000000       0.01457992 </v>
   <v>      -0.00000000       0.00000000       0.01457992 </v>
   <v>      -0.00000000       0.00000000       0.01457992 </v>
   <v>      -0.00000000      -0.00000000       0.01457992 </v>
   <v>      -0.00000000      -0.00000000      -0.01457992 </v>
   <v>      -0.00000000       0.00000000      -0.01457992 </v>
   <v>       0.00000000      -0.00000000      -0.01457992 </v>
   <v>       0.00000000       0.00000000      -0.01457992 </v>
   <v>      -0.00000000      -0.00000000      -0.01457992 </v>
   <v>      -0.00000000      -0.00000000      -0.01457992 </v>
   <v>       0.00000000       0.00000000      -0.01457992 </v>
   <v>      -0.00000000       0.00000000      -0.01457992 </v>
   <v>      -0.00000000       0.00000000       0.01457992 </v>
   <v>      -0.00000000       0.00000000       0.01457992 </v>
   <v>      -0.00000000      -0.00000000       0.01457992 </v>
   <v>      -0.00000000       0.00000000       0.01457992 </v>
   <v>       0.00000000      -0.00000000       0.01457992 </v>
   <v>       0.00000000       0.00000000       0.01457992 </v>
   <v>       0.00000000       0.00000000       0.01457992 </v>
   <v>       0.00000000      -0.00000000       0.01457992 </v>
   <v>      -0.00000000       0.00000000      -0.01457992 </v>
   <v>       0.00000000      -0.00000000      -0.01457992 </v>
   <v>       0.00000000      -0.00000000      -0.01457992 </v>
   <v>       0.00000000      -0.00000000      -0.01457992 </v>
   <v>       0.00000000      -0.00000000      -0.01457992 </v>
   <v>       0.00000000       0.00000000      -0.01457992 </v>
   <v>      -0.00000000       0.00000000      -0.01457992 </v>
   <v>      -0.00000000      -0.00000000      -0.01457992 </v>
   <v>      -0.00000000       0.00000000       0.01457992 </v>
   <v>      -0.00000000       0.00000000       0.01457992 </v>
   <v>      -0.00000000       0.00000000       0.01457992 </v>
   <v>      -0.00000000      -0.00000000       0.01457992 </v>
   <v>       0.00000000      -0.00000000       0.01457992 </v>
   <v>       0.00000000       0.00000000       0.01457992 </v>
   <v>       0.00000000      -0.00000000       0.01457992 </v>
   <v>       0.00000000       0.00000000       0.01457992 </v>
  </varray>
  <varray name="stress" >
   <v>       2.23932340      -3.16153812       0.00000000 </v>
   <v>      -3.16153814       6.72857753       0.00000000 </v>
   <v>       0.00000000       0.00000000       6.64535750 </v>
  </varray>
  <energy>
   <i name="e_fr_energy">   -367.60513835 </i>
   <i name="e_wo_entrp">   -367.63212224 </i>
   <i name="e_0_energy">   -367.61413298 </i>
  </energy>
  <time name="totalsc">   13.49   13.68</time>
 </calculation>
 <calculation>
  <scstep>
   <time name="dav">    1.33    1.34</time>
   <time name="total">    1.74    1.74</time>
   <energy>
    <i name="alphaZ">    107.89321399 </i>
    <i name="ewald">  -7319.51219933 </i>
    <i name="hartreedc">   -467.10930005 </i>
    <i name="XCdc">   -538.72327889 </i>
    <i name="pawpsdc">  27933.50687326 </i>
    <i name="pawaedc"> -26834.00664376 </i>
    <i name="eentropy">      0.02694860 </i>
    <i name="bandstr">    185.52316249 </i>
    <i name="atom">   6564.79586099 </i>
    <i name="e_fr_energy">   -367.60536271 </i>
    <i name="e_wo_entrp">   -367.63231131 </i>
    <i name="e_0_energy">   -367.61434557 </i>
   </energy>
  </scstep>
  <scstep>
   <time name="diag">    0.13    0.13</time>
   <time name="diis">    0.72    0.72</time>
   <time name="orth">    0.02    0.02</time>
   <time name="total">    1.28    1.30</time>
   <energy>
    <i name="e_fr_energy">   -367.60538821 </i>
    <i name="e_wo_entrp">   -367.63233653 </i>
    <i name="e_0_energy">   -367.61437098 </i>
   </energy>
  </scstep>
  <scstep>
   <time name="diag">    0.13    0.13</time>
   <time name="diis">    0.74    0.74</time>
   <time name="orth">    0.02    0.02</time>
   <time name="total">    1.31    1.33</time>
   <energy>
    <i name="e_fr_energy">   -367.60539252 </i>
    <i name="e_wo_entrp">   -367.63234151 </i>
    <i name="e_0_energy">   -367.61437552 </i>
   </energy>
  </scstep>
  <scstep>
   <time name="diag">    0.13    0.13</time>
   <time name="diis">    0.60    0.60</time>
   <time name="orth">    0.02    0.02</time>
   <time name="total">    1.15    1.20</time>
   <energy>
    <i name="e_fr_energy">   -367.60539262 </i>
    <i name="e_wo_entrp">   -367.63234235 </i>
    <i name="e_0_energy">   -367.61437586 </i>
   </energy>
  </scstep>
  <scstep>
   <time name="diag">    0.13    0.13</time>
   <time name="diis">    0.47    0.47</time>
   <time name="orth">    0.02    0.02</time>
   <time name="total">    1.03    1.05</time>
   <energy>
    <i name="e_fr_energy">   -367.60539267 </i>
    <i name="e_wo_entrp">   -367.63234269 </i>
    <i name="e_0_energy">   -367.61437601 </i>
   </energy>
  </scstep>
  <scstep>
   <time name="diag">    0.13    0.13</time>
   <time name="diis">    0.44    0.44</time>
   <time name="orth">    0.02    0.02</time>
   <time name="total">    1.01    1.01</time>
   <energy>
    <i name="e_fr_energy">   -367.60539269 </i>
    <i name="e_wo_entrp">   -367.63234270 </i>
    <i name="e_0_energy">   -367.61437603 </i>
   </energy>
  </scstep>
  <scstep>
   <time name="diag">    0.13    0.13</time>
   <time name="diis">    0.36    0.36</time>
   <time name="orth">    0.02    0.02</time>
   <time name="total">    0.92    0.94</time>
   <energy>
    <i name="e_fr_energy">   -367.60539270 </i>
    <i name="e_wo_entrp">   -367.63234271 </i>
    <i name="e_0_energy">   -367.61437604 </i>
   </energy>
  </scstep>
  <scstep>
   <time name="diag">    0.13    0.13</time>
   <time name="diis">    0.32    0.32</time>
   <time name="orth">    0.02    0.02</time>
   <time name="total">    0.62    0.64</time>
   <energy>
    <i name="alphaZ">    107.89321399 </i>
    <i name="ewald">  -7319.51219933 </i>
    <i name="hartreedc">   -467.10941996 </i>
    <i name="XCdc">   -538.72316006 </i>
    <i name="pawpsdc">  27933.87815415 </i>
    <i name="pawaedc"> -26834.37808369 </i>
    <i name="eentropy">      0.02695001 </i>
    <i name="bandstr">    185.52329120 </i>
    <i name="atom">   6564.79586099 </i>
    <i name="e_fr_energy">   -367.60539270 </i>
    <i name="e_wo_entrp">   -367.63234271 </i>
    <i name="e_0_energy">   -367.61437604 </i>
   </energy>
  </scstep>
  <structure>
   <crystal>
    <varray name="basis" >
     <v>      10.88809061       0.02708500       0.00000000 </v>
     <v>       0.02708500      10.83392060       0.00000000 </v>
     <v>       0.00000000       0.00000000      10.83392060 </v>
    </varray>
    <i name="volume">   1277.96900891 </i>
    <varray name="rec_basis" >
     <v>       0.09184404      -0.00022961       0.00000000 </v>
     <v>      -0.00022961       0.09230326       0.00000000 </v>
     <v>       0.00000000       0.00000000       0.09230269 </v>
    </varray>
   </crystal>
   <varray name="positions" >
    <v>       0.00000000       0.00000000       0.00017407 </v>
    <v>       0.00000000       0.00000000       0.50017407 </v>
    <v>       0.00000000       0.50000000       0.00017407 </v>
    <v>       0.00000000       0.50000000       0.50017407 </v>
    <v>       0.50000000       0.00000000       0.00017407 </v>
    <v>       0.50000000       0.00000000       0.50017407 </v>
    <v>       0.50000000       0.50000000       0.00017407 </v>
    <v>       0.50000000       0.50000000       0.50017407 </v>
    <v>       0.37500000       0.37500000       0.12482593 </v>
    <v>       0.37500000       0.37500000       0.62482593 </v>
    <v>       0.37500000       0.87500000       0.12482593 </v>
    <v>       0.37500000       0.87500000       0.62482593 </v>
    <v>       0.87500000       0.37500000       0.12482593 </v>
    <v>       0.87500000       0.37500000       0.62482593 </v>
    <v>       0.87500000       0.87500000       0.12482593 </v>
    <v>       0.87500000       0.87500000       0.62482593 </v>
    <v>       0.00000000       0.25000000       0.25017407 </v>
    <v>       0.00000000       0.25000000       0.75017407 </v>
    <v>       0.00000000       0.75000000       0.25017407 </v>
    <v>       0.00000000       0.75000000       0.75017407 </v>
    <v>       0.50000000       0.25000000       0.25017407 </v>
    <v>       0.50000000       0.25000000       0.75017407 </v>
    <v>       0.50000000       0.75000000       0.25017407 </v>
    <v>       0.50000000       0.75000000       0.75017407 </v>
    <v>       0.37500000       0.12500000       0.37482593 </v>
    <v>       0.37500000       0.12500000       0.87482593 </v>
    <v>       0.37500000       0.62500000       0.37482593 </v>
    <v>       0.37500000       0.62500000       0.87482593 </v>
    <v>       0.87500000       0.12500000       0.37482593 </v>
    <v>       0.87500000       0.12500000       0.87482593 </v>
    <v>       0.87500000       0.62500000       0.37482593 </v>
    <v>       0.87500000       0.62500000       0.87482593 </v>
    <v>       0.25000000       0.00000000       0.25017407 </v>
    <v>       0.25000000       0.00000000       0.75017407 </v>
    <v>       0.25000000       0.50000000       0.25017407 </v>
    <v>       0.25000000       0.50000000       0.75017407 </v>
    <v>       0.75000000       0.00000000       0.25017407 </v>
    <v>       0.75000000       0.00000000       0.75017407 </v>
    <v>       0.75000000       0.50000000       0.25017407 </v>
    <v>       0.75000000       0.50000000       0.75017407 </v>
    <v>       0.12500000       0.37500000       0.37482593 </v>
    <v>       0.12500000       0.37500000       0.87482593 </v>
    <v>       0.12500000       0.87500000       0.37482593 </v>
    <v>       0.12500000       0.87500000       0.87482593 </v>
    <v>       0.62500000       0.37500000       0.37482593 </v>
    <v>       0.62500000       0.37500000       0.87482593 </v>
    <v>       0.62500000       0.87500000       0.37482593 </v>
    <v>       0.62500000       0.87500000       0.87482593 </v>
    <v>       0.25000000       0.25000000       0.00017407 </v>
    <v>       0.25000000       0.25000000       0.50017407 </v>
    <v>       0.25000000       0.75000000       0.00017407 </v>
    <v>       0.25000000       0.75000000       0.50017407 </v>
    <v>       0.75000000       0.25000000       0.00017407 </v>
    <v>       0.75000000       0.25000000       0.50017407 </v>
    <v>       0.75000000       0.75000000       0.00017407 </v>
    <v>       0.75000000       0.75000000       0.50017407 </v>
    <v>       0.12500000       0.12500000       0.12482593 </v>
    <v>       0.12500000       0.12500000       0.62482593 </v>
    <v>       0.12500000       0.62500000       0.12482593 </v>
    <v>       0.12500000       0.62500000       0.62482593 </v>
    <v>       0.62500000       0.12500000       0.12482593 </v>
    <v>       0.62500000       0.12500000       0.62482593 </v>
    <v>       0.62500000       0.62500000       0.12482593 </v>
    <v>       0.62500000       0.62500000       0.62482593 </v>
   </varray>
  </structure>
  <varray name="forces" >
   <v>       0.00000000       0.00000000       0.00004687 </v>
   <v>       0.00000000      -0.00000000       0.00004687 </v>
   <v>       0.00000000      -0.00000000       0.00004687 </v>
   <v>       0.00000000      -0.00000000       0.00004687 </v>
   <v>      -0.00000000       0.00000000       0.00004687 </v>
   <v>      -0.00000000       0.00000000       0.00004687 </v>
   <v>      -0.00000000      -0.00000000       0.00004687 </v>
   <v>      -0.00000000      -0.00000000       0.00004687 </v>
   <v>       0.00000000      -0.00000000      -0.00004687 </v>
   <v>       0.00000000      -0.00000000      -0.00004687 </v>
   <v>       0.00000000       0.00000000      -0.00004687 </v>
   <v>       0.00000000       0.00000000      -0.00004687 </v>
   <v>      -0.00000000       0.00000000      -0.00004687 </v>
   <v>      -0.00000000       0.00000000      -0.00004687 </v>
   <v>       0.00000000       0.00000000      -0.00004687 </v>
   <v>      -0.00000000      -0.00000000      -0.00004687 </v>
   <v>       0.00000000      -0.00000000       0.00004687 </v>
   <v>       0.00000000       0.00000000       0.00004687 </v>
   <v>       0.00000000      -0.00000000       0.00004687 </v>
   <v>       0.00000000      -0.00000000       0.00004687 </v>
   <v>      -0.00000000      -0.00000000       0.00004687 </v>
   <v>      -0.00000000      -0.00000000       0.00004687 </v>
   <v>      -0.00000000       0.00000000       0.00004687 </v>
   <v>      -0.00000000      -0.00000000       0.00004687 </v>
   <v>       0.00000000       0.00000000      -0.00004687 </v>
   <v>       0.00000000       0.00000000      -0.00004687 </v>
   <v>       0.00000000      -0.00000000      -0.00004687 </v>
   <v>      -0.00000000      -0.00000000      -0.00004687 </v>
   <v>      -0.00000000       0.00000000      -0.00004687 </v>
   <v>      -0.00000000      -0.00000000      -0.00004687 </v>
   <v>      -0.00000000       0.00000000      -0.00004687 </v>
   <v>       0.00000000       0.00000000      -0.00004687 </v>
   <v>       0.00000000      -0.00000000       0.00004687 </v>
   <v>       0.00000000      -0.00000000       0.00004687 </v>
   <v>      -0.00000000       0.00000000       0.00004687 </v>
   <v>       0.00000000      -0.00000000       0.00004687 </v>
   <v>       0.00000000       0.00000000       0.00004687 </v>
   <v>       0.00000000      -0.00000000       0.00004687 </v>
   <v>      -0.00000000       0.00000000       0.00004687 </v>
   <v>      -0.00000000       0.00000000       0.00004687 </v>
   <v>      -0.00000000      -0.00000000      -0.00004687 </v>
   <v>      -0.00000000      -0.00000000      -0.00004687 </v>
   <v>      -0.00000000      -0.00000000      -0.00004687 </v>
   <v>      -0.00000000      -0.00000000      -0.00004687 </v>
   <v>       0.00000000       0.00000000      -0.00004687 </v>
   <v>       0.00000000      -0.00000000      -0.00004687 </v>
   <v>      -0.00000000      -0.00000000      -0.00004687 </v>
   <v>       0.00000000      -0.00000000      -0.00004687 </v>
   <v>       0.00000000      -0.00000000       0.00004687 </v>
   <v>       0.00000000       0.00000000       0.00004687 </v>
   <v>       0.00000000      -0.00000000       0.00004687 </v>
   <v>       0.00000000       0.00000000       0.00004687 </v>
   <v>      -0.00000000       0.00000000       0.00004687 </v>
   <v>       0.00000000      -0.00000000       0.00004687 </v>
   <v>       0.00000000       0.00000000       0.00004687 </v>
   <v>       0.00000000       0.00000000       0.00004687 </v>
   <v>      -0.00000000       0.00000000      -0.00004687 </v>
   <v>      -0.00000000      -0.00000000      -0.00004687 </v>
   <v>      -0.00000000      -0.00000000      -0.00004687 </v>
   <v>      -0.00000000       0.00000000      -0.00004687 </v>
   <v>       0.00000000      -0.00000000      -0.00004687 </v>
   <v>       0.00000000      -0.00000000      -0.00004687 </v>
   <v>       0.00000000       0.00000000      -0.00004687 </v>
   <v>      -0.00000000      -0.00000000      -0.00004687 </v>
  </varray>
  <varray name="stress" >
   <v>       2.24262441      -3.60322561       0.00000000 </v>
   <v>      -3.60322568       6.72894843       0.00000000 </v>
   <v>       0.00000000       0.00000000       6.66082904 </v>
  </varray>
  <energy>
   <i name="e_fr_energy">   -367.60539270 </i>
   <i name="e_wo_entrp">   -367.63234271 </i>
   <i name="e_0_energy">   -367.61437604 </i>
  </energy>
  <time name="totalsc">   12.53   12.73</time>
  <eigenvalues>
   <array>
    <dimension dim="1">band</dimension>
    <dimension dim="2">kpoint</dimension>
    <dimension dim="3">spin</dimension>
    <field>eigene</field>
    <field>occ</field>
    <set>
     <set comment="spin 1">
      <set comment="kpoint 1">
       <r>   -6.1901    1.0000 </r>
       <r>   -5.1075    1.0000 </r>
       <r>   -5.1075    1.0000 </r>
       <r>   -5.0984    1.0000 </r>
       <r>   -5.0984    1.0000 </r>
       <r>   -5.0983    1.0000 </r>
       <r>   -5.0983    1.0000 </r>
       <r>   -4.1447    1.0000 </r>
       <r>   -4.1447    1.0000 </r>
       <r>   -4.1328    1.0000 </r>
       <r>   -4.1328    1.0000 </r>
       <r>   -4.1328    1.0000 </r>
       <r>   -4.1328    1.0000 </r>
       <r>   -4.1264    1.0000 </r>
       <r>   -4.1264    1.0000 </r>
       <r>   -4.1264    1.0000 </r>
       <r>   -4.1264    1.0000 </r>
       <r>   -4.1208    1.0000 </r>
       <r>   -4.1208    1.0000 </r>
       <r>   -3.8458    1.0000 </r>
       <r>   -3.8458    1.0000 </r>
       <r>   -3.8208    1.0000 </r>
       <r>   -3.8208    1.0000 </r>
       <r>   -2.0391    1.0000 </r>
       <r>   -2.0391    1.0000 </r>
       <r>   -2.0183    1.0000 </r>
       <r>   -2.0092    1.0000 </r>
       <r>   -2.0092    1.0000 </r>
       <r>   -2.0005    1.0000 </r>
       <r>   -1.8651    1.0000 </r>
       <r>   -1.8651    1.0000 </r>
       <r>   -1.8546    1.0000 </r>
       <r>   -1.8546    1.0000 </r>
       <r>   -1.8513    1.0000 </r>
       <r>   -1.8513    1.0000 </r>
       <r>   -1.8513    1.0000 </r>
       <r>   -1.8513    1.0000 </r>
       <r>   -1.8376    1.0000 </r>
       <r>   -1.8376    1.0000 </r>
       <r>   -1.8273    1.0000 </r>
       <r>   -1.8273    1.0000 </r>
       <r>   -1.2142    1.0000 </r>
       <r>   -1.2142    1.0000 </r>
       <r>   -1.2041    1.0000 </r>
       <r>   -1.2041    1.0000 </r>
       <r>    0.3092    1.0000 </r>
       <r>    0.3092    1.0000 </r>
       <r>    0.3092    1.0000 </r>
       <r>    0.3092    1.0000 </r>
       <r>    0.3245    1.0000 </r>
       <r>    0.3245    1.0000 </r>
       <r>    0.3268    1.0000 </r>
       <r>    0.3268    1.0000 </r>
       <r>    0.3268    1.0000 </r>
       <r>    0.3268    1.0000 </r>
       <r>    0.3293    1.0000 </r>
       <r>    0.3293    1.0000 </r>
       <r>    1.8926    1.0000 </r>
       <r>    1.8926    1.0000 </r>
       <r>    1.8949    1.0000 </r>
       <r>    1.8949    1.0000 </r>
       <r>    1.8982    1.0000 </r>
       <r>    1.8982    1.0000 </r>
       <r>    1.8982    1.0000 </r>
       <r>    1.8982    1.0000 </r>
       <r>    1.9038    1.0000 </r>
       <r>    1.9038    1.0000 </r>
       <r>    1.9063    1.0000 </r>
       <r>    1.9063    1.0000 </r>
       <r>    1.9846    1.0000 </r>
       <r>    1.9846    1.0000 </r>
       <r>    1.9846    1.0000 </r>
       <r>    1.9846    1.0000 </r>
       <r>    2.0077    1.0000 </r>
       <r>    2.0077    1.0000 </r>
       <r>    2.0123    1.0000 </r>
       <r>    2.0123    1.0000 </r>
       <r>    2.0123    1.0000 </r>
       <r>    2.0123    1.0000 </r>
       <r>    2.0165    1.0000 </r>
       <r>    2.0165    1.0000 </r>
       <r>    2.2767    1.0000 </r>
       <r>    2.2767    1.0000 </r>
       <r>    2.3119    1.0000 </r>
       <r>    2.3119    1.0000 </r>
       <r>    2.3122    1.0000 </r>
       <r>    2.3122    1.0000 </r>
       <r>    2.8919    1.0000 </r>
       <r>    2.9248    1.0000 </r>
       <r>    2.9248    1.0000 </r>
       <r>    2.9579    1.0000 </r>
       <r>    2.9630    1.0000 </r>
       <r>    2.9630    1.0000 </r>
       <r>    3.8642    1.0000 </r>
       <r>    3.8642    1.0000 </r>
       <r>    3.8902    1.0000 </r>
       <r>    3.8902    1.0000 </r>
       <r>    3.9013    1.0000 </r>
       <r>    3.9013    1.0000 </r>
       <r>    3.9254    1.0000 </r>
       <r>    3.9254    1.0000 </r>
       <r>    3.9255    1.0000 </r>
       <r>    3.9255    1.0000 </r>
       <r>    3.9275    1.0000 </r>
       <r>    3.9275    1.0000 </r>
       <r>    4.4433    1.0000 </r>
       <r>    4.4433    1.0000 </r>
       <r>    4.4661    1.0000 </r>
       <r>    4.4661    1.0000 </r>
       <r>    4.4661    1.0000 </r>
       <r>    4.4661    1.0000 </r>
       <r>    4.4892    1.0000 </r>
       <r>    4.4892    1.0000 </r>
       <r>    4.5060    1.0000 </r>
       <r>    4.5060    1.0000 </r>
       <r>    4.5060    1.0000 </r>
       <r>    4.5060    1.0000 </r>
       <r>    4.5701    1.0000 </r>
       <r>    4.5701    1.0000 </r>
       <r>    4.6066    1.0000 </r>
       <r>    4.6066    1.0000 </r>
       <r>    4.6284    1.0000 </r>
       <r>    4.6284    1.0000 </r>
       <r>    4.6485    1.0000 </r>
       <r>    4.6485    1.0000 </r>
       <r>    5.7839    1.0111 </r>
       <r>    5.8311    1.0205 </r>
       <r>    5.8437    1.0233 </r>
       <r>    6.3516   -0.0186 </r>
       <r>    6.3889   -0.0340 </r>
       <r>    6.3889   -0.0340 </r>
       <r>    6.4265   -0.0342 </r>
       <r>    6.4287   -0.0339 </r>
       <r>    6.4287   -0.0339 </r>
       <r>    6.8362   -0.0000 </r>
       <r>    6.8362   -0.0000 </r>
       <r>    6.8365   -0.0000 </r>
       <r>    6.8365   -0.0000 </r>
       <r>    6.8763   -0.0000 </r>
       <r>    6.8763   -0.0000 </r>
       <r>    7.2666   -0.0000 </r>
       <r>    7.2666   -0.0000 </r>
       <r>    7.3188   -0.0000 </r>
       <r>    7.3188   -0.0000 </r>
       <r>    8.1427   -0.0000 </r>
       <r>    8.1427   -0.0000 </r>
       <r>    8.1697   -0.0000 </r>
       <r>    8.1697   -0.0000 </r>
       <r>    8.1697   -0.0000 </r>
       <r>    8.1697   -0.0000 </r>
       <r>    8.1970   -0.0000 </r>
       <r>    8.1970   -0.0000 </r>
       <r>    8.2161   -0.0000 </r>
       <r>    8.2161   -0.0000 </r>
       <r>    8.2161   -0.0000 </r>
       <r>    8.2161   -0.0000 </r>
       <r>    8.3108   -0.0000 </r>
       <r>    8.3281   -0.0000 </r>
       <r>    8.3691   -0.0000 </r>
       <r>    8.8390   -0.0000 </r>
       <r>    8.8448   -0.0000 </r>
       <r>    8.8452   -0.0000 </r>
      </set>
      <set comment="kpoint 2">
       <r>   -5.9171    1.0000 </r>
       <r>   -5.9171    1.0000 </r>
       <r>   -4.8563    1.0000 </r>
       <r>   -4.8563    1.0000 </r>
       <r>   -4.8501    1.0000 </r>
       <r>   -4.8501    1.0000 </r>
       <r>   -4.8501    1.0000 </r>
       <r>   -4.8501    1.0000 </r>
       <r>   -4.8439    1.0000 </r>
       <r>   -4.8439    1.0000 </r>
       <r>   -4.0023    1.0000 </r>
       <r>   -4.0023    1.0000 </r>
       <r>   -4.0023    1.0000 </r>
       <r>   -4.0023    1.0000 </r>
       <r>   -3.9868    1.0000 </r>
       <r>   -3.9868    1.0000 </r>
       <r>   -3.9868    1.0000 </r>
       <r>   -3.9868    1.0000 </r>
       <r>   -3.7933    1.0000 </r>
       <r>   -3.7933    1.0000 </r>
       <r>   -3.0681    1.0000 </r>
       <r>   -3.0681    1.0000 </r>
       <r>   -3.0524    1.0000 </r>
       <r>   -3.0524    1.0000 </r>
       <r>   -3.0524    1.0000 </r>
       <r>   -3.0524    1.0000 </r>
       <r>   -3.0366    1.0000 </r>
       <r>   -3.0366    1.0000 </r>
       <r>   -1.9401    1.0000 </r>
       <r>   -1.9401    1.0000 </r>
       <r>   -1.9391    1.0000 </r>
       <r>   -1.9391    1.0000 </r>
       <r>   -1.9195    1.0000 </r>
       <r>   -1.9195    1.0000 </r>
       <r>   -1.9187    1.0000 </r>
       <r>   -1.9187    1.0000 </r>
       <r>   -0.7679    1.0000 </r>
       <r>   -0.7679    1.0000 </r>
       <r>   -0.7626    1.0000 </r>
       <r>   -0.7626    1.0000 </r>
       <r>   -0.7626    1.0000 </r>
       <r>   -0.7626    1.0000 </r>
       <r>   -0.7575    1.0000 </r>
       <r>   -0.7575    1.0000 </r>
       <r>   -0.6174    1.0000 </r>
       <r>   -0.6174    1.0000 </r>
       <r>   -0.6174    1.0000 </r>
       <r>   -0.6174    1.0000 </r>
       <r>   -0.6006    1.0000 </r>
       <r>   -0.6006    1.0000 </r>
       <r>   -0.6006    1.0000 </r>
       <r>   -0.6006    1.0000 </r>
       <r>    0.0401    1.0000 </r>
       <r>    0.0401    1.0000 </r>
       <r>    1.5186    1.0000 </r>
       <r>    1.5186    1.0000 </r>
       <r>    1.5238    1.0000 </r>
       <r>    1.5238    1.0000 </r>
       <r>    1.5238    1.0000 </r>
       <r>    1.5238    1.0000 </r>
       <r>    1.5276    1.0000 </r>
       <r>    1.5276    1.0000 </r>
       <r>    1.5297    1.0000 </r>
       <r>    1.5297    1.0000 </r>
       <r>    1.5297    1.0000 </r>
       <r>    1.5297    1.0000 </r>
       <r>    1.5297    1.0000 </r>
       <r>    1.5297    1.0000 </r>
       <r>    1.5317    1.0000 </r>
       <r>    1.5317    1.0000 </r>
       <r>    2.3232    1.0000 </r>
       <r>    2.3232    1.0000 </r>
       <r>    2.3424    1.0000 </r>
       <r>    2.3424    1.0000 </r>
       <r>    2.3473    1.0000 </r>
       <r>    2.3473    1.0000 </r>
       <r>    2.3668    1.0000 </r>
       <r>    2.3668    1.0000 </r>
       <r>    3.0545    1.0000 </r>
       <r>    3.0545    1.0000 </r>
       <r>    3.0621    1.0000 </r>
       <r>    3.0621    1.0000 </r>
       <r>    3.0621    1.0000 </r>
       <r>    3.0621    1.0000 </r>
       <r>    3.0690    1.0000 </r>
       <r>    3.0690    1.0000 </r>
       <r>    3.1611    1.0000 </r>
       <r>    3.1611    1.0000 </r>
       <r>    3.1774    1.0000 </r>
       <r>    3.1774    1.0000 </r>
       <r>    3.1774    1.0000 </r>
       <r>    3.1774    1.0000 </r>
       <r>    3.1938    1.0000 </r>
       <r>    3.1938    1.0000 </r>
       <r>    3.2085    1.0000 </r>
       <r>    3.2085    1.0000 </r>
       <r>    3.2086    1.0000 </r>
       <r>    3.2086    1.0000 </r>
       <r>    3.2844    1.0000 </r>
       <r>    3.2844    1.0000 </r>
       <r>    3.2844    1.0000 </r>
       <r>    3.2844    1.0000 </r>
       <r>    3.3201    1.0000 </r>
       <r>    3.3201    1.0000 </r>
       <r>    3.3201    1.0000 </r>
       <r>    3.3201    1.0000 </r>
       <r>    4.3565    1.0000 </r>
       <r>    4.3565    1.0000 </r>
       <r>    4.3685    1.0000 </r>
       <r>    4.3685    1.0000 </r>
       <r>    4.3685    1.0000 </r>
       <r>    4.3685    1.0000 </r>
       <r>    4.3808    1.0000 </r>
       <r>    4.3808    1.0000 </r>
       <r>    4.4631    1.0000 </r>
       <r>    4.4631    1.0000 </r>
       <r>    4.5626    1.0000 </r>
       <r>    4.5626    1.0000 </r>
       <r>    4.5626    1.0000 </r>
       <r>    4.5626    1.0000 </r>
       <r>    4.5758    1.0000 </r>
       <r>    4.5758    1.0000 </r>
       <r>    4.5758    1.0000 </r>
       <r>    4.5758    1.0000 </r>
       <r>    5.0127    1.0000 </r>
       <r>    5.0127    1.0000 </r>
       <r>    5.0136    1.0000 </r>
       <r>    5.0136    1.0000 </r>
       <r>    6.3474   -0.0155 </r>
       <r>    6.3474   -0.0155 </r>
       <r>    7.2453   -0.0000 </r>
       <r>    7.2453   -0.0000 </r>
       <r>    7.6169   -0.0000 </r>
       <r>    7.6169   -0.0000 </r>
       <r>    7.6576   -0.0000 </r>
       <r>    7.6576   -0.0000 </r>
       <r>    7.6682   -0.0000 </r>
       <r>    7.6682   -0.0000 </r>
       <r>    7.7091   -0.0000 </r>
       <r>    7.7091   -0.0000 </r>
       <r>    7.7780   -0.0000 </r>
       <r>    7.7780   -0.0000 </r>
       <r>    8.1258   -0.0000 </r>
       <r>    8.1258   -0.0000 </r>
       <r>    8.1258   -0.0000 </r>
[...]
      </set>
     </set>
    </set>
   </array>
  </eigenvalues>
  <separator name="orbital magnetization" >
   <v name="MAGDIPOLOUT">      0.00000000      0.00000000      0.00000000</v>
  </separator>
  <dos>
   <i name="efermi">      6.16245453 </i>
   <total>
    <array>
     <dimension dim="1">gridpoints</dimension>
     <dimension dim="2">spin</dimension>
     <field>energy</field>
     <field>total</field>
     <field>integrated</field>
     <set>
      <set comment="spin 1">
       <r>    -8.1901     0.0000     0.0000 </r>
       <r>    -8.1252     0.0000     0.0000 </r>
       <r>    -8.0603     0.0000     0.0000 </r>
       <r>    -7.9954     0.0000     0.0000 </r>
       <r>    -7.9305     0.0000     0.0000 </r>
       <r>    -7.8656     0.0000     0.0000 </r>
       <r>    -7.8007    -0.0000    -0.0000 </r>
       <r>    -7.7358    -0.0000    -0.0000 </r>
       <r>    -7.6709    -0.0000    -0.0000 </r>
       <r>    -7.6060    -0.0000    -0.0000 </r>
       <r>    -7.5411    -0.0000    -0.0000 </r>
       <r>    -7.4762    -0.0000    -0.0000 </r>
       <r>    -7.4114    -0.0000    -0.0000 </r>
       <r>    -7.3465    -0.0000    -0.0000 </r>
       <r>    -7.2816    -0.0000    -0.0000 </r>
       <r>    -7.2167    -0.0000    -0.0000 </r>
       <r>    -7.1518    -0.0000    -0.0000 </r>
       <r>    -7.0869    -0.0000    -0.0000 </r>
       <r>    -7.0220    -0.0000    -0.0000 </r>
       <r>    -6.9571    -0.0000    -0.0000 </r>
       <r>    -6.8922    -0.0000    -0.0000 </r>
       <r>    -6.8273    -0.0001    -0.0000 </r>
       <r>    -6.7624    -0.0006    -0.0000 </r>
       <r>    -6.6975    -0.0030    -0.0002 </r>
       <r>    -6.6326    -0.0109    -0.0010 </r>
       <r>    -6.5677    -0.0293    -0.0029 </r>
       <r>    -6.5028    -0.0545    -0.0064 </r>
       <r>    -6.4379    -0.0541    -0.0099 </r>
       <r>    -6.3730     0.0334    -0.0077 </r>
       <r>    -6.3081     0.2358     0.0076 </r>
       <r>    -6.2432     0.4793     0.0387 </r>
       <r>    -6.1784     0.7014     0.0842 </r>
       <r>    -6.1135     1.1184     0.1568 </r>
       <r>    -6.0486     2.1561     0.2967 </r>
       <r>    -5.9837     3.8010     0.5434 </r>
       <r>    -5.9188     5.2994     0.8873 </r>
       <r>    -5.8539     6.1398     1.2857 </r>
       <r>    -5.7890     7.0720     1.7446 </r>
       <r>    -5.7241     9.0734     2.3335 </r>
       <r>    -5.6592    11.3965     3.0730 </r>
       <r>    -5.5943    12.1143     3.8592 </r>
       <r>    -5.5294    10.8171     4.5612 </r>
       <r>    -5.4645     9.1418     5.1544 </r>
       <r>    -5.3996     8.2422     5.6893 </r>
       <r>    -5.3347     7.4560     6.1732 </r>
       <r>    -5.2698     6.0561     6.5662 </r>
       <r>    -5.2049     4.6733     6.8694 </r>
       <r>    -5.1400     4.2979     7.1483 </r>
       <r>    -5.0751     5.3924     7.4983 </r>
       <r>    -5.0102     8.5917     8.0558 </r>
       <r>    -4.9454    14.4086     8.9909 </r>
       <r>    -4.8805    21.3000    10.3731 </r>
       <r>    -4.8156    26.1597    12.0708 </r>
       <r>    -4.7507    27.9146    13.8823 </r>
       <r>    -4.6858    28.1759    15.7108 </r>
       <r>    -4.6209    27.3040    17.4826 </r>
       <r>    -4.5560    23.0829    18.9806 </r>
       <r>    -4.4911    14.7741    19.9394 </r>
       <r>    -4.4262     5.5656    20.3005 </r>
       <r>    -4.3613    -0.3228    20.2796 </r>
       <r>    -4.2964    -0.8724    20.2230 </r>
       <r>    -4.2315     3.8115    20.4703 </r>
       <r>    -4.1666    12.5206    21.2828 </r>
       <r>    -4.1017    22.7069    22.7564 </r>
       <r>    -4.0368    30.3761    24.7277 </r>
       <r>    -3.9719    31.9514    26.8011 </r>
       <r>    -3.9070    27.0893    28.5591 </r>
       <r>    -3.8421    19.3415    29.8143 </r>
       <r>    -3.7772    13.7360    30.7056 </r>
       <r>    -3.7124    13.8753    31.6061 </r>
       <r>    -3.6475    20.4111    32.9307 </r>
       <r>    -3.5826    30.6107    34.9171 </r>
       <r>    -3.5177    39.6658    37.4912 </r>
       <r>    -3.4528    43.9173    40.3412 </r>
       <r>    -3.3879    42.9136    43.1261 </r>
       <r>    -3.3230    38.2423    45.6078 </r>
       <r>    -3.2581    31.8988    47.6779 </r>
       <r>    -3.1932    26.4789    49.3962 </r>
       <r>    -3.1283    24.4148    50.9806 </r>
       <r>    -3.0634    24.8889    52.5958 </r>
       <r>    -2.9985    23.5449    54.1237 </r>
       <r>    -2.9336    17.4599    55.2568 </r>
       <r>    -2.8687     8.7412    55.8241 </r>
       <r>    -2.8038     1.7135    55.9353 </r>
       <r>    -2.7389    -1.5827    55.8325 </r>
       <r>    -2.6740    -1.7605    55.7183 </r>
       <r>    -2.6091     0.3049    55.7381 </r>
       <r>    -2.5442     4.2998    56.0171 </r>
       <r>    -2.4794     9.0696    56.6057 </r>
       <r>    -2.4145    11.9479    57.3810 </r>
       <r>    -2.3496    10.7150    58.0764 </r>
       <r>    -2.2847     6.0755    58.4707 </r>
       <r>    -2.2198     1.5848    58.5735 </r>
       <r>    -2.1549     1.3788    58.6630 </r>
       <r>    -2.0900     7.8976    59.1755 </r>
       <r>    -2.0251    20.1037    60.4801 </r>
       <r>    -1.9602    32.6918    62.6016 </r>
       <r>    -1.8953    38.5002    65.1001 </r>
       <r>    -1.8304    33.8477    67.2966 </r>
       <r>    -1.7655    21.7249    68.7065 </r>
       <r>    -1.7006     9.1801    69.3022 </r>
       <r>    -1.6357     1.9506    69.4288 </r>
       <r>    -1.5708     1.5362    69.5285 </r>
       <r>    -1.5059     5.6581    69.8957 </r>
       <r>    -1.4410    10.1885    70.5568 </r>
       <r>    -1.3761    11.6810    71.3149 </r>
       <r>    -1.3112     9.7173    71.9455 </r>
       <r>    -1.2464     7.1240    72.4078 </r>
       <r>    -1.1815     7.5761    72.8995 </r>
       <r>    -1.1166    12.4877    73.7098 </r>
       <r>    -1.0517    19.4176    74.9699 </r>
       <r>    -0.9868    23.8970    76.5207 </r>
       <r>    -0.9219    24.2385    78.0937 </r>
       <r>    -0.8570    24.0969    79.6574 </r>
       <r>    -0.7921    28.8421    81.5291 </r>
       <r>    -0.7272    39.7918    84.1114 </r>
       <r>    -0.6623    52.1518    87.4958 </r>
       <r>    -0.5974    57.5396    91.2298 </r>
       <r>    -0.5325    49.9421    94.4708 </r>
       <r>    -0.4676    31.7139    96.5289 </r>
       <r>    -0.4027    12.9655    97.3703 </r>
       <r>    -0.3378     3.6129    97.6047 </r>
       <r>    -0.2729     6.2565    98.0107 </r>
       <r>    -0.2080    15.6439    99.0259 </r>
       <r>    -0.1431    23.3162   100.5390 </r>
       <r>    -0.0782    23.8157   102.0846 </r>
       <r>    -0.0134    18.0597   103.2565 </r>
       <r>     0.0515    10.9036   103.9641 </r>
       <r>     0.1164     6.2552   104.3700 </r>
       <r>     0.1813     5.3244   104.7156 </r>
       <r>     0.2462     7.8910   105.2276 </r>
       <r>     0.3111    13.2501   106.0875 </r>
       <r>     0.3760    20.1171   107.3930 </r>
       <r>     0.4409    26.2321   109.0953 </r>
       <r>     0.5058    28.3951   110.9380 </r>
       <r>     0.5707    24.3429   112.5178 </r>
       <r>     0.6356    15.4550   113.5207 </r>
       <r>     0.7005     6.2734   113.9278 </r>
       <r>     0.7654     0.5527   113.9637 </r>
       <r>     0.8303    -1.3265   113.8776 </r>
       <r>     0.8952    -1.1708   113.8016 </r>
       <r>     0.9601    -0.6692   113.7582 </r>
       <r>     1.0250    -0.5881   113.7200 </r>
       <r>     1.0899    -1.1690   113.6442 </r>
       <r>     1.1548    -2.3004   113.4949 </r>
       <r>     1.2197    -2.7416   113.3170 </r>
       <r>     1.2845     0.8453   113.3718 </r>
       <r>     1.3494    12.6232   114.1910 </r>
       <r>     1.4143    32.6037   116.3068 </r>
       <r>     1.4792    52.3264   119.7025 </r>
       <r>     1.5441    59.1129   123.5386 </r>
       <r>     1.6090    47.9613   126.6511 </r>
       <r>     1.6739    27.7198   128.4500 </r>
       <r>     1.7388    13.0183   129.2948 </r>
       <r>     1.8037    11.1467   130.0181 </r>
       <r>     1.8686    17.7986   131.1732 </r>
       <r>     1.9335    23.5407   132.7008 </r>
       <r>     1.9984    23.0401   134.1960 </r>
       <r>     2.0633    19.6682   135.4724 </r>
       <r>     2.1282    22.7416   136.9482 </r>
       <r>     2.1931    39.1137   139.4865 </r>
       <r>     2.2580    65.1022   143.7113 </r>
       <r>     2.3229    86.4261   149.3199 </r>
       <r>     2.3878    88.4643   155.0607 </r>
       <r>     2.4527    68.5964   159.5123 </r>
       <r>     2.5175    38.2087   161.9918 </r>
       <r>     2.5824    12.2415   162.7862 </r>
       <r>     2.6473    -2.1075   162.6495 </r>
       <r>     2.7122    -6.6078   162.2207 </r>
       <r>     2.7771    -5.1047   161.8894 </r>
       <r>     2.8420     2.1307   162.0277 </r>
       <r>     2.9069    17.4176   163.1580 </r>
       <r>     2.9718    40.2483   165.7699 </r>
       <r>     3.0367    64.1368   169.9320 </r>
       <r>     3.1016    80.2036   175.1368 </r>
       <r>     3.1665    83.8811   180.5803 </r>
       <r>     3.2314    77.0548   185.5807 </r>
       <r>     3.2963    64.3887   189.7592 </r>
       <r>     3.3612    50.1276   193.0122 </r>
       <r>     3.4261    38.8954   195.5363 </r>
       <r>     3.4910    35.5913   197.8460 </r>
       <r>     3.5559    40.2954   200.4610 </r>
       <r>     3.6208    45.1504   203.3910 </r>
       <r>     3.6857    41.6568   206.0943 </r>
       <r>     3.7505    31.1713   208.1172 </r>
       <r>     3.8154    23.5555   209.6458 </r>
       <r>     3.8803    24.9059   211.2621 </r>
       <r>     3.9452    31.0688   213.2783 </r>
       <r>     4.0101    34.7647   215.5343 </r>
       <r>     4.0750    34.8776   217.7977 </r>
       <r>     4.1399    35.3936   220.0946 </r>
       <r>     4.2048    38.2764   222.5785 </r>
       <r>     4.2697    42.0563   225.3077 </r>
       <r>     4.3346    46.0439   228.2957 </r>
       <r>     4.3995    51.1840   231.6173 </r>
       <r>     4.4644    56.2901   235.2702 </r>
       <r>     4.5293    56.6794   238.9484 </r>
       <r>     4.5942    48.2386   242.0789 </r>
       <r>     4.6591    32.1856   244.1676 </r>
       <r>     4.7240    15.0070   245.1414 </r>
       <r>     4.7889     3.9234   245.3960 </r>
       <r>     4.8538     2.6538   245.5683 </r>
       <r>     4.9187    10.0262   246.2189 </r>
       <r>     4.9835    20.5402   247.5519 </r>
       <r>     5.0484    26.8912   249.2970 </r>
       <r>     5.1133    24.6915   250.8993 </r>
       <r>     5.1782    15.7662   251.9225 </r>
       <r>     5.2431     6.1007   252.3184 </r>
       <r>     5.3080     0.7559   252.3674 </r>
       <r>     5.3729     1.1072   252.4393 </r>
       <r>     5.4378     5.3762   252.7882 </r>
       <r>     5.5027    10.1094   253.4442 </r>
       <r>     5.5676    12.0107   254.2236 </r>
       <r>     5.6325    10.1616   254.8831 </r>
       <r>     5.6974     6.5572   255.3086 </r>
       <r>     5.7623     3.8066   255.5556 </r>
       <r>     5.8272     2.6544   255.7279 </r>
       <r>     5.8921     2.1150   255.8651 </r>
       <r>     5.9570     1.2660   255.9473 </r>
       <r>     6.0219     0.2038   255.9605 </r>
       <r>     6.0868    -0.3030   255.9408 </r>
       <r>     6.1517     0.5950   255.9795 </r>
       <r>     6.2165     3.3273   256.1954 </r>
       <r>     6.2814     7.2589   256.6664 </r>
       <r>     6.3463    10.5047   257.3481 </r>
       <r>     6.4112    11.0492   258.0652 </r>
       <r>     6.4761     8.4366   258.6127 </r>
       <r>     6.5410     4.2258   258.8869 </r>
       <r>     6.6059     0.8601   258.9427 </r>
       <r>     6.6708     0.3599   258.9661 </r>
       <r>     6.7357     3.5822   259.1985 </r>
       <r>     6.8006     9.4626   259.8126 </r>
       <r>     6.8655    14.7282   260.7684 </r>
       <r>     6.9304    15.9660   261.8045 </r>
       <r>     6.9953    13.4441   262.6770 </r>
       <r>     7.0602    12.1186   263.4634 </r>
       <r>     7.1251    16.8666   264.5579 </r>
       <r>     7.1900    26.1903   266.2576 </r>
       <r>     7.2549    32.2485   268.3503 </r>
       <r>     7.3198    28.5505   270.2031 </r>
       <r>     7.3847    17.0678   271.3107 </r>
       <r>     7.4495     7.1013   271.7715 </r>
       <r>     7.5144     7.9009   272.2843 </r>
       <r>     7.5793    21.7551   273.6961 </r>
       <r>     7.6442    41.5376   276.3916 </r>
       <r>     7.7091    54.8092   279.9485 </r>
       <r>     7.7740    53.6305   283.4288 </r>
       <r>     7.8389    41.9036   286.1481 </r>
       <r>     7.9038    31.6955   288.2050 </r>
       <r>     7.9687    32.1934   290.2942 </r>
       <r>     8.0336    43.1333   293.0933 </r>
       <r>     8.0985    57.2113   296.8060 </r>
       <r>     8.1634    66.2531   301.1055 </r>
       <r>     8.2283    65.9846   305.3876 </r>
       <r>     8.2932    57.4998   309.1190 </r>
       <r>     8.3581    44.9895   312.0386 </r>
       <r>     8.4230    32.3487   314.1379 </r>
       <r>     8.4879    22.0545   315.5691 </r>
       <r>     8.5528    15.5555   316.5785 </r>
       <r>     8.6177    13.2717   317.4398 </r>
       <r>     8.6825    14.6533   318.3907 </r>
       <r>     8.7474    18.1801   319.5705 </r>
       <r>     8.8123    20.9397   320.9294 </r>
       <r>     8.8772    19.7395   322.2104 </r>
       <r>     8.9421    14.0200   323.1202 </r>
       <r>     9.0070     6.7429   323.5578 </r>
       <r>     9.0719     1.5552   323.6587 </r>
       <r>     9.1368    -0.2171   323.6446 </r>
       <r>     9.2017     0.3289   323.6660 </r>
       <r>     9.2666     1.3896   323.7562 </r>
       <r>     9.3315     1.8044   323.8732 </r>
       <r>     9.3964     1.4090   323.9647 </r>
       <r>     9.4613     0.6834   324.0090 </r>
       <r>     9.5262     0.1318   324.0176 </r>
       <r>     9.5911    -0.0898   324.0118 </r>
       <r>     9.6560    -0.1007   324.0052 </r>
       <r>     9.7209    -0.0540   324.0017 </r>
       <r>     9.7858    -0.0198   324.0004 </r>
       <r>     9.8507    -0.0054   324.0001 </r>
       <r>     9.9156    -0.0011   324.0000 </r>
       <r>     9.9804    -0.0002   324.0000 </r>
       <r>    10.0453    -0.0000   324.0000 </r>
       <r>    10.1102    -0.0000   324.0000 </r>
       <r>    10.1751    -0.0000   324.0000 </r>
       <r>    10.2400    -0.0000   324.0000 </r>
       <r>    10.3049    -0.0000   324.0000 </r>
       <r>    10.3698    -0.0000   324.0000 </r>
       <r>    10.4347    -0.0000   324.0000 </r>
       <r>    10.4996    -0.0000   324.0000 </r>
       <r>    10.5645     0.0000   324.0000 </r>
       <r>    10.6294     0.0000   324.0000 </r>
       <r>    10.6943     0.0000   324.0000 </r>
       <r>    10.7592     0.0000   324.0000 </r>
       <r>    10.8241     0.0000   324.0000 </r>
       <r>    10.8890     0.0000   324.0000 </r>
       <r>    10.9539     0.0000   324.0000 </r>
       <r>    11.0188     0.0000   324.0000 </r>
       <r>    11.0837     0.0000   324.0000 </r>
       <r>    11.1486     0.0000   324.0000 </r>
       <r>    11.2134     0.0000   324.0000 </r>
       <r>    11.2783     0.0000   324.0000 </r>
      </set>
     </set>
    </array>
   </total>
  </dos>
 </calculation>
 <structure name="finalpos" >
  <crystal>
   <varray name="basis" >
    <v>      10.88809061       0.02708500       0.00000000 </v>
    <v>       0.02708500      10.83392060       0.00000000 </v>
    <v>       0.00000000       0.00000000      10.83392060 </v>
   </varray>
   <i name="volume">   1277.96900891 </i>
   <varray name="rec_basis" >
    <v>       0.09184404      -0.00022961       0.00000000 </v>
    <v>      -0.00022961       0.09230326       0.00000000 </v>
    <v>       0.00000000       0.00000000       0.09230269 </v>
   </varray>
  </crystal>
  <varray name="positions" >
   <v>       0.00000000       0.00000000       0.00017407 </v>
   <v>       0.00000000       0.00000000       0.50017407 </v>
   <v>       0.00000000       0.50000000       0.00017407 </v>
   <v>       0.00000000       0.50000000       0.50017407 </v>
   <v>       0.50000000       0.00000000       0.00017407 </v>
   <v>       0.50000000       0.00000000       0.50017407 </v>
   <v>       0.50000000       0.50000000       0.00017407 </v>
   <v>       0.50000000       0.50000000       0.50017407 </v>
   <v>       0.37500000       0.37500000       0.12482593 </v>
   <v>       0.37500000       0.37500000       0.62482593 </v>
   <v>       0.37500000       0.87500000       0.12482593 </v>
   <v>       0.37500000       0.87500000       0.62482593 </v>
   <v>       0.87500000       0.37500000       0.12482593 </v>
   <v>       0.87500000       0.37500000       0.62482593 </v>
   <v>       0.87500000       0.87500000       0.12482593 </v>
   <v>       0.87500000       0.87500000       0.62482593 </v>
   <v>       0.00000000       0.25000000       0.25017407 </v>
   <v>       0.00000000       0.25000000       0.75017407 </v>
   <v>       0.00000000       0.75000000       0.25017407 </v>
   <v>       0.00000000       0.75000000       0.75017407 </v>
   <v>       0.50000000       0.25000000       0.25017407 </v>
   <v>       0.50000000       0.25000000       0.75017407 </v>
   <v>       0.50000000       0.75000000       0.25017407 </v>
   <v>       0.50000000       0.75000000       0.75017407 </v>
   <v>       0.37500000       0.12500000       0.37482593 </v>
   <v>       0.37500000       0.12500000       0.87482593 </v>
   <v>       0.37500000       0.62500000       0.37482593 </v>
   <v>       0.37500000       0.62500000       0.87482593 </v>
   <v>       0.87500000       0.12500000       0.37482593 </v>
   <v>       0.87500000       0.12500000       0.87482593 </v>
   <v>       0.87500000       0.62500000       0.37482593 </v>
   <v>       0.87500000       0.62500000       0.87482593 </v>
   <v>       0.25000000       0.00000000       0.25017407 </v>
   <v>       0.25000000       0.00000000       0.75017407 </v>
   <v>       0.25000000       0.50000000       0.25017407 </v>
   <v>       0.25000000       0.50000000       0.75017407 </v>
   <v>       0.75000000       0.00000000       0.25017407 </v>
   <v>       0.75000000       0.00000000       0.75017407 </v>
   <v>       0.75000000       0.50000000       0.25017407 </v>
   <v>       0.75000000       0.50000000       0.75017407 </v>
   <v>       0.12500000       0.37500000       0.37482593 </v>
   <v>       0.12500000       0.37500000       0.87482593 </v>
   <v>       0.12500000       0.87500000       0.37482593 </v>
   <v>       0.12500000       0.87500000       0.87482593 </v>
   <v>       0.62500000       0.37500000       0.37482593 </v>
   <v>       0.62500000       0.37500000       0.87482593 </v>
   <v>       0.62500000       0.87500000       0.37482593 </v>
   <v>       0.62500000       0.87500000       0.87482593 </v>
   <v>       0.25000000       0.25000000       0.00017407 </v>
   <v>       0.25000000       0.25000000       0.50017407 </v>
   <v>       0.25000000       0.75000000       0.00017407 </v>
   <v>       0.25000000       0.75000000       0.50017407 </v>
   <v>       0.75000000       0.25000000       0.00017407 </v>
   <v>       0.75000000       0.25000000       0.50017407 </v>
   <v>       0.75000000       0.75000000       0.00017407 </v>
   <v>       0.75000000       0.75000000       0.50017407 </v>
   <v>       0.12500000       0.12500000       0.12482593 </v>
   <v>       0.12500000       0.12500000       0.62482593 </v>
   <v>       0.12500000       0.62500000       0.12482593 </v>
   <v>       0.12500000       0.62500000       0.62482593 </v>
   <v>       0.62500000       0.12500000       0.12482593 </v>
   <v>       0.62500000       0.12500000       0.62482593 </v>
   <v>       0.62500000       0.62500000       0.12482593 </v>
   <v>       0.62500000       0.62500000       0.62482593 </v>
  </varray>
 </structure>
</modeling>
