       N       E                     dE             d eps       ncg     rms          rms(c)
DAV:   1     0.567919551647E+03    0.56792E+03   -0.84773E+04  2592   0.107E+03
DAV:   2    -0.310231693735E+03   -0.87815E+03   -0.83334E+03  3096   0.174E+02
DAV:   3    -0.372860592242E+03   -0.62629E+02   -0.61377E+02  3144   0.410E+01
DAV:   4    -0.374463460259E+03   -0.16029E+01   -0.15913E+01  3136   0.796E+00
DAV:   5    -0.374513349944E+03   -0.49890E-01   -0.49758E-01  3112   0.131E+00    0.300E+01
RMM:   6    -0.368718524125E+03    0.57948E+01   -0.30222E+00  2592   0.273E+00    0.181E+01
RMM:   7    -0.366175557705E+03    0.25430E+01   -0.76304E+00  2637   0.434E+00    0.112E+00
RMM:   8    -0.366213876371E+03   -0.38319E-01   -0.74355E-01  2627   0.166E+00    0.538E-01
RMM:   9    -0.366236133760E+03   -0.22257E-01   -0.21429E-01  2661   0.813E-01    0.607E-01
RMM:  10    -0.366240812439E+03   -0.46787E-02   -0.40128E-02  2733   0.387E-01    0.873E-01
RMM:  11    -0.366236336112E+03    0.44763E-02   -0.14412E-02  2592   0.236E-01    0.568E-01
RMM:  12    -0.366236526645E+03   -0.19053E-03   -0.19208E-03  2617   0.103E-01    0.541E-01
RMM:  13    -0.366236595579E+03   -0.68934E-04   -0.36601E-04  2738   0.425E-02    0.628E-01
RMM:  14    -0.366236596900E+03   -0.13210E-05   -0.97348E-05  2600   0.241E-02    0.225E-01
RMM:  15    -0.366236641230E+03   -0.44331E-04   -0.37231E-05  2640   0.127E-02    0.174E-01
RMM:  16    -0.366236671013E+03   -0.29783E-04   -0.22222E-05  2592   0.102E-02    0.104E-01
RMM:  17    -0.366236675181E+03   -0.41676E-05   -0.70808E-06  2446   0.593E-03    0.286E-02
RMM:  18    -0.366236675924E+03   -0.74353E-06   -0.10855E-06  1573   0.252E-03
   1 F= -.36623668E+03 E0= -.36624404E+03  d E =-.366237E+03
       N       E                     dE             d eps       ncg     rms          rms(c)
DAV:   1    -0.366280643711E+03   -0.43969E-01   -0.24857E+00  2944   0.303E+00    0.713E-01
RMM:   2    -0.366292562187E+03   -0.11918E-01   -0.12377E-01  2592   0.748E-01    0.291E-01
RMM:   3    -0.366294036172E+03   -0.14740E-02   -0.19069E-02  2635   0.331E-01    0.123E-01
RMM:   4    -0.366294000274E+03    0.35898E-04   -0.26523E-03  2646   0.138E-01    0.470E-02
RMM:   5    -0.366294020198E+03   -0.19924E-04   -0.47773E-04  2671   0.543E-02    0.899E-03
RMM:   6    -0.366294031782E+03   -0.11584E-04   -0.11775E-04  2819   0.243E-02    0.258E-03
RMM:   7    -0.366294033162E+03   -0.13797E-05   -0.14621E-05  2344   0.849E-03    0.250E-03
RMM:   8    -0.366294033338E+03   -0.17640E-06   -0.26466E-06  1761   0.357E-03
   2 F= -.36629403E+03 E0= -.36629738E+03  d E =-.573574E-01
       N       E                     dE             d eps       ncg     rms          rms(c)
DAV:   1    -0.366303255813E+03   -0.92227E-02   -0.19786E-01  2912   0.854E-01    0.202E-01
RMM:   2    -0.366304182956E+03   -0.92714E-03   -0.96042E-03  2592   0.210E-01    0.830E-02
RMM:   3    -0.366304288837E+03   -0.10588E-03   -0.14440E-03  2637   0.925E-02    0.336E-02
RMM:   4    -0.366304285827E+03    0.30102E-05   -0.19886E-04  2635   0.384E-02    0.129E-02
RMM:   5    -0.366304287451E+03   -0.16246E-05   -0.36585E-05  2682   0.150E-02    0.253E-03
RMM:   6    -0.366304288179E+03   -0.72829E-06   -0.83042E-06  2129   0.664E-03    0.505E-04
RMM:   7    -0.366304288296E+03   -0.11622E-06   -0.11610E-06  1609   0.246E-03    0.662E-04
RMM:   8    -0.366304288344E+03   -0.48677E-07   -0.25031E-07  1357   0.113E-03
   3 F= -.36630429E+03 E0= -.36630887E+03  d E =-.676124E-01
