<?xml version="1.0" encoding="ISO-8859-1"?>
<modeling>
 <generator>
  <i name="program" type="string">vasp </i>
  <i name="version" type="string">6.4.3  </i>
  <i name="subversion" type="string">19Mar24 (build Oct 21 2024 22:36:34) complex                          parallel </i>
  <i name="platform" type="string">LinuxIFC </i>
  <i name="date" type="string">2024 11 01 </i>
  <i name="time" type="string">22:56:43 </i>
 </generator>
 <incar>
  <i type="string" name="SYSTEM">Si64</i>
  <i type="int" name="ISTART">     0</i>
  <i type="string" name="PREC">Accurate</i>
  <i type="string" name="ALGO">Fast</i>
  <i type="logical" name="ADDGRID"> T  </i>
  <i type="int" name="ICHARG">     2</i>
  <i type="int" name="NELM">    60</i>
  <i type="int" name="NELMIN">     8</i>
  <i type="int" name="IBRION">     2</i>
  <i name="EDIFF">      0.00000100</i>
  <i name="EDIFFG">     -0.01000000</i>
  <i type="int" name="NSW">    60</i>
  <i type="int" name="ISIF">     2</i>
  <i name="ENCUT">    400.00000000</i>
  <i type="string" name="LREAL">Auto</i>
  <i type="int" name="ISMEAR">     1</i>
  <i name="SIGMA">      0.20000000</i>
  <i type="logical" name="LWAVE"> F  </i>
  <i type="logical" name="LCHARG"> F  </i>
  <i type="logical" name="GGA_COMPAT"> F  </i>
  <i type="string" name="GGA">PS</i>
 </incar>
 <primitive_cell>
  <structure name="primitive_cell" >
   <crystal>
    <varray name="basis" >
     <v>       0.02652525       2.65251839      -2.65251839 </v>
     <v>       0.02652525       2.65251839       2.65251839 </v>
     <v>       2.67904365      -2.62599314       0.00000000 </v>
    </varray>
    <i name="volume">     38.06824198 </i>
    <varray name="rec_basis" >
     <v>       0.18297391       0.18667036      -0.18850011 </v>
     <v>       0.18297391       0.18667036       0.18850011 </v>
     <v>       0.36964427      -0.00369645      -0.00000000 </v>
    </varray>
   </crystal>
   <varray name="positions" >
    <v>       0.00000000       0.00000000       0.00000000 </v>
    <v>       0.25000000       0.75000000       0.50000000 </v>
   </varray>
  </structure>
  <varray name="primitive_index" >
   <v type="int" >        1 </v>
   <v type="int" >       15 </v>
  </varray>
 </primitive_cell>
 <kpoints>
  <generation param="Gamma">
   <v type="int" name="divisions">       2        2        2 </v>
   <v name="usershift">      0.00000000       0.00000000       0.00000000 </v>
   <v name="genvec1">      0.50000000      -0.00000000       0.00000000 </v>
   <v name="genvec2">     -0.00000000       0.50000000       0.00000000 </v>
   <v name="genvec3">      0.00000000       0.00000000       0.50000000 </v>
   <v name="shift">      0.00000000       0.00000000       0.00000000 </v>
  </generation>
  <varray name="kpointlist" >
   <v>       0.00000000       0.00000000       0.00000000 </v>
   <v>       0.50000000       0.00000000       0.00000000 </v>
   <v>       0.00000000       0.50000000       0.00000000 </v>
   <v>       0.50000000       0.50000000       0.00000000 </v>
   <v>       0.00000000       0.00000000       0.50000000 </v>
   <v>       0.50000000       0.00000000       0.50000000 </v>
   <v>       0.00000000       0.50000000       0.50000000 </v>
   <v>       0.50000000       0.50000000       0.50000000 </v>
  </varray>
  <varray name="weights" >
   <v>       0.12500000 </v>
   <v>       0.12500000 </v>
   <v>       0.12500000 </v>
   <v>       0.12500000 </v>
   <v>       0.12500000 </v>
   <v>       0.12500000 </v>
   <v>       0.12500000 </v>
   <v>       0.12500000 </v>
  </varray>
 </kpoints>
 <parameters>
  <separator name="general" >
   <i type="string" name="SYSTEM">Si64</i>
   <i type="logical" name="LCOMPAT"> F  </i>
  </separator>
  <separator name="electronic" >
   <i type="string" name="PREC">accura</i>
   <i name="ENMAX">    400.00000000</i>
   <i name="ENAUG">    322.06900000</i>
   <i name="EDIFF">      0.00000100</i>
   <i type="int" name="IALGO">    68</i>
   <i type="int" name="IWAVPR">    11</i>
   <i type="int" name="NBANDS">   162</i>
   <i type="int" name="NBANDSLOW">    -1</i>
   <i type="int" name="NBANDSHIGH">    -1</i>
   <i name="NELECT">    256.00000000</i>
   <i type="int" name="TURBO">     0</i>
   <i type="int" name="IRESTART">     0</i>
   <i type="int" name="NREBOOT">     0</i>
   <i type="int" name="NMIN">     0</i>
   <i name="EREF">      0.00000000</i>
   <separator name="electronic smearing" >
    <i type="int" name="ISMEAR">     1</i>
    <i name="SIGMA">      0.20000000</i>
    <i name="KSPACING">      0.50000000</i>
    <i type="logical" name="KGAMMA"> T  </i>
    <i type="logical" name="KBLOWUP"> T  </i>
   </separator>
   <separator name="electronic projectors" >
    <i type="logical" name="LREAL"> T  </i>
    <v name="ROPT">     -0.00025000</v>
    <i type="int" name="LMAXPAW">  -100</i>
    <i type="int" name="LMAXMIX">     2</i>
    <i type="logical" name="NLSPLINE"> F  </i>
   </separator>
   <separator name="electronic startup" >
    <i type="int" name="ISTART">     0</i>
    <i type="int" name="ICHARG">     2</i>
    <i type="int" name="INIWAV">     1</i>
   </separator>
   <separator name="electronic spin" >
    <i type="int" name="ISPIN">     1</i>
    <i type="logical" name="LNONCOLLINEAR"> F  </i>
    <v name="MAGMOM">      1.00000000      1.00000000      1.00000000      1.00000000      1.00000000      1.00000000      1.00000000      1.00000000      1.00000000      1.00000000      1.00000000      1.00000000      1.00000000      1.00000000      1.00000000      1.00000000      1.00000000      1.00000000      1.00000000      1.00000000
      1.00000000      1.00000000      1.00000000      1.00000000      1.00000000      1.00000000      1.00000000      1.00000000      1.00000000      1.00000000      1.00000000      1.00000000      1.00000000      1.00000000      1.00000000      1.00000000      1.00000000      1.00000000      1.00000000      1.00000000
      1.00000000      1.00000000      1.00000000      1.00000000      1.00000000      1.00000000      1.00000000      1.00000000      1.00000000      1.00000000      1.00000000      1.00000000      1.00000000      1.00000000      1.00000000      1.00000000      1.00000000      1.00000000      1.00000000      1.00000000
      1.00000000      1.00000000      1.00000000      1.00000000</v>
    <i name="NUPDOWN">     -1.00000000</i>
    <i type="logical" name="LSORBIT"> F  </i>
    <v name="SAXIS">      0.00000000      0.00000000      1.00000000</v>
    <i type="logical" name="LSPIRAL"> F  </i>
    <v name="QSPIRAL">      0.00000000      0.00000000      0.00000000</v>
    <i type="logical" name="LZEROZ"> F  </i>
   </separator>
   <separator name="electronic exchange-correlation" >
    <i type="logical" name="LASPH"> F  </i>
   </separator>
   <separator name="electronic convergence" >
    <i type="int" name="NELM">    60</i>
    <i type="int" name="NELMDL">    -5</i>
    <i type="int" name="NELMIN">     8</i>
    <i name="ENINI">    400.00000000</i>
    <separator name="electronic convergence detail" >
     <i type="logical" name="LDIAG"> T  </i>
     <i type="logical" name="LSUBROT"> F  </i>
     <i name="WEIMIN">      0.00100000</i>
     <i name="EBREAK">      0.00000000</i>
     <i name="DEPER">      0.30000000</i>
     <i type="int" name="NRMM">     4</i>
     <i name="TIME">      0.40000000</i>
    </separator>
   </separator>
   <separator name="electronic mixer" >
    <i name="AMIX">      0.40000000</i>
    <i name="BMIX">      1.00000000</i>
    <i name="AMIN">      0.10000000</i>
    <i name="AMIX_MAG">      1.60000000</i>
    <i name="BMIX_MAG">      1.00000000</i>
    <separator name="electronic mixer details" >
     <i type="int" name="IMIX">     4</i>
     <i type="logical" name="MIXFIRST"> F  </i>
     <i type="int" name="MAXMIX">   -45</i>
     <i name="WC">    100.00000000</i>
     <i type="int" name="INIMIX">     1</i>
     <i type="int" name="MIXPRE">     1</i>
     <i type="int" name="MREMOVE">     5</i>
    </separator>
   </separator>
   <separator name="electronic dipolcorrection" >
    <i type="logical" name="LDIPOL"> F  </i>
    <i type="logical" name="LMONO"> F  </i>
    <i type="int" name="IDIPOL">     0</i>
    <i name="EPSILON">      1.00000000</i>
    <v name="DIPOL">   -100.00000000   -100.00000000   -100.00000000</v>
    <i name="EFIELD">      0.00000000</i>
    <i type="logical" name="LVACPOTAV"> F  </i>
   </separator>
  </separator>
  <separator name="grids" >
   <i type="int" name="NGX">    72</i>
   <i type="int" name="NGY">    70</i>
   <i type="int" name="NGZ">    70</i>
   <i type="int" name="NGXF">   144</i>
   <i type="int" name="NGYF">   140</i>
   <i type="int" name="NGZF">   140</i>
   <i type="logical" name="ADDGRID"> T  </i>
  </separator>
  <separator name="ionic" >
   <i type="int" name="NSW">    60</i>
   <i type="int" name="IBRION">     2</i>
   <i type="int" name="MDALGO">     0</i>
   <i type="int" name="ISIF">     2</i>
   <i name="PSTRESS">      0.00000000</i>
   <i name="EDIFFG">     -0.01000000</i>
   <i type="int" name="NFREE">     1</i>
   <i name="POTIM">      0.50000000</i>
   <i name="SMASS">     -3.00000000</i>
   <i name="SCALEE">      1.00000000</i>
  </separator>
  <separator name="ionic md" >
   <i name="TEBEG">      0.00010000</i>
   <i name="TEEND">      0.00010000</i>
   <i type="int" name="NBLOCK">     1</i>
   <i type="int" name="KBLOCK">    60</i>
   <i type="int" name="NPACO">   256</i>
   <i name="APACO">     10.00000000</i>
  </separator>
  <separator name="symmetry" >
   <i type="int" name="ISYM">     2</i>
   <i name="SYMPREC">      0.00001000</i>
  </separator>
  <separator name="dos" >
   <i type="int" name="LORBIT">     0</i>
   <v name="RWIGS">     -1.00000000</v>
   <i type="int" name="NEDOS">   301</i>
   <i name="EMIN">     10.00000000</i>
   <i name="EMAX">    -10.00000000</i>
   <i name="EFERMI">      0.00000000</i>
  </separator>
  <separator name="writing" >
   <i type="int" name="NWRITE">     2</i>
   <i type="logical" name="LWAVE"> F  </i>
   <i type="logical" name="LDOWNSAMPLE"> F  </i>
   <i type="logical" name="LCHARG"> F  </i>
   <i type="logical" name="LPARD"> F  </i>
   <i type="logical" name="LVTOT"> F  </i>
   <i type="logical" name="LVHAR"> F  </i>
   <i type="logical" name="LELF"> F  </i>
   <i type="logical" name="LOPTICS"> F  </i>
   <v name="STM">      0.00000000      0.00000000      0.00000000      0.00000000      0.00000000      0.00000000      0.00000000</v>
  </separator>
  <separator name="performance" >
   <i type="int" name="NPAR">     2</i>
   <i type="int" name="NSIM">     4</i>
   <i type="int" name="NBLK">    -1</i>
   <i type="logical" name="LPLANE"> T  </i>
   <i type="logical" name="LSCALAPACK"> T  </i>
   <i type="logical" name="LSCAAWARE"> F  </i>
   <i type="logical" name="LSCALU"> F  </i>
   <i type="logical" name="LASYNC"> F  </i>
   <i type="logical" name="LORBITALREAL"> F  </i>
  </separator>
  <separator name="miscellaneous" >
   <i type="int" name="IDIOT">     3</i>
   <i type="int" name="PHON_NSTRUCT">    -1</i>
   <i type="logical" name="LMUSIC"> F  </i>
   <v name="POMASS">     28.08500000</v>
   <v name="DARWINR">      0.00000000</v>
   <v name="DARWINV">      1.00000000</v>
   <i type="logical" name="LCORR"> T  </i>
  </separator>
  <i type="logical" name="GGA_COMPAT"> F  </i>
  <i type="logical" name="LBERRY"> F  </i>
  <i type="int" name="ICORELEVEL">     0</i>
  <i type="logical" name="LDAU"> F  </i>
  <i type="int" name="I_CONSTRAINED_M">     0</i>
  <separator name="electronic exchange-correlation" >
   <i type="string" name="GGA    ">PS</i>
   <i type="string" name="XC_C">1</i>
   <i type="int" name="VOSKOWN">     0</i>
   <i type="logical" name="LHFCALC"> F  </i>
   <i type="string" name="PRECFOCK"></i>
   <i type="logical" name="LSYMGRAD"> F  </i>
   <i type="logical" name="LHFONE"> F  </i>
   <i type="logical" name="LRHFCALC"> F  </i>
   <i type="logical" name="LTHOMAS"> F  </i>
   <i type="logical" name="LMODELHF"> F  </i>
   <i type="logical" name="LFOCKACE"> F  </i>
   <i name="ENCUT4O">     -1.00000000</i>
   <i type="int" name="EXXOEP">     0</i>
   <i type="int" name="FOURORBIT">     0</i>
   <i name="AEXX">      0.00000000</i>
   <i name="HFALPHA">      0.00000000</i>
   <i name="MCALPHA">      0.00000000</i>
   <i name="ALDAX">      1.00000000</i>
   <i name="AGGAX">      1.00000000</i>
   <i name="AMGGAX">      1.00000000</i>
   <i name="ALDAC">      1.00000000</i>
   <i name="AGGAC">      1.00000000</i>
   <i name="AMGGAC">      1.00000000</i>
   <i type="int" name="NKREDX">     1</i>
   <i type="int" name="NKREDY">     1</i>
   <i type="int" name="NKREDZ">     1</i>
   <i type="logical" name="SHIFTRED"> F  </i>
   <i type="logical" name="ODDONLY"> F  </i>
   <i type="logical" name="EVENONLY"> F  </i>
   <i type="int" name="LMAXFOCK">     0</i>
   <i type="int" name="NMAXFOCKAE">     0</i>
   <i type="logical" name="LFOCKAEDFT"> F  </i>
   <i name="HFSCREEN">      0.00000000</i>
   <i name="HFSCREENC">      0.00000000</i>
   <i type="int" name="NBANDSGWLOW">     0</i>
  </separator>
  <separator name="vdW DFT" >
   <i type="logical" name="LUSE_VDW"> F  </i>
   <i type="int" name="IVDW_NL">    -1</i>
   <i type="logical" name="LSPIN_VDW"> F  </i>
   <i name="ZAB_VDW">     -0.84910000</i>
   <i name="GAMMA_VDW">      1.39626340</i>
   <i name="ALPHA_VDW">      0.00000000</i>
   <i name="PARAM1">      0.12340000</i>
   <i name="PARAM2">      1.00000000</i>
   <i name="BPARAM">      6.30000000</i>
   <i name="CPARAM">      0.00930000</i>
  </separator>
  <separator name="model GW" >
   <i type="int" name="MODEL_GW">     0</i>
   <i name="MODEL_EPS0">     11.42047259</i>
   <i name="MODEL_ALPHA">      1.00000000</i>
  </separator>
  <separator name="linear response parameters" >
   <i type="logical" name="LEPSILON"> F  </i>
   <i type="logical" name="LRPA"> F  </i>
   <i type="logical" name="LNABLA"> F  </i>
   <i type="logical" name="LVEL"> F  </i>
   <i name="CSHIFT">      0.10000000</i>
   <i name="OMEGAMAX">     -1.00000000</i>
   <i name="DEG_THRESHOLD">      0.00200000</i>
   <i name="RTIME">     -0.10000000</i>
   <i name="WPLASMAI">      0.00000000</i>
   <v name="DFIELD">      0.00000000      0.00000000      0.00000000</v>
   <v name="WPLASMA">      0.00000000      0.00000000      0.00000000      0.00000000      0.00000000      0.00000000      0.00000000      0.00000000      0.00000000</v>
  </separator>
  <separator name="orbital magnetization" >
   <i type="logical" name="NUCIND"> F  </i>
   <v name="MAGPOS">      0.00000000      0.00000000      0.00000000</v>
   <i type="logical" name="LNICSALL"> T  </i>
   <i type="logical" name="ORBITALMAG"> F  </i>
   <i type="logical" name="LMAGBLOCH"> F  </i>
   <i type="logical" name="LCHIMAG"> F  </i>
   <i type="logical" name="LGAUGE"> T  </i>
   <i type="int" name="MAGATOM">     0</i>
   <v name="MAGDIPOL">      0.00000000      0.00000000      0.00000000</v>
   <v name="AVECCONST">      0.00000000      0.00000000      0.00000000</v>
  </separator>
  <separator name="response functions" >
   <i type="logical" name="LALL_IN_ONE"> F  </i>
   <i type="int" name="IALL_IN_ONE">    -1</i>
   <i type="int" name="NBANDS_WAVE">    -1</i>
   <i type="logical" name="LFINITE_TEMPERATURE"> F  </i>
   <i type="logical" name="LADDER"> F  </i>
   <i type="logical" name="LRPAFORCE"> F  </i>
   <i type="logical" name="LFXC"> F  </i>
   <i type="logical" name="LHARTREE"> T  </i>
   <i type="int" name="IBSE">     0</i>
   <v type="int" name="KPOINT">    -1     0     0     0</v>
   <i type="logical" name="LTCTC"> F  </i>
   <i type="logical" name="LTCTE"> F  </i>
   <i type="logical" name="LTETE"> F  </i>
   <i type="logical" name="LTRIPLET"> F  </i>
   <i type="logical" name="LFXCEPS"> F  </i>
   <i type="logical" name="LFXHEG"> F  </i>
   <i type="int" name="NATURALO">     2</i>
   <i type="logical" name="LHOLEGF"> F  </i>
   <i type="logical" name="L2ORDER"> F  </i>
   <i type="logical" name="LDMP1"> F  </i>
   <i type="logical" name="LMP2LT"> F  </i>
   <i type="logical" name="LSMP2LT"> F  </i>
   <i type="logical" name="LGWLF"> F  </i>
   <i name="ENCUTGW">     -1.60000002</i>
   <i name="ENCUTGWSOFT">     -1.60000002</i>
   <i name="ENCUTLF">     -1.00000000</i>
   <i type="logical" name="ESF_SPLINES"> F  </i>
   <i name="ESF_CONV">      0.01000000</i>
   <i type="int" name="ESF_NINTER">    15</i>
   <i type="int" name="LMAXMP2">    -1</i>
   <i name="SCISSOR">      0.00000000</i>
   <i type="int" name="NOMEGA">     0</i>
   <i type="int" name="NOMEGAR">     0</i>
   <i type="int" name="NBANDSGW">    -1</i>
   <i type="int" name="NBANDSO">    -1</i>
   <i type="int" name="NBANDSV">    -1</i>
   <i type="int" name="NELMGW">     1</i>
   <i type="int" name="NELMHF">     1</i>
   <i type="int" name="DIM">     3</i>
   <i type="int" name="IESPILON">     4</i>
   <i type="int" name="ANTIRES">     0</i>
   <i name="OMEGAMAX">    -30.00000000</i>
   <i name="OMEGAMIN">    -30.00000000</i>
   <i name="OMEGATL">   -200.00000000</i>
   <i type="int" name="OMEGAGRID">     0</i>
   <i name="CSHIFT">     -0.10000000</i>
   <i type="logical" name="LSELFENERGY"> F  </i>
   <i type="logical" name="LSPECTRAL"> F  </i>
   <i type="logical" name="LSPECTRALGW"> F  </i>
   <i type="logical" name="LSINGLES"> F  </i>
   <i type="logical" name="LFERMIGW"> F  </i>
   <i type="logical" name="ODDONLYGW"> F  </i>
   <i type="logical" name="EVENONLYGW"> F  </i>
   <i type="int" name="NKREDLFX">     1</i>
   <i type="int" name="NKREDLFY">     1</i>
   <i type="int" name="NKREDLFZ">     1</i>
   <i type="int" name="MAXMEM">  2800</i>
   <i type="int" name="TELESCOPE">     0</i>
   <i type="int" name="NTAUPAR">    -1</i>
   <i type="int" name="NOMEGAPAR">    -1</i>
   <i name="DAMP_NEWTON">      0.80000001</i>
   <i name="LAMBDA">      1.00000000</i>
  </separator>
  <separator name="External order field" >
   <i name="OFIELD_KAPPA">      0.00000000</i>
   <v name="OFIELD_K">      0.00000000      0.00000000      0.00000000</v>
   <i name="OFIELD_Q6_NEAR">      0.00000000</i>
   <i name="OFIELD_Q6_FAR">      0.00000000</i>
   <i name="OFIELD_A">      0.00000000</i>
  </separator>
  <separator name="optional k-points parameters" >
   <i type="int" name="KPOINTS_OPT_MODE">     1</i>
   <i type="logical" name="LKPOINTS_OPT"> F  </i>
  </separator>
 </parameters>
 <atominfo>
  <atoms>      64 </atoms>
  <types>       1 </types>
  <array name="atoms" >
   <dimension dim="1">ion</dimension>
   <field type="string">element</field>
   <field type="int">atomtype</field>
   <set>
    <rc><c>Si</c><c>   1</c></rc>
    <rc><c>Si</c><c>   1</c></rc>
    <rc><c>Si</c><c>   1</c></rc>
    <rc><c>Si</c><c>   1</c></rc>
    <rc><c>Si</c><c>   1</c></rc>
    <rc><c>Si</c><c>   1</c></rc>
    <rc><c>Si</c><c>   1</c></rc>
    <rc><c>Si</c><c>   1</c></rc>
    <rc><c>Si</c><c>   1</c></rc>
    <rc><c>Si</c><c>   1</c></rc>
    <rc><c>Si</c><c>   1</c></rc>
    <rc><c>Si</c><c>   1</c></rc>
    <rc><c>Si</c><c>   1</c></rc>
    <rc><c>Si</c><c>   1</c></rc>
    <rc><c>Si</c><c>   1</c></rc>
    <rc><c>Si</c><c>   1</c></rc>
    <rc><c>Si</c><c>   1</c></rc>
    <rc><c>Si</c><c>   1</c></rc>
    <rc><c>Si</c><c>   1</c></rc>
    <rc><c>Si</c><c>   1</c></rc>
    <rc><c>Si</c><c>   1</c></rc>
    <rc><c>Si</c><c>   1</c></rc>
    <rc><c>Si</c><c>   1</c></rc>
    <rc><c>Si</c><c>   1</c></rc>
    <rc><c>Si</c><c>   1</c></rc>
    <rc><c>Si</c><c>   1</c></rc>
    <rc><c>Si</c><c>   1</c></rc>
    <rc><c>Si</c><c>   1</c></rc>
    <rc><c>Si</c><c>   1</c></rc>
    <rc><c>Si</c><c>   1</c></rc>
    <rc><c>Si</c><c>   1</c></rc>
    <rc><c>Si</c><c>   1</c></rc>
    <rc><c>Si</c><c>   1</c></rc>
    <rc><c>Si</c><c>   1</c></rc>
    <rc><c>Si</c><c>   1</c></rc>
    <rc><c>Si</c><c>   1</c></rc>
    <rc><c>Si</c><c>   1</c></rc>
    <rc><c>Si</c><c>   1</c></rc>
    <rc><c>Si</c><c>   1</c></rc>
    <rc><c>Si</c><c>   1</c></rc>
    <rc><c>Si</c><c>   1</c></rc>
    <rc><c>Si</c><c>   1</c></rc>
    <rc><c>Si</c><c>   1</c></rc>
    <rc><c>Si</c><c>   1</c></rc>
    <rc><c>Si</c><c>   1</c></rc>
    <rc><c>Si</c><c>   1</c></rc>
    <rc><c>Si</c><c>   1</c></rc>
    <rc><c>Si</c><c>   1</c></rc>
    <rc><c>Si</c><c>   1</c></rc>
    <rc><c>Si</c><c>   1</c></rc>
    <rc><c>Si</c><c>   1</c></rc>
    <rc><c>Si</c><c>   1</c></rc>
    <rc><c>Si</c><c>   1</c></rc>
    <rc><c>Si</c><c>   1</c></rc>
    <rc><c>Si</c><c>   1</c></rc>
    <rc><c>Si</c><c>   1</c></rc>
    <rc><c>Si</c><c>   1</c></rc>
    <rc><c>Si</c><c>   1</c></rc>
    <rc><c>Si</c><c>   1</c></rc>
    <rc><c>Si</c><c>   1</c></rc>
    <rc><c>Si</c><c>   1</c></rc>
    <rc><c>Si</c><c>   1</c></rc>
    <rc><c>Si</c><c>   1</c></rc>
    <rc><c>Si</c><c>   1</c></rc>
   </set>
  </array>
  <array name="atomtypes" >
   <dimension dim="1">type</dimension>
   <field type="int">atomspertype</field>
   <field type="string">element</field>
   <field>mass</field>
   <field>valence</field>
   <field type="string">pseudopotential</field>
   <set>
    <rc><c>  64</c><c>Si</c><c>     28.08500000</c><c>      4.00000000</c><c>  PAW_PBE Si 05Jan2001                  </c></rc>
   </set>
  </array>
 </atominfo>
 <structure name="initialpos" >
  <crystal>
   <varray name="basis" >
    <v>      10.82227560       0.10610102       0.00000000 </v>
    <v>       0.10610102      10.61007357       0.00000000 </v>
    <v>       0.00000000       0.00000000      10.61007357 </v>
   </varray>
   <i name="volume">   1218.18374336 </i>
   <varray name="rec_basis" >
    <v>       0.09241107      -0.00092411       0.00000000 </v>
    <v>      -0.00092411       0.09425929       0.00000000 </v>
    <v>       0.00000000       0.00000000       0.09425005 </v>
   </varray>
  </crystal>
  <varray name="positions" >
   <v>       0.00000000       0.00000000       0.00000000 </v>
   <v>       0.00000000       0.00000000       0.50000000 </v>
   <v>       0.00000000       0.50000000       0.00000000 </v>
   <v>       0.00000000       0.50000000       0.50000000 </v>
   <v>       0.50000000       0.00000000       0.00000000 </v>
   <v>       0.50000000       0.00000000       0.50000000 </v>
   <v>       0.50000000       0.50000000       0.00000000 </v>
   <v>       0.50000000       0.50000000       0.50000000 </v>
   <v>       0.37500000       0.37500000       0.12500000 </v>
   <v>       0.37500000       0.37500000       0.62500000 </v>
   <v>       0.37500000       0.87500000       0.12500000 </v>
   <v>       0.37500000       0.87500000       0.62500000 </v>
   <v>       0.87500000       0.37500000       0.12500000 </v>
   <v>       0.87500000       0.37500000       0.62500000 </v>
   <v>       0.87500000       0.87500000       0.12500000 </v>
   <v>       0.87500000       0.87500000       0.62500000 </v>
   <v>       0.00000000       0.25000000       0.25000000 </v>
   <v>       0.00000000       0.25000000       0.75000000 </v>
   <v>       0.00000000       0.75000000       0.25000000 </v>
   <v>       0.00000000       0.75000000       0.75000000 </v>
   <v>       0.50000000       0.25000000       0.25000000 </v>
   <v>       0.50000000       0.25000000       0.75000000 </v>
   <v>       0.50000000       0.75000000       0.25000000 </v>
   <v>       0.50000000       0.75000000       0.75000000 </v>
   <v>       0.37500000       0.12500000       0.37500000 </v>
   <v>       0.37500000       0.12500000       0.87500000 </v>
   <v>       0.37500000       0.62500000       0.37500000 </v>
   <v>       0.37500000       0.62500000       0.87500000 </v>
   <v>       0.87500000       0.12500000       0.37500000 </v>
   <v>       0.87500000       0.12500000       0.87500000 </v>
   <v>       0.87500000       0.62500000       0.37500000 </v>
   <v>       0.87500000       0.62500000       0.87500000 </v>
   <v>       0.25000000       0.00000000       0.25000000 </v>
   <v>       0.25000000       0.00000000       0.75000000 </v>
   <v>       0.25000000       0.50000000       0.25000000 </v>
   <v>       0.25000000       0.50000000       0.75000000 </v>
   <v>       0.75000000       0.00000000       0.25000000 </v>
   <v>       0.75000000       0.00000000       0.75000000 </v>
   <v>       0.75000000       0.50000000       0.25000000 </v>
   <v>       0.75000000       0.50000000       0.75000000 </v>
   <v>       0.12500000       0.37500000       0.37500000 </v>
   <v>       0.12500000       0.37500000       0.87500000 </v>
   <v>       0.12500000       0.87500000       0.37500000 </v>
   <v>       0.12500000       0.87500000       0.87500000 </v>
   <v>       0.62500000       0.37500000       0.37500000 </v>
   <v>       0.62500000       0.37500000       0.87500000 </v>
   <v>       0.62500000       0.87500000       0.37500000 </v>
   <v>       0.62500000       0.87500000       0.87500000 </v>
   <v>       0.25000000       0.25000000       0.00000000 </v>
   <v>       0.25000000       0.25000000       0.50000000 </v>
   <v>       0.25000000       0.75000000       0.00000000 </v>
   <v>       0.25000000       0.75000000       0.50000000 </v>
   <v>       0.75000000       0.25000000       0.00000000 </v>
   <v>       0.75000000       0.25000000       0.50000000 </v>
   <v>       0.75000000       0.75000000       0.00000000 </v>
   <v>       0.75000000       0.75000000       0.50000000 </v>
   <v>       0.12500000       0.12500000       0.12500000 </v>
   <v>       0.12500000       0.12500000       0.62500000 </v>
   <v>       0.12500000       0.62500000       0.12500000 </v>
   <v>       0.12500000       0.62500000       0.62500000 </v>
   <v>       0.62500000       0.12500000       0.12500000 </v>
   <v>       0.62500000       0.12500000       0.62500000 </v>
   <v>       0.62500000       0.62500000       0.12500000 </v>
   <v>       0.62500000       0.62500000       0.62500000 </v>
  </varray>
 </structure>
 <calculation>
  <scstep>
   <time name="dav">    1.29    1.38</time>
   <time name="total">    1.48    1.59</time>
   <energy>
    <i name="alphaZ">    113.18833017 </i>
    <i name="ewald">  -7437.20830311 </i>
    <i name="hartreedc">   -328.42511147 </i>
    <i name="XCdc">   -552.61324016 </i>
    <i name="pawpsdc">   5598.62625415 </i>
    <i name="pawaedc">  -4492.17844134 </i>
    <i name="eentropy">      0.01059136 </i>
    <i name="bandstr">   1101.72361105 </i>
    <i name="atom">   6564.79586099 </i>
    <i name="e_fr_energy">    567.91955165 </i>
    <i name="e_wo_entrp">    567.90896029 </i>
    <i name="e_0_energy">    567.91602119 </i>
   </energy>
  </scstep>
  <scstep>
   <time name="dav">    1.34    1.34</time>
   <time name="total">    1.34    1.34</time>
   <energy>
    <i name="e_fr_energy">   -310.23169374 </i>
    <i name="e_wo_entrp">   -310.23977155 </i>
    <i name="e_0_energy">   -310.23438634 </i>
   </energy>
  </scstep>
  <scstep>
   <time name="dav">    1.35    1.37</time>
   <time name="total">    1.35    1.37</time>
   <energy>
    <i name="e_fr_energy">   -372.86059224 </i>
    <i name="e_wo_entrp">   -372.86804978 </i>
    <i name="e_0_energy">   -372.86307809 </i>
   </energy>
  </scstep>
  <scstep>
   <time name="dav">    1.33    1.34</time>
   <time name="total">    1.33    1.34</time>
   <energy>
    <i name="e_fr_energy">   -374.46346026 </i>
    <i name="e_wo_entrp">   -374.47081691 </i>
    <i name="e_0_energy">   -374.46591247 </i>
   </energy>
  </scstep>
  <scstep>
   <time name="dav">    1.32    1.34</time>
   <time name="total">    1.61    1.63</time>
   <energy>
    <i name="e_fr_energy">   -374.51334994 </i>
    <i name="e_wo_entrp">   -374.52077309 </i>
    <i name="e_0_energy">   -374.51582433 </i>
   </energy>
  </scstep>
  <scstep>
   <time name="diag">    0.14    0.14</time>
   <time name="diis">    0.70    0.71</time>
   <time name="orth">    0.02    0.02</time>
   <time name="total">    1.28    1.31</time>
   <energy>
    <i name="e_fr_energy">   -368.71852412 </i>
    <i name="e_wo_entrp">   -368.73818605 </i>
    <i name="e_0_energy">   -368.72507810 </i>
   </energy>
  </scstep>
  <scstep>
   <time name="diag">    0.14    0.14</time>
   <time name="diis">    0.70    0.70</time>
   <time name="orth">    0.02    0.02</time>
   <time name="total">    1.29    1.30</time>
   <energy>
    <i name="e_fr_energy">   -366.17555770 </i>
    <i name="e_wo_entrp">   -366.19272038 </i>
    <i name="e_0_energy">   -366.18127860 </i>
   </energy>
  </scstep>
  <scstep>
   <time name="diag">    0.14    0.14</time>
   <time name="diis">    0.71    0.71</time>
   <time name="orth">    0.02    0.02</time>
   <time name="total">    1.29    1.31</time>
   <energy>
    <i name="e_fr_energy">   -366.21387637 </i>
    <i name="e_wo_entrp">   -366.23567479 </i>
    <i name="e_0_energy">   -366.22114251 </i>
   </energy>
  </scstep>
  <scstep>
   <time name="diag">    0.13    0.13</time>
   <time name="diis">    0.71    0.71</time>
   <time name="orth">    0.02    0.02</time>
   <time name="total">    1.28    1.30</time>
   <energy>
    <i name="e_fr_energy">   -366.23613376 </i>
    <i name="e_wo_entrp">   -366.25680709 </i>
    <i name="e_0_energy">   -366.24302487 </i>
   </energy>
  </scstep>
  <scstep>
   <time name="diag">    0.13    0.13</time>
   <time name="diis">    0.76    0.76</time>
   <time name="orth">    0.02    0.02</time>
   <time name="total">    1.32    1.35</time>
   <energy>
    <i name="e_fr_energy">   -366.24081244 </i>
    <i name="e_wo_entrp">   -366.26135642 </i>
    <i name="e_0_energy">   -366.24766043 </i>
   </energy>
  </scstep>
  <scstep>
   <time name="diag">    0.13    0.14</time>
   <time name="diis">    0.69    0.70</time>
   <time name="orth">    0.02    0.02</time>
   <time name="total">    1.25    1.29</time>
   <energy>
    <i name="e_fr_energy">   -366.23633611 </i>
    <i name="e_wo_entrp">   -366.25830027 </i>
    <i name="e_0_energy">   -366.24365750 </i>
   </energy>
  </scstep>
  <scstep>
   <time name="diag">    0.13    0.13</time>
   <time name="diis">    0.70    0.70</time>
   <time name="orth">    0.02    0.02</time>
   <time name="total">    1.28    1.29</time>
   <energy>
    <i name="e_fr_energy">   -366.23652664 </i>
    <i name="e_wo_entrp">   -366.25852474 </i>
    <i name="e_0_energy">   -366.24385934 </i>
   </energy>
  </scstep>
  <scstep>
   <time name="diag">    0.13    0.13</time>
   <time name="diis">    0.73    0.73</time>
   <time name="orth">    0.02    0.02</time>
   <time name="total">    1.30    1.32</time>
   <energy>
    <i name="e_fr_energy">   -366.23659558 </i>
    <i name="e_wo_entrp">   -366.25860010 </i>
    <i name="e_0_energy">   -366.24393042 </i>
   </energy>
  </scstep>
  <scstep>
   <time name="diag">    0.13    0.13</time>
   <time name="diis">    0.69    0.70</time>
   <time name="orth">    0.02    0.02</time>
   <time name="total">    1.26    1.28</time>
   <energy>
    <i name="e_fr_energy">   -366.23659690 </i>
    <i name="e_wo_entrp">   -366.25861525 </i>
    <i name="e_0_energy">   -366.24393635 </i>
   </energy>
  </scstep>
  <scstep>
   <time name="diag">    0.13    0.13</time>
   <time name="diis">    0.71    0.71</time>
   <time name="orth">    0.02    0.02</time>
   <time name="total">    1.28    1.30</time>
   <energy>
    <i name="e_fr_energy">   -366.23664123 </i>
    <i name="e_wo_entrp">   -366.25870162 </i>
    <i name="e_0_energy">   -366.24399469 </i>
   </energy>
  </scstep>
  <scstep>
   <time name="diag">    0.13    0.13</time>
   <time name="diis">    0.70    0.70</time>
   <time name="orth">    0.02    0.02</time>
   <time name="total">    1.28    1.30</time>
   <energy>
    <i name="e_fr_energy">   -366.23667101 </i>
    <i name="e_wo_entrp">   -366.25875043 </i>
    <i name="e_0_energy">   -366.24403082 </i>
   </energy>
  </scstep>
  <scstep>
   <time name="diag">    0.13    0.13</time>
   <time name="diis">    0.66    0.66</time>
   <time name="orth">    0.02    0.02</time>
   <time name="total">    1.23    1.25</time>
   <energy>
    <i name="e_fr_energy">   -366.23667518 </i>
    <i name="e_wo_entrp">   -366.25876246 </i>
    <i name="e_0_energy">   -366.24403761 </i>
   </energy>
  </scstep>
  <scstep>
   <time name="diag">    0.13    0.13</time>
   <time name="diis">    0.45    0.45</time>
   <time name="orth">    0.02    0.02</time>
   <time name="total">    0.75    0.77</time>
   <energy>
    <i name="alphaZ">    113.18833017 </i>
    <i name="ewald">  -7437.20830311 </i>
    <i name="hartreedc">   -449.44477276 </i>
    <i name="XCdc">   -532.11780806 </i>
    <i name="pawpsdc">  30985.45175537 </i>
    <i name="pawaedc"> -29887.18622064 </i>
    <i name="eentropy">      0.02208935 </i>
    <i name="bandstr">    276.26239278 </i>
    <i name="atom">   6564.79586099 </i>
    <i name="e_fr_energy">   -366.23667592 </i>
    <i name="e_wo_entrp">   -366.25876527 </i>
    <i name="e_0_energy">   -366.24403904 </i>
   </energy>
  </scstep>
  <structure>
   <crystal>
    <varray name="basis" >
     <v>      10.82227560       0.10610102       0.00000000 </v>
     <v>       0.10610102      10.61007357       0.00000000 </v>
     <v>       0.00000000       0.00000000      10.61007357 </v>
    </varray>
    <i name="volume">   1218.18374336 </i>
    <varray name="rec_basis" >
     <v>       0.09241107      -0.00092411       0.00000000 </v>
     <v>      -0.00092411       0.09425929       0.00000000 </v>
     <v>       0.00000000       0.00000000       0.09425005 </v>
    </varray>
   </crystal>
   <varray name="positions" >
    <v>       0.00000000       0.00000000       0.00000000 </v>
    <v>       0.00000000       0.00000000       0.50000000 </v>
    <v>       0.00000000       0.50000000       0.00000000 </v>
    <v>       0.00000000       0.50000000       0.50000000 </v>
    <v>       0.50000000       0.00000000       0.00000000 </v>
    <v>       0.50000000       0.00000000       0.50000000 </v>
    <v>       0.50000000       0.50000000       0.00000000 </v>
    <v>       0.50000000       0.50000000       0.50000000 </v>
    <v>       0.37500000       0.37500000       0.12500000 </v>
    <v>       0.37500000       0.37500000       0.62500000 </v>
    <v>       0.37500000       0.87500000       0.12500000 </v>
    <v>       0.37500000       0.87500000       0.62500000 </v>
    <v>       0.87500000       0.37500000       0.12500000 </v>
    <v>       0.87500000       0.37500000       0.62500000 </v>
    <v>       0.87500000       0.87500000       0.12500000 </v>
    <v>       0.87500000       0.87500000       0.62500000 </v>
    <v>       0.00000000       0.25000000       0.25000000 </v>
    <v>       0.00000000       0.25000000       0.75000000 </v>
    <v>       0.00000000       0.75000000       0.25000000 </v>
    <v>       0.00000000       0.75000000       0.75000000 </v>
    <v>       0.50000000       0.25000000       0.25000000 </v>
    <v>       0.50000000       0.25000000       0.75000000 </v>
    <v>       0.50000000       0.75000000       0.25000000 </v>
    <v>       0.50000000       0.75000000       0.75000000 </v>
    <v>       0.37500000       0.12500000       0.37500000 </v>
    <v>       0.37500000       0.12500000       0.87500000 </v>
    <v>       0.37500000       0.62500000       0.37500000 </v>
    <v>       0.37500000       0.62500000       0.87500000 </v>
    <v>       0.87500000       0.12500000       0.37500000 </v>
    <v>       0.87500000       0.12500000       0.87500000 </v>
    <v>       0.87500000       0.62500000       0.37500000 </v>
    <v>       0.87500000       0.62500000       0.87500000 </v>
    <v>       0.25000000       0.00000000       0.25000000 </v>
    <v>       0.25000000       0.00000000       0.75000000 </v>
    <v>       0.25000000       0.50000000       0.25000000 </v>
    <v>       0.25000000       0.50000000       0.75000000 </v>
    <v>       0.75000000       0.00000000       0.25000000 </v>
    <v>       0.75000000       0.00000000       0.75000000 </v>
    <v>       0.75000000       0.50000000       0.25000000 </v>
    <v>       0.75000000       0.50000000       0.75000000 </v>
    <v>       0.12500000       0.37500000       0.37500000 </v>
    <v>       0.12500000       0.37500000       0.87500000 </v>
    <v>       0.12500000       0.87500000       0.37500000 </v>
    <v>       0.12500000       0.87500000       0.87500000 </v>
    <v>       0.62500000       0.37500000       0.37500000 </v>
    <v>       0.62500000       0.37500000       0.87500000 </v>
    <v>       0.62500000       0.87500000       0.37500000 </v>
    <v>       0.62500000       0.87500000       0.87500000 </v>
    <v>       0.25000000       0.25000000       0.00000000 </v>
    <v>       0.25000000       0.25000000       0.50000000 </v>
    <v>       0.25000000       0.75000000       0.00000000 </v>
    <v>       0.25000000       0.75000000       0.50000000 </v>
    <v>       0.75000000       0.25000000       0.00000000 </v>
    <v>       0.75000000       0.25000000       0.50000000 </v>
    <v>       0.75000000       0.75000000       0.00000000 </v>
    <v>       0.75000000       0.75000000       0.50000000 </v>
    <v>       0.12500000       0.12500000       0.12500000 </v>
    <v>       0.12500000       0.12500000       0.62500000 </v>
    <v>       0.12500000       0.62500000       0.12500000 </v>
    <v>       0.12500000       0.62500000       0.62500000 </v>
    <v>       0.62500000       0.12500000       0.12500000 </v>
    <v>       0.62500000       0.12500000       0.62500000 </v>
    <v>       0.62500000       0.62500000       0.12500000 </v>
    <v>       0.62500000       0.62500000       0.62500000 </v>
   </varray>
  </structure>
  <varray name="forces" >
   <v>       0.00000000      -0.00000000       0.24764242 </v>
   <v>       0.00000000      -0.00000000       0.24764242 </v>
   <v>      -0.00000000       0.00000000       0.24764242 </v>
   <v>      -0.00000000       0.00000000       0.24764242 </v>
   <v>       0.00000000       0.00000000       0.24764242 </v>
   <v>       0.00000000       0.00000000       0.24764242 </v>
   <v>      -0.00000000      -0.00000000       0.24764242 </v>
   <v>      -0.00000000       0.00000000       0.24764242 </v>
   <v>      -0.00000000      -0.00000000      -0.24764242 </v>
   <v>      -0.00000000      -0.00000000      -0.24764242 </v>
   <v>      -0.00000000      -0.00000000      -0.24764242 </v>
   <v>      -0.00000000      -0.00000000      -0.24764242 </v>
   <v>       0.00000000      -0.00000000      -0.24764242 </v>
   <v>       0.00000000      -0.00000000      -0.24764242 </v>
   <v>       0.00000000      -0.00000000      -0.24764242 </v>
   <v>       0.00000000       0.00000000      -0.24764242 </v>
   <v>      -0.00000000       0.00000000       0.24764242 </v>
   <v>      -0.00000000       0.00000000       0.24764242 </v>
   <v>      -0.00000000      -0.00000000       0.24764242 </v>
   <v>      -0.00000000       0.00000000       0.24764242 </v>
   <v>      -0.00000000       0.00000000       0.24764242 </v>
   <v>       0.00000000       0.00000000       0.24764242 </v>
   <v>       0.00000000       0.00000000       0.24764242 </v>
   <v>       0.00000000       0.00000000       0.24764242 </v>
   <v>      -0.00000000      -0.00000000      -0.24764242 </v>
   <v>      -0.00000000      -0.00000000      -0.24764242 </v>
   <v>      -0.00000000      -0.00000000      -0.24764242 </v>
   <v>      -0.00000000      -0.00000000      -0.24764242 </v>
   <v>       0.00000000      -0.00000000      -0.24764242 </v>
   <v>       0.00000000      -0.00000000      -0.24764242 </v>
   <v>       0.00000000      -0.00000000      -0.24764242 </v>
   <v>       0.00000000       0.00000000      -0.24764242 </v>
   <v>      -0.00000000      -0.00000000       0.24764242 </v>
   <v>      -0.00000000      -0.00000000       0.24764242 </v>
   <v>       0.00000000      -0.00000000       0.24764242 </v>
   <v>      -0.00000000      -0.00000000       0.24764242 </v>
   <v>      -0.00000000      -0.00000000       0.24764242 </v>
   <v>      -0.00000000      -0.00000000       0.24764242 </v>
   <v>       0.00000000       0.00000000       0.24764242 </v>
   <v>       0.00000000      -0.00000000       0.24764242 </v>
   <v>       0.00000000       0.00000000      -0.24764242 </v>
   <v>       0.00000000       0.00000000      -0.24764242 </v>
   <v>       0.00000000       0.00000000      -0.24764242 </v>
   <v>       0.00000000       0.00000000      -0.24764242 </v>
   <v>      -0.00000000       0.00000000      -0.24764242 </v>
   <v>      -0.00000000       0.00000000      -0.24764242 </v>
   <v>      -0.00000000      -0.00000000      -0.24764242 </v>
   <v>      -0.00000000      -0.00000000      -0.24764242 </v>
   <v>      -0.00000000      -0.00000000       0.24764242 </v>
   <v>       0.00000000      -0.00000000       0.24764242 </v>
   <v>       0.00000000      -0.00000000       0.24764242 </v>
   <v>       0.00000000       0.00000000       0.24764242 </v>
   <v>      -0.00000000      -0.00000000       0.24764242 </v>
   <v>      -0.00000000       0.00000000       0.24764242 </v>
   <v>       0.00000000      -0.00000000       0.24764242 </v>
   <v>       0.00000000      -0.00000000       0.24764242 </v>
   <v>       0.00000000       0.00000000      -0.24764242 </v>
   <v>       0.00000000       0.00000000      -0.24764242 </v>
   <v>       0.00000000       0.00000000      -0.24764242 </v>
   <v>       0.00000000       0.00000000      -0.24764242 </v>
   <v>      -0.00000000       0.00000000      -0.24764242 </v>
   <v>      -0.00000000       0.00000000      -0.24764242 </v>
   <v>      -0.00000000      -0.00000000      -0.24764242 </v>
   <v>      -0.00000000       0.00000000      -0.24764242 </v>
  </varray>
  <varray name="stress" >
   <v>      43.79963363     -23.33189743       0.00000000 </v>
   <v>     -23.33189742      62.86937086       0.00000000 </v>
   <v>       0.00000000       0.00000000      62.31998907 </v>
  </varray>
  <energy>
   <i name="e_fr_energy">   -366.23667592 </i>
   <i name="e_wo_entrp">   -366.25876527 </i>
   <i name="e_0_energy">   -366.24403904 </i>
  </energy>
  <time name="totalsc">   26.92   27.39</time>
 </calculation>
 <calculation>
  <scstep>
   <time name="dav">    1.34    1.35</time>
   <time name="total">    1.76    1.76</time>
   <energy>
    <i name="alphaZ">    113.18833017 </i>
    <i name="ewald">  -7438.21268887 </i>
    <i name="hartreedc">   -448.93374489 </i>
    <i name="XCdc">   -532.13666208 </i>
    <i name="pawpsdc">  30992.99125862 </i>
    <i name="pawaedc"> -29894.72495476 </i>
    <i name="eentropy">      0.00921214 </i>
    <i name="bandstr">    276.74274497 </i>
    <i name="atom">   6564.79586099 </i>
    <i name="e_fr_energy">   -366.28064371 </i>
    <i name="e_wo_entrp">   -366.28985585 </i>
    <i name="e_0_energy">   -366.28371442 </i>
   </energy>
  </scstep>
  <scstep>
   <time name="diag">    0.14    0.14</time>
   <time name="diis">    0.70    0.70</time>
   <time name="orth">    0.02    0.02</time>
   <time name="total">    1.27    1.30</time>
   <energy>
    <i name="e_fr_energy">   -366.29256219 </i>
    <i name="e_wo_entrp">   -366.30181747 </i>
    <i name="e_0_energy">   -366.29564728 </i>
   </energy>
  </scstep>
  <scstep>
   <time name="diag">    0.13    0.13</time>
   <time name="diis">    0.71    0.71</time>
   <time name="orth">    0.02    0.02</time>
   <time name="total">    1.28    1.30</time>
   <energy>
    <i name="e_fr_energy">   -366.29403617 </i>
    <i name="e_wo_entrp">   -366.30366904 </i>
    <i name="e_0_energy">   -366.29724713 </i>
   </energy>
  </scstep>
  <scstep>
   <time name="diag">    0.13    0.13</time>
   <time name="diis">    0.71    0.71</time>
   <time name="orth">    0.02    0.02</time>
   <time name="total">    1.28    1.30</time>
   <energy>
    <i name="e_fr_energy">   -366.29400027 </i>
    <i name="e_wo_entrp">   -366.30393127 </i>
    <i name="e_0_energy">   -366.29731061 </i>
   </energy>
  </scstep>
  <scstep>
   <time name="diag">    0.13    0.13</time>
   <time name="diis">    0.71    0.71</time>
   <time name="orth">    0.02    0.02</time>
   <time name="total">    1.28    1.30</time>
   <energy>
    <i name="e_fr_energy">   -366.29402020 </i>
    <i name="e_wo_entrp">   -366.30406436 </i>
    <i name="e_0_energy">   -366.29736825 </i>
   </energy>
  </scstep>
  <scstep>
   <time name="diag">    0.13    0.13</time>
   <time name="diis">    0.75    0.75</time>
   <time name="orth">    0.02    0.02</time>
   <time name="total">    1.31    1.34</time>
   <energy>
    <i name="e_fr_energy">   -366.29403178 </i>
    <i name="e_wo_entrp">   -366.30406930 </i>
    <i name="e_0_energy">   -366.29737762 </i>
   </energy>
  </scstep>
  <scstep>
   <time name="diag">    0.14    0.15</time>
   <time name="diis">    0.65    0.66</time>
   <time name="orth">    0.02    0.02</time>
   <time name="total">    1.23    1.26</time>
   <energy>
    <i name="e_fr_energy">   -366.29403316 </i>
    <i name="e_wo_entrp">   -366.30406695 </i>
    <i name="e_0_energy">   -366.29737776 </i>
   </energy>
  </scstep>
  <scstep>
   <time name="diag">    0.13    0.13</time>
   <time name="diis">    0.50    0.50</time>
   <time name="orth">    0.02    0.02</time>
   <time name="total">    0.83    0.86</time>
   <energy>
    <i name="alphaZ">    113.18833017 </i>
    <i name="ewald">  -7438.21268887 </i>
    <i name="hartreedc">   -448.65151235 </i>
    <i name="XCdc">   -532.17950130 </i>
    <i name="pawpsdc">  30947.84301517 </i>
    <i name="pawaedc"> -29849.55169607 </i>
    <i name="eentropy">      0.01003507 </i>
    <i name="bandstr">    276.46412385 </i>
    <i name="atom">   6564.79586099 </i>
    <i name="e_fr_energy">   -366.29403334 </i>
    <i name="e_wo_entrp">   -366.30406841 </i>
    <i name="e_0_energy">   -366.29737836 </i>
   </energy>
  </scstep>
  <structure>
   <crystal>
    <varray name="basis" >
     <v>      10.82227560       0.10610102       0.00000000 </v>
     <v>       0.10610102      10.61007357       0.00000000 </v>
     <v>       0.00000000       0.00000000      10.61007357 </v>
    </varray>
    <i name="volume">   1218.18374336 </i>
    <varray name="rec_basis" >
     <v>       0.09241107      -0.00092411       0.00000000 </v>
     <v>      -0.00092411       0.09425929       0.00000000 </v>
     <v>       0.00000000       0.00000000       0.09425005 </v>
    </varray>
   </crystal>
   <varray name="positions" >
    <v>       0.00000000       1.00000000       0.00112600 </v>
    <v>       0.00000000       1.00000000       0.50112600 </v>
    <v>       1.00000000       0.50000000       0.00112600 </v>
    <v>       1.00000000       0.50000000       0.50112600 </v>
    <v>       0.50000000       0.00000000       0.00112600 </v>
    <v>       0.50000000       0.00000000       0.50112600 </v>
    <v>       0.50000000       0.50000000       0.00112600 </v>
    <v>       0.50000000       0.50000000       0.50112600 </v>
    <v>       0.37500000       0.37500000       0.12387400 </v>
    <v>       0.37500000       0.37500000       0.62387400 </v>
    <v>       0.37500000       0.87500000       0.12387400 </v>
    <v>       0.37500000       0.87500000       0.62387400 </v>
    <v>       0.87500000       0.37500000       0.12387400 </v>
    <v>       0.87500000       0.37500000       0.62387400 </v>
    <v>       0.87500000       0.87500000       0.12387400 </v>
    <v>       0.87500000       0.87500000       0.62387400 </v>
    <v>       1.00000000       0.25000000       0.25112600 </v>
    <v>       1.00000000       0.25000000       0.75112600 </v>
    <v>       1.00000000       0.75000000       0.25112600 </v>
    <v>       1.00000000       0.75000000       0.75112600 </v>
    <v>       0.50000000       0.25000000       0.25112600 </v>
    <v>       0.50000000       0.25000000       0.75112600 </v>
    <v>       0.50000000       0.75000000       0.25112600 </v>
    <v>       0.50000000       0.75000000       0.75112600 </v>
    <v>       0.37500000       0.12500000       0.37387400 </v>
    <v>       0.37500000       0.12500000       0.87387400 </v>
    <v>       0.37500000       0.62500000       0.37387400 </v>
    <v>       0.37500000       0.62500000       0.87387400 </v>
    <v>       0.87500000       0.12500000       0.37387400 </v>
    <v>       0.87500000       0.12500000       0.87387400 </v>
    <v>       0.87500000       0.62500000       0.37387400 </v>
    <v>       0.87500000       0.62500000       0.87387400 </v>
    <v>       0.25000000       1.00000000       0.25112600 </v>
    <v>       0.25000000       1.00000000       0.75112600 </v>
    <v>       0.25000000       0.50000000       0.25112600 </v>
    <v>       0.25000000       0.50000000       0.75112600 </v>
    <v>       0.75000000       1.00000000       0.25112600 </v>
    <v>       0.75000000       1.00000000       0.75112600 </v>
    <v>       0.75000000       0.50000000       0.25112600 </v>
    <v>       0.75000000       0.50000000       0.75112600 </v>
    <v>       0.12500000       0.37500000       0.37387400 </v>
    <v>       0.12500000       0.37500000       0.87387400 </v>
    <v>       0.12500000       0.87500000       0.37387400 </v>
    <v>       0.12500000       0.87500000       0.87387400 </v>
    <v>       0.62500000       0.37500000       0.37387400 </v>
    <v>       0.62500000       0.37500000       0.87387400 </v>
    <v>       0.62500000       0.87500000       0.37387400 </v>
    <v>       0.62500000       0.87500000       0.87387400 </v>
    <v>       0.25000000       0.25000000       0.00112600 </v>
    <v>       0.25000000       0.25000000       0.50112600 </v>
    <v>       0.25000000       0.75000000       0.00112600 </v>
    <v>       0.25000000       0.75000000       0.50112600 </v>
    <v>       0.75000000       0.25000000       0.00112600 </v>
    <v>       0.75000000       0.25000000       0.50112600 </v>
    <v>       0.75000000       0.75000000       0.00112600 </v>
    <v>       0.75000000       0.75000000       0.50112600 </v>
    <v>       0.12500000       0.12500000       0.12387400 </v>
    <v>       0.12500000       0.12500000       0.62387400 </v>
    <v>       0.12500000       0.62500000       0.12387400 </v>
    <v>       0.12500000       0.62500000       0.62387400 </v>
    <v>       0.62500000       0.12500000       0.12387400 </v>
    <v>       0.62500000       0.12500000       0.62387400 </v>
    <v>       0.62500000       0.62500000       0.12387400 </v>
    <v>       0.62500000       0.62500000       0.62387400 </v>
   </varray>
  </structure>
  <varray name="forces" >
   <v>      -0.00000000      -0.00000000      -0.09492190 </v>
   <v>       0.00000000      -0.00000000      -0.09492190 </v>
   <v>      -0.00000000      -0.00000000      -0.09492190 </v>
   <v>      -0.00000000      -0.00000000      -0.09492190 </v>
   <v>       0.00000000       0.00000000      -0.09492190 </v>
   <v>       0.00000000       0.00000000      -0.09492190 </v>
   <v>       0.00000000       0.00000000      -0.09492190 </v>
   <v>       0.00000000       0.00000000      -0.09492190 </v>
   <v>      -0.00000000       0.00000000       0.09492190 </v>
   <v>      -0.00000000      -0.00000000       0.09492190 </v>
   <v>      -0.00000000      -0.00000000       0.09492190 </v>
   <v>      -0.00000000      -0.00000000       0.09492190 </v>
   <v>       0.00000000       0.00000000       0.09492190 </v>
   <v>       0.00000000      -0.00000000       0.09492190 </v>
   <v>      -0.00000000       0.00000000       0.09492190 </v>
   <v>       0.00000000       0.00000000       0.09492190 </v>
   <v>      -0.00000000      -0.00000000      -0.09492190 </v>
   <v>       0.00000000      -0.00000000      -0.09492190 </v>
   <v>      -0.00000000      -0.00000000      -0.09492190 </v>
   <v>      -0.00000000      -0.00000000      -0.09492190 </v>
   <v>       0.00000000       0.00000000      -0.09492190 </v>
   <v>       0.00000000       0.00000000      -0.09492190 </v>
   <v>       0.00000000       0.00000000      -0.09492190 </v>
   <v>       0.00000000       0.00000000      -0.09492190 </v>
   <v>      -0.00000000      -0.00000000       0.09492190 </v>
   <v>      -0.00000000       0.00000000       0.09492190 </v>
   <v>      -0.00000000      -0.00000000       0.09492190 </v>
   <v>      -0.00000000      -0.00000000       0.09492190 </v>
   <v>      -0.00000000       0.00000000       0.09492190 </v>
   <v>      -0.00000000       0.00000000       0.09492190 </v>
   <v>       0.00000000       0.00000000       0.09492190 </v>
   <v>       0.00000000      -0.00000000       0.09492190 </v>
   <v>      -0.00000000       0.00000000      -0.09492190 </v>
   <v>      -0.00000000      -0.00000000      -0.09492190 </v>
   <v>      -0.00000000       0.00000000      -0.09492190 </v>
   <v>      -0.00000000      -0.00000000      -0.09492190 </v>
   <v>      -0.00000000       0.00000000      -0.09492190 </v>
   <v>      -0.00000000       0.00000000      -0.09492190 </v>
   <v>       0.00000000       0.00000000      -0.09492190 </v>
   <v>       0.00000000       0.00000000      -0.09492190 </v>
   <v>      -0.00000000       0.00000000       0.09492190 </v>
   <v>       0.00000000       0.00000000       0.09492190 </v>
   <v>       0.00000000      -0.00000000       0.09492190 </v>
   <v>       0.00000000      -0.00000000       0.09492190 </v>
   <v>       0.00000000      -0.00000000       0.09492190 </v>
   <v>       0.00000000      -0.00000000       0.09492190 </v>
   <v>      -0.00000000      -0.00000000       0.09492190 </v>
   <v>      -0.00000000       0.00000000       0.09492190 </v>
   <v>      -0.00000000      -0.00000000      -0.09492190 </v>
   <v>      -0.00000000      -0.00000000      -0.09492190 </v>
   <v>      -0.00000000      -0.00000000      -0.09492190 </v>
   <v>      -0.00000000      -0.00000000      -0.09492190 </v>
   <v>       0.00000000       0.00000000      -0.09492190 </v>
   <v>       0.00000000       0.00000000      -0.09492190 </v>
   <v>       0.00000000       0.00000000      -0.09492190 </v>
   <v>       0.00000000       0.00000000      -0.09492190 </v>
   <v>       0.00000000       0.00000000       0.09492190 </v>
   <v>       0.00000000      -0.00000000       0.09492190 </v>
   <v>      -0.00000000       0.00000000       0.09492190 </v>
   <v>       0.00000000       0.00000000       0.09492190 </v>
   <v>       0.00000000       0.00000000       0.09492190 </v>
   <v>      -0.00000000      -0.00000000       0.09492190 </v>
   <v>      -0.00000000      -0.00000000       0.09492190 </v>
   <v>      -0.00000000      -0.00000000       0.09492190 </v>
  </varray>
  <varray name="stress" >
   <v>      43.28328737     -10.46264455       0.00000000 </v>
   <v>     -10.46264458      62.21543718       0.00000000 </v>
   <v>       0.00000000       0.00000000      61.03058712 </v>
  </varray>
  <energy>
   <i name="e_fr_energy">   -366.29403334 </i>
   <i name="e_wo_entrp">   -366.30406841 </i>
   <i name="e_0_energy">   -366.29737836 </i>
  </energy>
  <time name="totalsc">   13.94   14.13</time>
 </calculation>
 <calculation>
  <scstep>
   <time name="dav">    1.27    1.27</time>
   <time name="total">    1.69    1.69</time>
   <energy>
    <i name="alphaZ">    113.18833017 </i>
    <i name="ewald">  -7437.97520414 </i>
    <i name="hartreedc">   -448.79148396 </i>
    <i name="XCdc">   -532.17300791 </i>
    <i name="pawpsdc">  30947.27245036 </i>
    <i name="pawaedc"> -29848.98108252 </i>
    <i name="eentropy">      0.01404213 </i>
    <i name="bandstr">    276.34683906 </i>
    <i name="atom">   6564.79586099 </i>
    <i name="e_fr_energy">   -366.30325581 </i>
    <i name="e_wo_entrp">   -366.31729794 </i>
    <i name="e_0_energy">   -366.30793652 </i>
   </energy>
  </scstep>
  <scstep>
   <time name="diag">    0.13    0.13</time>
   <time name="diis">    0.69    0.70</time>
   <time name="orth">    0.02    0.02</time>
   <time name="total">    1.26    1.28</time>
   <energy>
    <i name="e_fr_energy">   -366.30418296 </i>
    <i name="e_wo_entrp">   -366.31819657 </i>
    <i name="e_0_energy">   -366.30885416 </i>
   </energy>
  </scstep>
  <scstep>
   <time name="diag">    0.13    0.13</time>
   <time name="diis">    0.70    0.70</time>
   <time name="orth">    0.02    0.02</time>
   <time name="total">    1.28    1.30</time>
   <energy>
    <i name="e_fr_energy">   -366.30428884 </i>
    <i name="e_wo_entrp">   -366.31816535 </i>
    <i name="e_0_energy">   -366.30891434 </i>
   </energy>
  </scstep>
  <scstep>
   <time name="diag">    0.13    0.13</time>
   <time name="diis">    0.70    0.70</time>
   <time name="orth">    0.02    0.02</time>
   <time name="total">    1.27    1.29</time>
   <energy>
    <i name="e_fr_energy">   -366.30428583 </i>
    <i name="e_wo_entrp">   -366.31806540 </i>
    <i name="e_0_energy">   -366.30887902 </i>
   </energy>
  </scstep>
  <scstep>
   <time name="diag">    0.13    0.13</time>
   <time name="diis">    0.71    0.72</time>
   <time name="orth">    0.02    0.02</time>
   <time name="total">    1.28    1.31</time>
   <energy>
    <i name="e_fr_energy">   -366.30428745 </i>
    <i name="e_wo_entrp">   -366.31803183 </i>
    <i name="e_0_energy">   -366.30886891 </i>
   </energy>
  </scstep>
  <scstep>
   <time name="diag">    0.13    0.13</time>
   <time name="diis">    0.59    0.59</time>
   <time name="orth">    0.02    0.02</time>
   <time name="total">    1.17    1.18</time>
   <energy>
    <i name="e_fr_energy">   -366.30428818 </i>
    <i name="e_wo_entrp">   -366.31803420 </i>
    <i name="e_0_energy">   -366.30887019 </i>
   </energy>
  </scstep>
  <scstep>
   <time name="diag">    0.13    0.13</time>
   <time name="diis">    0.48    0.48</time>
   <time name="orth">    0.02    0.02</time>
   <time name="total">    1.05    1.07</time>
   <energy>
    <i name="e_fr_energy">   -366.30428830 </i>
    <i name="e_wo_entrp">   -366.31803575 </i>
    <i name="e_0_energy">   -366.30887078 </i>
   </energy>
  </scstep>
  <scstep>
   <time name="diag">    0.13    0.13</time>
   <time name="diis">    0.43    0.44</time>
   <time name="orth">    0.02    0.02</time>
   <time name="total">    0.74    0.76</time>
   <energy>
    <i name="alphaZ">    113.18833017 </i>
    <i name="ewald">  -7437.97520414 </i>
    <i name="hartreedc">   -448.89898314 </i>
    <i name="XCdc">   -532.15838631 </i>
    <i name="pawpsdc">  30960.95643694 </i>
    <i name="pawaedc"> -29862.67188720 </i>
    <i name="eentropy">      0.01374710 </i>
    <i name="bandstr">    276.44579724 </i>
    <i name="atom">   6564.79586099 </i>
    <i name="e_fr_energy">   -366.30428834 </i>
    <i name="e_wo_entrp">   -366.31803545 </i>
    <i name="e_0_energy">   -366.30887071 </i>
   </energy>
  </scstep>
  <structure>
   <crystal>
    <varray name="basis" >
     <v>      10.82227560       0.10610102       0.00000000 </v>
     <v>       0.10610102      10.61007357       0.00000000 </v>
     <v>       0.00000000       0.00000000      10.61007357 </v>
    </varray>
    <i name="volume">   1218.18374336 </i>
    <varray name="rec_basis" >
     <v>       0.09241107      -0.00092411       0.00000000 </v>
     <v>      -0.00092411       0.09425929       0.00000000 </v>
     <v>       0.00000000       0.00000000       0.09425005 </v>
    </varray>
   </crystal>
   <varray name="positions" >
    <v>       0.00000000       0.00000000       0.00080863 </v>
    <v>       0.00000000       0.00000000       0.50080863 </v>
    <v>       0.00000000       0.50000000       0.00080863 </v>
    <v>       0.00000000       0.50000000       0.50080863 </v>
    <v>       0.50000000       0.00000000       0.00080863 </v>
    <v>       0.50000000       0.00000000       0.50080863 </v>
    <v>       0.50000000       0.50000000       0.00080863 </v>
    <v>       0.50000000       0.50000000       0.50080863 </v>
    <v>       0.37500000       0.37500000       0.12419137 </v>
    <v>       0.37500000       0.37500000       0.62419137 </v>
    <v>       0.37500000       0.87500000       0.12419137 </v>
    <v>       0.37500000       0.87500000       0.62419137 </v>
    <v>       0.87500000       0.37500000       0.12419137 </v>
    <v>       0.87500000       0.37500000       0.62419137 </v>
    <v>       0.87500000       0.87500000       0.12419137 </v>
    <v>       0.87500000       0.87500000       0.62419137 </v>
    <v>       0.00000000       0.25000000       0.25080863 </v>
    <v>       0.00000000       0.25000000       0.75080863 </v>
    <v>       0.00000000       0.75000000       0.25080863 </v>
    <v>       0.00000000       0.75000000       0.75080863 </v>
    <v>       0.50000000       0.25000000       0.25080863 </v>
    <v>       0.50000000       0.25000000       0.75080863 </v>
    <v>       0.50000000       0.75000000       0.25080863 </v>
    <v>       0.50000000       0.75000000       0.75080863 </v>
    <v>       0.37500000       0.12500000       0.37419137 </v>
    <v>       0.37500000       0.12500000       0.87419137 </v>
    <v>       0.37500000       0.62500000       0.37419137 </v>
    <v>       0.37500000       0.62500000       0.87419137 </v>
    <v>       0.87500000       0.12500000       0.37419137 </v>
    <v>       0.87500000       0.12500000       0.87419137 </v>
    <v>       0.87500000       0.62500000       0.37419137 </v>
    <v>       0.87500000       0.62500000       0.87419137 </v>
    <v>       0.25000000       0.00000000       0.25080863 </v>
    <v>       0.25000000       0.00000000       0.75080863 </v>
    <v>       0.25000000       0.50000000       0.25080863 </v>
    <v>       0.25000000       0.50000000       0.75080863 </v>
    <v>       0.75000000       0.00000000       0.25080863 </v>
    <v>       0.75000000       0.00000000       0.75080863 </v>
    <v>       0.75000000       0.50000000       0.25080863 </v>
    <v>       0.75000000       0.50000000       0.75080863 </v>
    <v>       0.12500000       0.37500000       0.37419137 </v>
    <v>       0.12500000       0.37500000       0.87419137 </v>
    <v>       0.12500000       0.87500000       0.37419137 </v>
    <v>       0.12500000       0.87500000       0.87419137 </v>
    <v>       0.62500000       0.37500000       0.37419137 </v>
    <v>       0.62500000       0.37500000       0.87419137 </v>
    <v>       0.62500000       0.87500000       0.37419137 </v>
    <v>       0.62500000       0.87500000       0.87419137 </v>
    <v>       0.25000000       0.25000000       0.00080863 </v>
    <v>       0.25000000       0.25000000       0.50080863 </v>
    <v>       0.25000000       0.75000000       0.00080863 </v>
    <v>       0.25000000       0.75000000       0.50080863 </v>
    <v>       0.75000000       0.25000000       0.00080863 </v>
    <v>       0.75000000       0.25000000       0.50080863 </v>
    <v>       0.75000000       0.75000000       0.00080863 </v>
    <v>       0.75000000       0.75000000       0.50080863 </v>
    <v>       0.12500000       0.12500000       0.12419137 </v>
    <v>       0.12500000       0.12500000       0.62419137 </v>
    <v>       0.12500000       0.62500000       0.12419137 </v>
    <v>       0.12500000       0.62500000       0.62419137 </v>
    <v>       0.62500000       0.12500000       0.12419137 </v>
    <v>       0.62500000       0.12500000       0.62419137 </v>
    <v>       0.62500000       0.62500000       0.12419137 </v>
    <v>       0.62500000       0.62500000       0.62419137 </v>
   </varray>
  </structure>
  <varray name="forces" >
   <v>       0.00000000       0.00000000       0.00012689 </v>
   <v>       0.00000000       0.00000000       0.00012689 </v>
   <v>       0.00000000       0.00000000       0.00012689 </v>
   <v>       0.00000000       0.00000000       0.00012689 </v>
   <v>      -0.00000000      -0.00000000       0.00012689 </v>
   <v>       0.00000000       0.00000000       0.00012689 </v>
   <v>      -0.00000000      -0.00000000       0.00012689 </v>
   <v>      -0.00000000      -0.00000000       0.00012689 </v>
   <v>      -0.00000000      -0.00000000      -0.00012689 </v>
   <v>      -0.00000000      -0.00000000      -0.00012689 </v>
   <v>      -0.00000000      -0.00000000      -0.00012689 </v>
   <v>      -0.00000000      -0.00000000      -0.00012689 </v>
   <v>       0.00000000       0.00000000      -0.00012689 </v>
   <v>       0.00000000       0.00000000      -0.00012689 </v>
   <v>       0.00000000      -0.00000000      -0.00012689 </v>
   <v>       0.00000000       0.00000000      -0.00012689 </v>
   <v>       0.00000000       0.00000000       0.00012689 </v>
   <v>      -0.00000000       0.00000000       0.00012689 </v>
   <v>       0.00000000       0.00000000       0.00012689 </v>
   <v>       0.00000000       0.00000000       0.00012689 </v>
   <v>       0.00000000      -0.00000000       0.00012689 </v>
   <v>      -0.00000000      -0.00000000       0.00012689 </v>
   <v>      -0.00000000      -0.00000000       0.00012689 </v>
   <v>      -0.00000000      -0.00000000       0.00012689 </v>
   <v>      -0.00000000      -0.00000000      -0.00012689 </v>
   <v>      -0.00000000      -0.00000000      -0.00012689 </v>
   <v>      -0.00000000      -0.00000000      -0.00012689 </v>
   <v>      -0.00000000      -0.00000000      -0.00012689 </v>
   <v>       0.00000000      -0.00000000      -0.00012689 </v>
   <v>       0.00000000       0.00000000      -0.00012689 </v>
   <v>       0.00000000      -0.00000000      -0.00012689 </v>
   <v>       0.00000000       0.00000000      -0.00012689 </v>
   <v>      -0.00000000       0.00000000       0.00012689 </v>
   <v>      -0.00000000       0.00000000       0.00012689 </v>
   <v>       0.00000000      -0.00000000       0.00012689 </v>
   <v>      -0.00000000       0.00000000       0.00012689 </v>
   <v>       0.00000000      -0.00000000       0.00012689 </v>
   <v>       0.00000000      -0.00000000       0.00012689 </v>
   <v>       0.00000000      -0.00000000       0.00012689 </v>
   <v>       0.00000000      -0.00000000       0.00012689 </v>
   <v>       0.00000000       0.00000000      -0.00012689 </v>
   <v>       0.00000000       0.00000000      -0.00012689 </v>
   <v>       0.00000000       0.00000000      -0.00012689 </v>
   <v>       0.00000000       0.00000000      -0.00012689 </v>
   <v>      -0.00000000      -0.00000000      -0.00012689 </v>
   <v>      -0.00000000      -0.00000000      -0.00012689 </v>
   <v>      -0.00000000      -0.00000000      -0.00012689 </v>
   <v>      -0.00000000      -0.00000000      -0.00012689 </v>
   <v>      -0.00000000      -0.00000000       0.00012689 </v>
   <v>      -0.00000000       0.00000000       0.00012689 </v>
   <v>       0.00000000      -0.00000000       0.00012689 </v>
   <v>      -0.00000000       0.00000000       0.00012689 </v>
   <v>       0.00000000      -0.00000000       0.00012689 </v>
   <v>       0.00000000       0.00000000       0.00012689 </v>
   <v>       0.00000000      -0.00000000       0.00012689 </v>
   <v>      -0.00000000      -0.00000000       0.00012689 </v>
   <v>       0.00000000       0.00000000      -0.00012689 </v>
   <v>       0.00000000       0.00000000      -0.00012689 </v>
   <v>       0.00000000       0.00000000      -0.00012689 </v>
   <v>       0.00000000       0.00000000      -0.00012689 </v>
   <v>      -0.00000000      -0.00000000      -0.00012689 </v>
   <v>       0.00000000      -0.00000000      -0.00012689 </v>
   <v>      -0.00000000      -0.00000000      -0.00012689 </v>
   <v>      -0.00000000      -0.00000000      -0.00012689 </v>
  </varray>
  <varray name="stress" >
   <v>      43.33801922     -14.12251303       0.00000000 </v>
   <v>     -14.12251302      62.33445514       0.00000000 </v>
   <v>       0.00000000       0.00000000      61.41611637 </v>
  </varray>
  <energy>
   <i name="e_fr_energy">   -366.30428834 </i>
   <i name="e_wo_entrp">   -366.31803545 </i>
   <i name="e_0_energy">   -366.30887071 </i>
  </energy>
  <time name="totalsc">   13.25   13.41</time>
  <eigenvalues>
   <array>
    <dimension dim="1">band</dimension>
    <dimension dim="2">kpoint</dimension>
    <dimension dim="3">spin</dimension>
    <field>eigene</field>
    <field>occ</field>
    <set>
     <set comment="spin 1">
      <set comment="kpoint 1">
       <r>   -6.0311    1.0000 </r>
       <r>   -4.9221    1.0000 </r>
       <r>   -4.9221    1.0000 </r>
       <r>   -4.8841    1.0000 </r>
       <r>   -4.8841    1.0000 </r>
       <r>   -4.8835    1.0000 </r>
       <r>   -4.8835    1.0000 </r>
       <r>   -3.9346    1.0000 </r>
       <r>   -3.9346    1.0000 </r>
       <r>   -3.8873    1.0000 </r>
       <r>   -3.8873    1.0000 </r>
       <r>   -3.8873    1.0000 </r>
       <r>   -3.8873    1.0000 </r>
       <r>   -3.8598    1.0000 </r>
       <r>   -3.8598    1.0000 </r>
       <r>   -3.8598    1.0000 </r>
       <r>   -3.8598    1.0000 </r>
       <r>   -3.8390    1.0000 </r>
       <r>   -3.8390    1.0000 </r>
       <r>   -3.5975    1.0000 </r>
       <r>   -3.5975    1.0000 </r>
       <r>   -3.4984    1.0000 </r>
       <r>   -3.4984    1.0000 </r>
       <r>   -1.7656    1.0000 </r>
       <r>   -1.7656    1.0000 </r>
       <r>   -1.6711    1.0000 </r>
       <r>   -1.6386    1.0000 </r>
       <r>   -1.6386    1.0000 </r>
       <r>   -1.6106    1.0000 </r>
       <r>   -1.5567    1.0000 </r>
       <r>   -1.5567    1.0000 </r>
       <r>   -1.5096    1.0000 </r>
       <r>   -1.5096    1.0000 </r>
       <r>   -1.5017    1.0000 </r>
       <r>   -1.5016    1.0000 </r>
       <r>   -1.5016    1.0000 </r>
       <r>   -1.5016    1.0000 </r>
       <r>   -1.4486    1.0000 </r>
       <r>   -1.4486    1.0000 </r>
       <r>   -1.4059    1.0000 </r>
       <r>   -1.4059    1.0000 </r>
       <r>   -0.9725    1.0000 </r>
       <r>   -0.9725    1.0000 </r>
       <r>   -0.9213    1.0000 </r>
       <r>   -0.9213    1.0000 </r>
       <r>    0.6738    1.0000 </r>
       <r>    0.6738    1.0000 </r>
       <r>    0.6738    1.0000 </r>
       <r>    0.6738    1.0000 </r>
       <r>    0.7344    1.0000 </r>
       <r>    0.7344    1.0000 </r>
       <r>    0.7493    1.0000 </r>
       <r>    0.7493    1.0000 </r>
       <r>    0.7493    1.0000 </r>
       <r>    0.7493    1.0000 </r>
       <r>    0.7663    1.0000 </r>
       <r>    0.7663    1.0000 </r>
       <r>    2.1616    1.0000 </r>
       <r>    2.1616    1.0000 </r>
       <r>    2.1688    1.0000 </r>
       <r>    2.1688    1.0000 </r>
       <r>    2.1858    1.0000 </r>
       <r>    2.1858    1.0000 </r>
       <r>    2.1858    1.0000 </r>
       <r>    2.1858    1.0000 </r>
       <r>    2.2104    1.0000 </r>
       <r>    2.2104    1.0000 </r>
       <r>    2.2224    1.0000 </r>
       <r>    2.2224    1.0000 </r>
       <r>    2.2401    1.0000 </r>
       <r>    2.2401    1.0000 </r>
       <r>    2.2401    1.0000 </r>
       <r>    2.2401    1.0000 </r>
       <r>    2.3318    1.0000 </r>
       <r>    2.3318    1.0000 </r>
       <r>    2.3547    1.0000 </r>
       <r>    2.3547    1.0000 </r>
       <r>    2.3547    1.0000 </r>
       <r>    2.3547    1.0000 </r>
       <r>    2.3698    1.0000 </r>
       <r>    2.3698    1.0000 </r>
       <r>    2.7016    1.0000 </r>
       <r>    2.7016    1.0000 </r>
       <r>    2.8501    1.0000 </r>
       <r>    2.8501    1.0000 </r>
       <r>    2.8543    1.0000 </r>
       <r>    2.8543    1.0000 </r>
       <r>    3.1172    1.0000 </r>
       <r>    3.2554    1.0000 </r>
       <r>    3.2554    1.0000 </r>
       <r>    3.3978    1.0000 </r>
       <r>    3.4142    1.0000 </r>
       <r>    3.4142    1.0000 </r>
       <r>    4.1386    1.0000 </r>
       <r>    4.1386    1.0000 </r>
       <r>    4.2507    1.0000 </r>
       <r>    4.2507    1.0000 </r>
       <r>    4.2936    1.0000 </r>
       <r>    4.2936    1.0000 </r>
       <r>    4.3948    1.0000 </r>
       <r>    4.3948    1.0000 </r>
       <r>    4.3963    1.0000 </r>
       <r>    4.3963    1.0000 </r>
       <r>    4.4093    1.0000 </r>
       <r>    4.4093    1.0000 </r>
       <r>    4.7676    1.0000 </r>
       <r>    4.7676    1.0000 </r>
       <r>    4.8651    1.0000 </r>
       <r>    4.8651    1.0000 </r>
       <r>    4.8651    1.0000 </r>
       <r>    4.8651    1.0000 </r>
       <r>    4.8845    1.0000 </r>
       <r>    4.8845    1.0000 </r>
       <r>    4.9690    1.0000 </r>
       <r>    4.9690    1.0000 </r>
       <r>    5.0340    1.0000 </r>
       <r>    5.0340    1.0000 </r>
       <r>    5.0340    1.0000 </r>
       <r>    5.0340    1.0000 </r>
       <r>    5.0449    1.0000 </r>
       <r>    5.0449    1.0000 </r>
       <r>    5.1354    1.0000 </r>
       <r>    5.1354    1.0000 </r>
       <r>    5.2166    1.0000 </r>
       <r>    5.2166    1.0000 </r>
       <r>    6.1641    1.0170 </r>
       <r>    6.3627    0.9745 </r>
       <r>    6.4266    0.8261 </r>
       <r>    6.5922    0.1877 </r>
       <r>    6.7473   -0.0351 </r>
       <r>    6.7473   -0.0351 </r>
       <r>    6.9050   -0.0089 </r>
       <r>    6.9100   -0.0082 </r>
       <r>    6.9100   -0.0082 </r>
       <r>    7.2436   -0.0000 </r>
       <r>    7.2436   -0.0000 </r>
       <r>    7.2489   -0.0000 </r>
       <r>    7.2489   -0.0000 </r>
       <r>    7.4085   -0.0000 </r>
       <r>    7.4085   -0.0000 </r>
       <r>    7.8292   -0.0000 </r>
       <r>    7.8292   -0.0000 </r>
       <r>    8.0526   -0.0000 </r>
       <r>    8.0526   -0.0000 </r>
       <r>    8.5293   -0.0000 </r>
       <r>    8.5293   -0.0000 </r>
       <r>    8.6384   -0.0000 </r>
       <r>    8.6384   -0.0000 </r>
       <r>    8.6384   -0.0000 </r>
       <r>    8.6384   -0.0000 </r>
       <r>    8.7513   -0.0000 </r>
       <r>    8.7523   -0.0000 </r>
       <r>    8.7523   -0.0000 </r>
       <r>    8.8029   -0.0000 </r>
       <r>    8.8295   -0.0000 </r>
       <r>    8.8295   -0.0000 </r>
       <r>    8.8296   -0.0000 </r>
       <r>    8.8296   -0.0000 </r>
       <r>    8.9830   -0.0000 </r>
       <r>    9.2974   -0.0000 </r>
       <r>    9.3263   -0.0000 </r>
       <r>    9.3372   -0.0000 </r>
      </set>
      <set comment="kpoint 2">
       <r>   -5.7516    1.0000 </r>
       <r>   -5.7516    1.0000 </r>
       <r>   -4.6527    1.0000 </r>
       <r>   -4.6527    1.0000 </r>
       <r>   -4.6284    1.0000 </r>
       <r>   -4.6284    1.0000 </r>
       <r>   -4.6284    1.0000 </r>
       <r>   -4.6284    1.0000 </r>
       <r>   -4.6030    1.0000 </r>
       <r>   -4.6030    1.0000 </r>
       <r>   -3.7512    1.0000 </r>
       <r>   -3.7512    1.0000 </r>
       <r>   -3.7512    1.0000 </r>
       <r>   -3.7512    1.0000 </r>
       <r>   -3.6899    1.0000 </r>
       <r>   -3.6899    1.0000 </r>
       <r>   -3.6899    1.0000 </r>
       <r>   -3.6899    1.0000 </r>
       <r>   -3.5728    1.0000 </r>
       <r>   -3.5728    1.0000 </r>
       <r>   -2.8258    1.0000 </r>
       <r>   -2.8258    1.0000 </r>
       <r>   -2.7630    1.0000 </r>
       <r>   -2.7630    1.0000 </r>
       <r>   -2.7630    1.0000 </r>
       <r>   -2.7630    1.0000 </r>
       <r>   -2.6997    1.0000 </r>
       <r>   -2.6997    1.0000 </r>
       <r>   -1.5926    1.0000 </r>
       <r>   -1.5926    1.0000 </r>
       <r>   -1.5913    1.0000 </r>
       <r>   -1.5913    1.0000 </r>
       <r>   -1.5167    1.0000 </r>
       <r>   -1.5167    1.0000 </r>
       <r>   -1.5140    1.0000 </r>
       <r>   -1.5140    1.0000 </r>
       <r>   -0.3859    1.0000 </r>
       <r>   -0.3859    1.0000 </r>
       <r>   -0.3672    1.0000 </r>
       <r>   -0.3672    1.0000 </r>
       <r>   -0.3672    1.0000 </r>
       <r>   -0.3672    1.0000 </r>
       <r>   -0.3551    1.0000 </r>
       <r>   -0.3551    1.0000 </r>
       <r>   -0.3551    1.0000 </r>
       <r>   -0.3551    1.0000 </r>
       <r>   -0.3522    1.0000 </r>
       <r>   -0.3522    1.0000 </r>
       <r>   -0.2761    1.0000 </r>
       <r>   -0.2761    1.0000 </r>
       <r>   -0.2761    1.0000 </r>
       <r>   -0.2761    1.0000 </r>
       <r>    0.3860    1.0000 </r>
       <r>    0.3860    1.0000 </r>
       <r>    1.8294    1.0000 </r>
       <r>    1.8294    1.0000 </r>
       <r>    1.8398    1.0000 </r>
       <r>    1.8398    1.0000 </r>
       <r>    1.8398    1.0000 </r>
       <r>    1.8398    1.0000 </r>
       <r>    1.8485    1.0000 </r>
       <r>    1.8485    1.0000 </r>
       <r>    1.9625    1.0000 </r>
       <r>    1.9625    1.0000 </r>
       <r>    1.9868    1.0000 </r>
       <r>    1.9868    1.0000 </r>
       <r>    1.9868    1.0000 </r>
       <r>    1.9868    1.0000 </r>
       <r>    2.0232    1.0000 </r>
       <r>    2.0232    1.0000 </r>
       <r>    2.5628    1.0000 </r>
       <r>    2.5628    1.0000 </r>
       <r>    2.6470    1.0000 </r>
       <r>    2.6470    1.0000 </r>
       <r>    2.6634    1.0000 </r>
       <r>    2.6634    1.0000 </r>
       <r>    2.7510    1.0000 </r>
       <r>    2.7510    1.0000 </r>
       <r>    3.4005    1.0000 </r>
       <r>    3.4005    1.0000 </r>
       <r>    3.4201    1.0000 </r>
       <r>    3.4201    1.0000 </r>
       <r>    3.4368    1.0000 </r>
       <r>    3.4368    1.0000 </r>
       <r>    3.4368    1.0000 </r>
       <r>    3.4368    1.0000 </r>
       <r>    3.4611    1.0000 </r>
       <r>    3.4611    1.0000 </r>
       <r>    3.4891    1.0000 </r>
       <r>    3.4891    1.0000 </r>
       <r>    3.4891    1.0000 </r>
       <r>    3.4891    1.0000 </r>
       <r>    3.5605    1.0000 </r>
       <r>    3.5605    1.0000 </r>
       <r>    3.5622    1.0000 </r>
       <r>    3.5622    1.0000 </r>
       <r>    3.5622    1.0000 </r>
       <r>    3.5622    1.0000 </r>
       <r>    3.6637    1.0000 </r>
       <r>    3.6637    1.0000 </r>
       <r>    3.6643    1.0000 </r>
       <r>    3.6643    1.0000 </r>
       <r>    3.7186    1.0000 </r>
       <r>    3.7186    1.0000 </r>
       <r>    3.7186    1.0000 </r>
       <r>    3.7186    1.0000 </r>
       <r>    4.7363    1.0000 </r>
       <r>    4.7363    1.0000 </r>
       <r>    4.7931    1.0000 </r>
       <r>    4.7931    1.0000 </r>
       <r>    4.7931    1.0000 </r>
       <r>    4.7931    1.0000 </r>
       <r>    4.8549    1.0000 </r>
       <r>    4.8549    1.0000 </r>
       <r>    4.9206    1.0000 </r>
       <r>    4.9206    1.0000 </r>
       <r>    5.0732    1.0000 </r>
       <r>    5.0732    1.0000 </r>
       <r>    5.0732    1.0000 </r>
       <r>    5.0732    1.0000 </r>
       <r>    5.1257    1.0000 </r>
       <r>    5.1257    1.0000 </r>
       <r>    5.1257    1.0000 </r>
       <r>    5.1257    1.0000 </r>
       <r>    5.5089    1.0000 </r>
       <r>    5.5089    1.0000 </r>
       <r>    5.5253    1.0000 </r>
       <r>    5.5253    1.0000 </r>
       <r>    6.8558   -0.0176 </r>
       <r>    6.8558   -0.0176 </r>
       <r>    7.6990   -0.0000 </r>
       <r>    7.6990   -0.0000 </r>
       <r>    7.8560   -0.0000 </r>
       <r>    7.8560   -0.0000 </r>
       <r>    8.0248   -0.0000 </r>
       <r>    8.0248   -0.0000 </r>
       <r>    8.0682   -0.0000 </r>
       <r>    8.0682   -0.0000 </r>
       <r>    8.2401   -0.0000 </r>
       <r>    8.2401   -0.0000 </r>
       <r>    8.3257   -0.0000 </r>
       <r>    8.3257   -0.0000 </r>
       <r>    8.5535   -0.0000 </r>
       <r>    8.5535   -0.0000 </r>
       <r>    8.6016   -0.0000 </r>
       <r>    8.6016   -0.0000 </r>
       <r>    8.6016   -0.0000 </r>
       <r>    8.6017   -0.0000 </r>
       <r>    8.6794   -0.0000 </r>
       <r>    8.6795   -0.0000 </r>
       <r>    8.7625   -0.0000 </r>
       <r>    8.7625   -0.0000 </r>
       <r>    8.7626   -0.0000 </r>
       <r>    8.7627   -0.0000 </r>
       <r>    8.8808   -0.0000 </r>
       <r>    8.8809   -0.0000 </r>
       <r>    8.8811   -0.0000 </r>
       <r>    8.8830   -0.0000 </r>
       <r>    8.9455   -0.0000 </r>
       <r>    8.9494   -0.0000 </r>
       <r>    9.1049   -0.0000 </r>
       <r>    9.1102   -0.0000 </r>
      </set>
      <set comment="kpoint 3">
       <r>   -5.7416    1.0000 </r>
       <r>   -5.7416    1.0000 </r>
[...]
      </set>
     </set>
    </set>
   </array>
  </eigenvalues>
  <separator name="orbital magnetization" >
   <v name="MAGDIPOLOUT">      0.00000000      0.00000000      0.00000000</v>
  </separator>
  <dos>
   <i name="efermi">      6.51156542 </i>
   <total>
    <array>
     <dimension dim="1">gridpoints</dimension>
     <dimension dim="2">spin</dimension>
     <field>energy</field>
     <field>total</field>
     <field>integrated</field>
     <set>
      <set comment="spin 1">
       <r>    -8.0311     0.0000     0.0000 </r>
       <r>    -7.9652     0.0000     0.0000 </r>
       <r>    -7.8992     0.0000     0.0000 </r>
       <r>    -7.8333     0.0000     0.0000 </r>
       <r>    -7.7674     0.0000     0.0000 </r>
       <r>    -7.7014     0.0000     0.0000 </r>
       <r>    -7.6355    -0.0000    -0.0000 </r>
       <r>    -7.5695    -0.0000    -0.0000 </r>
       <r>    -7.5036    -0.0000    -0.0000 </r>
       <r>    -7.4377    -0.0000    -0.0000 </r>
       <r>    -7.3717    -0.0000    -0.0000 </r>
       <r>    -7.3058    -0.0000    -0.0000 </r>
       <r>    -7.2398    -0.0000    -0.0000 </r>
       <r>    -7.1739    -0.0000    -0.0000 </r>
       <r>    -7.1079    -0.0000    -0.0000 </r>
       <r>    -7.0420    -0.0000    -0.0000 </r>
       <r>    -6.9761    -0.0000    -0.0000 </r>
       <r>    -6.9101    -0.0000    -0.0000 </r>
       <r>    -6.8442    -0.0000    -0.0000 </r>
       <r>    -6.7782    -0.0000    -0.0000 </r>
       <r>    -6.7123    -0.0000    -0.0000 </r>
       <r>    -6.6464    -0.0002    -0.0000 </r>
       <r>    -6.5804    -0.0011    -0.0001 </r>
       <r>    -6.5145    -0.0050    -0.0004 </r>
       <r>    -6.4485    -0.0164    -0.0015 </r>
       <r>    -6.3826    -0.0391    -0.0041 </r>
       <r>    -6.3167    -0.0592    -0.0080 </r>
       <r>    -6.2507    -0.0256    -0.0097 </r>
       <r>    -6.1848     0.1256    -0.0014 </r>
       <r>    -6.1188     0.3760     0.0234 </r>
       <r>    -6.0529     0.5995     0.0629 </r>
       <r>    -5.9870     0.7955     0.1154 </r>
       <r>    -5.9210     1.3450     0.2041 </r>
       <r>    -5.8551     2.6646     0.3798 </r>
       <r>    -5.7891     4.4087     0.6705 </r>
       <r>    -5.7232     5.5910     1.0392 </r>
       <r>    -5.6572     6.0503     1.4381 </r>
       <r>    -5.5913     7.0553     1.9034 </r>
       <r>    -5.5254     9.3983     2.5231 </r>
       <r>    -5.4594    11.6145     3.2890 </r>
       <r>    -5.3935    11.6590     4.0578 </r>
       <r>    -5.3275     9.8464     4.7071 </r>
       <r>    -5.2616     8.2990     5.2543 </r>
       <r>    -5.1957     7.7952     5.7683 </r>
       <r>    -5.1297     7.1568     6.2403 </r>
       <r>    -5.0638     5.7117     6.6169 </r>
       <r>    -4.9978     4.3961     6.9068 </r>
       <r>    -4.9319     4.1732     7.1820 </r>
       <r>    -4.8660     5.2184     7.5261 </r>
       <r>    -4.8000     8.0888     8.0594 </r>
       <r>    -4.7341    13.5663     8.9540 </r>
       <r>    -4.6681    20.3246    10.2942 </r>
       <r>    -4.6022    25.0507    11.9461 </r>
       <r>    -4.5363    26.4068    13.6874 </r>
       <r>    -4.4703    26.3935    15.4278 </r>
       <r>    -4.4044    26.1390    17.1514 </r>
       <r>    -4.3384    23.3980    18.6943 </r>
       <r>    -4.2725    16.3900    19.7751 </r>
       <r>    -4.2065     7.4288    20.2650 </r>
       <r>    -4.1406     0.7611    20.3152 </r>
       <r>    -4.0747    -1.2210    20.2346 </r>
       <r>    -4.0087     1.5578    20.3374 </r>
       <r>    -3.9428     8.2089    20.8787 </r>
       <r>    -3.8768    17.1052    22.0066 </r>
       <r>    -3.8109    25.4417    23.6842 </r>
       <r>    -3.7450    29.9180    25.6571 </r>
       <r>    -3.6790    28.7021    27.5497 </r>
       <r>    -3.6131    23.0276    29.0682 </r>
       <r>    -3.5471    16.6712    30.1675 </r>
       <r>    -3.4812    13.6510    31.0676 </r>
       <r>    -3.4153    16.1172    32.1304 </r>
       <r>    -3.3493    23.3744    33.6718 </r>
       <r>    -3.2834    32.1077    35.7890 </r>
       <r>    -3.2174    38.3196    38.3158 </r>
       <r>    -3.1515    40.0131    40.9543 </r>
       <r>    -3.0856    37.9077    43.4540 </r>
       <r>    -3.0196    33.7681    45.6807 </r>
       <r>    -2.9537    29.1225    47.6010 </r>
       <r>    -2.8877    25.5869    49.2883 </r>
       <r>    -2.8218    24.4639    50.9014 </r>
       <r>    -2.7558    24.7346    52.5325 </r>
       <r>    -2.6899    22.9955    54.0488 </r>
       <r>    -2.6240    17.1121    55.1772 </r>
       <r>    -2.5580     8.9498    55.7674 </r>
       <r>    -2.4921     2.2444    55.9154 </r>
       <r>    -2.4261    -1.1178    55.8416 </r>
       <r>    -2.3602    -1.6393    55.7335 </r>
       <r>    -2.2943    -0.1892    55.7211 </r>
       <r>    -2.2283     3.0102    55.9196 </r>
       <r>    -2.1624     7.3168    56.4020 </r>
       <r>    -2.0964    10.6894    57.1069 </r>
       <r>    -2.0305    10.8731    57.8239 </r>
       <r>    -1.9646     7.7170    58.3328 </r>
       <r>    -1.8986     3.7891    58.5826 </r>
       <r>    -1.8327     2.6273    58.7559 </r>
       <r>    -1.7667     6.5559    59.1882 </r>
       <r>    -1.7008    15.3959    60.2034 </r>
       <r>    -1.6349    26.0283    61.9197 </r>
       <r>    -1.5689    33.3403    64.1182 </r>
       <r>    -1.5030    33.1663    66.3052 </r>
       <r>    -1.4370    25.4648    67.9844 </r>
       <r>    -1.3711    14.5538    68.9441 </r>
       <r>    -1.3051     5.9215    69.3346 </r>
       <r>    -1.2392     2.6957    69.5123 </r>
       <r>    -1.1733     4.5205    69.8104 </r>
       <r>    -1.1073     8.6243    70.3791 </r>
       <r>    -1.0414    11.6701    71.1486 </r>
       <r>    -0.9754    11.8327    71.9289 </r>
       <r>    -0.9095    10.4275    72.6165 </r>
       <r>    -0.8436    11.0830    73.3473 </r>
       <r>    -0.7776    15.6669    74.3804 </r>
       <r>    -0.7117    20.9918    75.7646 </r>
       <r>    -0.6457    21.7824    77.2010 </r>
       <r>    -0.5798    17.8513    78.3781 </r>
       <r>    -0.5139    16.1438    79.4426 </r>
       <r>    -0.4479    23.8560    81.0157 </r>
       <r>    -0.3820    40.2665    83.6709 </r>
       <r>    -0.3160    56.0950    87.3699 </r>
       <r>    -0.2501    60.6322    91.3680 </r>
       <r>    -0.1842    50.0958    94.6714 </r>
       <r>    -0.1182    30.2491    96.6661 </r>
       <r>    -0.0523    11.3747    97.4161 </r>
       <r>     0.0137     0.9115    97.4762 </r>
       <r>     0.0796     0.4761    97.5076 </r>
       <r>     0.1456     7.4538    97.9991 </r>
       <r>     0.2115    16.9420    99.1163 </r>
       <r>     0.2774    23.2289   100.6480 </r>
       <r>     0.3434    22.7125   102.1457 </r>
       <r>     0.4093    16.5932   103.2399 </r>
       <r>     0.4753     9.6555   103.8766 </r>
       <r>     0.5412     6.2010   104.2855 </r>
       <r>     0.6071     7.7262   104.7950 </r>
       <r>     0.6731    13.4441   105.6815 </r>
       <r>     0.7390    21.0964   107.0726 </r>
       <r>     0.8050    27.2694   108.8708 </r>
       <r>     0.8709    28.6392   110.7593 </r>
       <r>     0.9368    24.0742   112.3467 </r>
       <r>     1.0028    15.6113   113.3762 </r>
       <r>     1.0687     7.0760   113.8428 </r>
       <r>     1.1347     1.4113   113.9358 </r>
       <r>     1.2006    -0.9081   113.8760 </r>
       <r>     1.2666    -1.2453   113.7938 </r>
       <r>     1.3325    -1.1709   113.7166 </r>
       <r>     1.3984    -1.4163   113.6232 </r>
       <r>     1.4644    -1.5332   113.5221 </r>
       <r>     1.5303     0.1362   113.5311 </r>
       <r>     1.5963     5.6415   113.9031 </r>
       <r>     1.6622    15.4129   114.9195 </r>
       <r>     1.7281    26.8710   116.6914 </r>
       <r>     1.7941    35.8972   119.0585 </r>
       <r>     1.8600    39.8070   121.6834 </r>
       <r>     1.9260    38.3977   124.2153 </r>
       <r>     1.9919    33.1730   126.4028 </r>
       <r>     2.0578    27.0170   128.1843 </r>
       <r>     2.1238    23.2654   129.7185 </r>
       <r>     2.1897    22.8605   131.2259 </r>
       <r>     2.2557    23.1973   132.7556 </r>
       <r>     2.3216    21.5697   134.1779 </r>
       <r>     2.3875    19.4752   135.4621 </r>
       <r>     2.4535    22.5101   136.9464 </r>
       <r>     2.5194    35.3410   139.2769 </r>
       <r>     2.5854    55.8858   142.9620 </r>
       <r>     2.6513    74.4438   147.8709 </r>
       <r>     2.7173    79.9848   153.1452 </r>
       <r>     2.7832    68.5520   157.6656 </r>
       <r>     2.8491    45.9263   160.6940 </r>
       <r>     2.9151    22.5027   162.1779 </r>
       <r>     2.9810     5.8705   162.5650 </r>
       <r>     3.0470    -2.3548   162.4097 </r>
       <r>     3.1129    -3.9652   162.1482 </r>
       <r>     3.1788     0.3248   162.1696 </r>
       <r>     3.2448    12.0222   162.9624 </r>
       <r>     3.3107    31.0828   165.0120 </r>
       <r>     3.3767    52.2170   168.4552 </r>
       <r>     3.4426    67.4572   172.9034 </r>
       <r>     3.5085    72.7107   177.6980 </r>
       <r>     3.5745    69.8589   182.3046 </r>
       <r>     3.6404    62.8220   186.4471 </r>
       <r>     3.7064    54.2476   190.0243 </r>
       <r>     3.7723    46.0770   193.0626 </r>
       <r>     3.8382    40.6002   195.7399 </r>
       <r>     3.9042    39.3496   198.3346 </r>
       <r>     3.9701    41.1678   201.0493 </r>
       <r>     4.0361    42.0817   203.8242 </r>
       <r>     4.1020    38.3453   206.3527 </r>
       <r>     4.1680    30.5560   208.3676 </r>
       <r>     4.2339    23.8451   209.9400 </r>
       <r>     4.2998    22.7925   211.4429 </r>
       <r>     4.3658    26.8763   213.2152 </r>
       <r>     4.4317    31.8101   215.3127 </r>
       <r>     4.4977    34.3683   217.5790 </r>
       <r>     4.5636    34.9467   219.8834 </r>
       <r>     4.6295    36.1778   222.2690 </r>
       <r>     4.6955    39.9453   224.9031 </r>
       <r>     4.7614    45.4429   227.8996 </r>
       <r>     4.8274    49.7117   231.1777 </r>
       <r>     4.8933    50.2099   234.4885 </r>
       <r>     4.9592    46.7551   237.5716 </r>
       <r>     5.0252    40.6738   240.2537 </r>
       <r>     5.0911    32.8671   242.4210 </r>
       <r>     5.1571    23.9665   244.0014 </r>
       <r>     5.2230    15.7975   245.0431 </r>
       <r>     5.2889    10.9448   245.7648 </r>
       <r>     5.3549    10.6511   246.4671 </r>
       <r>     5.4208    13.8464   247.3802 </r>
       <r>     5.4868    17.8593   248.5578 </r>
       <r>     5.5527    19.6739   249.8551 </r>
       <r>     5.6187    17.4886   251.0084 </r>
       <r>     5.6846    12.0650   251.8039 </r>
       <r>     5.7505     6.3396   252.2220 </r>
       <r>     5.8165     3.2114   252.4337 </r>
       <r>     5.8824     3.5837   252.6700 </r>
       <r>     5.9484     6.2438   253.0818 </r>
       <r>     6.0143     9.0506   253.6786 </r>
       <r>     6.0802    10.1773   254.3497 </r>
       <r>     6.1462     8.9470   254.9396 </r>
       <r>     6.2121     6.1403   255.3445 </r>
       <r>     6.2781     3.3709   255.5668 </r>
       <r>     6.3440     1.7883   255.6847 </r>
       <r>     6.4099     1.4377   255.7795 </r>
       <r>     6.4759     1.8948   255.9045 </r>
       <r>     6.5418     3.0117   256.1031 </r>
       <r>     6.6078     4.6907   256.4124 </r>
       <r>     6.6737     6.3839   256.8334 </r>
       <r>     6.7396     7.3928   257.3208 </r>
       <r>     6.8056     7.4713   257.8135 </r>
       <r>     6.8715     6.7397   258.2579 </r>
       <r>     6.9375     5.3686   258.6119 </r>
       <r>     7.0034     3.8618   258.8666 </r>
       <r>     7.0694     3.2718   259.0823 </r>
       <r>     7.1353     4.4383   259.3750 </r>
       <r>     7.2012     7.0349   259.8389 </r>
       <r>     7.2672     9.8302   260.4871 </r>
       <r>     7.3331    11.9401   261.2744 </r>
       <r>     7.3991    13.4793   262.1633 </r>
       <r>     7.4650    15.0495   263.1557 </r>
       <r>     7.5309    17.0986   264.2831 </r>
       <r>     7.5969    19.6701   265.5802 </r>
       <r>     7.6628    22.1021   267.0376 </r>
       <r>     7.7288    23.0420   268.5571 </r>
       <r>     7.7947    21.6198   269.9827 </r>
       <r>     7.8606    19.0204   271.2369 </r>
       <r>     7.9266    18.1521   272.4339 </r>
       <r>     7.9925    20.7398   273.8015 </r>
       <r>     8.0585    25.2380   275.4657 </r>
       <r>     8.1244    28.9296   277.3733 </r>
       <r>     8.1903    31.2660   279.4350 </r>
       <r>     8.2563    33.2187   281.6255 </r>
       <r>     8.3222    34.6468   283.9102 </r>
       <r>     8.3882    35.2619   286.2354 </r>
       <r>     8.4541    37.0654   288.6795 </r>
       <r>     8.5201    42.4174   291.4765 </r>
       <r>     8.5860    50.3381   294.7959 </r>
       <r>     8.6519    57.4919   298.5869 </r>
       <r>     8.7179    61.7814   302.6609 </r>
       <r>     8.7838    62.4640   306.7798 </r>
       <r>     8.8498    58.2597   310.6215 </r>
       <r>     8.9157    48.4397   313.8157 </r>
       <r>     8.9816    35.3725   316.1482 </r>
       <r>     9.0476    23.7570   317.7147 </r>
       <r>     9.1135    17.0493   318.8390 </r>
       <r>     9.1795    15.3160   319.8489 </r>
       <r>     9.2454    15.9963   320.9037 </r>
       <r>     9.3113    15.9100   321.9528 </r>
       <r>     9.3773    13.1475   322.8198 </r>
       <r>     9.4432     8.1943   323.3601 </r>
       <r>     9.5092     3.3397   323.5804 </r>
       <r>     9.5751     0.6072   323.6204 </r>
       <r>     9.6411     0.2567   323.6373 </r>
       <r>     9.7070     1.0989   323.7098 </r>
       <r>     9.7729     1.7633   323.8261 </r>
       <r>     9.8389     1.6360   323.9339 </r>
       <r>     9.9048     0.9612   323.9973 </r>
       <r>     9.9708     0.2989   324.0170 </r>
       <r>    10.0367    -0.0423   324.0143 </r>
       <r>    10.1026    -0.1087   324.0071 </r>
       <r>    10.1686    -0.0692   324.0025 </r>
       <r>    10.2345    -0.0280   324.0007 </r>
       <r>    10.3005    -0.0082   324.0001 </r>
       <r>    10.3664    -0.0018   324.0000 </r>
       <r>    10.4323    -0.0003   324.0000 </r>
       <r>    10.4983    -0.0000   324.0000 </r>
       <r>    10.5642    -0.0000   324.0000 </r>
       <r>    10.6302    -0.0000   324.0000 </r>
       <r>    10.6961    -0.0000   324.0000 </r>
       <r>    10.7620    -0.0000   324.0000 </r>
       <r>    10.8280    -0.0000   324.0000 </r>
       <r>    10.8939    -0.0000   324.0000 </r>
       <r>    10.9599    -0.0000   324.0000 </r>
       <r>    11.0258    -0.0000   324.0000 </r>
       <r>    11.0918     0.0000   324.0000 </r>
       <r>    11.1577     0.0000   324.0000 </r>
       <r>    11.2236     0.0000   324.0000 </r>
       <r>    11.2896     0.0000   324.0000 </r>
       <r>    11.3555     0.0000   324.0000 </r>
       <r>    11.4215     0.0000   324.0000 </r>
       <r>    11.4874     0.0000   324.0000 </r>
       <r>    11.5533     0.0000   324.0000 </r>
       <r>    11.6193     0.0000   324.0000 </r>
       <r>    11.6852     0.0000   324.0000 </r>
       <r>    11.7512     0.0000   324.0000 </r>
      </set>
     </set>
    </array>
   </total>
  </dos>
 </calculation>
 <structure name="finalpos" >
  <crystal>
   <varray name="basis" >
    <v>      10.82227560       0.10610102       0.00000000 </v>
    <v>       0.10610102      10.61007357       0.00000000 </v>
    <v>       0.00000000       0.00000000      10.61007357 </v>
   </varray>
   <i name="volume">   1218.18374336 </i>
   <varray name="rec_basis" >
    <v>       0.09241107      -0.00092411       0.00000000 </v>
    <v>      -0.00092411       0.09425929       0.00000000 </v>
    <v>       0.00000000       0.00000000       0.09425005 </v>
   </varray>
  </crystal>
  <varray name="positions" >
   <v>       0.00000000       0.00000000       0.00080863 </v>
   <v>       0.00000000       0.00000000       0.50080863 </v>
   <v>       0.00000000       0.50000000       0.00080863 </v>
   <v>       0.00000000       0.50000000       0.50080863 </v>
   <v>       0.50000000       0.00000000       0.00080863 </v>
   <v>       0.50000000       0.00000000       0.50080863 </v>
   <v>       0.50000000       0.50000000       0.00080863 </v>
   <v>       0.50000000       0.50000000       0.50080863 </v>
   <v>       0.37500000       0.37500000       0.12419137 </v>
   <v>       0.37500000       0.37500000       0.62419137 </v>
   <v>       0.37500000       0.87500000       0.12419137 </v>
   <v>       0.37500000       0.87500000       0.62419137 </v>
   <v>       0.87500000       0.37500000       0.12419137 </v>
   <v>       0.87500000       0.37500000       0.62419137 </v>
   <v>       0.87500000       0.87500000       0.12419137 </v>
   <v>       0.87500000       0.87500000       0.62419137 </v>
   <v>       0.00000000       0.25000000       0.25080863 </v>
   <v>       0.00000000       0.25000000       0.75080863 </v>
   <v>       0.00000000       0.75000000       0.25080863 </v>
   <v>       0.00000000       0.75000000       0.75080863 </v>
   <v>       0.50000000       0.25000000       0.25080863 </v>
   <v>       0.50000000       0.25000000       0.75080863 </v>
   <v>       0.50000000       0.75000000       0.25080863 </v>
   <v>       0.50000000       0.75000000       0.75080863 </v>
   <v>       0.37500000       0.12500000       0.37419137 </v>
   <v>       0.37500000       0.12500000       0.87419137 </v>
   <v>       0.37500000       0.62500000       0.37419137 </v>
   <v>       0.37500000       0.62500000       0.87419137 </v>
   <v>       0.87500000       0.12500000       0.37419137 </v>
   <v>       0.87500000       0.12500000       0.87419137 </v>
   <v>       0.87500000       0.62500000       0.37419137 </v>
   <v>       0.87500000       0.62500000       0.87419137 </v>
   <v>       0.25000000       0.00000000       0.25080863 </v>
   <v>       0.25000000       0.00000000       0.75080863 </v>
   <v>       0.25000000       0.50000000       0.25080863 </v>
   <v>       0.25000000       0.50000000       0.75080863 </v>
   <v>       0.75000000       0.00000000       0.25080863 </v>
   <v>       0.75000000       0.00000000       0.75080863 </v>
   <v>       0.75000000       0.50000000       0.25080863 </v>
   <v>       0.75000000       0.50000000       0.75080863 </v>
   <v>       0.12500000       0.37500000       0.37419137 </v>
   <v>       0.12500000       0.37500000       0.87419137 </v>
   <v>       0.12500000       0.87500000       0.37419137 </v>
   <v>       0.12500000       0.87500000       0.87419137 </v>
   <v>       0.62500000       0.37500000       0.37419137 </v>
   <v>       0.62500000       0.37500000       0.87419137 </v>
   <v>       0.62500000       0.87500000       0.37419137 </v>
   <v>       0.62500000       0.87500000       0.87419137 </v>
   <v>       0.25000000       0.25000000       0.00080863 </v>
   <v>       0.25000000       0.25000000       0.50080863 </v>
   <v>       0.25000000       0.75000000       0.00080863 </v>
   <v>       0.25000000       0.75000000       0.50080863 </v>
   <v>       0.75000000       0.25000000       0.00080863 </v>
   <v>       0.75000000       0.25000000       0.50080863 </v>
   <v>       0.75000000       0.75000000       0.00080863 </v>
   <v>       0.75000000       0.75000000       0.50080863 </v>
   <v>       0.12500000       0.12500000       0.12419137 </v>
   <v>       0.12500000       0.12500000       0.62419137 </v>
   <v>       0.12500000       0.62500000       0.12419137 </v>
   <v>       0.12500000       0.62500000       0.62419137 </v>
   <v>       0.62500000       0.12500000       0.12419137 </v>
   <v>       0.62500000       0.12500000       0.62419137 </v>
   <v>       0.62500000       0.62500000       0.12419137 </v>
   <v>       0.62500000       0.62500000       0.62419137 </v>
  </varray>
 </structure>
</modeling>
