Si64                                    
           1
    10.822276    0.106101    0.000000
     0.106101   10.610074    0.000000
     0.000000    0.000000   10.610074
   Si
    64
Direct configuration=     1
   0.00000000  0.00000000  0.00000000
   0.00000000  0.00000000  0.50000000
   0.00000000  0.50000000  0.00000000
   0.00000000  0.50000000  0.50000000
   0.50000000  0.00000000  0.00000000
   0.50000000  0.00000000  0.50000000
   0.50000000  0.50000000  0.00000000
   0.50000000  0.50000000  0.50000000
   0.37500000  0.37500000  0.12500000
   0.37500000  0.37500000  0.62500000
   0.37500000  0.87500000  0.12500000
   0.37500000  0.87500000  0.62500000
   0.87500000  0.37500000  0.12500000
   0.87500000  0.37500000  0.62500000
   0.87500000  0.87500000  0.12500000
   0.87500000  0.87500000  0.62500000
   0.00000000  0.25000000  0.25000000
   0.00000000  0.25000000  0.75000000
   0.00000000  0.75000000  0.25000000
   0.00000000  0.75000000  0.75000000
   0.50000000  0.25000000  0.25000000
   0.50000000  0.25000000  0.75000000
   0.50000000  0.75000000  0.25000000
   0.50000000  0.75000000  0.75000000
   0.37500000  0.12500000  0.37500000
   0.37500000  0.12500000  0.87500000
   0.37500000  0.62500000  0.37500000
   0.37500000  0.62500000  0.87500000
   0.87500000  0.12500000  0.37500000
   0.87500000  0.12500000  0.87500000
   0.87500000  0.62500000  0.37500000
   0.87500000  0.62500000  0.87500000
   0.25000000  0.00000000  0.25000000
   0.25000000  0.00000000  0.75000000
   0.25000000  0.50000000  0.25000000
   0.25000000  0.50000000  0.75000000
   0.75000000  0.00000000  0.25000000
   0.75000000  0.00000000  0.75000000
   0.75000000  0.50000000  0.25000000
   0.75000000  0.50000000  0.75000000
   0.12500000  0.37500000  0.37500000
   0.12500000  0.37500000  0.87500000
   0.12500000  0.87500000  0.37500000
   0.12500000  0.87500000  0.87500000
   0.62500000  0.37500000  0.37500000
   0.62500000  0.37500000  0.87500000
   0.62500000  0.87500000  0.37500000
   0.62500000  0.87500000  0.87500000
   0.25000000  0.25000000  0.00000000
   0.25000000  0.25000000  0.50000000
   0.25000000  0.75000000  0.00000000
   0.25000000  0.75000000  0.50000000
   0.75000000  0.25000000  0.00000000
   0.75000000  0.25000000  0.50000000
   0.75000000  0.75000000  0.00000000
   0.75000000  0.75000000  0.50000000
   0.12500000  0.12500000  0.12500000
   0.12500000  0.12500000  0.62500000
   0.12500000  0.62500000  0.12500000
   0.12500000  0.62500000  0.62500000
   0.62500000  0.12500000  0.12500000
   0.62500000  0.12500000  0.62500000
   0.62500000  0.62500000  0.12500000
   0.62500000  0.62500000  0.62500000
Direct configuration=     2
   0.00000000  1.00000000  0.00112600
   0.00000000  1.00000000  0.50112600
   1.00000000  0.50000000  0.00112600
   1.00000000  0.50000000  0.50112600
   0.50000000  0.00000000  0.00112600
   0.50000000  0.00000000  0.50112600
   0.50000000  0.50000000  0.00112600
   0.50000000  0.50000000  0.50112600
   0.37500000  0.37500000  0.12387400
   0.37500000  0.37500000  0.62387400
   0.37500000  0.87500000  0.12387400
   0.37500000  0.87500000  0.62387400
   0.87500000  0.37500000  0.12387400
   0.87500000  0.37500000  0.62387400
   0.87500000  0.87500000  0.12387400
   0.87500000  0.87500000  0.62387400
   1.00000000  0.25000000  0.25112600
   1.00000000  0.25000000  0.75112600
   1.00000000  0.75000000  0.25112600
   1.00000000  0.75000000  0.75112600
   0.50000000  0.25000000  0.25112600
   0.50000000  0.25000000  0.75112600
   0.50000000  0.75000000  0.25112600
   0.50000000  0.75000000  0.75112600
   0.37500000  0.12500000  0.37387400
   0.37500000  0.12500000  0.87387400
   0.37500000  0.62500000  0.37387400
   0.37500000  0.62500000  0.87387400
   0.87500000  0.12500000  0.37387400
   0.87500000  0.12500000  0.87387400
   0.87500000  0.62500000  0.37387400
   0.87500000  0.62500000  0.87387400
   0.25000000  1.00000000  0.25112600
   0.25000000  1.00000000  0.75112600
   0.25000000  0.50000000  0.25112600
   0.25000000  0.50000000  0.75112600
   0.75000000  1.00000000  0.25112600
   0.75000000  1.00000000  0.75112600
   0.75000000  0.50000000  0.25112600
   0.75000000  0.50000000  0.75112600
   0.12500000  0.37500000  0.37387400
   0.12500000  0.37500000  0.87387400
   0.12500000  0.87500000  0.37387400
   0.12500000  0.87500000  0.87387400
   0.62500000  0.37500000  0.37387400
   0.62500000  0.37500000  0.87387400
   0.62500000  0.87500000  0.37387400
   0.62500000  0.87500000  0.87387400
   0.25000000  0.25000000  0.00112600
   0.25000000  0.25000000  0.50112600
   0.25000000  0.75000000  0.00112600
   0.25000000  0.75000000  0.50112600
   0.75000000  0.25000000  0.00112600
   0.75000000  0.25000000  0.50112600
   0.75000000  0.75000000  0.00112600
   0.75000000  0.75000000  0.50112600
   0.12500000  0.12500000  0.12387400
   0.12500000  0.12500000  0.62387400
   0.12500000  0.62500000  0.12387400
   0.12500000  0.62500000  0.62387400
   0.62500000  0.12500000  0.12387400
   0.62500000  0.12500000  0.62387400
   0.62500000  0.62500000  0.12387400
   0.62500000  0.62500000  0.62387400
Direct configuration=     3
   0.00000000  0.00000000  0.00080863
   0.00000000  0.00000000  0.50080863
   0.00000000  0.50000000  0.00080863
   0.00000000  0.50000000  0.50080863
   0.50000000  0.00000000  0.00080863
   0.50000000  0.00000000  0.50080863
   0.50000000  0.50000000  0.00080863
   0.50000000  0.50000000  0.50080863
   0.37500000  0.37500000  0.12419137
   0.37500000  0.37500000  0.62419137
   0.37500000  0.87500000  0.12419137
   0.37500000  0.87500000  0.62419137
   0.87500000  0.37500000  0.12419137
   0.87500000  0.37500000  0.62419137
   0.87500000  0.87500000  0.12419137
   0.87500000  0.87500000  0.62419137
   0.00000000  0.25000000  0.25080863
   0.00000000  0.25000000  0.75080863
   0.00000000  0.75000000  0.25080863
   0.00000000  0.75000000  0.75080863
   0.50000000  0.25000000  0.25080863
   0.50000000  0.25000000  0.75080863
   0.50000000  0.75000000  0.25080863
   0.50000000  0.75000000  0.75080863
   0.37500000  0.12500000  0.37419137
   0.37500000  0.12500000  0.87419137
   0.37500000  0.62500000  0.37419137
   0.37500000  0.62500000  0.87419137
   0.87500000  0.12500000  0.37419137
   0.87500000  0.12500000  0.87419137
   0.87500000  0.62500000  0.37419137
   0.87500000  0.62500000  0.87419137
   0.25000000  0.00000000  0.25080863
   0.25000000  0.00000000  0.75080863
   0.25000000  0.50000000  0.25080863
   0.25000000  0.50000000  0.75080863
   0.75000000  0.00000000  0.25080863
   0.75000000  0.00000000  0.75080863
   0.75000000  0.50000000  0.25080863
   0.75000000  0.50000000  0.75080863
   0.12500000  0.37500000  0.37419137
   0.12500000  0.37500000  0.87419137
   0.12500000  0.87500000  0.37419137
   0.12500000  0.87500000  0.87419137
   0.62500000  0.37500000  0.37419137
   0.62500000  0.37500000  0.87419137
   0.62500000  0.87500000  0.37419137
   0.62500000  0.87500000  0.87419137
   0.25000000  0.25000000  0.00080863
   0.25000000  0.25000000  0.50080863
   0.25000000  0.75000000  0.00080863
   0.25000000  0.75000000  0.50080863
   0.75000000  0.25000000  0.00080863
   0.75000000  0.25000000  0.50080863
   0.75000000  0.75000000  0.00080863
   0.75000000  0.75000000  0.50080863
   0.12500000  0.12500000  0.12419137
   0.12500000  0.12500000  0.62419137
   0.12500000  0.62500000  0.12419137
   0.12500000  0.62500000  0.62419137
   0.62500000  0.12500000  0.12419137
   0.62500000  0.12500000  0.62419137
   0.62500000  0.62500000  0.12419137
   0.62500000  0.62500000  0.62419137
