  64  64   0   0
  0.1909585E+02  0.1054940E-08  0.1076467E-08  0.1076413E-08  0.5000000E-15
  1.000000000000000E-004
  CAR 
 Si64                                    
     11.72732018     -8.04218430  301      6.49882834      1.00000000
     -8.042  0.0000E+00  0.0000E+00
     -7.976  0.0000E+00  0.0000E+00
     -7.910  0.0000E+00  0.0000E+00
     -7.844  0.0000E+00  0.0000E+00
     -7.779  0.0000E+00  0.0000E+00
     -7.713  0.0000E+00  0.0000E+00
     -7.647 -0.1586E-28 -0.1045E-29
     -7.581 -0.2683E-26 -0.1779E-27
     -7.515 -0.3662E-24 -0.2431E-25
     -7.449 -0.4012E-22 -0.2668E-23
     -7.383 -0.3529E-20 -0.2352E-21
     -7.317 -0.2491E-18 -0.1665E-19
     -7.251 -0.1410E-16 -0.9460E-18
     -7.186 -0.6190E-15 -0.4174E-16
     -7.120 -0.2249E-13 -0.1524E-14
     -7.054 -0.6517E-12 -0.4447E-13
     -6.988 -0.1509E-10 -0.1039E-11
     -6.922 -0.2789E-09 -0.1942E-10
     -6.856 -0.4106E-08 -0.2900E-09
     -6.790 -0.4801E-07 -0.3454E-08
     -6.724 -0.4443E-06 -0.3273E-07
     -6.658 -0.3239E-05 -0.2462E-06
     -6.592 -0.1845E-04 -0.1462E-05
     -6.527 -0.8110E-04 -0.6806E-05
     -6.461 -0.2692E-03 -0.2455E-04
     -6.395 -0.6451E-03 -0.6706E-04
     -6.329 -0.9872E-03 -0.1321E-03
     -6.263 -0.4553E-03 -0.1621E-03
     -6.197  0.2015E-02 -0.2934E-04
     -6.131  0.6158E-02  0.3764E-03
     -6.065  0.9913E-02  0.1030E-02
     -5.999  0.1323E-01  0.1901E-02
     -5.933  0.2233E-01  0.3373E-02
     -5.868  0.4418E-01  0.6284E-02
     -5.802  0.7320E-01  0.1111E-01
     -5.736  0.9314E-01  0.1725E-01
     -5.670  0.1012E+00  0.2391E-01
     -5.604  0.1181E+00  0.3169E-01
     -5.538  0.1569E+00  0.4203E-01
     -5.472  0.1937E+00  0.5480E-01
     -5.406  0.1946E+00  0.6762E-01
     -5.340  0.1647E+00  0.7847E-01
     -5.274  0.1389E+00  0.8763E-01
     -5.209  0.1302E+00  0.9620E-01
     -5.143  0.1192E+00  0.1041E+00
     -5.077  0.9513E-01  0.1103E+00
     -5.011  0.7340E-01  0.1152E+00
     -4.945  0.6979E-01  0.1198E+00
     -4.879  0.8773E-01  0.1255E+00
     -4.813  0.1372E+00  0.1346E+00
     -4.747  0.2301E+00  0.1497E+00
     -4.681  0.3424E+00  0.1723E+00
     -4.615  0.4194E+00  0.1999E+00
     -4.550  0.4413E+00  0.2290E+00
     -4.484  0.4417E+00  0.2581E+00
     -4.418  0.4362E+00  0.2869E+00
     -4.352  0.3867E+00  0.3124E+00
     -4.286  0.2671E+00  0.3300E+00
     -4.220  0.1183E+00  0.3378E+00
     -4.154  0.1016E-01  0.3384E+00
     -4.088 -0.1891E-01  0.3372E+00
     -4.022  0.3197E-01  0.3393E+00
     -3.956  0.1469E+00  0.3490E+00
     -3.891  0.2963E+00  0.3685E+00
     -3.825  0.4316E+00  0.3969E+00
     -3.759  0.4992E+00  0.4298E+00
     -3.693  0.4725E+00  0.4610E+00
     -3.627  0.3755E+00  0.4857E+00
     -3.561  0.2719E+00  0.5036E+00
     -3.495  0.2286E+00  0.5187E+00
     -3.429  0.2790E+00  0.5371E+00
     -3.363  0.4059E+00  0.5638E+00
     -3.298  0.5492E+00  0.6000E+00
     -3.232  0.6447E+00  0.6425E+00
     -3.166  0.6653E+00  0.6864E+00
     -3.100  0.6260E+00  0.7276E+00
     -3.034  0.5557E+00  0.7642E+00
     -2.968  0.4805E+00  0.7959E+00
     -2.902  0.4278E+00  0.8241E+00
     -2.836  0.4140E+00  0.8514E+00
     -2.770  0.4144E+00  0.8787E+00
     -2.704  0.3736E+00  0.9033E+00
     -2.639  0.2672E+00  0.9209E+00
     -2.573  0.1335E+00  0.9297E+00
     -2.507  0.3016E-01  0.9317E+00
     -2.441 -0.1897E-01  0.9304E+00
     -2.375 -0.2400E-01  0.9289E+00
     -2.309  0.2589E-02  0.9290E+00
     -2.243  0.5754E-01  0.9328E+00
     -2.177  0.1286E+00  0.9413E+00
     -2.111  0.1808E+00  0.9532E+00
     -2.045  0.1779E+00  0.9649E+00
     -1.980  0.1205E+00  0.9729E+00
     -1.914  0.5628E-01  0.9766E+00
     -1.848  0.4752E-01  0.9797E+00
     -1.782  0.1294E+00  0.9882E+00
     -1.716  0.2869E+00  0.1007E+01
     -1.650  0.4571E+00  0.1037E+01
     -1.584  0.5575E+00  0.1074E+01
     -1.518  0.5339E+00  0.1109E+01
     -1.452  0.3980E+00  0.1135E+01
     -1.386  0.2213E+00  0.1150E+01
     -1.321  0.8897E-01  0.1156E+01
     -1.255  0.4839E-01  0.1159E+01
     -1.189  0.8795E-01  0.1165E+01
     -1.123  0.1544E+00  0.1175E+01
     -1.057  0.1931E+00  0.1188E+01
     -0.991  0.1859E+00  0.1200E+01
     -0.925  0.1653E+00  0.1211E+01
     -0.859  0.1877E+00  0.1223E+01
     -0.793  0.2711E+00  0.1241E+01
     -0.727  0.3555E+00  0.1265E+01
     -0.662  0.3606E+00  0.1288E+01
     -0.596  0.2977E+00  0.1308E+01
     -0.530  0.2866E+00  0.1327E+01
     -0.464  0.4334E+00  0.1355E+01
     -0.398  0.7067E+00  0.1402E+01
     -0.332  0.9478E+00  0.1464E+01
     -0.266  0.9929E+00  0.1530E+01
     -0.200  0.7976E+00  0.1582E+01
     -0.134  0.4655E+00  0.1613E+01
     -0.068  0.1637E+00  0.1624E+01
     -0.003  0.8973E-02  0.1624E+01
      0.063  0.2272E-01  0.1626E+01
      0.129  0.1534E+00  0.1636E+01
      0.195  0.3093E+00  0.1656E+01
      0.261  0.3951E+00  0.1682E+01
      0.327  0.3666E+00  0.1707E+01
      0.393  0.2579E+00  0.1724E+01
      0.459  0.1466E+00  0.1733E+01
      0.525  0.9709E-01  0.1740E+01
      0.590  0.1331E+00  0.1748E+01
      0.656  0.2395E+00  0.1764E+01
      0.722  0.3700E+00  0.1789E+01
      0.788  0.4625E+00  0.1819E+01
      0.854  0.4681E+00  0.1850E+01
      0.920  0.3799E+00  0.1875E+01
      0.986  0.2382E+00  0.1891E+01
      1.052  0.1040E+00  0.1898E+01
      1.118  0.1854E-01  0.1899E+01
      1.184 -0.1508E-01  0.1898E+01
      1.249 -0.1953E-01  0.1896E+01
      1.315 -0.1883E-01  0.1895E+01
      1.381 -0.2376E-01  0.1894E+01
      1.447 -0.2649E-01  0.1892E+01
      1.513  0.1281E-02  0.1892E+01
      1.579  0.9554E-01  0.1898E+01
      1.645  0.2649E+00  0.1916E+01
      1.711  0.4647E+00  0.1946E+01
      1.777  0.6214E+00  0.1987E+01
      1.843  0.6857E+00  0.2033E+01
      1.908  0.6519E+00  0.2075E+01
      1.974  0.5484E+00  0.2112E+01
      2.040  0.4333E+00  0.2140E+01
      2.106  0.3712E+00  0.2165E+01
      2.172  0.3735E+00  0.2189E+01
      2.238  0.3835E+00  0.2215E+01
      2.304  0.3518E+00  0.2238E+01
      2.370  0.3166E+00  0.2259E+01
      2.436  0.3850E+00  0.2284E+01
      2.502  0.6265E+00  0.2325E+01
      2.567  0.9812E+00  0.2390E+01
      2.633  0.1274E+01  0.2474E+01
      2.699  0.1331E+01  0.2562E+01
      2.765  0.1109E+01  0.2635E+01
      2.831  0.7196E+00  0.2682E+01
      2.897  0.3347E+00  0.2704E+01
      2.963  0.7274E-01  0.2709E+01
      3.029 -0.4776E-01  0.2706E+01
      3.095 -0.5944E-01  0.2702E+01
      3.161  0.2492E-01  0.2703E+01
      3.226  0.2270E+00  0.2718E+01
      3.292  0.5445E+00  0.2754E+01
      3.358  0.8950E+00  0.2813E+01
      3.424  0.1152E+01  0.2889E+01
      3.490  0.1245E+01  0.2971E+01
      3.556  0.1193E+01  0.3050E+01
      3.622  0.1053E+01  0.3119E+01
      3.688  0.8777E+00  0.3177E+01
      3.754  0.7228E+00  0.3225E+01
      3.820  0.6457E+00  0.3267E+01
      3.885  0.6580E+00  0.3311E+01
      3.951  0.6997E+00  0.3357E+01
      4.017  0.6884E+00  0.3402E+01
      4.083  0.5983E+00  0.3442E+01
      4.149  0.4824E+00  0.3473E+01
      4.215  0.4152E+00  0.3501E+01
      4.281  0.4239E+00  0.3529E+01
      4.347  0.4784E+00  0.3560E+01
      4.413  0.5365E+00  0.3596E+01
      4.479  0.5758E+00  0.3634E+01
      4.544  0.5946E+00  0.3673E+01
      4.610  0.6097E+00  0.3713E+01
      4.676  0.6528E+00  0.3756E+01
      4.742  0.7389E+00  0.3805E+01
      4.808  0.8334E+00  0.3860E+01
      4.874  0.8718E+00  0.3917E+01
      4.940  0.8150E+00  0.3971E+01
      5.006  0.6742E+00  0.4015E+01
      5.072  0.4920E+00  0.4048E+01
      5.137  0.3201E+00  0.4069E+01
      5.203  0.2078E+00  0.4082E+01
      5.269  0.1849E+00  0.4094E+01
      5.335  0.2361E+00  0.4110E+01
      5.401  0.3034E+00  0.4130E+01
      5.467  0.3277E+00  0.4152E+01
      5.533  0.2926E+00  0.4171E+01
      5.599  0.2216E+00  0.4186E+01
      5.665  0.1473E+00  0.4195E+01
      5.731  0.9290E-01  0.4201E+01
      5.796  0.7357E-01  0.4206E+01
      5.862  0.9214E-01  0.4212E+01
      5.928  0.1303E+00  0.4221E+01
      5.994  0.1579E+00  0.4231E+01
      6.060  0.1571E+00  0.4242E+01
      6.126  0.1314E+00  0.4250E+01
      6.192  0.9444E-01  0.4256E+01
      6.258  0.5798E-01  0.4260E+01
      6.324  0.3031E-01  0.4262E+01
      6.390  0.1751E-01  0.4263E+01
      6.455  0.2256E-01  0.4265E+01
      6.521  0.4468E-01  0.4268E+01
      6.587  0.7932E-01  0.4273E+01
      6.653  0.1166E+00  0.4281E+01
      6.719  0.1412E+00  0.4290E+01
      6.785  0.1396E+00  0.4299E+01
      6.851  0.1101E+00  0.4307E+01
      6.917  0.6899E-01  0.4311E+01
      6.983  0.4173E-01  0.4314E+01
      7.049  0.4815E-01  0.4317E+01
      7.114  0.8872E-01  0.4323E+01
      7.180  0.1428E+00  0.4332E+01
      7.246  0.1832E+00  0.4344E+01
      7.312  0.1993E+00  0.4357E+01
      7.378  0.2085E+00  0.4371E+01
      7.444  0.2403E+00  0.4387E+01
      7.510  0.3031E+00  0.4407E+01
      7.576  0.3662E+00  0.4431E+01
      7.642  0.3858E+00  0.4457E+01
      7.708  0.3508E+00  0.4480E+01
      7.773  0.2984E+00  0.4499E+01
      7.839  0.2828E+00  0.4518E+01
      7.905  0.3281E+00  0.4540E+01
      7.971  0.4087E+00  0.4567E+01
      8.037  0.4821E+00  0.4598E+01
      8.103  0.5294E+00  0.4633E+01
      8.169  0.5522E+00  0.4670E+01
      8.235  0.5508E+00  0.4706E+01
      8.301  0.5378E+00  0.4741E+01
      8.367  0.5529E+00  0.4778E+01
      8.432  0.6302E+00  0.4819E+01
      8.498  0.7574E+00  0.4869E+01
      8.564  0.8872E+00  0.4928E+01
      8.630  0.9786E+00  0.4992E+01
      8.696  0.1015E+01  0.5059E+01
      8.762  0.9917E+00  0.5124E+01
      8.828  0.9058E+00  0.5184E+01
      8.894  0.7549E+00  0.5234E+01
      8.960  0.5573E+00  0.5271E+01
      9.025  0.3706E+00  0.5295E+01
      9.091  0.2668E+00  0.5313E+01
      9.157  0.2654E+00  0.5330E+01
      9.223  0.3053E+00  0.5350E+01
      9.289  0.3008E+00  0.5370E+01
      9.355  0.2226E+00  0.5385E+01
      9.421  0.1122E+00  0.5392E+01
      9.487  0.2800E-01  0.5394E+01
      9.553 -0.5095E-02  0.5394E+01
      9.619  0.5784E-03  0.5394E+01
      9.684  0.1933E-01  0.5395E+01
      9.750  0.3104E-01  0.5397E+01
      9.816  0.2855E-01  0.5399E+01
      9.882  0.1688E-01  0.5400E+01
      9.948  0.5423E-02  0.5400E+01
     10.014 -0.5823E-03  0.5400E+01
     10.080 -0.1833E-02  0.5400E+01
     10.146 -0.1195E-02  0.5400E+01
     10.212 -0.4893E-03  0.5400E+01
     10.278 -0.1444E-03  0.5400E+01
     10.343 -0.3221E-04  0.5400E+01
     10.409 -0.5552E-05  0.5400E+01
     10.475 -0.7484E-06  0.5400E+01
     10.541 -0.7951E-07  0.5400E+01
     10.607 -0.6691E-08  0.5400E+01
     10.673 -0.4476E-09  0.5400E+01
     10.739 -0.2386E-10  0.5400E+01
     10.805 -0.1015E-11  0.5400E+01
     10.871 -0.3455E-13  0.5400E+01
     10.937 -0.9266E-15  0.5400E+01
     11.002 -0.2808E-16  0.5400E+01
     11.068  0.0000E+00  0.5400E+01
     11.134  0.0000E+00  0.5400E+01
     11.200  0.0000E+00  0.5400E+01
     11.266  0.0000E+00  0.5400E+01
     11.332  0.0000E+00  0.5400E+01
     11.398  0.0000E+00  0.5400E+01
     11.464  0.0000E+00  0.5400E+01
     11.530  0.0000E+00  0.5400E+01
     11.596  0.0000E+00  0.5400E+01
     11.661  0.0000E+00  0.5400E+01
     11.727  0.0000E+00  0.5400E+01
