       N       E                     dE             d eps       ncg     rms          rms(c)
DAV:   1     0.568369010596E+03    0.56837E+03   -0.84472E+04  2592   0.107E+03
DAV:   2    -0.309476274202E+03   -0.87785E+03   -0.83310E+03  3072   0.174E+02
DAV:   3    -0.372865606689E+03   -0.63389E+02   -0.62123E+02  3152   0.414E+01
DAV:   4    -0.374515857066E+03   -0.16503E+01   -0.16378E+01  3112   0.809E+00
DAV:   5    -0.374572784726E+03   -0.56928E-01   -0.56812E-01  3160   0.137E+00    0.299E+01
RMM:   6    -0.368829832541E+03    0.57430E+01   -0.29916E+00  2592   0.271E+00    0.180E+01
RMM:   7    -0.366307761826E+03    0.25221E+01   -0.75885E+00  2644   0.431E+00    0.111E+00
RMM:   8    -0.366343761407E+03   -0.36000E-01   -0.72093E-01  2622   0.165E+00    0.535E-01
RMM:   9    -0.366365895958E+03   -0.22135E-01   -0.21277E-01  2671   0.808E-01    0.607E-01
RMM:  10    -0.366370351202E+03   -0.44552E-02   -0.37412E-02  2718   0.379E-01    0.883E-01
RMM:  11    -0.366366058416E+03    0.42928E-02   -0.14643E-02  2592   0.237E-01    0.550E-01
RMM:  12    -0.366366256656E+03   -0.19824E-03   -0.19013E-03  2612   0.103E-01    0.517E-01
RMM:  13    -0.366366321813E+03   -0.65157E-04   -0.36206E-04  2727   0.426E-02    0.607E-01
RMM:  14    -0.366366334087E+03   -0.12275E-04   -0.95332E-05  2599   0.241E-02    0.208E-01
RMM:  15    -0.366366371924E+03   -0.37837E-04   -0.35023E-05  2640   0.125E-02    0.164E-01
RMM:  16    -0.366366396442E+03   -0.24518E-04   -0.21093E-05  2592   0.100E-02    0.853E-02
RMM:  17    -0.366366399095E+03   -0.26527E-05   -0.60780E-06  2292   0.549E-03    0.207E-02
RMM:  18    -0.366366399646E+03   -0.55063E-06   -0.10153E-06  1566   0.231E-03
   1 F= -.36636640E+03 E0= -.36637412E+03  d E =-.366366E+03
       N       E                     dE             d eps       ncg     rms          rms(c)
DAV:   1    -0.366409225961E+03   -0.42827E-01   -0.25002E+00  2928   0.302E+00    0.719E-01
RMM:   2    -0.366421266115E+03   -0.12040E-01   -0.12491E-01  2593   0.751E-01    0.295E-01
RMM:   3    -0.366422670381E+03   -0.14043E-02   -0.18982E-02  2634   0.332E-01    0.123E-01
RMM:   4    -0.366422628148E+03    0.42233E-04   -0.26812E-03  2651   0.139E-01    0.473E-02
RMM:   5    -0.366422650751E+03   -0.22603E-04   -0.48864E-04  2700   0.541E-02    0.103E-02
RMM:   6    -0.366422660903E+03   -0.10152E-04   -0.10196E-04  2766   0.231E-02    0.270E-03
RMM:   7    -0.366422662347E+03   -0.14444E-05   -0.15578E-05  2410   0.865E-03    0.167E-03
RMM:   8    -0.366422662501E+03   -0.15343E-06   -0.25605E-06  1759   0.355E-03
   2 F= -.36642266E+03 E0= -.36642695E+03  d E =-.562629E-01
       N       E                     dE             d eps       ncg     rms          rms(c)
DAV:   1    -0.366431986517E+03   -0.93242E-02   -0.20049E-01  2920   0.855E-01    0.203E-01
RMM:   2    -0.366432930143E+03   -0.94363E-03   -0.97622E-03  2592   0.211E-01    0.841E-02
RMM:   3    -0.366433036125E+03   -0.10598E-03   -0.14603E-03  2631   0.931E-02    0.336E-02
RMM:   4    -0.366433034084E+03    0.20414E-05   -0.20795E-04  2649   0.389E-02    0.130E-02
RMM:   5    -0.366433035859E+03   -0.17748E-05   -0.37935E-05  2681   0.151E-02    0.272E-03
RMM:   6    -0.366433036539E+03   -0.68072E-06   -0.77573E-06  2103   0.648E-03    0.538E-04
RMM:   7    -0.366433036684E+03   -0.14456E-06   -0.12574E-06  1618   0.252E-03    0.418E-04
RMM:   8    -0.366433036732E+03   -0.47879E-07   -0.27139E-07  1364   0.115E-03
   3 F= -.36643304E+03 E0= -.36643848E+03  d E =-.666371E-01
