 vasp.6.4.3 19Mar24 (build Oct 21 2024 22:36:34) complex                        
  
 executed on             LinuxIFC date 2024.11.01  22:48:41
 running   96 mpi-ranks, on    1 nodes
 distrk:  each k-point on   24 cores,    4 groups
 distr:  one band on NCORE=  12 cores,    2 groups


--------------------------------------------------------------------------------------------------------


 INCAR:
   SYSTEM = Si64
   ISTART = 0
   ICHARG = 2
   LREAL = Auto
   PREC = Accurate
   LWAVE = .False.
   LCHARG = .False.
   ADDGRID = .True.
   ENCUT = 400
   GGA = PS
   GGA_COMPAT = .FALSE.
   ISMEAR = 1
   SIGMA = 0.2
   NELM = 60
   NELMIN = 8
   EDIFF = 1e-06
   EDIFFG = -0.01
   NSW = 60
   IBRION = 2
   ISIF = 2
   KPAR = 4
   NPAR = 2
   ALGO = Fast

 POTCAR:    PAW_PBE Si 05Jan2001                  
 POTCAR:    PAW_PBE Si 05Jan2001                  
   VRHFIN =Si: s2p2                                                                                 
   LEXCH  = PE                                                                                      
   EATOM  =   103.0669 eV,    7.5752 Ry                                                             
                                                                                                    
   TITEL  = PAW_PBE Si 05Jan2001                                                                    
   LULTRA =        F    use ultrasoft PP ?                                                          
   IUNSCR =        1    unscreen: 0-lin 1-nonlin 2-no                                               
   RPACOR =    1.500    partial core radius                                                         
   POMASS =   28.085; ZVAL   =    4.000    mass and valenz                                          
   RCORE  =    1.900    outmost cutoff radius                                                       
   RWIGS  =    2.480; RWIGS  =    1.312    wigner-seitz radius (au A)                               
   ENMAX  =  245.345; ENMIN  =  184.009 eV                                                          
   ICORE  =        2    local potential                                                             
   LCOR   =        T    correct aug charges                                                         
   LPAW   =        T    paw PP                                                                      
   EAUG   =  322.069                                                                                
   DEXC   =    0.000                                                                                
   RMAX   =    1.950    core radius for proj-oper                                                   
   RAUG   =    1.300    factor for augmentation sphere                                              
   RDEP   =    1.993    radius for radial grids                                                     
   RDEPT  =    1.837    core radius for aug-charge                                                  
                                                                                                    
   Atomic configuration                                                                             
    6 entries                                                                                       
     n  l   j            E        occ.                                                              
     1  0  0.50     -1785.8828   2.0000                                                             
     2  0  0.50      -139.4969   2.0000                                                             
     2  1  1.50       -95.5546   6.0000                                                             
     3  0  0.50       -10.8127   2.0000                                                             
     3  1  0.50        -4.0811   2.0000                                                             
     3  2  1.50        -4.0817   0.0000                                                             
   Description                                                                                      
     l       E           TYP  RCUT    TYP  RCUT                                                     
     0    -10.8127223     23  1.900                                                                 
     0     -7.6451159     23  1.900                                                                 
     1     -4.0811372     23  1.900                                                                 
     1      2.4879257     23  1.900                                                                 
     2     -4.0817478      7  1.900                                                                 
  local pseudopotential read in
  partial core-charges read in
  partial kinetic energy density read in
  atomic valenz-charges read in
  non local Contribution for L=           0  read in
    real space projection operators read in
  non local Contribution for L=           0  read in
    real space projection operators read in
  non local Contribution for L=           1  read in
    real space projection operators read in
  non local Contribution for L=           1  read in
    real space projection operators read in
    PAW grid and wavefunctions read in
 
   number of l-projection  operators is LMAX  =           4
   number of lm-projection operators is LMMAX =           8
 
 Optimization of the real space projectors (new method)

 maximal supplied QI-value         = 19.84
 optimisation between [QCUT,QGAM] = [ 10.12, 20.44] = [ 28.68,116.96] Ry 
 Optimized for a Real-space Cutoff    1.38 Angstroem

   l    n(q)    QCUT    max X(q) W(low)/X(q) W(high)/X(q)  e(spline) 
   0      8    10.119   159.560    0.58E-04    0.11E-03    0.54E-07
   0      8    10.119   115.863    0.56E-04    0.11E-03    0.54E-07
   1      8    10.119    88.339    0.22E-03    0.17E-03    0.19E-06
   1      8    10.119    48.592    0.22E-03    0.17E-03    0.18E-06
 -----------------------------------------------------------------------------
|                                                                             |
|               ----> ADVICE to this user running VASP <----                  |
|                                                                             |
|     You enforced a specific xc type in the INCAR file but a different       |
|     type was found in the POTCAR file.                                      |
|     I HOPE YOU KNOW WHAT YOU ARE DOING!                                     |
|                                                                             |
 -----------------------------------------------------------------------------

  PAW_PBE Si 05Jan2001                  :
 energy of atom  1       EATOM= -103.0669
 kinetic energy error for atom=    0.0012 (will be added to EATOM!!)
 
 
 POSCAR: Si8
  positions in direct lattice
  velocities in cartesian coordinates


 exchange-correlation table for PS
   RHO(1)=    0.500       N(1)  =     2000
   RHO(2)=  100.500       N(2)  =     4000
 


--------------------------------------------------------------------------------------------------------


 ion  position               nearest neighbor table
   1  0.000  0.000  0.000-  15 2.30  57 2.30  44 2.33  30 2.33
   2  0.000  0.000  0.500-  16 2.30  58 2.30  43 2.33  29 2.33
   3  0.000  0.500  0.000-  13 2.30  59 2.30  42 2.33  32 2.33
   4  0.000  0.500  0.500-  14 2.30  60 2.30  41 2.33  31 2.33
   5  0.500  0.000  0.000-  11 2.30  61 2.30  48 2.33  26 2.33
   6  0.500  0.000  0.500-  12 2.30  62 2.30  47 2.33  25 2.33
   7  0.500  0.500  0.000-   9 2.30  63 2.30  46 2.33  28 2.33
   8  0.500  0.500  0.500-  10 2.30  64 2.30  45 2.33  27 2.33
   9  0.375  0.375  0.125-   7 2.30  49 2.30  35 2.33  21 2.33
  10  0.375  0.375  0.625-   8 2.30  50 2.30  36 2.33  22 2.33
  11  0.375  0.875  0.125-   5 2.30  51 2.30  33 2.33  23 2.33
  12  0.375  0.875  0.625-   6 2.30  52 2.30  34 2.33  24 2.33
  13  0.875  0.375  0.125-   3 2.30  53 2.30  39 2.33  17 2.33
  14  0.875  0.375  0.625-   4 2.30  54 2.30  40 2.33  18 2.33
  15  0.875  0.875  0.125-   1 2.30  55 2.30  37 2.33  19 2.33
  16  0.875  0.875  0.625-   2 2.30  56 2.30  38 2.33  20 2.33
  17  0.000  0.250  0.250-  29 2.30  41 2.30  13 2.33  57 2.33
  18  0.000  0.250  0.750-  30 2.30  42 2.30  14 2.33  58 2.33
  19  0.000  0.750  0.250-  31 2.30  43 2.30  15 2.33  59 2.33
  20  0.000  0.750  0.750-  32 2.30  44 2.30  16 2.33  60 2.33
  21  0.500  0.250  0.250-  25 2.30  45 2.30   9 2.33  61 2.33
  22  0.500  0.250  0.750-  26 2.30  46 2.30  10 2.33  62 2.33
  23  0.500  0.750  0.250-  27 2.30  47 2.30  11 2.33  63 2.33
  24  0.500  0.750  0.750-  28 2.30  48 2.30  12 2.33  64 2.33
  25  0.375  0.125  0.375-  21 2.30  33 2.30   6 2.33  50 2.33
  26  0.375  0.125  0.875-  22 2.30  34 2.30   5 2.33  49 2.33
  27  0.375  0.625  0.375-  23 2.30  35 2.30   8 2.33  52 2.33
  28  0.375  0.625  0.875-  24 2.30  36 2.30   7 2.33  51 2.33
  29  0.875  0.125  0.375-  17 2.30  37 2.30   2 2.33  54 2.33
  30  0.875  0.125  0.875-  18 2.30  38 2.30   1 2.33  53 2.33
  31  0.875  0.625  0.375-  19 2.30  39 2.30   4 2.33  56 2.33
  32  0.875  0.625  0.875-  20 2.30  40 2.30   3 2.33  55 2.33
  33  0.250  0.000  0.250-  25 2.30  43 2.30  11 2.33  57 2.33
  34  0.250  0.000  0.750-  26 2.30  44 2.30  12 2.33  58 2.33
  35  0.250  0.500  0.250-  27 2.30  41 2.30   9 2.33  59 2.33
  36  0.250  0.500  0.750-  28 2.30  42 2.30  10 2.33  60 2.33
  37  0.750  0.000  0.250-  29 2.30  47 2.30  15 2.33  61 2.33
  38  0.750  0.000  0.750-  30 2.30  48 2.30  16 2.33  62 2.33
  39  0.750  0.500  0.250-  31 2.30  45 2.30  13 2.33  63 2.33
  40  0.750  0.500  0.750-  32 2.30  46 2.30  14 2.33  64 2.33
  41  0.125  0.375  0.375-  17 2.30  35 2.30   4 2.33  50 2.33
  42  0.125  0.375  0.875-  18 2.30  36 2.30   3 2.33  49 2.33
  43  0.125  0.875  0.375-  19 2.30  33 2.30   2 2.33  52 2.33
  44  0.125  0.875  0.875-  20 2.30  34 2.30   1 2.33  51 2.33
  45  0.625  0.375  0.375-  21 2.30  39 2.30   8 2.33  54 2.33
  46  0.625  0.375  0.875-  22 2.30  40 2.30   7 2.33  53 2.33
  47  0.625  0.875  0.375-  23 2.30  37 2.30   6 2.33  56 2.33
  48  0.625  0.875  0.875-  24 2.30  38 2.30   5 2.33  55 2.33
  49  0.250  0.250  0.000-   9 2.30  57 2.30  42 2.33  26 2.33
  50  0.250  0.250  0.500-  10 2.30  58 2.30  41 2.33  25 2.33
  51  0.250  0.750  0.000-  11 2.30  59 2.30  44 2.33  28 2.33
  52  0.250  0.750  0.500-  12 2.30  60 2.30  43 2.33  27 2.33
  53  0.750  0.250  0.000-  13 2.30  61 2.30  46 2.33  30 2.33
  54  0.750  0.250  0.500-  14 2.30  62 2.30  45 2.33  29 2.33
  55  0.750  0.750  0.000-  15 2.30  63 2.30  48 2.33  32 2.33
  56  0.750  0.750  0.500-  16 2.30  64 2.30  47 2.33  31 2.33
  57  0.125  0.125  0.125-   1 2.30  49 2.30  33 2.33  17 2.33
  58  0.125  0.125  0.625-   2 2.30  50 2.30  34 2.33  18 2.33
  59  0.125  0.625  0.125-   3 2.30  51 2.30  35 2.33  19 2.33
  60  0.125  0.625  0.625-   4 2.30  52 2.30  36 2.33  20 2.33
  61  0.625  0.125  0.125-   5 2.30  53 2.30  37 2.33  21 2.33
  62  0.625  0.125  0.625-   6 2.30  54 2.30  38 2.33  22 2.33
  63  0.625  0.625  0.125-   7 2.30  55 2.30  39 2.33  23 2.33
  64  0.625  0.625  0.625-   8 2.30  56 2.30  40 2.33  24 2.33
 
  LATTYP: Found a simple monoclinic cell.
 ALAT       =    10.5493997308
 B/A-ratio  =     1.0203550784
 C/A-ratio  =     1.0204060946
 COS(beta)  =    -0.0202019601
  
  Lattice vectors:
  
 A1 = (  10.5488505579,  -0.1076410159,   0.0000000000)
 A2 = (   0.0000000000,   0.0000000000, -10.7641335897)
 A3 = (  -0.1076410159,  10.7641335897,   0.0000000000)


Analysis of symmetry for initial positions (statically):
=====================================================================
 Subroutine PRICEL returns following result:
 
  LATTYP: Found a base centered monoclinic cell.
 ALAT       =     5.2746998654
 B/A-ratio  =     1.0203550784
 C/A-ratio  =     0.7071068150
 COS(beta)  =    -0.6925303052
  
  Lattice vectors:
  
 A1 = (  -2.6372126395,   0.0269102540,  -2.6910333974)
 A2 = (  -2.6372126395,   0.0269102540,   2.6910333974)
 A3 = (   2.6103023855,   2.6641231434,   0.0000000000)
 
  32 primitive cells build up your supercell.
 

 Routine SETGRP: Setting up the symmetry group for a 
 simple monoclinic supercell.


 Subroutine GETGRP returns: Found  4 space group operations
 (whereof  2 operations were pure point group operations)
 out of a pool of  4 trial point group operations.


The static configuration has the point symmetry C_2 .
 The point group associated with its full space group is C_2h.


Analysis of symmetry for dynamics (positions and initial velocities):
=====================================================================
 Subroutine PRICEL returns following result:
 
  LATTYP: Found a base centered monoclinic cell.
 ALAT       =     5.2746998654
 B/A-ratio  =     1.0203550784
 C/A-ratio  =     0.7071068150
 COS(beta)  =    -0.6925303052
  
  Lattice vectors:
  
 A1 = (  -2.6372126395,   0.0269102540,  -2.6910333974)
 A2 = (  -2.6372126395,   0.0269102540,   2.6910333974)
 A3 = (   2.6103023855,   2.6641231434,   0.0000000000)
 
  32 primitive cells build up your supercell.
 

 Routine SETGRP: Setting up the symmetry group for a 
 simple monoclinic supercell.


 Subroutine GETGRP returns: Found  4 space group operations
 (whereof  2 operations were pure point group operations)
 out of a pool of  4 trial point group operations.


The dynamic configuration has the point symmetry C_2 .
 The point group associated with its full space group is C_2h.


 Subroutine INISYM returns: Found  4 space group operations
 (whereof  2 operations are pure point group operations),
 and found    32 'primitive' translations


----------------------------------------------------------------------------------------

                                     Primitive cell                                     

  volume of cell :      38.1917

  direct lattice vectors                    reciprocal lattice vectors
    -2.637212639  0.026910254 -2.691033397    -0.187717336  0.183925060 -0.185802228
    -2.637212639  0.026910254  2.691033397    -0.187717336  0.183925060  0.185802228
     2.610302385  2.664123143  0.000000000     0.003792258  0.371642378 -0.000000000

  length of vectors
     3.767927204  3.767927204  3.729776222     0.321851975  0.321851975  0.371661726

  position of ions in fractional coordinates (direct lattice)
     0.000000000  0.000000000  0.000000000
     0.750000000  0.250000000  0.500000000

  ion indices of the primitive-cell ions
   primitive index   ion index
                 1           1
                 2          15

----------------------------------------------------------------------------------------

 
 
 KPOINTS: Automatic mesh                          

Automatic generation of k-mesh.
 Grid dimensions read from file:
 generate k-points for:    2    2    2

 Generating k-lattice:

  Cartesian coordinates                     Fractional coordinates (reciprocal lattice)
     0.047403366  0.000474032  0.000000000     0.500000000 -0.000000000  0.000000000
     0.000474032  0.046455297  0.000000000    -0.000000000  0.500000000  0.000000000
     0.000000000  0.000000000  0.046450557     0.000000000  0.000000000  0.500000000

  Length of vectors
     0.047405736  0.046457716  0.046450557

  Shift w.r.t. Gamma in fractional coordinates (k-lattice)
     0.000000000  0.000000000  0.000000000

 
 Subroutine IBZKPT returns following result:
 ===========================================
 
 Found      8 irreducible k-points:
 
 Following reciprocal coordinates:
            Coordinates               Weight
  0.000000  0.000000  0.000000      1.000000
  0.500000  0.000000  0.000000      1.000000
 -0.000000  0.500000  0.000000      1.000000
  0.500000  0.500000  0.000000      1.000000
  0.000000  0.000000  0.500000      1.000000
  0.500000  0.000000  0.500000      1.000000
 -0.000000  0.500000  0.500000      1.000000
  0.500000  0.500000  0.500000      1.000000
 
 Following cartesian coordinates:
            Coordinates               Weight
  0.000000  0.000000  0.000000      1.000000
  0.047403  0.000474  0.000000      1.000000
  0.000474  0.046455  0.000000      1.000000
  0.047877  0.046929  0.000000      1.000000
  0.000000  0.000000  0.046451      1.000000
  0.047403  0.000474  0.046451      1.000000
  0.000474  0.046455  0.046451      1.000000
  0.047877  0.046929  0.046451      1.000000
 


--------------------------------------------------------------------------------------------------------




 Dimension of arrays:
   k-points           NKPTS =      8   k-points in BZ     NKDIM =      8   number of bands    NBANDS=    162
   number of dos      NEDOS =    301   number of ions     NIONS =     64
   non local maximal  LDIM  =      4   non local SUM 2l+1 LMDIM =      8
   total plane-waves  NPLWV = 343000
   max r-space proj   IRMAX =   3143   max aug-charges    IRDMAX=  75261
   dimension x,y,z NGX =    70 NGY =   70 NGZ =   70
   dimension x,y,z NGXF=   140 NGYF=  140 NGZF=  140
   support grid    NGXF=   280 NGYF=  280 NGZF=  280
   ions per type =              64
   NGX,Y,Z   is equivalent  to a cutoff of  11.03, 10.81, 10.81 a.u.
   NGXF,Y,Z  is equivalent  to a cutoff of  22.06, 21.62, 21.62 a.u.

 SYSTEM =  Si64                                    
 POSCAR =  Si8                                     

 Startparameter for this run:
   NWRITE =      2    write-flag & timer
   PREC   = accura    normal or accurate (medium, high low for compatibility)
   ISTART =      0    job   : 0-new  1-cont  2-samecut
   ICHARG =      2    charge: 1-file 2-atom 10-const
   ISPIN  =      1    spin polarized calculation?
   LNONCOLLINEAR =      F non collinear calculations
   LSORBIT =      F    spin-orbit coupling
   INIWAV =      1    electr: 0-lowe 1-rand  2-diag
   LASPH  =      F    aspherical Exc in radial PAW
 Electronic Relaxation 1
   ENCUT  =  400.0 eV  29.40 Ry    5.42 a.u.  17.20 17.55 17.55*2*pi/ulx,y,z
   ENINI  =  400.0     initial cutoff
   ENAUG  =  322.1 eV  augmentation charge cutoff
   NELM   =     60;   NELMIN=  8; NELMDL= -5     # of ELM steps 
   EDIFF  = 0.1E-05   stopping-criterion for ELM
   LREAL  =      T    real-space projection
   NLSPLINE    = F    spline interpolate recip. space projectors
   LCOMPAT=      F    compatible to vasp.4.4
   GGA_COMPAT  = F    GGA compatible to vasp.4.4-vasp.4.6
   LMAXPAW     = -100 max onsite density
   LMAXMIX     =    2 max onsite mixed and CHGCAR
   VOSKOWN=      0    Vosko Wilk Nusair interpolation
   ROPT   =   -0.00025
 Ionic relaxation
   EDIFFG = -.1E-01   stopping-criterion for IOM
   NSW    =     60    number of steps for IOM
   NBLOCK =      1;   KBLOCK =     60    inner block; outer block 
   IBRION =      2    ionic relax: 0-MD 1-quasi-New 2-CG
   NFREE  =      1    steps in history (QN), initial steepest desc. (CG)
   ISIF   =      2    stress and relaxation
   IWAVPR =     11    prediction:  0-non 1-charg 2-wave 3-comb
   ISYM   =      2    0-nonsym 1-usesym 2-fastsym
   LCORR  =      T    Harris-Foulkes like correction to forces

   POTIM  = 0.5000    time-step for ionic-motion
   TEIN   =    0.0    initial temperature
   TEBEG  =    0.0;   TEEND  =   0.0 temperature during run
   SMASS  =  -3.00    Nose mass-parameter (am)
   estimated Nose-frequenzy (Omega)   =  0.10E-29 period in steps = 0.13E+47 mass=  -0.254E-26a.u.
   SCALEE = 1.0000    scale energy and forces
   NPACO  =    256;   APACO  = 10.0  distance and # of slots for P.C.
   PSTRESS=    0.0 pullay stress

  Mass of Ions in am
   POMASS =  28.09
  Ionic Valenz
   ZVAL   =   4.00
  Atomic Wigner-Seitz radii
   RWIGS  =  -1.00
  virtual crystal weights 
   VCA    =   1.00
   NELECT =     256.0000    total number of electrons
   NUPDOWN=      -1.0000    fix difference up-down

 DOS related values:
   EMIN   =  10.00;   EMAX   =-10.00  energy-range for DOS
   EFERMI =   0.00;   METHOD = LEGACY      
   ISMEAR =     1;   SIGMA  =   0.20  broadening in eV -4-tet -1-fermi 0-gaus

 Electronic relaxation 2 (details)
   IALGO  =     68    algorithm
   LDIAG  =      T    sub-space diagonalisation (order eigenvalues)
   LSUBROT=      F    optimize rotation matrix (better conditioning)
   TURBO    =      0    0=normal 1=particle mesh
   IRESTART =      0    0=no restart 2=restart with 2 vectors
   NREBOOT  =      0    no. of reboots
   NMIN     =      0    reboot dimension
   EREF     =   0.00    reference energy to select bands
   IMIX   =      4    mixing-type and parameters
     AMIX     =   0.40;   BMIX     =  1.00
     AMIX_MAG =   1.60;   BMIX_MAG =  1.00
     AMIN     =   0.10
     WC   =   100.;   INIMIX=   1;  MIXPRE=   1;  MAXMIX= -45

 Intra band minimization:
   WEIMIN = 0.0010     energy-eigenvalue tresh-hold
   EBREAK =  0.15E-08  absolut break condition
   DEPER  =   0.30     relativ break condition  

   TIME   =   0.40     timestep for ELM

  volume/ion in A,a.u.               =      19.10       128.87
  Fermi-wavevector in a.u.,A,eV,Ry     =   0.972259  1.837302 12.861409  0.945287
  Thomas-Fermi vector in A             =   2.102543
 
 Write flags
   LWAVE        =      F    write WAVECAR
   LDOWNSAMPLE  =      F    k-point downsampling of WAVECAR
   LCHARG       =      F    write CHGCAR
   LVTOT        =      F    write LOCPOT, total local potential
   LVHAR        =      F    write LOCPOT, Hartree potential only
   WRT_POTENTIAL= false  ! write potential to hdf5 file
   LELF         =      F    write electronic localiz. function (ELF)
   LORBIT       =      0    0 simple, 1 ext, 2 COOP (PROOUT), +10 PAW based schemes


 Dipole corrections
   LMONO      =      F    monopole corrections only (constant potential shift)
   LDIPOL     =      F    correct potential (dipole corrections)
   IDIPOL     =      0    1-x, 2-y, 3-z, 4-all directions 
   EPSILON    =  1.0000000 bulk dielectric constant
   LVACPOTAV  =      F  vacuum potentials using an averaging scheme for the charge density
   VACPOTFLAT =  0.1000000 required flatness to determine vacuum potential
 Exchange correlation treatment:
   GGA     = PS    functional components
   XC_C    = 1    coefficients multiplying the functional components
   LIBXC   =     F    Libxc                    
   VOSKOWN =     0    Vosko Wilk Nusair interpolation
   LHFCALC =     F    Hartree Fock is set to
   LHFONE  =     F    Hartree Fock one center treatment
   AEXX    =    0.0000 exact exchange contribution

 Parameters of functionals:
   PS:
     No parameter
 
 Van der Waals corrections
   IVDW    =     0    specifies the selected vdW correction

 Linear response parameters
   LEPSILON=     F    determine dielectric tensor
   LRPA    =     F    only Hartree local field effects (RPA)
   LNABLA  =     F    use nabla operator in PAW spheres
   LVEL    =     F    velocity operator in full k-point grid
   CSHIFT  =0.1000    complex shift for real part using Kramers Kronig
   OMEGAMAX=  -1.0    maximum frequency
   DEG_THRESHOLD= 0.2000000E-02 threshold for treating states as degnerate
   RTIME   =   -0.100 relaxation time in fs
  (WPLASMAI=    0.000 imaginary part of plasma frequency in eV, 0.658/RTIME)
   DFIELD  = 0.0000000 0.0000000 0.0000000 field for delta impulse in time
 
  Optional k-point grid parameters
   LKPOINTS_OPT  =     F    use optional k-point grid
   KPOINTS_OPT_MODE=     1    mode for optional k-point grid
 
 Orbital magnetization related:
   ORBITALMAG=     F  switch on orbital magnetization
   LCHIMAG   =     F  perturbation theory with respect to B field
   DQ        =  0.001000  dq finite difference perturbation B field
   LLRAUG    =     F  two centre corrections for induced B field
   LBONE     =     F  B-component reconstruction in AE one-centre
   LVGVCALC  =     T  calculate vGv susceptibility
   LVGVAPPL  =     F  apply vGv susceptibility instead of pGv for G=0

 Random number generation:
   RANDOM_GENERATOR = DEFAULT
   PCG_SEED         = not used


--------------------------------------------------------------------------------------------------------


 conjugate gradient relaxation of ions
 charge density and potential will be updated during run
 non-spin polarized calculation
 RMM-DIIS sequential band-by-band and
  variant of blocked Davidson during initial phase
 perform sub-space diagonalisation
    before iterative eigenvector-optimisation
 modified Broyden-mixing scheme, WC =      100.0
 initial mixing is a Kerker type mixing with AMIX =  0.4000 and BMIX =      1.0000
 Hartree-type preconditioning will be used
 using additional bands           34
 real space projection scheme for non local part
 use partial core corrections
 calculate Harris-corrections to forces 
   (improved forces if not selfconsistent)
 use gradient corrections 
 use of overlap-Matrix (Vanderbilt PP)
 Methfessel and Paxton  Order N= 1 SIGMA  =   0.20


--------------------------------------------------------------------------------------------------------


  energy-cutoff  :      400.00
  volume of cell :     1222.13
      direct lattice vectors                 reciprocal lattice vectors
    10.548850558 -0.107641016  0.000000000     0.094806732  0.000948065  0.000000000
    -0.107641016 10.764133590  0.000000000     0.000948065  0.092910594  0.000000000
     0.000000000  0.000000000 10.764133590     0.000000000  0.000000000  0.092901114

  length of vectors
    10.549399731 10.764671780 10.764133590     0.094811472  0.092915431  0.092901114


 
 k-points in units of 2pi/SCALE and weight: Automatic mesh                          
   0.00000000  0.00000000  0.00000000       0.125
   0.04740337  0.00047403  0.00000000       0.125
   0.00047403  0.04645530  0.00000000       0.125
   0.04787741  0.04692934  0.00000000       0.125
   0.00000000  0.00000000  0.04645056       0.125
   0.04740337  0.00047403  0.04645056       0.125
   0.00047403  0.04645530  0.04645056       0.125
   0.04787741  0.04692934  0.04645056       0.125
 
 k-points in reciprocal lattice and weights: Automatic mesh                          
   0.00000000  0.00000000  0.00000000       0.125
   0.50000000  0.00000000  0.00000000       0.125
  -0.00000000  0.50000000  0.00000000       0.125
   0.50000000  0.50000000  0.00000000       0.125
   0.00000000  0.00000000  0.50000000       0.125
   0.50000000  0.00000000  0.50000000       0.125
  -0.00000000  0.50000000  0.50000000       0.125
   0.50000000  0.50000000  0.50000000       0.125
 
 position of ions in fractional coordinates (direct lattice) 
   0.00000000  0.00000000  0.00000000
   0.00000000  0.00000000  0.50000000
   0.00000000  0.50000000  0.00000000
   0.00000000  0.50000000  0.50000000
   0.50000000  0.00000000  0.00000000
   0.50000000  0.00000000  0.50000000
   0.50000000  0.50000000  0.00000000
   0.50000000  0.50000000  0.50000000
   0.37500000  0.37500000  0.12500000
   0.37500000  0.37500000  0.62500000
   0.37500000  0.87500000  0.12500000
   0.37500000  0.87500000  0.62500000
   0.87500000  0.37500000  0.12500000
   0.87500000  0.37500000  0.62500000
   0.87500000  0.87500000  0.12500000
   0.87500000  0.87500000  0.62500000
   0.00000000  0.25000000  0.25000000
   0.00000000  0.25000000  0.75000000
   0.00000000  0.75000000  0.25000000
   0.00000000  0.75000000  0.75000000
   0.50000000  0.25000000  0.25000000
   0.50000000  0.25000000  0.75000000
   0.50000000  0.75000000  0.25000000
   0.50000000  0.75000000  0.75000000
   0.37500000  0.12500000  0.37500000
   0.37500000  0.12500000  0.87500000
   0.37500000  0.62500000  0.37500000
   0.37500000  0.62500000  0.87500000
   0.87500000  0.12500000  0.37500000
   0.87500000  0.12500000  0.87500000
   0.87500000  0.62500000  0.37500000
   0.87500000  0.62500000  0.87500000
   0.25000000  0.00000000  0.25000000
   0.25000000  0.00000000  0.75000000
   0.25000000  0.50000000  0.25000000
   0.25000000  0.50000000  0.75000000
   0.75000000  0.00000000  0.25000000
   0.75000000  0.00000000  0.75000000
   0.75000000  0.50000000  0.25000000
   0.75000000  0.50000000  0.75000000
   0.12500000  0.37500000  0.37500000
   0.12500000  0.37500000  0.87500000
   0.12500000  0.87500000  0.37500000
   0.12500000  0.87500000  0.87500000
   0.62500000  0.37500000  0.37500000
   0.62500000  0.37500000  0.87500000
   0.62500000  0.87500000  0.37500000
   0.62500000  0.87500000  0.87500000
   0.25000000  0.25000000  0.00000000
   0.25000000  0.25000000  0.50000000
   0.25000000  0.75000000  0.00000000
   0.25000000  0.75000000  0.50000000
   0.75000000  0.25000000  0.00000000
   0.75000000  0.25000000  0.50000000
   0.75000000  0.75000000  0.00000000
   0.75000000  0.75000000  0.50000000
   0.12500000  0.12500000  0.12500000
   0.12500000  0.12500000  0.62500000
   0.12500000  0.62500000  0.12500000
   0.12500000  0.62500000  0.62500000
   0.62500000  0.12500000  0.12500000
   0.62500000  0.12500000  0.62500000
   0.62500000  0.62500000  0.12500000
   0.62500000  0.62500000  0.62500000
 
 position of ions in cartesian coordinates  (Angst):
   0.00000000  0.00000000  0.00000000
   0.00000000  0.00000000  5.38206679
  -0.05382051  5.38206679  0.00000000
  -0.05382051  5.38206679  5.38206679
   5.27442528 -0.05382051  0.00000000
   5.27442528 -0.05382051  5.38206679
   5.22060477  5.32824629  0.00000000
   5.22060477  5.32824629  5.38206679
   3.91545358  3.99618472  1.34551670
   3.91545358  3.99618472  6.72758349
   3.86163307  9.37825151  1.34551670
   3.86163307  9.37825151  6.72758349
   9.18987886  3.94236421  1.34551670
   9.18987886  3.94236421  6.72758349
   9.13605835  9.32443100  1.34551670
   9.13605835  9.32443100  6.72758349
  -0.02691025  2.69103340  2.69103340
  -0.02691025  2.69103340  8.07310019
  -0.08073076  8.07310019  2.69103340
  -0.08073076  8.07310019  8.07310019
   5.24751502  2.63721289  2.69103340
   5.24751502  2.63721289  8.07310019
   5.19369452  8.01927968  2.69103340
   5.19369452  8.01927968  8.07310019
   3.94236383  1.30515132  4.03655010
   3.94236383  1.30515132  9.41861689
   3.88854332  6.68721811  4.03655010
   3.88854332  6.68721811  9.41861689
   9.21678911  1.25133081  4.03655010
   9.21678911  1.25133081  9.41861689
   9.16296860  6.63339760  4.03655010
   9.16296860  6.63339760  9.41861689
   2.63721264 -0.02691025  2.69103340
   2.63721264 -0.02691025  8.07310019
   2.58339213  5.35515654  2.69103340
   2.58339213  5.35515654  8.07310019
   7.91163792 -0.08073076  2.69103340
   7.91163792 -0.08073076  8.07310019
   7.85781741  5.30133603  2.69103340
   7.85781741  5.30133603  8.07310019
   1.27824094  4.02309497  4.03655010
   1.27824094  4.02309497  9.41861689
   1.22442043  9.40516176  4.03655010
   1.22442043  9.40516176  9.41861689
   6.55266622  3.96927446  4.03655010
   6.55266622  3.96927446  9.41861689
   6.49884571  9.35134126  4.03655010
   6.49884571  9.35134126  9.41861689
   2.61030239  2.66412314  0.00000000
   2.61030239  2.66412314  5.38206679
   2.55648188  8.04618994  0.00000000
   2.55648188  8.04618994  5.38206679
   7.88472766  2.61030264  0.00000000
   7.88472766  2.61030264  5.38206679
   7.83090716  7.99236943  0.00000000
   7.83090716  7.99236943  5.38206679
   1.30515119  1.33206157  1.34551670
   1.30515119  1.33206157  6.72758349
   1.25133068  6.71412837  1.34551670
   1.25133068  6.71412837  6.72758349
   6.57957647  1.27824106  1.34551670
   6.57957647  1.27824106  6.72758349
   6.52575596  6.66030786  1.34551670
   6.52575596  6.66030786  6.72758349
 


--------------------------------------------------------------------------------------------------------


 k-point     1 :   0.0000 0.0000 0.0000  plane waves:   22249
 k-point     2 :   0.5000 0.0000 0.0000  plane waves:   22226
 k-point     3 :  -0.0000 0.5000 0.0000  plane waves:   22220
 k-point     4 :   0.5000 0.5000 0.0000  plane waves:   22184
 k-point     5 :   0.0000 0.0000 0.5000  plane waves:   22144
 k-point     6 :   0.5000 0.0000 0.5000  plane waves:   22220
 k-point     7 :  -0.0000 0.5000 0.5000  plane waves:   22156
 k-point     8 :   0.5000 0.5000 0.5000  plane waves:   22192

 maximum and minimum number of plane-waves per node :      1876     1808

 maximum number of plane-waves:     22249
 maximum index in each direction: 
   IXMAX=   17   IYMAX=   17   IZMAX=   17
   IXMIN=  -17   IYMIN=  -18   IZMIN=  -18


 real space projection operators:
  total allocation   :      12035.50 KBytes
  max/ min on nodes  :       1042.50        872.75


 parallel 3D FFT for wavefunctions:
    minimum data exchange during FFTs selected (reduces bandwidth)
 parallel 3D FFT for charge:
    minimum data exchange during FFTs selected (reduces bandwidth)


 total amount of memory used by VASP MPI-rank0    79409. kBytes
=======================================================================

   base      :      30000. kBytes
   nonlr-proj:       4653. kBytes
   fftplans  :      17992. kBytes
   grid      :       6881. kBytes
   one-center:         18. kBytes
   wavefun   :      19865. kBytes
 
     INWAV:  cpu time      0.0000: real time      0.0000
 Broyden mixing: mesh for mixing (old mesh)
   NGX = 35   NGY = 35   NGZ = 35
  (NGX  =140   NGY  =140   NGZ  =140)
  gives a total of  42875 points

 initial charge density was supplied:
 charge density of overlapping atoms calculated
 number of electron     256.0000000 magnetization 
 keeping initial charge density in first step


--------------------------------------------------------------------------------------------------------


 Maximum index for non-local projection operator          284
 Maximum index for augmentation-charges         3738 (set IRDMAX)


--------------------------------------------------------------------------------------------------------


 First call to EWALD:  gamma=   0.166
 Maximum number of real-space cells 3x 3x 3
 Maximum number of reciprocal cells 3x 3x 3

    FEWALD:  cpu time      0.0056: real time      0.0056


--------------------------------------- Ionic step        1  -------------------------------------------




--------------------------------------- Iteration      1(   1)  ---------------------------------------


    POTLOK:  cpu time      0.0807: real time      0.0835
    SETDIJ:  cpu time      0.0795: real time      0.0797
     EDDAV:  cpu time      1.2238: real time      1.2917
       DOS:  cpu time      0.0036: real time      0.0038
    --------------------------------------------
      LOOP:  cpu time      1.3877: real time      1.4587

 eigenvalue-minimisations  :  2592
 total energy-change (2. order) : 0.5683690E+03  (-0.8447216E+04)
 number of electron     256.0000000 magnetization 
 augmentation part      256.0000000 magnetization 

 Free energy of the ion-electron system (eV)
  ---------------------------------------------------
  alpha Z        PSCENC =       112.82243598
  Ewald energy   TEWEN  =     -7429.18231958
  -Hartree energ DENC   =      -329.93479479
  -exchange      EXHF   =         0.00000000
  -V(xc)+E(xc)   XCENC  =      -553.00274592
  PAW double counting   =      5598.62625415    -4492.17844134
  entropy T*S    EENTRO =         0.02864769
  eigenvalues    EBANDS =      1096.39411342
  atomic energy  EATOM  =      6564.79586099
  Solvation  Ediel_sol  =         0.00000000
  ---------------------------------------------------
  free energy    TOTEN  =       568.36901060 eV

  energy without entropy =      568.34036291  energy(sigma->0) =      568.35946137


--------------------------------------------------------------------------------------------------------




--------------------------------------- Iteration      1(   2)  ---------------------------------------


     EDDAV:  cpu time      1.3141: real time      1.3241
       DOS:  cpu time      0.0012: real time      0.0012
    --------------------------------------------
      LOOP:  cpu time      1.3153: real time      1.3253

 eigenvalue-minimisations  :  3072
 total energy-change (2. order) :-0.8778453E+03  (-0.8330969E+03)
 number of electron     256.0000000 magnetization 
 augmentation part      256.0000000 magnetization 

 Free energy of the ion-electron system (eV)
  ---------------------------------------------------
  alpha Z        PSCENC =       112.82243598
  Ewald energy   TEWEN  =     -7429.18231958
  -Hartree energ DENC   =      -329.93479479
  -exchange      EXHF   =         0.00000000
  -V(xc)+E(xc)   XCENC  =      -553.00274592
  PAW double counting   =      5598.62625415    -4492.17844134
  entropy T*S    EENTRO =         0.01363348
  eigenvalues    EBANDS =       218.56384283
  atomic energy  EATOM  =      6564.79586099
  Solvation  Ediel_sol  =         0.00000000
  ---------------------------------------------------
  free energy    TOTEN  =      -309.47627420 eV

  energy without entropy =     -309.48990768  energy(sigma->0) =     -309.48081869


--------------------------------------------------------------------------------------------------------




--------------------------------------- Iteration      1(   3)  ---------------------------------------


     EDDAV:  cpu time      1.3367: real time      1.3484
       DOS:  cpu time      0.0014: real time      0.0014
    --------------------------------------------
      LOOP:  cpu time      1.3382: real time      1.3498

 eigenvalue-minimisations  :  3152
 total energy-change (2. order) :-0.6338933E+02  (-0.6212324E+02)
 number of electron     256.0000000 magnetization 
 augmentation part      256.0000000 magnetization 

 Free energy of the ion-electron system (eV)
  ---------------------------------------------------
  alpha Z        PSCENC =       112.82243598
  Ewald energy   TEWEN  =     -7429.18231958
  -Hartree energ DENC   =      -329.93479479
  -exchange      EXHF   =         0.00000000
  -V(xc)+E(xc)   XCENC  =      -553.00274592
  PAW double counting   =      5598.62625415    -4492.17844134
  entropy T*S    EENTRO =         0.00763615
  eigenvalues    EBANDS =       155.18050768
  atomic energy  EATOM  =      6564.79586099
  Solvation  Ediel_sol  =         0.00000000
  ---------------------------------------------------
  free energy    TOTEN  =      -372.86560669 eV

  energy without entropy =     -372.87324284  energy(sigma->0) =     -372.86815207


--------------------------------------------------------------------------------------------------------




--------------------------------------- Iteration      1(   4)  ---------------------------------------


     EDDAV:  cpu time      1.3211: real time      1.3368
       DOS:  cpu time      0.0016: real time      0.0016
    --------------------------------------------
      LOOP:  cpu time      1.3227: real time      1.3384

 eigenvalue-minimisations  :  3112
 total energy-change (2. order) :-0.1650250E+01  (-0.1637774E+01)
 number of electron     256.0000000 magnetization 
 augmentation part      256.0000000 magnetization 

 Free energy of the ion-electron system (eV)
  ---------------------------------------------------
  alpha Z        PSCENC =       112.82243598
  Ewald energy   TEWEN  =     -7429.18231958
  -Hartree energ DENC   =      -329.93479479
  -exchange      EXHF   =         0.00000000
  -V(xc)+E(xc)   XCENC  =      -553.00274592
  PAW double counting   =      5598.62625415    -4492.17844134
  entropy T*S    EENTRO =         0.00747308
  eigenvalues    EBANDS =       153.53042036
  atomic energy  EATOM  =      6564.79586099
  Solvation  Ediel_sol  =         0.00000000
  ---------------------------------------------------
  free energy    TOTEN  =      -374.51585707 eV

  energy without entropy =     -374.52333015  energy(sigma->0) =     -374.51834809


--------------------------------------------------------------------------------------------------------




--------------------------------------- Iteration      1(   5)  ---------------------------------------


     EDDAV:  cpu time      1.3253: real time      1.3450
       DOS:  cpu time      0.0012: real time      0.0011
    CHARGE:  cpu time      0.2388: real time      0.2410
    MIXING:  cpu time      0.0101: real time      0.0102
    --------------------------------------------
      LOOP:  cpu time      1.5753: real time      1.5973

 eigenvalue-minimisations  :  3160
 total energy-change (2. order) :-0.5692766E-01  (-0.5681236E-01)
 number of electron     256.0000000 magnetization 
 augmentation part      -15.0752258 magnetization 

 Broyden mixing:
  rms(total) = 0.29914E+01    rms(broyden)= 0.29914E+01
  rms(prec ) = 0.32933E+01
  weight for this iteration     100.00

 Free energy of the ion-electron system (eV)
  ---------------------------------------------------
  alpha Z        PSCENC =       112.82243598
  Ewald energy   TEWEN  =     -7429.18231958
  -Hartree energ DENC   =      -329.93479479
  -exchange      EXHF   =         0.00000000
  -V(xc)+E(xc)   XCENC  =      -553.00274592
  PAW double counting   =      5598.62625415    -4492.17844134
  entropy T*S    EENTRO =         0.00744296
  eigenvalues    EBANDS =       153.47352282
  atomic energy  EATOM  =      6564.79586099
  Solvation  Ediel_sol  =         0.00000000
  ---------------------------------------------------
  free energy    TOTEN  =      -374.57278473 eV

  energy without entropy =     -374.58022769  energy(sigma->0) =     -374.57526571


--------------------------------------------------------------------------------------------------------




--------------------------------------- Iteration      1(   6)  ---------------------------------------


    POTLOK:  cpu time      0.0730: real time      0.0920
    SETDIJ:  cpu time      0.0704: real time      0.0705
    EDDIAG:  cpu time      0.1352: real time      0.1368
  RMM-DIIS:  cpu time      0.6856: real time      0.6873
    ORTHCH:  cpu time      0.0207: real time      0.0208
       DOS:  cpu time      0.0012: real time      0.0012
    CHARGE:  cpu time      0.2277: real time      0.2311
    MIXING:  cpu time      0.0075: real time      0.0105
    --------------------------------------------
      LOOP:  cpu time      1.2214: real time      1.2501

 eigenvalue-minimisations  :  2592
 total energy-change (2. order) : 0.5742952E+01  (-0.2991558E+00)
 number of electron     256.0000000 magnetization 
 augmentation part      -14.8966897 magnetization 

 Broyden mixing:
  rms(total) = 0.18031E+01    rms(broyden)= 0.18031E+01
  rms(prec ) = 0.19734E+01
  weight for this iteration     100.00

 eigenvalues of (default mixing * dielectric matrix)
  average eigenvalue GAMMA=   2.5115
  2.5115

 Free energy of the ion-electron system (eV)
  ---------------------------------------------------
  alpha Z        PSCENC =       112.82243598
  Ewald energy   TEWEN  =     -7429.18231958
  -Hartree energ DENC   =      -378.56999367
  -exchange      EXHF   =         0.00000000
  -V(xc)+E(xc)   XCENC  =      -545.31050574
  PAW double counting   =     13005.17625868   -11902.50876504
  entropy T*S    EENTRO =         0.02217887
  eigenvalues    EBANDS =       203.92501697
  atomic energy  EATOM  =      6564.79586099
  Solvation  Ediel_sol  =         0.00000000
  ---------------------------------------------------
  free energy    TOTEN  =      -368.82983254 eV

  energy without entropy =     -368.85201141  energy(sigma->0) =     -368.83722550


--------------------------------------------------------------------------------------------------------




--------------------------------------- Iteration      1(   7)  ---------------------------------------


    POTLOK:  cpu time      0.0783: real time      0.0879
    SETDIJ:  cpu time      0.0709: real time      0.0711
    EDDIAG:  cpu time      0.1326: real time      0.1330
  RMM-DIIS:  cpu time      0.6963: real time      0.6998
    ORTHCH:  cpu time      0.0212: real time      0.0212
       DOS:  cpu time      0.0013: real time      0.0013
    CHARGE:  cpu time      0.2274: real time      0.2283
    MIXING:  cpu time      0.0087: real time      0.0098
    --------------------------------------------
      LOOP:  cpu time      1.2368: real time      1.2524

 eigenvalue-minimisations  :  2644
 total energy-change (2. order) : 0.2522071E+01  (-0.7588506E+00)
 number of electron     256.0000000 magnetization 
 augmentation part      -14.6456056 magnetization 

 Broyden mixing:
  rms(total) = 0.11128E+00    rms(broyden)= 0.11128E+00
  rms(prec ) = 0.14030E+00
  weight for this iteration     100.00

 eigenvalues of (default mixing * dielectric matrix)
  average eigenvalue GAMMA=   2.2958
  2.2958  2.2958

 Free energy of the ion-electron system (eV)
  ---------------------------------------------------
  alpha Z        PSCENC =       112.82243598
  Ewald energy   TEWEN  =     -7429.18231958
  -Hartree energ DENC   =      -458.69578358
  -exchange      EXHF   =         0.00000000
  -V(xc)+E(xc)   XCENC  =      -532.05580539
  PAW double counting   =     31147.45316467   -30050.06631479
  entropy T*S    EENTRO =         0.02066287
  eigenvalues    EBANDS =       278.60033701
  atomic energy  EATOM  =      6564.79586099
  Solvation  Ediel_sol  =         0.00000000
  ---------------------------------------------------
  free energy    TOTEN  =      -366.30776183 eV

  energy without entropy =     -366.32842469  energy(sigma->0) =     -366.31464945


--------------------------------------------------------------------------------------------------------




--------------------------------------- Iteration      1(   8)  ---------------------------------------


    POTLOK:  cpu time      0.0758: real time      0.0884
    SETDIJ:  cpu time      0.0703: real time      0.0705
    EDDIAG:  cpu time      0.1347: real time      0.1350
  RMM-DIIS:  cpu time      0.6849: real time      0.6883
    ORTHCH:  cpu time      0.0217: real time      0.0218
       DOS:  cpu time      0.0014: real time      0.0014
    CHARGE:  cpu time      0.2314: real time      0.2322
    MIXING:  cpu time      0.0083: real time      0.0089
    --------------------------------------------
      LOOP:  cpu time      1.2286: real time      1.2465

 eigenvalue-minimisations  :  2622
 total energy-change (2. order) :-0.3599958E-01  (-0.7209330E-01)
 number of electron     256.0000000 magnetization 
 augmentation part      -14.7027830 magnetization 

 Broyden mixing:
  rms(total) = 0.53543E-01    rms(broyden)= 0.53543E-01
  rms(prec ) = 0.57455E-01
  weight for this iteration     100.00

 eigenvalues of (default mixing * dielectric matrix)
  average eigenvalue GAMMA=   2.0753
  2.5546  1.8356  1.8356

 Free energy of the ion-electron system (eV)
  ---------------------------------------------------
  alpha Z        PSCENC =       112.82243598
  Ewald energy   TEWEN  =     -7429.18231958
  -Hartree energ DENC   =      -449.83043919
  -exchange      EXHF   =         0.00000000
  -V(xc)+E(xc)   XCENC  =      -532.80491923
  PAW double counting   =     30835.77065343   -29737.34751558
  entropy T*S    EENTRO =         0.02300563
  eigenvalues    EBANDS =       269.40947615
  atomic energy  EATOM  =      6564.79586099
  Solvation  Ediel_sol  =         0.00000000
  ---------------------------------------------------
  free energy    TOTEN  =      -366.34376141 eV

  energy without entropy =     -366.36676704  energy(sigma->0) =     -366.35142995


--------------------------------------------------------------------------------------------------------




--------------------------------------- Iteration      1(   9)  ---------------------------------------


    POTLOK:  cpu time      0.0780: real time      0.0887
    SETDIJ:  cpu time      0.0722: real time      0.0723
    EDDIAG:  cpu time      0.1339: real time      0.1345
  RMM-DIIS:  cpu time      0.7452: real time      0.7484
    ORTHCH:  cpu time      0.0213: real time      0.0214
       DOS:  cpu time      0.0015: real time      0.0015
    CHARGE:  cpu time      0.2345: real time      0.2353
    MIXING:  cpu time      0.0083: real time      0.0083
    --------------------------------------------
      LOOP:  cpu time      1.2949: real time      1.3104

 eigenvalue-minimisations  :  2671
 total energy-change (2. order) :-0.2213455E-01  (-0.2127740E-01)
 number of electron     256.0000000 magnetization 
 augmentation part      -14.6888868 magnetization 

 Broyden mixing:
  rms(total) = 0.60657E-01    rms(broyden)= 0.60656E-01
  rms(prec ) = 0.68604E-01
  weight for this iteration     100.00

 eigenvalues of (default mixing * dielectric matrix)
  average eigenvalue GAMMA=   1.6887
  2.5510  1.9998  1.9998  0.2042

 Free energy of the ion-electron system (eV)
  ---------------------------------------------------
  alpha Z        PSCENC =       112.82243598
  Ewald energy   TEWEN  =     -7429.18231958
  -Hartree energ DENC   =      -453.21098687
  -exchange      EXHF   =         0.00000000
  -V(xc)+E(xc)   XCENC  =      -532.34908499
  PAW double counting   =     31273.07551561   -30174.93720230
  entropy T*S    EENTRO =         0.02244772
  eigenvalues    EBANDS =       272.59743748
  atomic energy  EATOM  =      6564.79586099
  Solvation  Ediel_sol  =         0.00000000
  ---------------------------------------------------
  free energy    TOTEN  =      -366.36589596 eV

  energy without entropy =     -366.38834368  energy(sigma->0) =     -366.37337853


--------------------------------------------------------------------------------------------------------




--------------------------------------- Iteration      1(  10)  ---------------------------------------


    POTLOK:  cpu time      0.0751: real time      0.0886
    SETDIJ:  cpu time      0.0687: real time      0.0708
    EDDIAG:  cpu time      0.1370: real time      0.1373
  RMM-DIIS:  cpu time      0.7169: real time      0.7186
    ORTHCH:  cpu time      0.0215: real time      0.0215
       DOS:  cpu time      0.0013: real time      0.0013
    CHARGE:  cpu time      0.2357: real time      0.2380
    MIXING:  cpu time      0.0081: real time      0.0081
    --------------------------------------------
      LOOP:  cpu time      1.2643: real time      1.2843

 eigenvalue-minimisations  :  2718
 total energy-change (2. order) :-0.4455244E-02  (-0.3741195E-02)
 number of electron     256.0000000 magnetization 
 augmentation part      -14.6948143 magnetization 

 Broyden mixing:
  rms(total) = 0.88333E-01    rms(broyden)= 0.88333E-01
  rms(prec ) = 0.95684E-01
  weight for this iteration     100.00

 eigenvalues of (default mixing * dielectric matrix)
  average eigenvalue GAMMA=   1.6436
  2.6876  2.2671  1.8225  0.7203  0.7203

 Free energy of the ion-electron system (eV)
  ---------------------------------------------------
  alpha Z        PSCENC =       112.82243598
  Ewald energy   TEWEN  =     -7429.18231958
  -Hartree energ DENC   =      -453.47111386
  -exchange      EXHF   =         0.00000000
  -V(xc)+E(xc)   XCENC  =      -532.31990760
  PAW double counting   =     31339.36383303   -30241.23491561
  entropy T*S    EENTRO =         0.02237566
  eigenvalues    EBANDS =       272.83339980
  atomic energy  EATOM  =      6564.79586099
  Solvation  Ediel_sol  =         0.00000000
  ---------------------------------------------------
  free energy    TOTEN  =      -366.37035120 eV

  energy without entropy =     -366.39272686  energy(sigma->0) =     -366.37780976


--------------------------------------------------------------------------------------------------------




--------------------------------------- Iteration      1(  11)  ---------------------------------------


    POTLOK:  cpu time      0.0744: real time      0.0886
    SETDIJ:  cpu time      0.0702: real time      0.0704
    EDDIAG:  cpu time      0.1345: real time      0.1348
  RMM-DIIS:  cpu time      0.6857: real time      0.6890
    ORTHCH:  cpu time      0.0214: real time      0.0215
       DOS:  cpu time      0.0013: real time      0.0013
    CHARGE:  cpu time      0.2302: real time      0.2309
    MIXING:  cpu time      0.0086: real time      0.0086
    --------------------------------------------
      LOOP:  cpu time      1.2265: real time      1.2452

 eigenvalue-minimisations  :  2592
 total energy-change (2. order) : 0.4292786E-02  (-0.1464338E-02)
 number of electron     256.0000000 magnetization 
 augmentation part      -14.7095669 magnetization 

 Broyden mixing:
  rms(total) = 0.55007E-01    rms(broyden)= 0.55007E-01
  rms(prec ) = 0.55457E-01
  weight for this iteration     100.00

 eigenvalues of (default mixing * dielectric matrix)
  average eigenvalue GAMMA=   1.5105
  2.6081  2.6081  1.3645  1.3645  0.7839  0.3342

 Free energy of the ion-electron system (eV)
  ---------------------------------------------------
  alpha Z        PSCENC =       112.82243598
  Ewald energy   TEWEN  =     -7429.18231958
  -Hartree energ DENC   =      -450.71749826
  -exchange      EXHF   =         0.00000000
  -V(xc)+E(xc)   XCENC  =      -532.53106478
  PAW double counting   =     31191.51672101   -30093.13064692
  entropy T*S    EENTRO =         0.02310952
  eigenvalues    EBANDS =       270.03734363
  atomic energy  EATOM  =      6564.79586099
  Solvation  Ediel_sol  =         0.00000000
  ---------------------------------------------------
  free energy    TOTEN  =      -366.36605842 eV

  energy without entropy =     -366.38916793  energy(sigma->0) =     -366.37376159


--------------------------------------------------------------------------------------------------------




--------------------------------------- Iteration      1(  12)  ---------------------------------------


    POTLOK:  cpu time      0.0747: real time      0.0883
    SETDIJ:  cpu time      0.0707: real time      0.0708
    EDDIAG:  cpu time      0.1318: real time      0.1321
  RMM-DIIS:  cpu time      0.6841: real time      0.6874
    ORTHCH:  cpu time      0.0213: real time      0.0213
       DOS:  cpu time      0.0013: real time      0.0013
    CHARGE:  cpu time      0.2284: real time      0.2291
    MIXING:  cpu time      0.0099: real time      0.0100
    --------------------------------------------
      LOOP:  cpu time      1.2222: real time      1.2403

 eigenvalue-minimisations  :  2612
 total energy-change (2. order) :-0.1982396E-03  (-0.1901263E-03)
 number of electron     256.0000000 magnetization 
 augmentation part      -14.7125859 magnetization 

 Broyden mixing:
  rms(total) = 0.51698E-01    rms(broyden)= 0.51698E-01
  rms(prec ) = 0.51948E-01
  weight for this iteration     100.00

 eigenvalues of (default mixing * dielectric matrix)
  average eigenvalue GAMMA=   1.4515
  2.6046  2.6046  1.7854  1.1037  0.8469  0.4652  0.7497

 Free energy of the ion-electron system (eV)
  ---------------------------------------------------
  alpha Z        PSCENC =       112.82243598
  Ewald energy   TEWEN  =     -7429.18231958
  -Hartree energ DENC   =      -450.59295936
  -exchange      EXHF   =         0.00000000
  -V(xc)+E(xc)   XCENC  =      -532.55465925
  PAW double counting   =     31109.26623473   -30010.89030082
  entropy T*S    EENTRO =         0.02312587
  eigenvalues    EBANDS =       269.94632478
  atomic energy  EATOM  =      6564.79586099
  Solvation  Ediel_sol  =         0.00000000
  ---------------------------------------------------
  free energy    TOTEN  =      -366.36625666 eV

  energy without entropy =     -366.38938253  energy(sigma->0) =     -366.37396528


--------------------------------------------------------------------------------------------------------




--------------------------------------- Iteration      1(  13)  ---------------------------------------


    POTLOK:  cpu time      0.0728: real time      0.0896
    SETDIJ:  cpu time      0.0702: real time      0.0703
    EDDIAG:  cpu time      0.1333: real time      0.1336
  RMM-DIIS:  cpu time      0.7074: real time      0.7256
    ORTHCH:  cpu time      0.0207: real time      0.0207
       DOS:  cpu time      0.0012: real time      0.0012
    CHARGE:  cpu time      0.2289: real time      0.2309
    MIXING:  cpu time      0.0085: real time      0.0085
    --------------------------------------------
      LOOP:  cpu time      1.2430: real time      1.2805

 eigenvalue-minimisations  :  2727
 total energy-change (2. order) :-0.6515661E-04  (-0.3620578E-04)
 number of electron     256.0000000 magnetization 
 augmentation part      -14.7131952 magnetization 

 Broyden mixing:
  rms(total) = 0.60739E-01    rms(broyden)= 0.60739E-01
  rms(prec ) = 0.60970E-01
  weight for this iteration     100.00

 eigenvalues of (default mixing * dielectric matrix)
  average eigenvalue GAMMA=   1.7068
  2.9394  2.9394  2.2862  2.2862  0.9573  0.8643  0.8643  0.5169

 Free energy of the ion-electron system (eV)
  ---------------------------------------------------
  alpha Z        PSCENC =       112.82243598
  Ewald energy   TEWEN  =     -7429.18231958
  -Hartree energ DENC   =      -450.64594927
  -exchange      EXHF   =         0.00000000
  -V(xc)+E(xc)   XCENC  =      -532.53980850
  PAW double counting   =     31181.26865848   -30082.89445224
  entropy T*S    EENTRO =         0.02312872
  eigenvalues    EBANDS =       269.98612361
  atomic energy  EATOM  =      6564.79586099
  Solvation  Ediel_sol  =         0.00000000
  ---------------------------------------------------
  free energy    TOTEN  =      -366.36632181 eV

  energy without entropy =     -366.38945054  energy(sigma->0) =     -366.37403139


--------------------------------------------------------------------------------------------------------




--------------------------------------- Iteration      1(  14)  ---------------------------------------


    POTLOK:  cpu time      0.0768: real time      0.0891
    SETDIJ:  cpu time      0.0695: real time      0.0697
    EDDIAG:  cpu time      0.1319: real time      0.1322
  RMM-DIIS:  cpu time      0.6807: real time      0.6824
    ORTHCH:  cpu time      0.0208: real time      0.0208
       DOS:  cpu time      0.0012: real time      0.0012
    CHARGE:  cpu time      0.2267: real time      0.2287
    MIXING:  cpu time      0.0113: real time      0.0113
    --------------------------------------------
      LOOP:  cpu time      1.2189: real time      1.2354

 eigenvalue-minimisations  :  2599
 total energy-change (2. order) :-0.1227459E-04  (-0.9533170E-05)
 number of electron     256.0000000 magnetization 
 augmentation part      -14.7131402 magnetization 

 Broyden mixing:
  rms(total) = 0.20750E-01    rms(broyden)= 0.20750E-01
  rms(prec ) = 0.20981E-01
  weight for this iteration     100.00

 eigenvalues of (default mixing * dielectric matrix)
  average eigenvalue GAMMA=   1.5080
  2.5983  2.5983  2.3880  2.1397  0.9476  0.9476  0.9244  0.5141  0.5141

 Free energy of the ion-electron system (eV)
  ---------------------------------------------------
  alpha Z        PSCENC =       112.82243598
  Ewald energy   TEWEN  =     -7429.18231958
  -Hartree energ DENC   =      -450.50227364
  -exchange      EXHF   =         0.00000000
  -V(xc)+E(xc)   XCENC  =      -532.58319612
  PAW double counting   =     30850.05804061   -29751.70473696
  entropy T*S    EENTRO =         0.02312903
  eigenvalues    EBANDS =       269.90672560
  atomic energy  EATOM  =      6564.79586099
  Solvation  Ediel_sol  =         0.00000000
  ---------------------------------------------------
  free energy    TOTEN  =      -366.36633409 eV

  energy without entropy =     -366.38946312  energy(sigma->0) =     -366.37404376


--------------------------------------------------------------------------------------------------------




--------------------------------------- Iteration      1(  15)  ---------------------------------------


    POTLOK:  cpu time      0.0705: real time      0.0897
    SETDIJ:  cpu time      0.0693: real time      0.0710
    EDDIAG:  cpu time      0.1325: real time      0.1353
  RMM-DIIS:  cpu time      0.6717: real time      0.6974
    ORTHCH:  cpu time      0.0207: real time      0.0214
       DOS:  cpu time      0.0015: real time      0.0015
    CHARGE:  cpu time      0.2298: real time      0.2330
    MIXING:  cpu time      0.0077: real time      0.0078
    --------------------------------------------
      LOOP:  cpu time      1.2037: real time      1.2572

 eigenvalue-minimisations  :  2640
 total energy-change (2. order) :-0.3783672E-04  (-0.3502273E-05)
 number of electron     256.0000000 magnetization 
 augmentation part      -14.7133730 magnetization 

 Broyden mixing:
  rms(total) = 0.16425E-01    rms(broyden)= 0.16425E-01
  rms(prec ) = 0.16575E-01
  weight for this iteration     100.00

 eigenvalues of (default mixing * dielectric matrix)
  average eigenvalue GAMMA=   1.4779
  2.7132  2.7132  2.2451  1.9873  0.8667  0.8667  0.9987  0.9987  0.8660  0.5231

 Free energy of the ion-electron system (eV)
  ---------------------------------------------------
  alpha Z        PSCENC =       112.82243598
  Ewald energy   TEWEN  =     -7429.18231958
  -Hartree energ DENC   =      -450.49344884
  -exchange      EXHF   =         0.00000000
  -V(xc)+E(xc)   XCENC  =      -532.57900726
  PAW double counting   =     30846.56567272   -29748.20976020
  entropy T*S    EENTRO =         0.02314966
  eigenvalues    EBANDS =       269.89104461
  atomic energy  EATOM  =      6564.79586099
  Solvation  Ediel_sol  =         0.00000000
  ---------------------------------------------------
  free energy    TOTEN  =      -366.36637192 eV

  energy without entropy =     -366.38952159  energy(sigma->0) =     -366.37408848


--------------------------------------------------------------------------------------------------------




--------------------------------------- Iteration      1(  16)  ---------------------------------------


    POTLOK:  cpu time      0.0788: real time      0.0894
    SETDIJ:  cpu time      0.0711: real time      0.0713
    EDDIAG:  cpu time      0.1333: real time      0.1336
  RMM-DIIS:  cpu time      0.6866: real time      0.6900
    ORTHCH:  cpu time      0.0210: real time      0.0211
       DOS:  cpu time      0.0019: real time      0.0019
    CHARGE:  cpu time      0.2316: real time      0.2322
    MIXING:  cpu time      0.0099: real time      0.0102
    --------------------------------------------
      LOOP:  cpu time      1.2343: real time      1.2497

 eigenvalue-minimisations  :  2592
 total energy-change (2. order) :-0.2451841E-04  (-0.2109275E-05)
 number of electron     256.0000000 magnetization 
 augmentation part      -14.7131210 magnetization 

 Broyden mixing:
  rms(total) = 0.85345E-02    rms(broyden)= 0.85345E-02
  rms(prec ) = 0.85865E-02
  weight for this iteration     100.00

 eigenvalues of (default mixing * dielectric matrix)
  average eigenvalue GAMMA=   1.4336
  2.7346  2.7346  2.1566  2.1566  1.0404  1.0404  0.9757  0.9757  0.8493  0.5529
  0.5529

 Free energy of the ion-electron system (eV)
  ---------------------------------------------------
  alpha Z        PSCENC =       112.82243598
  Ewald energy   TEWEN  =     -7429.18231958
  -Hartree energ DENC   =      -450.57658388
  -exchange      EXHF   =         0.00000000
  -V(xc)+E(xc)   XCENC  =      -532.57124143
  PAW double counting   =     30822.29351664   -29723.93926751
  entropy T*S    EENTRO =         0.02315838
  eigenvalues    EBANDS =       269.96804398
  atomic energy  EATOM  =      6564.79586099
  Solvation  Ediel_sol  =         0.00000000
  ---------------------------------------------------
  free energy    TOTEN  =      -366.36639644 eV

  energy without entropy =     -366.38955482  energy(sigma->0) =     -366.37411590


--------------------------------------------------------------------------------------------------------




--------------------------------------- Iteration      1(  17)  ---------------------------------------


    POTLOK:  cpu time      0.0769: real time      0.0910
    SETDIJ:  cpu time      0.0716: real time      0.0718
    EDDIAG:  cpu time      0.1323: real time      0.1326
  RMM-DIIS:  cpu time      0.6065: real time      0.6096
    ORTHCH:  cpu time      0.0211: real time      0.0211
       DOS:  cpu time      0.0016: real time      0.0016
    CHARGE:  cpu time      0.2313: real time      0.2322
    MIXING:  cpu time      0.0082: real time      0.0082
    --------------------------------------------
      LOOP:  cpu time      1.1495: real time      1.1681

 eigenvalue-minimisations  :  2292
 total energy-change (2. order) :-0.2652731E-05  (-0.6078030E-06)
 number of electron     256.0000000 magnetization 
 augmentation part      -14.7129389 magnetization 

 Broyden mixing:
  rms(total) = 0.20721E-02    rms(broyden)= 0.20721E-02
  rms(prec ) = 0.21034E-02
  weight for this iteration     100.00

 eigenvalues of (default mixing * dielectric matrix)
  average eigenvalue GAMMA=   1.6801
  2.2976  2.2976  2.8853  2.8853  2.4776  2.0891  0.9100  0.9781  0.9781  0.9149
  0.9149  0.5323

 Free energy of the ion-electron system (eV)
  ---------------------------------------------------
  alpha Z        PSCENC =       112.82243598
  Ewald energy   TEWEN  =     -7429.18231958
  -Hartree energ DENC   =      -450.59513448
  -exchange      EXHF   =         0.00000000
  -V(xc)+E(xc)   XCENC  =      -532.57344677
  PAW double counting   =     30780.62642247   -29682.27227937
  entropy T*S    EENTRO =         0.02316143
  eigenvalues    EBANDS =       269.98890024
  atomic energy  EATOM  =      6564.79586099
  Solvation  Ediel_sol  =         0.00000000
  ---------------------------------------------------
  free energy    TOTEN  =      -366.36639910 eV

  energy without entropy =     -366.38956053  energy(sigma->0) =     -366.37411957


--------------------------------------------------------------------------------------------------------




--------------------------------------- Iteration      1(  18)  ---------------------------------------


    POTLOK:  cpu time      0.0744: real time      0.0897
    SETDIJ:  cpu time      0.0715: real time      0.0717
    EDDIAG:  cpu time      0.1332: real time      0.1350
  RMM-DIIS:  cpu time      0.4444: real time      0.4454
    ORTHCH:  cpu time      0.0206: real time      0.0206
       DOS:  cpu time      0.0015: real time      0.0015
    --------------------------------------------
      LOOP:  cpu time      0.7456: real time      0.7639

 eigenvalue-minimisations  :  1566
 total energy-change (2. order) :-0.5506299E-06  (-0.1015322E-06)
 number of electron     256.0000000 magnetization 
 augmentation part      -14.7129389 magnetization 

 Free energy of the ion-electron system (eV)
  ---------------------------------------------------
  alpha Z        PSCENC =       112.82243598
  Ewald energy   TEWEN  =     -7429.18231958
  -Hartree energ DENC   =      -450.60972778
  -exchange      EXHF   =         0.00000000
  -V(xc)+E(xc)   XCENC  =      -532.57325659
  PAW double counting   =     30768.96534581   -29670.61143631
  entropy T*S    EENTRO =         0.02316106
  eigenvalues    EBANDS =       270.00353678
  atomic energy  EATOM  =      6564.79586099
  Solvation  Ediel_sol  =         0.00000000
  ---------------------------------------------------
  free energy    TOTEN  =      -366.36639965 eV

  energy without entropy =     -366.38956071  energy(sigma->0) =     -366.37412000


--------------------------------------------------------------------------------------------------------




 average (electrostatic) potential at core
  the test charge radii are     0.9892
  (the norm of the test charge is              1.0000)
       1 -82.4956       2 -82.4956       3 -82.4956       4 -82.4956       5 -82.4956
       6 -82.4956       7 -82.4956       8 -82.4956       9 -82.4956      10 -82.4956
      11 -82.4956      12 -82.4956      13 -82.4956      14 -82.4956      15 -82.4956
      16 -82.4956      17 -82.4956      18 -82.4956      19 -82.4956      20 -82.4956
      21 -82.4956      22 -82.4956      23 -82.4956      24 -82.4956      25 -82.4956
      26 -82.4956      27 -82.4956      28 -82.4956      29 -82.4956      30 -82.4956
      31 -82.4956      32 -82.4956      33 -82.4956      34 -82.4956      35 -82.4956
      36 -82.4956      37 -82.4956      38 -82.4956      39 -82.4956      40 -82.4956
      41 -82.4956      42 -82.4956      43 -82.4956      44 -82.4956      45 -82.4956
      46 -82.4956      47 -82.4956      48 -82.4956      49 -82.4956      50 -82.4956
      51 -82.4956      52 -82.4956      53 -82.4956      54 -82.4956      55 -82.4956
      56 -82.4956      57 -82.4956      58 -82.4956      59 -82.4956      60 -82.4956
      61 -82.4956      62 -82.4956      63 -82.4956      64 -82.4956
 
 
 
 E-fermi :   6.4824     XC(G=0):  -9.7355     alpha+bet :-12.5601

 val. band max:        6.3857386669   @ k =   0.0000   0.0000   0.0000
 cond. band min:       6.5813924287   @ k =   0.5000   0.0000   0.0000
 fundamental gap:      0.1956537618
 Fermi energy:         6.4824358975

 k-point     1 :       0.0000    0.0000    0.0000
  band No.  band energies     occupation 
      1      -6.0431      2.00000
      2      -4.9256      2.00000
      3      -4.9255      2.00000
      4      -4.9248      2.00000
      5      -4.9247      2.00000
      6      -4.8852      2.00000
      7      -4.8852      2.00000
      8      -3.9482      2.00000
      9      -3.9482      2.00000
     10      -3.9161      2.00000
     11      -3.9161      2.00000
     12      -3.9161      2.00000
     13      -3.9161      2.00000
     14      -3.8876      2.00000
     15      -3.8876      2.00000
     16      -3.8876      2.00000
     17      -3.8876      2.00000
     18      -3.8248      2.00000
     19      -3.8248      2.00000
     20      -3.6394      2.00000
     21      -3.6394      2.00000
     22      -3.4979      2.00000
     23      -3.4978      2.00000
     24      -1.8313      2.00000
     25      -1.7482      2.00000
     26      -1.7482      2.00000
     27      -1.6689      2.00000
     28      -1.6352      2.00000
     29      -1.6352      2.00000
     30      -1.6198      2.00000
     31      -1.6198      2.00000
     32      -1.5922      2.00000
     33      -1.5922      2.00000
     34      -1.4991      2.00000
     35      -1.4990      2.00000
     36      -1.4990      2.00000
     37      -1.4990      2.00000
     38      -1.4464      2.00000
     39      -1.4464      2.00000
     40      -1.4060      2.00000
     41      -1.4060      2.00000
     42      -0.9783      2.00000
     43      -0.9783      2.00000
     44      -0.9526      2.00000
     45      -0.9526      2.00000
     46       0.6356      2.00000
     47       0.6356      2.00000
     48       0.6721      2.00000
     49       0.6721      2.00000
     50       0.6721      2.00000
     51       0.6721      2.00000
     52       0.7054      2.00000
     53       0.7054      2.00000
     54       0.7500      2.00000
     55       0.7500      2.00000
     56       0.7500      2.00000
     57       0.7500      2.00000
     58       2.1570      2.00000
     59       2.1570      2.00000
     60       2.1605      2.00000
     61       2.1605      2.00000
     62       2.1707      2.00000
     63       2.1707      2.00000
     64       2.1747      2.00000
     65       2.1747      2.00000
     66       2.1747      2.00000
     67       2.1747      2.00000
     68       2.1763      2.00000
     69       2.1763      2.00000
     70       2.2286      2.00000
     71       2.2286      2.00000
     72       2.2533      2.00000
     73       2.2533      2.00000
     74       2.2533      2.00000
     75       2.2533      2.00000
     76       2.2754      2.00000
     77       2.2754      2.00000
     78       2.3708      2.00000
     79       2.3708      2.00000
     80       2.3708      2.00000
     81       2.3708      2.00000
     82       2.7142      2.00000
     83       2.7142      2.00000
     84       2.7205      2.00000
     85       2.7205      2.00000
     86       2.8684      2.00000
     87       2.8684      2.00000
     88       3.1751      2.00000
     89       3.1751      2.00000
     90       3.2211      2.00000
     91       3.3370      2.00000
     92       3.3370      2.00000
     93       3.4548      2.00000
     94       4.1999      2.00000
     95       4.1999      2.00000
     96       4.2001      2.00000
     97       4.2001      2.00000
     98       4.2225      2.00000
     99       4.2225      2.00000
    100       4.3028      2.00000
    101       4.3028      2.00000
    102       4.3474      2.00000
    103       4.3474      2.00000
    104       4.4328      2.00000
    105       4.4328      2.00000
    106       4.7808      2.00000
    107       4.7808      2.00000
    108       4.7808      2.00000
    109       4.7808      2.00000
    110       4.8848      2.00000
    111       4.8848      2.00000
    112       4.8917      2.00000
    113       4.8917      2.00000
    114       4.9456      2.00000
    115       4.9456      2.00000
    116       4.9456      2.00000
    117       4.9456      2.00000
    118       4.9912      2.00000
    119       4.9912      2.00000
    120       5.0042      2.00000
    121       5.0042      2.00000
    122       5.0895      2.00000
    123       5.0895      2.00000
    124       5.1872      2.00000
    125       5.1872      2.00000
    126       6.2301      2.07052
    127       6.2324      2.07072
    128       6.3857      1.72179
    129       6.6640     -0.02544
    130       6.6640     -0.02544
    131       6.7089     -0.06796
    132       6.8298     -0.03395
    133       6.8298     -0.03395
    134       6.9544     -0.00423
    135       7.1617     -0.00002
    136       7.1617     -0.00002
    137       7.3254     -0.00000
    138       7.3254     -0.00000
    139       7.3267     -0.00000
    140       7.3267     -0.00000
    141       7.8040     -0.00000
    142       7.8040     -0.00000
    143       7.9861     -0.00000
    144       7.9861     -0.00000
    145       8.5370     -0.00000
    146       8.5371     -0.00000
    147       8.5374     -0.00000
    148       8.5380     -0.00000
    149       8.6422     -0.00000
    150       8.6632     -0.00000
    151       8.6641     -0.00000
    152       8.7301     -0.00000
    153       8.7307     -0.00000
    154       8.7311     -0.00000
    155       8.7324     -0.00000
    156       8.8067     -0.00000
    157       8.8084     -0.00000
    158       8.8160     -0.00000
    159       8.9881     -0.00000
    160       9.2860     -0.00000
    161       9.3096     -0.00000
    162       9.3423     -0.00000

 k-point     2 :       0.5000    0.0000    0.0000
  band No.  band energies     occupation 
      1      -5.7509      2.00000
      2      -5.7509      2.00000
      3      -4.6884      2.00000
      4      -4.6884      2.00000
      5      -4.6584      2.00000
      6      -4.6584      2.00000
      7      -4.6584      2.00000
      8      -4.6584      2.00000
      9      -4.6267      2.00000
     10      -4.6267      2.00000
     11      -3.8046      2.00000
     12      -3.8046      2.00000
     13      -3.8046      2.00000
     14      -3.8046      2.00000
     15      -3.7202      2.00000
     16      -3.7202      2.00000
     17      -3.7202      2.00000
     18      -3.7202      2.00000
     19      -3.4826      2.00000
     20      -3.4826      2.00000
     21      -2.8241      2.00000
     22      -2.8241      2.00000
     23      -2.7365      2.00000
     24      -2.7365      2.00000
     25      -2.7365      2.00000
     26      -2.7365      2.00000
     27      -2.6464      2.00000
     28      -2.6464      2.00000
     29      -1.7405      2.00000
     30      -1.7405      2.00000
     31      -1.7102      2.00000
     32      -1.7102      2.00000
     33      -1.5906      2.00000
     34      -1.5906      2.00000
     35      -1.5637      2.00000
     36      -1.5637      2.00000
     37      -0.4911      2.00000
     38      -0.4911      2.00000
     39      -0.4249      2.00000
     40      -0.4249      2.00000
     41      -0.4249      2.00000
     42      -0.4249      2.00000
     43      -0.3645      2.00000
     44      -0.3645      2.00000
     45      -0.3026      2.00000
     46      -0.3026      2.00000
     47      -0.3026      2.00000
     48      -0.3026      2.00000
     49      -0.2820      2.00000
     50      -0.2820      2.00000
     51      -0.2820      2.00000
     52      -0.2820      2.00000
     53       0.5640      2.00000
     54       0.5640      2.00000
     55       1.7344      2.00000
     56       1.7344      2.00000
     57       1.7365      2.00000
     58       1.7365      2.00000
     59       1.7365      2.00000
     60       1.7365      2.00000
     61       1.7388      2.00000
     62       1.7388      2.00000
     63       1.8877      2.00000
     64       1.8877      2.00000
     65       1.9066      2.00000
     66       1.9066      2.00000
     67       1.9066      2.00000
     68       1.9066      2.00000
     69       1.9336      2.00000
     70       1.9336      2.00000
     71       2.6009      2.00000
     72       2.6009      2.00000
     73       2.6476      2.00000
     74       2.6476      2.00000
     75       2.6847      2.00000
     76       2.6847      2.00000
     77       2.7336      2.00000
     78       2.7336      2.00000
     79       3.3464      2.00000
     80       3.3464      2.00000
     81       3.3916      2.00000
     82       3.3916      2.00000
     83       3.3916      2.00000
     84       3.3916      2.00000
     85       3.4267      2.00000
     86       3.4267      2.00000
     87       3.4361      2.00000
     88       3.4361      2.00000
     89       3.4369      2.00000
     90       3.4369      2.00000
     91       3.5733      2.00000
     92       3.5733      2.00000
     93       3.6131      2.00000
     94       3.6131      2.00000
     95       3.6131      2.00000
     96       3.6131      2.00000
     97       3.6516      2.00000
     98       3.6516      2.00000
     99       3.7510      2.00000
    100       3.7510      2.00000
    101       3.7510      2.00000
    102       3.7510      2.00000
    103       3.8575      2.00000
    104       3.8575      2.00000
    105       3.8575      2.00000
    106       3.8575      2.00000
    107       4.7976      2.00000
    108       4.7976      2.00000
    109       4.7976      2.00000
    110       4.7976      2.00000
    111       4.8016      2.00000
    112       4.8016      2.00000
    113       4.8016      2.00000
    114       4.8016      2.00000
    115       4.8206      2.00000
    116       4.8206      2.00000
    117       4.8206      2.00000
    118       4.8206      2.00000
    119       4.8913      2.00000
    120       4.8913      2.00000
    121       4.8913      2.00000
    122       4.8913      2.00000
    123       5.0709      2.00000
    124       5.0709      2.00000
    125       5.3576      2.00000
    126       5.3576      2.00000
    127       5.3637      2.00000
    128       5.3637      2.00000
    129       6.5814      0.26556
    130       6.5814      0.26556
    131       7.5557     -0.00000
    132       7.5557     -0.00000
    133       8.0646     -0.00000
    134       8.0646     -0.00000
    135       8.1434     -0.00000
    136       8.1434     -0.00000
    137       8.2118     -0.00000
    138       8.2119     -0.00000
    139       8.2350     -0.00000
    140       8.2353     -0.00000
    141       8.3850     -0.00000
    142       8.3855     -0.00000
    143       8.4945     -0.00000
    144       8.4948     -0.00000
    145       8.4950     -0.00000
    146       8.4973     -0.00000
    147       8.6039     -0.00000
    148       8.6042     -0.00000
    149       8.6062     -0.00000
    150       8.6136     -0.00000
    151       8.6793     -0.00000
    152       8.6831     -0.00000
    153       8.7483     -0.00000
    154       8.7520     -0.00000
    155       8.7598     -0.00000
    156       8.7795     -0.00000
    157       8.8437     -0.00000
    158       8.8554     -0.00000
    159       8.9425     -0.00000
    160       8.9834     -0.00000
    161       9.0584     -0.00000
    162       9.1285     -0.00000

 k-point     3 :      -0.0000    0.5000    0.0000
  band No.  band energies     occupation 
[...]
  0.000   0.000   4.171   0.000   0.000   7.770   0.000   0.000
 -0.001  -0.002   0.000   4.171   0.000   0.000   7.770   0.000
  0.000   0.000   0.000   0.000   4.171   0.000   0.000   7.770
  0.000   0.000   7.770   0.000   0.000  14.486   0.000   0.000
 -0.002  -0.003   0.000   7.770   0.000   0.000  14.486   0.000
  0.000   0.000   0.000   0.000   7.770   0.000   0.000  14.486
 total augmentation occupancy for first ion, spin component:           1
  6.328  -2.502  -0.000   0.053  -0.000   0.000  -0.020   0.000
 -2.502   1.098   0.000  -0.027   0.000  -0.000   0.010   0.000
 -0.000   0.000   3.125   0.000   0.005  -0.714   0.000   0.002
  0.053  -0.027   0.000   3.126  -0.000   0.000  -0.714   0.000
 -0.000   0.000   0.005  -0.000   3.084   0.002   0.000  -0.698
  0.000  -0.000  -0.714   0.000   0.002   0.172   0.000  -0.001
 -0.020   0.010   0.000  -0.714   0.000   0.000   0.172   0.000
  0.000   0.000   0.002   0.000  -0.698  -0.001   0.000   0.168


------------------------ aborting loop because EDIFF is reached ----------------------------------------


    CHARGE:  cpu time      0.2348: real time      0.2353
    FORLOC:  cpu time      0.0240: real time      0.0241
    FORNL :  cpu time      0.6643: real time      0.6678
    STRESS:  cpu time      2.0639: real time      2.0733
    FORCOR:  cpu time      0.0869: real time      0.0871
    FORHAR:  cpu time      0.0347: real time      0.0348
    MIXING:  cpu time      0.0198: real time      0.0199
    OFIELD:  cpu time      0.0000: real time      0.0000

  FORCE on cell =-STRESS in cart. coord.  units (eV):
  Direction    XX          YY          ZZ          XY          YZ          ZX
  --------------------------------------------------------------------------------------
  Alpha Z   112.82244   112.82244   112.82244
  Ewald   -2522.57413 -2453.78234 -2453.64274    12.32547     0.00000     0.00000
  Hartree   142.73048   153.77799   153.55089     8.72598    -0.00000    -0.00000
  E(xc)    -826.52939  -827.15900  -827.18051    -0.05150    -0.00000    -0.00000
  Local    -853.93104  -936.50572  -936.45390   -22.81123     0.00000    -0.00000
  n-local  2507.32375  2517.78552  2518.10754     0.01766    -0.00000    -0.00001
  augment  -369.27841  -369.31721  -369.33320    -0.68275     0.00000     0.00000
  Kinetic  1857.44250  1837.92746  1837.49713    14.07387     0.00000     0.00001
  Fock        0.00000     0.00000     0.00000     0.00000     0.00000     0.00000
  -------------------------------------------------------------------------------------
  Total      48.00619    35.54914    35.36765    11.59750     0.00000     0.00000
  in kB      62.93451    46.60374    46.36581    15.20394     0.00000     0.00000
  external pressure =       51.97 kB  Pullay stress =        0.00 kB


 VOLUME and BASIS-vectors are now :
 -----------------------------------------------------------------------------
  energy-cutoff  :      400.00
  volume of cell :     1222.13
      direct lattice vectors                 reciprocal lattice vectors
    10.548850558 -0.107641016  0.000000000     0.094806732  0.000948065  0.000000000
    -0.107641016 10.764133590  0.000000000     0.000948065  0.092910594  0.000000000
     0.000000000  0.000000000 10.764133590     0.000000000  0.000000000  0.092901114

  length of vectors
    10.549399731 10.764671780 10.764133590     0.094811472  0.092915431  0.092901114


 FORCES acting on ions
    electron-ion (+dipol)            ewald-force                    non-local-force                 convergence-correction
 -----------------------------------------------------------------------------------------------
   0.950E-09 0.192E-09 0.168E+01   0.666E-15 0.135E-13 -.120E+01   -.200E-20 -.194E-19 -.487E+00   0.373E-13 -.944E-13 -.184E-04
   0.950E-09 0.192E-09 0.168E+01   -.400E-14 0.160E-13 -.120E+01   0.815E-21 0.228E-20 -.487E+00   -.313E-13 -.100E-13 -.184E-04
   0.950E-09 0.192E-09 0.168E+01   -.266E-14 0.140E-13 -.120E+01   -.808E-21 -.496E-20 -.487E+00   -.849E-14 0.948E-13 -.184E-04
   0.950E-09 0.192E-09 0.168E+01   -.115E-13 0.147E-13 -.120E+01   0.526E-21 0.106E-19 -.487E+00   0.160E-13 0.205E-13 -.184E-04
   0.950E-09 0.192E-09 0.168E+01   -.218E-13 0.129E-13 -.120E+01   0.660E-21 0.705E-21 -.487E+00   -.131E-13 -.853E-13 -.184E-04
   0.950E-09 0.192E-09 0.168E+01   -.129E-13 0.133E-13 -.120E+01   0.602E-21 0.107E-19 -.487E+00   0.190E-13 -.834E-14 -.184E-04
   0.950E-09 0.191E-09 0.168E+01   -.120E-13 0.129E-13 -.120E+01   -.400E-22 -.201E-19 -.487E+00   0.265E-13 0.819E-13 -.184E-04
   0.950E-09 0.191E-09 0.168E+01   -.178E-13 0.213E-13 -.120E+01   0.231E-21 0.113E-19 -.487E+00   -.185E-13 0.133E-13 -.184E-04
   0.110E-08 0.144E-08 -.168E+01   0.666E-14 -.444E-15 0.120E+01   -.758E-21 0.160E-19 0.487E+00   0.618E-13 0.430E-13 0.184E-04
   0.110E-08 0.144E-08 -.168E+01   0.533E-14 -.711E-14 0.120E+01   -.145E-20 -.158E-19 0.487E+00   -.330E-13 -.219E-13 0.184E-04
   0.110E-08 0.144E-08 -.168E+01   0.107E-13 0.577E-14 0.120E+01   -.285E-21 0.494E-20 0.487E+00   0.458E-13 -.513E-13 0.184E-04
   0.110E-08 0.144E-08 -.168E+01   0.178E-14 0.178E-14 0.120E+01   0.518E-21 0.297E-20 0.487E+00   -.421E-13 0.173E-13 0.184E-04
   0.110E-08 0.144E-08 -.168E+01   -.844E-14 -.266E-14 0.120E+01   -.350E-22 0.605E-20 0.487E+00   -.604E-13 0.884E-13 0.184E-04
   0.110E-08 0.144E-08 -.168E+01   -.533E-14 0.178E-14 0.120E+01   0.447E-21 -.546E-21 0.487E+00   0.399E-13 -.786E-13 0.184E-04
   0.110E-08 0.144E-08 -.168E+01   -.844E-14 0.000E+00 0.120E+01   -.187E-20 0.201E-19 0.487E+00   -.298E-13 -.923E-13 0.184E-04
   0.110E-08 0.144E-08 -.168E+01   0.000E+00 0.355E-14 0.120E+01   0.378E-21 -.181E-19 0.487E+00   0.464E-13 0.793E-13 0.184E-04
   0.950E-09 0.192E-09 0.168E+01   0.400E-14 0.113E-13 -.120E+01   0.560E-22 0.110E-19 -.487E+00   0.312E-13 -.648E-13 -.184E-04
   0.950E-09 0.192E-09 0.168E+01   0.799E-14 0.799E-14 -.120E+01   0.156E-21 0.598E-21 -.487E+00   -.225E-13 -.479E-13 -.184E-04
   0.950E-09 0.192E-09 0.168E+01   -.111E-13 0.198E-13 -.120E+01   0.167E-20 -.660E-20 -.487E+00   0.266E-13 0.591E-13 -.184E-04
   0.950E-09 0.192E-09 0.168E+01   -.107E-13 0.124E-13 -.120E+01   -.159E-20 -.113E-19 -.487E+00   -.161E-13 0.359E-13 -.184E-04
   0.950E-09 0.192E-09 0.168E+01   -.933E-14 0.933E-14 -.120E+01   0.865E-21 -.108E-19 -.487E+00   -.303E-13 -.713E-13 -.184E-04
   0.950E-09 0.192E-09 0.168E+01   -.933E-14 0.977E-14 -.120E+01   -.170E-20 -.705E-20 -.487E+00   0.308E-13 0.205E-13 -.184E-04
   0.950E-09 0.192E-09 0.168E+01   -.666E-14 0.213E-13 -.120E+01   -.422E-21 0.569E-20 -.487E+00   -.291E-13 0.662E-13 -.184E-04
   0.950E-09 0.191E-09 0.168E+01   -.213E-13 0.213E-13 -.120E+01   -.287E-21 -.536E-20 -.487E+00   0.296E-13 -.178E-13 -.184E-04
   0.110E-08 0.144E-08 -.168E+01   -.888E-15 0.989E-14 0.120E+01   -.591E-21 0.400E-20 0.487E+00   -.441E-13 -.863E-13 0.184E-04
   0.110E-08 0.144E-08 -.168E+01   -.444E-14 0.276E-14 0.120E+01   -.564E-22 0.278E-21 0.487E+00   0.406E-13 -.119E-13 0.184E-04
   0.110E-08 0.144E-08 -.168E+01   -.355E-14 0.254E-14 0.120E+01   -.664E-22 -.125E-19 0.487E+00   -.492E-13 0.882E-13 0.184E-04
   0.110E-08 0.144E-08 -.168E+01   0.355E-14 0.254E-14 0.120E+01   0.132E-20 0.536E-20 0.487E+00   0.760E-13 0.133E-13 0.184E-04
   0.110E-08 0.144E-08 -.168E+01   -.124E-13 0.412E-14 0.120E+01   -.830E-21 -.426E-20 0.487E+00   0.472E-13 -.134E-12 0.184E-04
   0.110E-08 0.144E-08 -.168E+01   -.124E-13 0.409E-14 0.120E+01   0.404E-21 -.590E-21 0.487E+00   -.363E-13 -.721E-14 0.184E-04
   0.110E-08 0.144E-08 -.168E+01   0.355E-14 0.341E-14 0.120E+01   -.181E-20 -.185E-21 0.487E+00   0.595E-13 0.127E-12 0.184E-04
   0.110E-08 0.144E-08 -.168E+01   -.711E-14 0.386E-14 0.120E+01   0.173E-20 0.454E-20 0.487E+00   -.702E-13 0.495E-14 0.184E-04
   0.950E-09 0.192E-09 0.168E+01   0.733E-14 -.444E-15 -.120E+01   -.146E-20 0.597E-20 -.487E+00   0.251E-13 -.583E-13 -.184E-04
   0.950E-09 0.192E-09 0.168E+01   0.102E-13 -.888E-15 -.120E+01   0.207E-20 0.226E-20 -.487E+00   -.505E-13 -.445E-13 -.184E-04
   0.950E-09 0.191E-09 0.168E+01   0.888E-15 -.111E-13 -.120E+01   0.677E-21 -.327E-20 -.487E+00   0.208E-13 0.577E-13 -.184E-04
   0.950E-09 0.191E-09 0.168E+01   -.888E-15 -.400E-14 -.120E+01   0.165E-20 -.128E-20 -.487E+00   0.114E-13 0.373E-13 -.184E-04
   0.950E-09 0.192E-09 0.168E+01   -.511E-14 -.666E-14 -.120E+01   0.774E-21 -.946E-20 -.487E+00   -.255E-13 -.627E-13 -.184E-04
   0.950E-09 0.192E-09 0.168E+01   -.488E-14 -.711E-14 -.120E+01   0.248E-20 0.220E-20 -.487E+00   0.394E-13 -.366E-13 -.184E-04
   0.950E-09 0.193E-09 0.168E+01   0.444E-15 0.444E-15 -.120E+01   -.139E-20 0.186E-20 -.487E+00   -.164E-13 0.580E-13 -.184E-04
   0.950E-09 0.191E-09 0.168E+01   0.000E+00 0.000E+00 -.120E+01   0.301E-20 0.283E-20 -.487E+00   -.218E-13 0.396E-13 -.184E-04
   0.110E-08 0.144E-08 -.168E+01   0.848E-14 -.115E-13 0.120E+01   0.365E-22 0.270E-20 0.487E+00   -.638E-14 -.647E-13 0.184E-04
   0.110E-08 0.144E-08 -.168E+01   0.426E-14 -.187E-13 0.120E+01   0.189E-21 -.223E-20 0.487E+00   0.318E-13 0.643E-13 0.184E-04
   0.110E-08 0.144E-08 -.168E+01   0.715E-14 -.444E-14 0.120E+01   0.336E-22 -.863E-20 0.487E+00   -.507E-13 0.580E-13 0.184E-04
   0.110E-08 0.144E-08 -.168E+01   0.227E-13 -.115E-13 0.120E+01   -.712E-21 -.283E-20 0.487E+00   0.319E-13 -.724E-13 0.184E-04
   0.110E-08 0.144E-08 -.168E+01   0.872E-14 -.888E-14 0.120E+01   0.133E-20 -.597E-20 0.487E+00   0.663E-14 -.728E-13 0.184E-04
   0.110E-08 0.144E-08 -.168E+01   0.872E-14 -.124E-13 0.120E+01   -.164E-20 -.905E-20 0.487E+00   -.266E-13 0.992E-13 0.184E-04
   0.110E-08 0.144E-08 -.168E+01   0.252E-13 -.178E-14 0.120E+01   0.778E-21 0.100E-19 0.487E+00   0.492E-13 0.662E-13 0.184E-04
   0.110E-08 0.144E-08 -.168E+01   0.256E-13 -.124E-13 0.120E+01   0.542E-21 0.130E-20 0.487E+00   -.378E-13 -.105E-12 0.184E-04
   0.950E-09 0.192E-09 0.168E+01   -.189E-13 -.311E-14 -.120E+01   -.337E-21 0.112E-19 -.487E+00   0.104E-12 0.379E-13 -.184E-04
   0.950E-09 0.191E-09 0.168E+01   -.218E-13 -.178E-14 -.120E+01   -.474E-21 -.138E-19 -.487E+00   -.916E-13 -.118E-12 -.184E-04
   0.950E-09 0.191E-09 0.168E+01   -.799E-14 0.888E-15 -.120E+01   0.163E-20 0.243E-19 -.487E+00   0.924E-13 -.425E-13 -.184E-04
   0.950E-09 0.192E-09 0.168E+01   -.799E-14 0.977E-14 -.120E+01   -.961E-21 -.155E-19 -.487E+00   -.931E-13 0.107E-12 -.184E-04
   0.950E-09 0.191E-09 0.168E+01   0.104E-13 -.222E-14 -.120E+01   0.914E-21 0.424E-20 -.487E+00   -.122E-12 0.788E-13 -.184E-04
   0.950E-09 0.192E-09 0.168E+01   0.129E-13 -.266E-14 -.120E+01   -.506E-21 -.214E-19 -.487E+00   0.960E-13 -.163E-12 -.184E-04
   0.950E-09 0.192E-09 0.168E+01   0.799E-14 0.533E-14 -.120E+01   -.108E-21 0.356E-20 -.487E+00   -.113E-12 -.864E-13 -.184E-04
   0.950E-09 0.192E-09 0.168E+01   0.355E-14 0.355E-14 -.120E+01   -.104E-20 -.963E-20 -.487E+00   0.103E-12 0.145E-12 -.184E-04
   0.110E-08 0.144E-08 -.168E+01   0.109E-13 -.186E-13 0.120E+01   -.934E-21 -.112E-19 0.487E+00   0.105E-12 -.602E-13 0.184E-04
   0.110E-08 0.144E-08 -.168E+01   0.623E-14 -.200E-13 0.120E+01   -.122E-20 0.707E-20 0.487E+00   -.102E-12 -.742E-13 0.184E-04
   0.110E-08 0.144E-08 -.168E+01   0.407E-14 -.146E-13 0.120E+01   0.738E-21 -.602E-21 0.487E+00   0.587E-13 0.559E-13 0.184E-04
   0.110E-08 0.144E-08 -.168E+01   0.487E-15 -.164E-13 0.120E+01   -.527E-22 0.156E-19 0.487E+00   -.391E-13 0.678E-13 0.184E-04
   0.110E-08 0.144E-08 -.168E+01   0.411E-14 -.160E-13 0.120E+01   -.556E-22 -.178E-19 0.487E+00   -.107E-12 -.358E-13 0.184E-04
   0.110E-08 0.144E-08 -.168E+01   0.877E-14 -.121E-13 0.120E+01   0.864E-22 0.282E-19 0.487E+00   0.991E-13 -.663E-13 0.184E-04
   0.110E-08 0.144E-08 -.168E+01   0.137E-13 -.155E-13 0.120E+01   -.784E-22 -.171E-19 0.487E+00   -.639E-13 0.360E-13 0.184E-04
   0.110E-08 0.144E-08 -.168E+01   0.111E-13 -.244E-13 0.120E+01   -.127E-20 -.534E-21 0.487E+00   0.419E-13 0.606E-13 0.184E-04
 -----------------------------------------------------------------------------------------------
   0.657E-07 0.523E-07 -.523E-04   -.134E-13 0.284E-13 -.233E-13   0.483E-21 -.475E-19 -.572E-14   0.491E-13 -.123E-12 -.306E-09
 
 
 POSITION                                       TOTAL-FORCE (eV/Angst)
 -----------------------------------------------------------------------------------
      0.00000      0.00000     10.75564        -0.000000     -0.000000      0.000091
      0.00000      0.00000      5.37357         0.000000     -0.000000      0.000091
     -0.05382      5.38207     10.75564        -0.000000      0.000000      0.000091
     -0.05382      5.38207      5.37357        -0.000000     -0.000000      0.000091
      5.27443     -0.05382     10.75564        -0.000000      0.000000      0.000091
      5.27443     -0.05382      5.37357        -0.000000      0.000000      0.000091
      5.22060      5.32825     10.75564        -0.000000      0.000000      0.000091
      5.22060      5.32825      5.37357         0.000000      0.000000      0.000091
      3.91545      3.99618      1.35401         0.000000     -0.000000     -0.000091
      3.91545      3.99618      6.73608         0.000000      0.000000     -0.000091
      3.86163      9.37825      1.35401        -0.000000      0.000000     -0.000091
      3.86163      9.37825      6.73608        -0.000000      0.000000     -0.000091
      9.18988      3.94236      1.35401         0.000000      0.000000     -0.000091
      9.18988      3.94236      6.73608         0.000000     -0.000000     -0.000091
      9.13606      9.32443      1.35401         0.000000      0.000000     -0.000091
      9.13606      9.32443      6.73608        -0.000000     -0.000000     -0.000091
     -0.02691      2.69103      2.68254         0.000000      0.000000      0.000091
     -0.02691      2.69103      8.06461         0.000000      0.000000      0.000091
     -0.08073      8.07310      2.68254        -0.000000      0.000000      0.000091
     -0.08073      8.07310      8.06461         0.000000      0.000000      0.000091
      5.24752      2.63721      2.68254        -0.000000     -0.000000      0.000091
      5.24752      2.63721      8.06461        -0.000000     -0.000000      0.000091
      5.19369      8.01928      2.68254        -0.000000     -0.000000      0.000091
      5.19369      8.01928      8.06461        -0.000000      0.000000      0.000091
      3.94236      1.30515      4.04504        -0.000000     -0.000000     -0.000091
      3.94236      1.30515      9.42711        -0.000000     -0.000000     -0.000091
      3.88854      6.68722      4.04504         0.000000      0.000000     -0.000091
      3.88854      6.68722      9.42711         0.000000      0.000000     -0.000091
      9.21679      1.25133      4.04504        -0.000000     -0.000000     -0.000091
      9.21679      1.25133      9.42711        -0.000000     -0.000000     -0.000091
      9.16297      6.63340      4.04504        -0.000000      0.000000     -0.000091
      9.16297      6.63340      9.42711         0.000000      0.000000     -0.000091
      2.63721     -0.02691      2.68254        -0.000000     -0.000000      0.000091
      2.63721     -0.02691      8.06461         0.000000     -0.000000      0.000091
      2.58339      5.35516      2.68254        -0.000000      0.000000      0.000091
      2.58339      5.35516      8.06461         0.000000      0.000000      0.000091
      7.91164     -0.08073      2.68254        -0.000000     -0.000000      0.000091
      7.91164     -0.08073      8.06461        -0.000000     -0.000000      0.000091
      7.85782      5.30134      2.68254        -0.000000      0.000000      0.000091
      7.85782      5.30134      8.06461         0.000000     -0.000000      0.000091
      1.27824      4.02309      4.04504        -0.000000      0.000000     -0.000091
      1.27824      4.02309      9.42711         0.000000      0.000000     -0.000091
      1.22442      9.40516      4.04504        -0.000000      0.000000     -0.000091
      1.22442      9.40516      9.42711        -0.000000      0.000000     -0.000091
      6.55267      3.96927      4.04504        -0.000000     -0.000000     -0.000091
      6.55267      3.96927      9.42711         0.000000     -0.000000     -0.000091
      6.49885      9.35134      4.04504         0.000000     -0.000000     -0.000091
      6.49885      9.35134      9.42711         0.000000      0.000000     -0.000091
      2.61030      2.66412     10.75564         0.000000     -0.000000      0.000091
      2.61030      2.66412      5.37357        -0.000000      0.000000      0.000091
      2.55648      8.04619     10.75564        -0.000000      0.000000      0.000091
      2.55648      8.04619      5.37357         0.000000     -0.000000      0.000091
      7.88473      2.61030     10.75564         0.000000     -0.000000      0.000091
      7.88473      2.61030      5.37357        -0.000000     -0.000000      0.000091
      7.83091      7.99237     10.75564        -0.000000      0.000000      0.000091
      7.83091      7.99237      5.37357         0.000000     -0.000000      0.000091
      1.30515      1.33206      1.35401        -0.000000     -0.000000     -0.000091
      1.30515      1.33206      6.73608        -0.000000     -0.000000     -0.000091
      1.25133      6.71413      1.35401        -0.000000      0.000000     -0.000091
      1.25133      6.71413      6.73608        -0.000000      0.000000     -0.000091
      6.57958      1.27824      1.35401         0.000000     -0.000000     -0.000091
      6.57958      1.27824      6.73608        -0.000000     -0.000000     -0.000091
      6.52576      6.66031      1.35401        -0.000000      0.000000     -0.000091
      6.52576      6.66031      6.73608         0.000000      0.000000     -0.000091
 -----------------------------------------------------------------------------------
    total drift:                                0.000000      0.000000     -0.000052


--------------------------------------------------------------------------------------------------------



  FREE ENERGIE OF THE ION-ELECTRON SYSTEM (eV)
  ---------------------------------------------------
  free  energy   TOTEN  =      -366.43303673 eV

  energy  without entropy=     -366.44936800  energy(sigma->0) =     -366.43848049
 
 d Force = 0.1033098E-01[ 0.195E-04, 0.206E-01]  d Energy = 0.1037423E-01-0.433E-04
 d Force =-0.2381597E+00[-0.257E+00,-0.219E+00]  d Ewald  =-0.2381490E+00-0.106E-04


--------------------------------------------------------------------------------------------------------


    POTLOK:  cpu time      0.1425: real time      0.1428


--------------------------------------------------------------------------------------------------------




--------------------------------------------------------------------------------------------------------


  
 reached required accuracy - stopping structural energy minimisation
     LOOP+:  cpu time     12.8126: real time     13.0026
    4ORBIT:  cpu time      0.0000: real time      0.0000

 total amount of memory used by VASP MPI-rank0    79409. kBytes
=======================================================================

   base      :      30000. kBytes
   nonlr-proj:       4653. kBytes
   fftplans  :      17992. kBytes
   grid      :       6881. kBytes
   one-center:         18. kBytes
   wavefun   :      19865. kBytes
 
  
  
 General timing and accounting informations for this job:
 ========================================================
  
                  Total CPU time used (sec):       57.557
                            User time (sec):       54.451
                          System time (sec):        3.106
                         Elapsed time (sec):       61.344
  
                   Maximum memory used (kb):      406172.
                   Average memory used (kb):          N/A
  
                          Minor page faults:        91937
                          Major page faults:            0
                 Voluntary context switches:         9468
