  64  64   0   0
  0.1911589E+02  0.1062407E-08  0.1073138E-08  0.1073125E-08  0.5000000E-15
  1.000000000000000E-004
  CAR 
 Si64                                    
     11.74773448     -8.04563181  301      6.51912402      1.00000000
     -8.046  0.0000E+00  0.0000E+00
     -7.980  0.0000E+00  0.0000E+00
     -7.914  0.0000E+00  0.0000E+00
     -7.848  0.0000E+00  0.0000E+00
     -7.782  0.0000E+00  0.0000E+00
     -7.716  0.0000E+00  0.0000E+00
     -7.650 -0.1646E-28 -0.1086E-29
     -7.584 -0.2796E-26 -0.1856E-27
     -7.518 -0.3831E-24 -0.2546E-25
     -7.452 -0.4213E-22 -0.2805E-23
     -7.386 -0.3716E-20 -0.2480E-21
     -7.320 -0.2629E-18 -0.1759E-19
     -7.254 -0.1491E-16 -0.1001E-17
     -7.188 -0.6566E-15 -0.4432E-16
     -7.122 -0.2382E-13 -0.1616E-14
     -7.056 -0.6905E-12 -0.4718E-13
     -6.990 -0.1599E-10 -0.1102E-11
     -6.924 -0.2952E-09 -0.2058E-10
     -6.858 -0.4338E-08 -0.3068E-09
     -6.792 -0.5061E-07 -0.3646E-08
     -6.726 -0.4671E-06 -0.3446E-07
     -6.660 -0.3392E-05 -0.2583E-06
     -6.594 -0.1924E-04 -0.1528E-05
     -6.528 -0.8413E-04 -0.7078E-05
     -6.462 -0.2773E-03 -0.2538E-04
     -6.396 -0.6582E-03 -0.6880E-04
     -6.330 -0.9900E-03 -0.1341E-03
     -6.264 -0.4113E-03 -0.1613E-03
     -6.198  0.2129E-02 -0.2076E-04
     -6.132  0.6295E-02  0.3946E-03
     -6.066  0.1001E-01  0.1055E-02
     -6.000  0.1341E-01  0.1940E-02
     -5.934  0.2299E-01  0.3456E-02
     -5.868  0.4542E-01  0.6453E-02
     -5.802  0.7443E-01  0.1136E-01
     -5.736  0.9367E-01  0.1754E-01
     -5.670  0.1016E+00  0.2424E-01
     -5.604  0.1197E+00  0.3214E-01
     -5.538  0.1596E+00  0.4267E-01
     -5.472  0.1952E+00  0.5555E-01
     -5.407  0.1936E+00  0.6832E-01
     -5.341  0.1627E+00  0.7906E-01
     -5.275  0.1382E+00  0.8818E-01
     -5.209  0.1303E+00  0.9677E-01
     -5.143  0.1182E+00  0.1046E+00
     -5.077  0.9312E-01  0.1107E+00
     -5.011  0.7213E-01  0.1155E+00
     -4.945  0.6997E-01  0.1201E+00
     -4.879  0.8915E-01  0.1260E+00
     -4.813  0.1412E+00  0.1353E+00
     -4.747  0.2385E+00  0.1510E+00
     -4.681  0.3524E+00  0.1743E+00
     -4.615  0.4249E+00  0.2023E+00
     -4.549  0.4420E+00  0.2315E+00
     -4.483  0.4431E+00  0.2607E+00
     -4.417  0.4394E+00  0.2897E+00
     -4.351  0.3844E+00  0.3151E+00
     -4.285  0.2547E+00  0.3319E+00
     -4.219  0.1015E+00  0.3386E+00
     -4.153 -0.2127E-02  0.3384E+00
     -4.087 -0.2318E-01  0.3369E+00
     -4.021  0.3479E-01  0.3392E+00
     -3.955  0.1561E+00  0.3495E+00
     -3.889  0.3122E+00  0.3701E+00
     -3.823  0.4519E+00  0.3999E+00
     -3.757  0.5157E+00  0.4339E+00
     -3.691  0.4756E+00  0.4653E+00
     -3.625  0.3639E+00  0.4893E+00
     -3.559  0.2549E+00  0.5061E+00
     -3.493  0.2167E+00  0.5204E+00
     -3.427  0.2792E+00  0.5388E+00
     -3.361  0.4201E+00  0.5666E+00
     -3.295  0.5716E+00  0.6043E+00
     -3.229  0.6633E+00  0.6480E+00
     -3.163  0.6730E+00  0.6924E+00
     -3.097  0.6261E+00  0.7338E+00
     -3.031  0.5530E+00  0.7702E+00
     -2.965  0.4732E+00  0.8015E+00
     -2.899  0.4158E+00  0.8289E+00
     -2.833  0.4062E+00  0.8557E+00
     -2.767  0.4151E+00  0.8831E+00
     -2.701  0.3720E+00  0.9076E+00
     -2.635  0.2519E+00  0.9243E+00
     -2.569  0.1089E+00  0.9314E+00
     -2.503  0.9568E-02  0.9321E+00
     -2.438 -0.2927E-01  0.9301E+00
     -2.372 -0.2664E-01  0.9284E+00
     -2.306  0.5277E-02  0.9287E+00
     -2.240  0.6738E-01  0.9332E+00
     -2.174  0.1452E+00  0.9427E+00
     -2.108  0.1954E+00  0.9556E+00
     -2.042  0.1791E+00  0.9675E+00
     -1.976  0.1056E+00  0.9744E+00
     -1.910  0.3321E-01  0.9766E+00
     -1.844  0.2956E-01  0.9786E+00
     -1.778  0.1316E+00  0.9872E+00
     -1.712  0.3206E+00  0.1008E+01
     -1.646  0.5159E+00  0.1042E+01
     -1.580  0.6102E+00  0.1083E+01
     -1.514  0.5465E+00  0.1119E+01
     -1.448  0.3638E+00  0.1143E+01
     -1.382  0.1657E+00  0.1154E+01
     -1.316  0.4410E-01  0.1157E+01
     -1.250  0.3106E-01  0.1159E+01
     -1.184  0.9757E-01  0.1165E+01
     -1.118  0.1786E+00  0.1177E+01
     -1.052  0.2135E+00  0.1191E+01
     -0.986  0.1903E+00  0.1204E+01
     -0.920  0.1598E+00  0.1214E+01
     -0.854  0.1894E+00  0.1227E+01
     -0.788  0.2845E+00  0.1245E+01
     -0.722  0.3639E+00  0.1269E+01
     -0.656  0.3484E+00  0.1292E+01
     -0.590  0.2758E+00  0.1311E+01
     -0.524  0.2867E+00  0.1329E+01
     -0.458  0.4768E+00  0.1361E+01
     -0.392  0.7800E+00  0.1412E+01
     -0.326  0.1007E+01  0.1479E+01
     -0.260  0.9970E+00  0.1545E+01
     -0.194  0.7405E+00  0.1593E+01
     -0.128  0.3818E+00  0.1619E+01
     -0.062  0.9701E-01  0.1625E+01
      0.004 -0.1880E-01  0.1624E+01
      0.070  0.3253E-01  0.1626E+01
      0.136  0.1880E+00  0.1638E+01
      0.202  0.3472E+00  0.1661E+01
      0.268  0.4115E+00  0.1688E+01
      0.334  0.3524E+00  0.1712E+01
      0.400  0.2299E+00  0.1727E+01
      0.466  0.1283E+00  0.1735E+01
      0.531  0.9480E-01  0.1742E+01
      0.597  0.1394E+00  0.1751E+01
      0.663  0.2516E+00  0.1767E+01
      0.729  0.3929E+00  0.1793E+01
      0.795  0.4939E+00  0.1826E+01
      0.861  0.4889E+00  0.1858E+01
      0.927  0.3692E+00  0.1882E+01
      0.993  0.1983E+00  0.1896E+01
      1.059  0.5936E-01  0.1899E+01
      1.125 -0.9234E-02  0.1899E+01
      1.191 -0.2375E-01  0.1897E+01
      1.257 -0.1886E-01  0.1896E+01
      1.323 -0.1745E-01  0.1895E+01
      1.389 -0.2434E-01  0.1893E+01
      1.455 -0.2658E-01  0.1892E+01
      1.521  0.8032E-02  0.1892E+01
      1.587  0.1168E+00  0.1900E+01
      1.653  0.3042E+00  0.1920E+01
      1.719  0.5159E+00  0.1954E+01
      1.785  0.6682E+00  0.1998E+01
      1.851  0.7082E+00  0.2045E+01
      1.917  0.6377E+00  0.2087E+01
      1.983  0.5041E+00  0.2120E+01
      2.049  0.3859E+00  0.2146E+01
      2.115  0.3504E+00  0.2169E+01
      2.181  0.3880E+00  0.2194E+01
      2.247  0.4121E+00  0.2221E+01
      2.313  0.3617E+00  0.2245E+01
      2.379  0.2953E+00  0.2265E+01
      2.445  0.3589E+00  0.2288E+01
      2.511  0.6448E+00  0.2331E+01
      2.577  0.1071E+01  0.2402E+01
      2.643  0.1401E+01  0.2494E+01
      2.709  0.1415E+01  0.2587E+01
      2.775  0.1086E+01  0.2659E+01
      2.841  0.6024E+00  0.2699E+01
      2.907  0.1957E+00  0.2712E+01
      2.973 -0.2737E-01  0.2710E+01
      3.039 -0.9621E-01  0.2704E+01
      3.105 -0.6759E-01  0.2699E+01
      3.171  0.5597E-01  0.2703E+01
      3.237  0.3017E+00  0.2723E+01
      3.303  0.6434E+00  0.2765E+01
      3.369  0.9745E+00  0.2830E+01
      3.435  0.1185E+01  0.2908E+01
      3.500  0.1243E+01  0.2990E+01
      3.566  0.1186E+01  0.3068E+01
      3.632  0.1052E+01  0.3137E+01
      3.698  0.8724E+00  0.3195E+01
      3.764  0.7056E+00  0.3241E+01
      3.830  0.6325E+00  0.3283E+01
      3.896  0.6779E+00  0.3328E+01
      3.962  0.7497E+00  0.3377E+01
      4.028  0.7123E+00  0.3424E+01
      4.094  0.5418E+00  0.3460E+01
      4.160  0.3637E+00  0.3484E+01
      4.226  0.3149E+00  0.3505E+01
      4.292  0.4025E+00  0.3531E+01
      4.358  0.5256E+00  0.3566E+01
      4.424  0.6003E+00  0.3606E+01
      4.490  0.6237E+00  0.3647E+01
      4.556  0.6301E+00  0.3688E+01
      4.622  0.6389E+00  0.3731E+01
      4.688  0.6616E+00  0.3774E+01
      4.754  0.7150E+00  0.3821E+01
      4.820  0.7975E+00  0.3874E+01
      4.886  0.8676E+00  0.3931E+01
      4.952  0.8580E+00  0.3988E+01
      5.018  0.7232E+00  0.4036E+01
      5.084  0.4863E+00  0.4068E+01
      5.150  0.2406E+00  0.4084E+01
      5.216  0.9169E-01  0.4090E+01
      5.282  0.9152E-01  0.4096E+01
      5.348  0.2097E+00  0.4110E+01
      5.414  0.3510E+00  0.4133E+01
      5.480  0.4138E+00  0.4160E+01
      5.546  0.3573E+00  0.4184E+01
      5.612  0.2232E+00  0.4198E+01
      5.678  0.9029E-01  0.4204E+01
      5.744  0.1759E-01  0.4205E+01
      5.810  0.2191E-01  0.4207E+01
      5.876  0.8340E-01  0.4212E+01
      5.942  0.1564E+00  0.4223E+01
      6.008  0.1916E+00  0.4235E+01
      6.074  0.1702E+00  0.4247E+01
      6.140  0.1164E+00  0.4254E+01
      6.206  0.6867E-01  0.4259E+01
      6.272  0.4286E-01  0.4262E+01
      6.338  0.2955E-01  0.4264E+01
      6.404  0.1776E-01  0.4265E+01
      6.470  0.1199E-01  0.4265E+01
      6.535  0.2794E-01  0.4267E+01
      6.601  0.7406E-01  0.4272E+01
      6.667  0.1350E+00  0.4281E+01
      6.733  0.1757E+00  0.4293E+01
      6.799  0.1684E+00  0.4304E+01
      6.865  0.1170E+00  0.4312E+01
      6.931  0.5221E-01  0.4315E+01
      6.997  0.9033E-02  0.4316E+01
      7.063  0.1225E-01  0.4316E+01
      7.129  0.7007E-01  0.4321E+01
      7.195  0.1621E+00  0.4332E+01
      7.261  0.2377E+00  0.4347E+01
      7.327  0.2529E+00  0.4364E+01
      7.393  0.2223E+00  0.4379E+01
      7.459  0.2176E+00  0.4393E+01
      7.525  0.2909E+00  0.4412E+01
      7.591  0.4032E+00  0.4439E+01
      7.657  0.4533E+00  0.4469E+01
      7.723  0.3840E+00  0.4494E+01
      7.789  0.2452E+00  0.4510E+01
      7.855  0.1514E+00  0.4520E+01
      7.921  0.1915E+00  0.4533E+01
      7.987  0.3687E+00  0.4557E+01
      8.053  0.5951E+00  0.4597E+01
      8.119  0.7417E+00  0.4645E+01
      8.185  0.7288E+00  0.4694E+01
      8.251  0.5910E+00  0.4733E+01
      8.317  0.4515E+00  0.4762E+01
      8.383  0.4217E+00  0.4790E+01
      8.449  0.5297E+00  0.4825E+01
      8.515  0.7365E+00  0.4874E+01
      8.581  0.9795E+00  0.4938E+01
      8.647  0.1177E+01  0.5016E+01
      8.713  0.1234E+01  0.5097E+01
      8.779  0.1097E+01  0.5170E+01
      8.845  0.8177E+00  0.5224E+01
      8.911  0.5214E+00  0.5258E+01
      8.977  0.3072E+00  0.5278E+01
      9.043  0.2006E+00  0.5292E+01
      9.109  0.1858E+00  0.5304E+01
      9.175  0.2392E+00  0.5320E+01
      9.241  0.3137E+00  0.5340E+01
      9.307  0.3378E+00  0.5363E+01
      9.373  0.2727E+00  0.5381E+01
      9.439  0.1530E+00  0.5391E+01
      9.504  0.4865E-01  0.5394E+01
      9.570 -0.4620E-03  0.5394E+01
      9.636 -0.1611E-02  0.5394E+01
      9.702  0.1653E-01  0.5395E+01
      9.768  0.2973E-01  0.5397E+01
      9.834  0.2858E-01  0.5399E+01
      9.900  0.1740E-01  0.5400E+01
      9.966  0.5826E-02  0.5400E+01
     10.032 -0.4402E-03  0.5400E+01
     10.098 -0.1840E-02  0.5400E+01
     10.164 -0.1231E-02  0.5400E+01
     10.230 -0.5115E-03  0.5400E+01
     10.296 -0.1525E-03  0.5400E+01
     10.362 -0.3430E-04  0.5400E+01
     10.428 -0.5952E-05  0.5400E+01
     10.494 -0.8070E-06  0.5400E+01
     10.560 -0.8617E-07  0.5400E+01
     10.626 -0.7282E-08  0.5400E+01
     10.692 -0.4887E-09  0.5400E+01
     10.758 -0.2612E-10  0.5400E+01
     10.824 -0.1114E-11  0.5400E+01
     10.890 -0.3795E-13  0.5400E+01
     10.956 -0.1024E-14  0.5400E+01
     11.022 -0.2805E-16  0.5400E+01
     11.088  0.0000E+00  0.5400E+01
     11.154  0.0000E+00  0.5400E+01
     11.220  0.0000E+00  0.5400E+01
     11.286  0.0000E+00  0.5400E+01
     11.352  0.0000E+00  0.5400E+01
     11.418  0.0000E+00  0.5400E+01
     11.484  0.0000E+00  0.5400E+01
     11.550  0.0000E+00  0.5400E+01
     11.616  0.0000E+00  0.5400E+01
     11.682  0.0000E+00  0.5400E+01
     11.748  0.0000E+00  0.5400E+01
