  64  64   0   0
  0.1884889E+02  0.1071631E-08  0.1061021E-08  0.1061007E-08  0.5000000E-15
  1.000000000000000E-004
  CAR 
 Si64                                    
     11.90227324     -7.99778403  301      6.64009457      1.00000000
     -7.998  0.0000E+00  0.0000E+00
     -7.931  0.0000E+00  0.0000E+00
     -7.865  0.0000E+00  0.0000E+00
     -7.799  0.0000E+00  0.0000E+00
     -7.732  0.0000E+00  0.0000E+00
     -7.666  0.0000E+00  0.0000E+00
     -7.600 -0.1940E-28 -0.1287E-29
     -7.533 -0.3362E-26 -0.2243E-27
     -7.467 -0.4689E-24 -0.3133E-25
     -7.401 -0.5235E-22 -0.3504E-23
     -7.334 -0.4678E-20 -0.3138E-21
     -7.268 -0.3344E-18 -0.2250E-19
     -7.202 -0.1912E-16 -0.1291E-17
     -7.135 -0.8459E-15 -0.5740E-16
     -7.069 -0.3081E-13 -0.2101E-14
     -7.003 -0.8935E-12 -0.6137E-13
     -6.936 -0.2065E-10 -0.1431E-11
     -6.870 -0.3795E-09 -0.2660E-10
     -6.804 -0.5538E-08 -0.3939E-09
     -6.737 -0.6397E-07 -0.4637E-08
     -6.671 -0.5829E-06 -0.4330E-07
     -6.605 -0.4166E-05 -0.3196E-06
     -6.538 -0.2316E-04 -0.1856E-05
     -6.472 -0.9880E-04 -0.8410E-05
     -6.406 -0.3155E-03 -0.2933E-04
     -6.339 -0.7150E-03 -0.7676E-04
     -6.273 -0.9837E-03 -0.1420E-03
     -6.207 -0.1557E-03 -0.1523E-03
     -6.140  0.2760E-02  0.3073E-04
     -6.074  0.7079E-02  0.5003E-03
     -6.008  0.1054E-01  0.1199E-02
     -5.941  0.1395E-01  0.2125E-02
     -5.875  0.2474E-01  0.3766E-02
     -5.809  0.4890E-01  0.7009E-02
     -5.742  0.7778E-01  0.1217E-01
     -5.676  0.9456E-01  0.1844E-01
     -5.610  0.1008E+00  0.2513E-01
     -5.543  0.1207E+00  0.3314E-01
     -5.477  0.1628E+00  0.4394E-01
     -5.411  0.1964E+00  0.5696E-01
     -5.344  0.1898E+00  0.6955E-01
     -5.278  0.1568E+00  0.7995E-01
     -5.212  0.1343E+00  0.8886E-01
     -5.145  0.1286E+00  0.9739E-01
     -5.079  0.1163E+00  0.1051E+00
     -5.013  0.9048E-01  0.1111E+00
     -4.946  0.7040E-01  0.1158E+00
     -4.880  0.6965E-01  0.1204E+00
     -4.814  0.8887E-01  0.1263E+00
     -4.747  0.1404E+00  0.1356E+00
     -4.681  0.2379E+00  0.1514E+00
     -4.615  0.3518E+00  0.1747E+00
     -4.548  0.4217E+00  0.2027E+00
     -4.482  0.4346E+00  0.2315E+00
     -4.416  0.4346E+00  0.2603E+00
     -4.349  0.4346E+00  0.2892E+00
     -4.283  0.3847E+00  0.3147E+00
     -4.217  0.2574E+00  0.3318E+00
     -4.150  0.1039E+00  0.3387E+00
     -4.084 -0.1346E-02  0.3386E+00
     -4.018 -0.2554E-01  0.3369E+00
     -3.951  0.2676E-01  0.3387E+00
     -3.885  0.1407E+00  0.3480E+00
     -3.819  0.2917E+00  0.3673E+00
     -3.752  0.4336E+00  0.3961E+00
     -3.686  0.5082E+00  0.4298E+00
     -3.620  0.4813E+00  0.4617E+00
     -3.553  0.3767E+00  0.4867E+00
     -3.487  0.2646E+00  0.5043E+00
     -3.421  0.2149E+00  0.5185E+00
     -3.354  0.2629E+00  0.5360E+00
     -3.288  0.3936E+00  0.5621E+00
     -3.222  0.5445E+00  0.5982E+00
     -3.155  0.6427E+00  0.6408E+00
     -3.089  0.6592E+00  0.6846E+00
     -3.023  0.6183E+00  0.7256E+00
     -2.956  0.5536E+00  0.7623E+00
     -2.890  0.4812E+00  0.7942E+00
     -2.824  0.4211E+00  0.8221E+00
     -2.757  0.4028E+00  0.8489E+00
     -2.691  0.4150E+00  0.8764E+00
     -2.625  0.3906E+00  0.9023E+00
     -2.558  0.2859E+00  0.9213E+00
     -2.492  0.1403E+00  0.9306E+00
     -2.426  0.2677E-01  0.9324E+00
     -2.359 -0.2469E-01  0.9307E+00
     -2.293 -0.3057E-01  0.9287E+00
     -2.227 -0.8391E-02  0.9281E+00
     -2.160  0.4289E-01  0.9310E+00
     -2.094  0.1189E+00  0.9389E+00
     -2.028  0.1845E+00  0.9511E+00
     -1.961  0.1929E+00  0.9639E+00
     -1.895  0.1339E+00  0.9728E+00
     -1.829  0.5336E-01  0.9763E+00
     -1.762  0.2071E-01  0.9777E+00
     -1.696  0.8557E-01  0.9834E+00
     -1.630  0.2497E+00  0.9999E+00
     -1.563  0.4526E+00  0.1030E+01
     -1.497  0.5900E+00  0.1069E+01
     -1.431  0.5802E+00  0.1108E+01
     -1.364  0.4292E+00  0.1136E+01
     -1.298  0.2259E+00  0.1151E+01
     -1.232  0.7293E-01  0.1156E+01
     -1.165  0.2511E-01  0.1158E+01
     -1.099  0.7359E-01  0.1162E+01
     -1.033  0.1617E+00  0.1173E+01
     -0.966  0.2189E+00  0.1188E+01
     -0.900  0.2111E+00  0.1202E+01
     -0.834  0.1759E+00  0.1213E+01
     -0.767  0.1896E+00  0.1226E+01
     -0.701  0.2763E+00  0.1244E+01
     -0.635  0.3602E+00  0.1268E+01
     -0.568  0.3466E+00  0.1291E+01
     -0.502  0.2552E+00  0.1308E+01
     -0.436  0.2311E+00  0.1323E+01
     -0.369  0.3996E+00  0.1350E+01
     -0.303  0.7196E+00  0.1398E+01
     -0.237  0.9960E+00  0.1464E+01
     -0.170  0.1037E+01  0.1532E+01
     -0.104  0.8093E+00  0.1586E+01
     -0.038  0.4491E+00  0.1616E+01
      0.029  0.1385E+00  0.1625E+01
      0.095 -0.1879E-01  0.1624E+01
      0.161 -0.1463E-01  0.1623E+01
      0.228  0.1094E+00  0.1630E+01
      0.294  0.2798E+00  0.1649E+01
      0.360  0.3975E+00  0.1675E+01
      0.427  0.3931E+00  0.1701E+01
      0.493  0.2877E+00  0.1720E+01
      0.559  0.1670E+00  0.1731E+01
      0.626  0.1024E+00  0.1738E+01
      0.692  0.1205E+00  0.1746E+01
      0.758  0.2187E+00  0.1761E+01
      0.825  0.3656E+00  0.1785E+01
      0.891  0.4905E+00  0.1817E+01
      0.957  0.5133E+00  0.1851E+01
      1.024  0.4086E+00  0.1879E+01
      1.090  0.2337E+00  0.1894E+01
      1.156  0.7958E-01  0.1899E+01
      1.223 -0.3172E-02  0.1899E+01
      1.289 -0.2491E-01  0.1898E+01
      1.355 -0.2211E-01  0.1896E+01
      1.422 -0.2107E-01  0.1895E+01
      1.488 -0.2628E-01  0.1893E+01
      1.554 -0.1966E-01  0.1892E+01
      1.621  0.3537E-01  0.1894E+01
      1.687  0.1682E+00  0.1905E+01
      1.753  0.3574E+00  0.1929E+01
      1.820  0.5234E+00  0.1964E+01
      1.886  0.5946E+00  0.2003E+01
      1.952  0.5767E+00  0.2041E+01
      2.019  0.5285E+00  0.2076E+01
      2.085  0.4861E+00  0.2109E+01
      2.151  0.4527E+00  0.2139E+01
      2.218  0.4361E+00  0.2167E+01
      2.284  0.4367E+00  0.2196E+01
      2.350  0.4176E+00  0.2224E+01
      2.417  0.3486E+00  0.2247E+01
      2.483  0.2857E+00  0.2266E+01
      2.549  0.3599E+00  0.2290E+01
      2.616  0.6520E+00  0.2333E+01
      2.682  0.1073E+01  0.2405E+01
      2.748  0.1386E+01  0.2496E+01
      2.815  0.1381E+01  0.2588E+01
      2.881  0.1050E+01  0.2658E+01
      2.947  0.5838E+00  0.2696E+01
      3.014  0.2001E+00  0.2710E+01
      3.080 -0.1153E-01  0.2709E+01
      3.146 -0.8314E-01  0.2703E+01
      3.213 -0.6194E-01  0.2699E+01
      3.279  0.5887E-01  0.2703E+01
      3.345  0.3075E+00  0.2724E+01
      3.412  0.6477E+00  0.2767E+01
      3.478  0.9600E+00  0.2830E+01
      3.544  0.1138E+01  0.2906E+01
      3.611  0.1175E+01  0.2984E+01
      3.677  0.1127E+01  0.3058E+01
      3.743  0.1029E+01  0.3127E+01
      3.810  0.8875E+00  0.3186E+01
      3.876  0.7391E+00  0.3235E+01
      3.942  0.6564E+00  0.3278E+01
      4.009  0.6820E+00  0.3323E+01
      4.075  0.7506E+00  0.3373E+01
      4.141  0.7273E+00  0.3421E+01
      4.208  0.5601E+00  0.3459E+01
      4.274  0.3583E+00  0.3482E+01
      4.340  0.2767E+00  0.3501E+01
      4.407  0.3533E+00  0.3524E+01
      4.473  0.4955E+00  0.3557E+01
      4.539  0.5977E+00  0.3597E+01
      4.606  0.6332E+00  0.3639E+01
      4.672  0.6353E+00  0.3681E+01
      4.738  0.6356E+00  0.3723E+01
      4.805  0.6485E+00  0.3766E+01
      4.871  0.6855E+00  0.3811E+01
      4.937  0.7504E+00  0.3861E+01
      5.004  0.8192E+00  0.3916E+01
      5.070  0.8396E+00  0.3971E+01
      5.136  0.7575E+00  0.4021E+01
      5.203  0.5631E+00  0.4059E+01
      5.269  0.3196E+00  0.4080E+01
      5.335  0.1328E+00  0.4089E+01
      5.402  0.8030E-01  0.4094E+01
      5.468  0.1625E+00  0.4105E+01
      5.534  0.3047E+00  0.4125E+01
      5.601  0.4023E+00  0.4152E+01
      5.667  0.3871E+00  0.4178E+01
      5.733  0.2706E+00  0.4195E+01
      5.800  0.1260E+00  0.4204E+01
      5.866  0.2694E-01  0.4206E+01
      5.932  0.5917E-02  0.4206E+01
      5.999  0.5280E-01  0.4210E+01
      6.065  0.1294E+00  0.4218E+01
      6.131  0.1852E+00  0.4230E+01
      6.198  0.1858E+00  0.4243E+01
      6.264  0.1385E+00  0.4252E+01
      6.330  0.8235E-01  0.4257E+01
      6.397  0.4705E-01  0.4260E+01
      6.463  0.3184E-01  0.4263E+01
      6.529  0.2272E-01  0.4264E+01
      6.596  0.1888E-01  0.4265E+01
      6.662  0.3493E-01  0.4268E+01
      6.728  0.7962E-01  0.4273E+01
      6.795  0.1371E+00  0.4282E+01
      6.861  0.1738E+00  0.4294E+01
      6.927  0.1647E+00  0.4305E+01
      6.994  0.1139E+00  0.4312E+01
      7.060  0.5016E-01  0.4315E+01
      7.126  0.7480E-02  0.4316E+01
      7.193  0.1082E-01  0.4317E+01
      7.259  0.6775E-01  0.4321E+01
      7.325  0.1586E+00  0.4332E+01
      7.392  0.2358E+00  0.4347E+01
      7.458  0.2562E+00  0.4364E+01
      7.524  0.2298E+00  0.4379E+01
      7.591  0.2232E+00  0.4394E+01
      7.657  0.2902E+00  0.4414E+01
      7.723  0.3979E+00  0.4440E+01
      7.790  0.4469E+00  0.4470E+01
      7.856  0.3752E+00  0.4494E+01
      7.922  0.2295E+00  0.4510E+01
      7.989  0.1277E+00  0.4518E+01
      8.055  0.1632E+00  0.4529E+01
      8.121  0.3409E+00  0.4552E+01
      8.188  0.5762E+00  0.4590E+01
      8.254  0.7405E+00  0.4639E+01
      8.320  0.7402E+00  0.4688E+01
      8.387  0.5904E+00  0.4727E+01
      8.453  0.4147E+00  0.4755E+01
      8.519  0.3509E+00  0.4778E+01
      8.586  0.4494E+00  0.4808E+01
      8.652  0.6667E+00  0.4852E+01
      8.718  0.9305E+00  0.4914E+01
      8.785  0.1168E+01  0.4991E+01
      8.851  0.1288E+01  0.5077E+01
      8.917  0.1205E+01  0.5157E+01
      8.984  0.9272E+00  0.5218E+01
      9.050  0.5771E+00  0.5256E+01
      9.116  0.3055E+00  0.5277E+01
      9.183  0.1837E+00  0.5289E+01
      9.249  0.1909E+00  0.5302E+01
      9.315  0.2632E+00  0.5319E+01
      9.382  0.3297E+00  0.5341E+01
      9.448  0.3336E+00  0.5363E+01
      9.514  0.2605E+00  0.5380E+01
      9.581  0.1476E+00  0.5390E+01
      9.647  0.5137E-01  0.5393E+01
      9.713  0.3649E-02  0.5394E+01
      9.780 -0.2489E-03  0.5394E+01
      9.846  0.1589E-01  0.5395E+01
      9.912  0.2926E-01  0.5397E+01
      9.979  0.2913E-01  0.5399E+01
     10.045  0.1844E-01  0.5400E+01
     10.111  0.6603E-02  0.5400E+01
     10.178 -0.1400E-03  0.5400E+01
     10.244 -0.1823E-02  0.5400E+01
     10.310 -0.1283E-02  0.5400E+01
     10.377 -0.5458E-03  0.5400E+01
     10.443 -0.1654E-03  0.5400E+01
     10.509 -0.3763E-04  0.5400E+01
     10.576 -0.6586E-05  0.5400E+01
     10.642 -0.8984E-06  0.5400E+01
     10.708 -0.9630E-07  0.5400E+01
     10.775 -0.8152E-08  0.5400E+01
     10.841 -0.5471E-09  0.5400E+01
     10.907 -0.2918E-10  0.5400E+01
     10.974 -0.1239E-11  0.5400E+01
     11.040 -0.4198E-13  0.5400E+01
     11.106 -0.1144E-14  0.5400E+01
     11.173 -0.1395E-16  0.5400E+01
     11.239  0.0000E+00  0.5400E+01
     11.305  0.0000E+00  0.5400E+01
     11.372  0.0000E+00  0.5400E+01
     11.438  0.0000E+00  0.5400E+01
     11.504  0.0000E+00  0.5400E+01
     11.571  0.0000E+00  0.5400E+01
     11.637  0.0000E+00  0.5400E+01
     11.703  0.0000E+00  0.5400E+01
     11.770  0.0000E+00  0.5400E+01
     11.836  0.0000E+00  0.5400E+01
     11.902  0.0000E+00  0.5400E+01
