       N       E                     dE             d eps       ncg     rms          rms(c)
DAV:   1     0.573490995580E+03    0.57349E+03   -0.84902E+04  2592   0.107E+03
DAV:   2    -0.310086977846E+03   -0.88358E+03   -0.83780E+03  3104   0.175E+02
DAV:   3    -0.372808571310E+03   -0.62722E+02   -0.61548E+02  3152   0.413E+01
DAV:   4    -0.374395023147E+03   -0.15865E+01   -0.15756E+01  3136   0.799E+00
DAV:   5    -0.374444468124E+03   -0.49445E-01   -0.49356E-01  3118   0.130E+00    0.304E+01
RMM:   6    -0.368516377886E+03    0.59281E+01   -0.31001E+00  2592   0.277E+00    0.183E+01
RMM:   7    -0.365919968463E+03    0.25964E+01   -0.78764E+00  2660   0.439E+00    0.115E+00
RMM:   8    -0.365952741020E+03   -0.32773E-01   -0.70836E-01  2610   0.166E+00    0.533E-01
RMM:   9    -0.365975451265E+03   -0.22710E-01   -0.21740E-01  2669   0.814E-01    0.607E-01
RMM:  10    -0.365979551953E+03   -0.41007E-02   -0.38607E-02  2740   0.385E-01    0.785E-01
RMM:  11    -0.365975326199E+03    0.42258E-02   -0.13152E-02  2592   0.231E-01    0.697E-01
RMM:  12    -0.365975459449E+03   -0.13325E-03   -0.18903E-03  2606   0.103E-01    0.714E-01
RMM:  13    -0.365975536166E+03   -0.76718E-04   -0.37535E-04  2749   0.426E-02    0.780E-01
RMM:  14    -0.365975425791E+03    0.11038E-03   -0.11486E-04  2594   0.262E-02    0.425E-01
RMM:  15    -0.365975582710E+03   -0.15692E-03   -0.57987E-05  2613   0.156E-02    0.405E-01
RMM:  16    -0.365975705174E+03   -0.12246E-03   -0.48508E-05  2592   0.158E-02    0.334E-01
RMM:  17    -0.365975726226E+03   -0.21052E-04   -0.11734E-05  2592   0.891E-03    0.165E-01
RMM:  18    -0.365975744297E+03   -0.18070E-04   -0.68759E-06  2546   0.635E-03    0.694E-02
RMM:  19    -0.365975750690E+03   -0.63932E-05   -0.41583E-06  2081   0.487E-03    0.136E-02
RMM:  20    -0.365975751573E+03   -0.88297E-06   -0.10536E-06  1568   0.233E-03
   1 F= -.36597575E+03 E0= -.36598635E+03  d E =-.365976E+03
       N       E                     dE             d eps       ncg     rms          rms(c)
DAV:   1    -0.365986111745E+03   -0.10361E-01   -0.67748E-01  2944   0.158E+00    0.376E-01
RMM:   2    -0.365989386883E+03   -0.32751E-02   -0.33941E-02  2592   0.392E-01    0.151E-01
RMM:   3    -0.365989818128E+03   -0.43124E-03   -0.52980E-03  2636   0.174E-01    0.634E-02
RMM:   4    -0.365989806778E+03    0.11349E-04   -0.71574E-04  2638   0.720E-02    0.232E-02
RMM:   5    -0.365989812502E+03   -0.57234E-05   -0.13194E-04  2676   0.288E-02    0.504E-03
RMM:   6    -0.365989815597E+03   -0.30951E-05   -0.30930E-05  2723   0.126E-02    0.920E-04
RMM:   7    -0.365989815972E+03   -0.37551E-06   -0.40226E-06  1875   0.449E-03    0.115E-03
RMM:   8    -0.365989816022E+03   -0.50189E-07   -0.75891E-07  1518   0.192E-03
   2 F= -.36598982E+03 E0= -.36599886E+03  d E =-.140644E-01
       N       E                     dE             d eps       ncg     rms          rms(c)
DAV:   1    -0.365992999010E+03   -0.31830E-02   -0.65433E-02  2920   0.492E-01    0.117E-01
RMM:   2    -0.365993309097E+03   -0.31009E-03   -0.32008E-03  2592   0.121E-01    0.473E-02
RMM:   3    -0.365993348186E+03   -0.39089E-04   -0.48710E-04  2638   0.534E-02    0.195E-02
RMM:   4    -0.365993347147E+03    0.10395E-05   -0.64972E-05  2626   0.221E-02    0.712E-03
RMM:   5    -0.365993347719E+03   -0.57202E-06   -0.12453E-05  2512   0.883E-03    0.157E-03
RMM:   6    -0.365993347949E+03   -0.23039E-06   -0.26639E-06  1764   0.385E-03    0.308E-04
RMM:   7    -0.365993347998E+03   -0.48680E-07   -0.46429E-07  1497   0.155E-03    0.287E-04
RMM:   8    -0.365993348017E+03   -0.19414E-07   -0.11487E-07  1050   0.788E-04
   3 F= -.36599335E+03 E0= -.36600305E+03  d E =-.175964E-01
