 vasp.6.4.3 19Mar24 (build Oct 21 2024 22:36:34) complex                        
  
 executed on             LinuxIFC date 2024.11.01  22:48:55
 running   96 mpi-ranks, on    1 nodes
 distrk:  each k-point on   24 cores,    4 groups
 distr:  one band on NCORE=  12 cores,    2 groups


--------------------------------------------------------------------------------------------------------


 INCAR:
   SYSTEM = Si64
   ISTART = 0
   ICHARG = 2
   LREAL = Auto
   PREC = Accurate
   LWAVE = .False.
   LCHARG = .False.
   ADDGRID = .True.
   ENCUT = 400
   GGA = PS
   GGA_COMPAT = .FALSE.
   ISMEAR = 1
   SIGMA = 0.2
   NELM = 60
   NELMIN = 8
   EDIFF = 1e-06
   EDIFFG = -0.01
   NSW = 60
   IBRION = 2
   ISIF = 2
   KPAR = 4
   NPAR = 2
   ALGO = Fast

 POTCAR:    PAW_PBE Si 05Jan2001                  
 POTCAR:    PAW_PBE Si 05Jan2001                  
   VRHFIN =Si: s2p2                                                                                 
   LEXCH  = PE                                                                                      
   EATOM  =   103.0669 eV,    7.5752 Ry                                                             
                                                                                                    
   TITEL  = PAW_PBE Si 05Jan2001                                                                    
   LULTRA =        F    use ultrasoft PP ?                                                          
   IUNSCR =        1    unscreen: 0-lin 1-nonlin 2-no                                               
   RPACOR =    1.500    partial core radius                                                         
   POMASS =   28.085; ZVAL   =    4.000    mass and valenz                                          
   RCORE  =    1.900    outmost cutoff radius                                                       
   RWIGS  =    2.480; RWIGS  =    1.312    wigner-seitz radius (au A)                               
   ENMAX  =  245.345; ENMIN  =  184.009 eV                                                          
   ICORE  =        2    local potential                                                             
   LCOR   =        T    correct aug charges                                                         
   LPAW   =        T    paw PP                                                                      
   EAUG   =  322.069                                                                                
   DEXC   =    0.000                                                                                
   RMAX   =    1.950    core radius for proj-oper                                                   
   RAUG   =    1.300    factor for augmentation sphere                                              
   RDEP   =    1.993    radius for radial grids                                                     
   RDEPT  =    1.837    core radius for aug-charge                                                  
                                                                                                    
   Atomic configuration                                                                             
    6 entries                                                                                       
     n  l   j            E        occ.                                                              
     1  0  0.50     -1785.8828   2.0000                                                             
     2  0  0.50      -139.4969   2.0000                                                             
     2  1  1.50       -95.5546   6.0000                                                             
     3  0  0.50       -10.8127   2.0000                                                             
     3  1  0.50        -4.0811   2.0000                                                             
     3  2  1.50        -4.0817   0.0000                                                             
   Description                                                                                      
     l       E           TYP  RCUT    TYP  RCUT                                                     
     0    -10.8127223     23  1.900                                                                 
     0     -7.6451159     23  1.900                                                                 
     1     -4.0811372     23  1.900                                                                 
     1      2.4879257     23  1.900                                                                 
     2     -4.0817478      7  1.900                                                                 
  local pseudopotential read in
  partial core-charges read in
  partial kinetic energy density read in
  atomic valenz-charges read in
  non local Contribution for L=           0  read in
    real space projection operators read in
  non local Contribution for L=           0  read in
    real space projection operators read in
  non local Contribution for L=           1  read in
    real space projection operators read in
  non local Contribution for L=           1  read in
    real space projection operators read in
    PAW grid and wavefunctions read in
 
   number of l-projection  operators is LMAX  =           4
   number of lm-projection operators is LMMAX =           8
 
 Optimization of the real space projectors (new method)

 maximal supplied QI-value         = 19.84
 optimisation between [QCUT,QGAM] = [ 10.12, 20.44] = [ 28.68,116.96] Ry 
 Optimized for a Real-space Cutoff    1.38 Angstroem

   l    n(q)    QCUT    max X(q) W(low)/X(q) W(high)/X(q)  e(spline) 
   0      8    10.119   159.560    0.58E-04    0.11E-03    0.54E-07
   0      8    10.119   115.863    0.56E-04    0.11E-03    0.54E-07
   1      8    10.119    88.339    0.22E-03    0.17E-03    0.19E-06
   1      8    10.119    48.592    0.22E-03    0.17E-03    0.18E-06
 -----------------------------------------------------------------------------
|                                                                             |
|               ----> ADVICE to this user running VASP <----                  |
|                                                                             |
|     You enforced a specific xc type in the INCAR file but a different       |
|     type was found in the POTCAR file.                                      |
|     I HOPE YOU KNOW WHAT YOU ARE DOING!                                     |
|                                                                             |
 -----------------------------------------------------------------------------

  PAW_PBE Si 05Jan2001                  :
 energy of atom  1       EATOM= -103.0669
 kinetic energy error for atom=    0.0012 (will be added to EATOM!!)
 
 
 POSCAR: Si8
  positions in direct lattice
  velocities in cartesian coordinates


 exchange-correlation table for PS
   RHO(1)=    0.500       N(1)  =     2000
   RHO(2)=  100.500       N(2)  =     4000
 


--------------------------------------------------------------------------------------------------------


 ion  position               nearest neighbor table
   1  0.000  0.000  0.000-  15 2.31  57 2.31  44 2.33  30 2.33
   2  0.000  0.000  0.500-  16 2.31  58 2.31  43 2.33  29 2.33
   3  0.000  0.500  0.000-  13 2.31  59 2.31  42 2.33  32 2.33
   4  0.000  0.500  0.500-  14 2.31  60 2.31  41 2.33  31 2.33
   5  0.500  0.000  0.000-  11 2.31  61 2.31  48 2.33  26 2.33
   6  0.500  0.000  0.500-  12 2.31  62 2.31  47 2.33  25 2.33
   7  0.500  0.500  0.000-   9 2.31  63 2.31  46 2.33  28 2.33
   8  0.500  0.500  0.500-  10 2.31  64 2.31  45 2.33  27 2.33
   9  0.375  0.375  0.125-   7 2.31  49 2.31  35 2.33  21 2.33
  10  0.375  0.375  0.625-   8 2.31  50 2.31  36 2.33  22 2.33
  11  0.375  0.875  0.125-   5 2.31  51 2.31  33 2.33  23 2.33
  12  0.375  0.875  0.625-   6 2.31  52 2.31  34 2.33  24 2.33
  13  0.875  0.375  0.125-   3 2.31  53 2.31  39 2.33  17 2.33
  14  0.875  0.375  0.625-   4 2.31  54 2.31  40 2.33  18 2.33
  15  0.875  0.875  0.125-   1 2.31  55 2.31  37 2.33  19 2.33
  16  0.875  0.875  0.625-   2 2.31  56 2.31  38 2.33  20 2.33
  17  0.000  0.250  0.250-  29 2.31  41 2.31  13 2.33  57 2.33
  18  0.000  0.250  0.750-  30 2.31  42 2.31  14 2.33  58 2.33
  19  0.000  0.750  0.250-  31 2.31  43 2.31  15 2.33  59 2.33
  20  0.000  0.750  0.750-  32 2.31  44 2.31  16 2.33  60 2.33
  21  0.500  0.250  0.250-  25 2.31  45 2.31   9 2.33  61 2.33
  22  0.500  0.250  0.750-  26 2.31  46 2.31  10 2.33  62 2.33
  23  0.500  0.750  0.250-  27 2.31  47 2.31  11 2.33  63 2.33
  24  0.500  0.750  0.750-  28 2.31  48 2.31  12 2.33  64 2.33
  25  0.375  0.125  0.375-  21 2.31  33 2.31   6 2.33  50 2.33
  26  0.375  0.125  0.875-  22 2.31  34 2.31   5 2.33  49 2.33
  27  0.375  0.625  0.375-  23 2.31  35 2.31   8 2.33  52 2.33
  28  0.375  0.625  0.875-  24 2.31  36 2.31   7 2.33  51 2.33
  29  0.875  0.125  0.375-  17 2.31  37 2.31   2 2.33  54 2.33
  30  0.875  0.125  0.875-  18 2.31  38 2.31   1 2.33  53 2.33
  31  0.875  0.625  0.375-  19 2.31  39 2.31   4 2.33  56 2.33
  32  0.875  0.625  0.875-  20 2.31  40 2.31   3 2.33  55 2.33
  33  0.250  0.000  0.250-  25 2.31  43 2.31  11 2.33  57 2.33
  34  0.250  0.000  0.750-  26 2.31  44 2.31  12 2.33  58 2.33
  35  0.250  0.500  0.250-  27 2.31  41 2.31   9 2.33  59 2.33
  36  0.250  0.500  0.750-  28 2.31  42 2.31  10 2.33  60 2.33
  37  0.750  0.000  0.250-  29 2.31  47 2.31  15 2.33  61 2.33
  38  0.750  0.000  0.750-  30 2.31  48 2.31  16 2.33  62 2.33
  39  0.750  0.500  0.250-  31 2.31  45 2.31  13 2.33  63 2.33
  40  0.750  0.500  0.750-  32 2.31  46 2.31  14 2.33  64 2.33
  41  0.125  0.375  0.375-  17 2.31  35 2.31   4 2.33  50 2.33
  42  0.125  0.375  0.875-  18 2.31  36 2.31   3 2.33  49 2.33
  43  0.125  0.875  0.375-  19 2.31  33 2.31   2 2.33  52 2.33
  44  0.125  0.875  0.875-  20 2.31  34 2.31   1 2.33  51 2.33
  45  0.625  0.375  0.375-  21 2.31  39 2.31   8 2.33  54 2.33
  46  0.625  0.375  0.875-  22 2.31  40 2.31   7 2.33  53 2.33
  47  0.625  0.875  0.375-  23 2.31  37 2.31   6 2.33  56 2.33
  48  0.625  0.875  0.875-  24 2.31  38 2.31   5 2.33  55 2.33
  49  0.250  0.250  0.000-   9 2.31  57 2.31  42 2.33  26 2.33
  50  0.250  0.250  0.500-  10 2.31  58 2.31  41 2.33  25 2.33
  51  0.250  0.750  0.000-  11 2.31  59 2.31  44 2.33  28 2.33
  52  0.250  0.750  0.500-  12 2.31  60 2.31  43 2.33  27 2.33
  53  0.750  0.250  0.000-  13 2.31  61 2.31  46 2.33  30 2.33
  54  0.750  0.250  0.500-  14 2.31  62 2.31  45 2.33  29 2.33
  55  0.750  0.750  0.000-  15 2.31  63 2.31  48 2.33  32 2.33
  56  0.750  0.750  0.500-  16 2.31  64 2.31  47 2.33  31 2.33
  57  0.125  0.125  0.125-   1 2.31  49 2.31  33 2.33  17 2.33
  58  0.125  0.125  0.625-   2 2.31  50 2.31  34 2.33  18 2.33
  59  0.125  0.625  0.125-   3 2.31  51 2.31  35 2.33  19 2.33
  60  0.125  0.625  0.625-   4 2.31  52 2.31  36 2.33  20 2.33
  61  0.625  0.125  0.125-   5 2.31  53 2.31  37 2.33  21 2.33
  62  0.625  0.125  0.625-   6 2.31  54 2.31  38 2.33  22 2.33
  63  0.625  0.625  0.125-   7 2.31  55 2.31  39 2.33  23 2.33
  64  0.625  0.625  0.625-   8 2.31  56 2.31  40 2.33  24 2.33
 
  LATTYP: Found a simple monoclinic cell.
 ALAT       =    10.6029789130
 B/A-ratio  =     1.0151990000
 C/A-ratio  =     1.0152275521
 COS(beta)  =    -0.0151133519
  
  Lattice vectors:
  
 A1 = (  10.6026715658,  -0.0807310119,   0.0000000000)
 A2 = (   0.0000000000,   0.0000000000, -10.7641335897)
 A3 = (  -0.0807310119,  10.7641335897,   0.0000000000)


Analysis of symmetry for initial positions (statically):
=====================================================================
 Subroutine PRICEL returns following result:
 
  LATTYP: Found a base centered monoclinic cell.
 ALAT       =     5.3014894565
 B/A-ratio  =     1.0151990000
 C/A-ratio  =     0.7071067812
 COS(beta)  =    -0.6962572945
  
  Lattice vectors:
  
 A1 = (  -2.6506678915,   0.0201827530,  -2.6910333974)
 A2 = (  -2.6506678915,   0.0201827530,   2.6910333974)
 A3 = (   2.6304851385,   2.6708506444,   0.0000000000)
 
  32 primitive cells build up your supercell.
 

 Routine SETGRP: Setting up the symmetry group for a 
 simple monoclinic supercell.


 Subroutine GETGRP returns: Found  4 space group operations
 (whereof  2 operations were pure point group operations)
 out of a pool of  4 trial point group operations.


The static configuration has the point symmetry C_2 .
 The point group associated with its full space group is C_2h.


Analysis of symmetry for dynamics (positions and initial velocities):
=====================================================================
 Subroutine PRICEL returns following result:
 
  LATTYP: Found a base centered monoclinic cell.
 ALAT       =     5.3014894565
 B/A-ratio  =     1.0151990000
 C/A-ratio  =     0.7071067812
 COS(beta)  =    -0.6962572945
  
  Lattice vectors:
  
 A1 = (  -2.6506678915,   0.0201827530,  -2.6910333974)
 A2 = (  -2.6506678915,   0.0201827530,   2.6910333974)
 A3 = (   2.6304851385,   2.6708506444,   0.0000000000)
 
  32 primitive cells build up your supercell.
 

 Routine SETGRP: Setting up the symmetry group for a 
 simple monoclinic supercell.


 Subroutine GETGRP returns: Found  4 space group operations
 (whereof  2 operations were pure point group operations)
 out of a pool of  4 trial point group operations.


The dynamic configuration has the point symmetry C_2 .
 The point group associated with its full space group is C_2h.


 Subroutine INISYM returns: Found  4 space group operations
 (whereof  2 operations are pure point group operations),
 and found    32 'primitive' translations


----------------------------------------------------------------------------------------

                                     Primitive cell                                     

  volume of cell :      38.3883

  direct lattice vectors                    reciprocal lattice vectors
    -2.650667891  0.020182753 -2.691033397    -0.187227658  0.184398020 -0.185802228
    -2.650667891  0.020182753  2.691033397    -0.187227658  0.184398020  0.185802228
     2.630485138  2.670850644  0.000000000     0.002829637  0.371625678 -0.000000000

  length of vectors
     3.777314967  3.777314967  3.748719145     0.321837371  0.321837371  0.371636450

  position of ions in fractional coordinates (direct lattice)
     0.000000000  0.000000000  0.000000000
     0.750000000  0.250000000  0.500000000

  ion indices of the primitive-cell ions
   primitive index   ion index
                 1           1
                 2          15

----------------------------------------------------------------------------------------

 
 
 KPOINTS: Automatic mesh                          

Automatic generation of k-mesh.
 Grid dimensions read from file:
 generate k-points for:    2    2    2

 Generating k-lattice:

  Cartesian coordinates                     Fractional coordinates (reciprocal lattice)
     0.047160619  0.000353705  0.000000000     0.500000000  0.000000000  0.000000000
     0.000353705  0.046453210  0.000000000    -0.000000000  0.500000000  0.000000000
     0.000000000  0.000000000  0.046450557     0.000000000  0.000000000  0.500000000

  Length of vectors
     0.047161945  0.046454556  0.046450557

  Shift w.r.t. Gamma in fractional coordinates (k-lattice)
     0.000000000  0.000000000  0.000000000

 
 Subroutine IBZKPT returns following result:
 ===========================================
 
 Found      8 irreducible k-points:
 
 Following reciprocal coordinates:
            Coordinates               Weight
  0.000000  0.000000  0.000000      1.000000
  0.500000  0.000000  0.000000      1.000000
  0.000000  0.500000  0.000000      1.000000
  0.500000  0.500000  0.000000      1.000000
  0.000000  0.000000  0.500000      1.000000
  0.500000  0.000000  0.500000      1.000000
  0.000000  0.500000  0.500000      1.000000
  0.500000  0.500000  0.500000      1.000000
 
 Following cartesian coordinates:
            Coordinates               Weight
  0.000000  0.000000  0.000000      1.000000
  0.047161  0.000354  0.000000      1.000000
  0.000354  0.046453  0.000000      1.000000
  0.047514  0.046807  0.000000      1.000000
  0.000000  0.000000  0.046451      1.000000
  0.047161  0.000354  0.046451      1.000000
  0.000354  0.046453  0.046451      1.000000
  0.047514  0.046807  0.046451      1.000000
 


--------------------------------------------------------------------------------------------------------




 Dimension of arrays:
   k-points           NKPTS =      8   k-points in BZ     NKDIM =      8   number of bands    NBANDS=    162
   number of dos      NEDOS =    301   number of ions     NIONS =     64
   non local maximal  LDIM  =      4   non local SUM 2l+1 LMDIM =      8
   total plane-waves  NPLWV = 343000
   max r-space proj   IRMAX =   3127   max aug-charges    IRDMAX=  74876
   dimension x,y,z NGX =    70 NGY =   70 NGZ =   70
   dimension x,y,z NGXF=   140 NGYF=  140 NGZF=  140
   support grid    NGXF=   280 NGYF=  280 NGZF=  280
   ions per type =              64
   NGX,Y,Z   is equivalent  to a cutoff of  10.98, 10.81, 10.81 a.u.
   NGXF,Y,Z  is equivalent  to a cutoff of  21.95, 21.62, 21.62 a.u.

 SYSTEM =  Si64                                    
 POSCAR =  Si8                                     

 Startparameter for this run:
   NWRITE =      2    write-flag & timer
   PREC   = accura    normal or accurate (medium, high low for compatibility)
   ISTART =      0    job   : 0-new  1-cont  2-samecut
   ICHARG =      2    charge: 1-file 2-atom 10-const
   ISPIN  =      1    spin polarized calculation?
   LNONCOLLINEAR =      F non collinear calculations
   LSORBIT =      F    spin-orbit coupling
   INIWAV =      1    electr: 0-lowe 1-rand  2-diag
   LASPH  =      F    aspherical Exc in radial PAW
 Electronic Relaxation 1
   ENCUT  =  400.0 eV  29.40 Ry    5.42 a.u.  17.29 17.55 17.55*2*pi/ulx,y,z
   ENINI  =  400.0     initial cutoff
   ENAUG  =  322.1 eV  augmentation charge cutoff
   NELM   =     60;   NELMIN=  8; NELMDL= -5     # of ELM steps 
   EDIFF  = 0.1E-05   stopping-criterion for ELM
   LREAL  =      T    real-space projection
   NLSPLINE    = F    spline interpolate recip. space projectors
   LCOMPAT=      F    compatible to vasp.4.4
   GGA_COMPAT  = F    GGA compatible to vasp.4.4-vasp.4.6
   LMAXPAW     = -100 max onsite density
   LMAXMIX     =    2 max onsite mixed and CHGCAR
   VOSKOWN=      0    Vosko Wilk Nusair interpolation
   ROPT   =   -0.00025
 Ionic relaxation
   EDIFFG = -.1E-01   stopping-criterion for IOM
   NSW    =     60    number of steps for IOM
   NBLOCK =      1;   KBLOCK =     60    inner block; outer block 
   IBRION =      2    ionic relax: 0-MD 1-quasi-New 2-CG
   NFREE  =      1    steps in history (QN), initial steepest desc. (CG)
   ISIF   =      2    stress and relaxation
   IWAVPR =     11    prediction:  0-non 1-charg 2-wave 3-comb
   ISYM   =      2    0-nonsym 1-usesym 2-fastsym
   LCORR  =      T    Harris-Foulkes like correction to forces

   POTIM  = 0.5000    time-step for ionic-motion
   TEIN   =    0.0    initial temperature
   TEBEG  =    0.0;   TEEND  =   0.0 temperature during run
   SMASS  =  -3.00    Nose mass-parameter (am)
   estimated Nose-frequenzy (Omega)   =  0.10E-29 period in steps = 0.13E+47 mass=  -0.257E-26a.u.
   SCALEE = 1.0000    scale energy and forces
   NPACO  =    256;   APACO  = 10.0  distance and # of slots for P.C.
   PSTRESS=    0.0 pullay stress

  Mass of Ions in am
   POMASS =  28.09
  Ionic Valenz
   ZVAL   =   4.00
  Atomic Wigner-Seitz radii
   RWIGS  =  -1.00
  virtual crystal weights 
   VCA    =   1.00
   NELECT =     256.0000    total number of electrons
   NUPDOWN=      -1.0000    fix difference up-down

 DOS related values:
   EMIN   =  10.00;   EMAX   =-10.00  energy-range for DOS
   EFERMI =   0.00;   METHOD = LEGACY      
   ISMEAR =     1;   SIGMA  =   0.20  broadening in eV -4-tet -1-fermi 0-gaus

 Electronic relaxation 2 (details)
   IALGO  =     68    algorithm
   LDIAG  =      T    sub-space diagonalisation (order eigenvalues)
   LSUBROT=      F    optimize rotation matrix (better conditioning)
   TURBO    =      0    0=normal 1=particle mesh
   IRESTART =      0    0=no restart 2=restart with 2 vectors
   NREBOOT  =      0    no. of reboots
   NMIN     =      0    reboot dimension
   EREF     =   0.00    reference energy to select bands
   IMIX   =      4    mixing-type and parameters
     AMIX     =   0.40;   BMIX     =  1.00
     AMIX_MAG =   1.60;   BMIX_MAG =  1.00
     AMIN     =   0.10
     WC   =   100.;   INIMIX=   1;  MIXPRE=   1;  MAXMIX= -45

 Intra band minimization:
   WEIMIN = 0.0010     energy-eigenvalue tresh-hold
   EBREAK =  0.15E-08  absolut break condition
   DEPER  =   0.30     relativ break condition  

   TIME   =   0.40     timestep for ELM

  volume/ion in A,a.u.               =      19.19       129.53
  Fermi-wavevector in a.u.,A,eV,Ry     =   0.970596  1.834161 12.817464  0.942057
  Thomas-Fermi vector in A             =   2.100744
 
 Write flags
   LWAVE        =      F    write WAVECAR
   LDOWNSAMPLE  =      F    k-point downsampling of WAVECAR
   LCHARG       =      F    write CHGCAR
   LVTOT        =      F    write LOCPOT, total local potential
   LVHAR        =      F    write LOCPOT, Hartree potential only
   WRT_POTENTIAL= false  ! write potential to hdf5 file
   LELF         =      F    write electronic localiz. function (ELF)
   LORBIT       =      0    0 simple, 1 ext, 2 COOP (PROOUT), +10 PAW based schemes


 Dipole corrections
   LMONO      =      F    monopole corrections only (constant potential shift)
   LDIPOL     =      F    correct potential (dipole corrections)
   IDIPOL     =      0    1-x, 2-y, 3-z, 4-all directions 
   EPSILON    =  1.0000000 bulk dielectric constant
   LVACPOTAV  =      F  vacuum potentials using an averaging scheme for the charge density
   VACPOTFLAT =  0.1000000 required flatness to determine vacuum potential
 Exchange correlation treatment:
   GGA     = PS    functional components
   XC_C    = 1    coefficients multiplying the functional components
   LIBXC   =     F    Libxc                    
   VOSKOWN =     0    Vosko Wilk Nusair interpolation
   LHFCALC =     F    Hartree Fock is set to
   LHFONE  =     F    Hartree Fock one center treatment
   AEXX    =    0.0000 exact exchange contribution

 Parameters of functionals:
   PS:
     No parameter
 
 Van der Waals corrections
   IVDW    =     0    specifies the selected vdW correction

 Linear response parameters
   LEPSILON=     F    determine dielectric tensor
   LRPA    =     F    only Hartree local field effects (RPA)
   LNABLA  =     F    use nabla operator in PAW spheres
   LVEL    =     F    velocity operator in full k-point grid
   CSHIFT  =0.1000    complex shift for real part using Kramers Kronig
   OMEGAMAX=  -1.0    maximum frequency
   DEG_THRESHOLD= 0.2000000E-02 threshold for treating states as degnerate
   RTIME   =   -0.100 relaxation time in fs
  (WPLASMAI=    0.000 imaginary part of plasma frequency in eV, 0.658/RTIME)
   DFIELD  = 0.0000000 0.0000000 0.0000000 field for delta impulse in time
 
  Optional k-point grid parameters
   LKPOINTS_OPT  =     F    use optional k-point grid
   KPOINTS_OPT_MODE=     1    mode for optional k-point grid
 
 Orbital magnetization related:
   ORBITALMAG=     F  switch on orbital magnetization
   LCHIMAG   =     F  perturbation theory with respect to B field
   DQ        =  0.001000  dq finite difference perturbation B field
   LLRAUG    =     F  two centre corrections for induced B field
   LBONE     =     F  B-component reconstruction in AE one-centre
   LVGVCALC  =     T  calculate vGv susceptibility
   LVGVAPPL  =     F  apply vGv susceptibility instead of pGv for G=0

 Random number generation:
   RANDOM_GENERATOR = DEFAULT
   PCG_SEED         = not used


--------------------------------------------------------------------------------------------------------


 conjugate gradient relaxation of ions
 charge density and potential will be updated during run
 non-spin polarized calculation
 RMM-DIIS sequential band-by-band and
  variant of blocked Davidson during initial phase
 perform sub-space diagonalisation
    before iterative eigenvector-optimisation
 modified Broyden-mixing scheme, WC =      100.0
 initial mixing is a Kerker type mixing with AMIX =  0.4000 and BMIX =      1.0000
 Hartree-type preconditioning will be used
 using additional bands           34
 real space projection scheme for non local part
 use partial core corrections
 calculate Harris-corrections to forces 
   (improved forces if not selfconsistent)
 use gradient corrections 
 use of overlap-Matrix (Vanderbilt PP)
 Methfessel and Paxton  Order N= 1 SIGMA  =   0.20


--------------------------------------------------------------------------------------------------------


  energy-cutoff  :      400.00
  volume of cell :     1228.43
      direct lattice vectors                 reciprocal lattice vectors
    10.602671566 -0.080731012  0.000000000     0.094321238  0.000707409  0.000000000
    -0.080731012 10.764133590  0.000000000     0.000707409  0.092906419  0.000000000
     0.000000000  0.000000000 10.764133590     0.000000000  0.000000000  0.092901114

  length of vectors
    10.602978913 10.764436327 10.764133590     0.094323891  0.092909113  0.092901114


 
 k-points in units of 2pi/SCALE and weight: Automatic mesh                          
   0.00000000  0.00000000  0.00000000       0.125
   0.04716063  0.00035370  0.00000000       0.125
   0.00035370  0.04645322  0.00000000       0.125
   0.04751433  0.04680692  0.00000000       0.125
   0.00000000  0.00000000  0.04645056       0.125
   0.04716063  0.00035370  0.04645056       0.125
   0.00035370  0.04645322  0.04645056       0.125
   0.04751433  0.04680692  0.04645056       0.125
 
 k-points in reciprocal lattice and weights: Automatic mesh                          
   0.00000000  0.00000000  0.00000000       0.125
   0.50000000  0.00000000  0.00000000       0.125
   0.00000000  0.50000000  0.00000000       0.125
   0.50000000  0.50000000  0.00000000       0.125
   0.00000000  0.00000000  0.50000000       0.125
   0.50000000  0.00000000  0.50000000       0.125
   0.00000000  0.50000000  0.50000000       0.125
   0.50000000  0.50000000  0.50000000       0.125
 
 position of ions in fractional coordinates (direct lattice) 
   0.00000000  0.00000000  0.00000000
   0.00000000  0.00000000  0.50000000
   0.00000000  0.50000000  0.00000000
   0.00000000  0.50000000  0.50000000
   0.50000000  0.00000000  0.00000000
   0.50000000  0.00000000  0.50000000
   0.50000000  0.50000000  0.00000000
   0.50000000  0.50000000  0.50000000
   0.37500000  0.37500000  0.12500000
   0.37500000  0.37500000  0.62500000
   0.37500000  0.87500000  0.12500000
   0.37500000  0.87500000  0.62500000
   0.87500000  0.37500000  0.12500000
   0.87500000  0.37500000  0.62500000
   0.87500000  0.87500000  0.12500000
   0.87500000  0.87500000  0.62500000
   0.00000000  0.25000000  0.25000000
   0.00000000  0.25000000  0.75000000
   0.00000000  0.75000000  0.25000000
   0.00000000  0.75000000  0.75000000
   0.50000000  0.25000000  0.25000000
   0.50000000  0.25000000  0.75000000
   0.50000000  0.75000000  0.25000000
   0.50000000  0.75000000  0.75000000
   0.37500000  0.12500000  0.37500000
   0.37500000  0.12500000  0.87500000
   0.37500000  0.62500000  0.37500000
   0.37500000  0.62500000  0.87500000
   0.87500000  0.12500000  0.37500000
   0.87500000  0.12500000  0.87500000
   0.87500000  0.62500000  0.37500000
   0.87500000  0.62500000  0.87500000
   0.25000000  0.00000000  0.25000000
   0.25000000  0.00000000  0.75000000
   0.25000000  0.50000000  0.25000000
   0.25000000  0.50000000  0.75000000
   0.75000000  0.00000000  0.25000000
   0.75000000  0.00000000  0.75000000
   0.75000000  0.50000000  0.25000000
   0.75000000  0.50000000  0.75000000
   0.12500000  0.37500000  0.37500000
   0.12500000  0.37500000  0.87500000
   0.12500000  0.87500000  0.37500000
   0.12500000  0.87500000  0.87500000
   0.62500000  0.37500000  0.37500000
   0.62500000  0.37500000  0.87500000
   0.62500000  0.87500000  0.37500000
   0.62500000  0.87500000  0.87500000
   0.25000000  0.25000000  0.00000000
   0.25000000  0.25000000  0.50000000
   0.25000000  0.75000000  0.00000000
   0.25000000  0.75000000  0.50000000
   0.75000000  0.25000000  0.00000000
   0.75000000  0.25000000  0.50000000
   0.75000000  0.75000000  0.00000000
   0.75000000  0.75000000  0.50000000
   0.12500000  0.12500000  0.12500000
   0.12500000  0.12500000  0.62500000
   0.12500000  0.62500000  0.12500000
   0.12500000  0.62500000  0.62500000
   0.62500000  0.12500000  0.12500000
   0.62500000  0.12500000  0.62500000
   0.62500000  0.62500000  0.12500000
   0.62500000  0.62500000  0.62500000
 
 position of ions in cartesian coordinates  (Angst):
   0.00000000  0.00000000  0.00000000
   0.00000000  0.00000000  5.38206679
  -0.04036551  5.38206679  0.00000000
  -0.04036551  5.38206679  5.38206679
   5.30133578 -0.04036551  0.00000000
   5.30133578 -0.04036551  5.38206679
   5.26097028  5.34170129  0.00000000
   5.26097028  5.34170129  5.38206679
   3.94572771  4.00627597  1.34551670
   3.94572771  4.00627597  6.72758349
   3.90536220  9.38834276  1.34551670
   3.90536220  9.38834276  6.72758349
   9.24706349  3.96591046  1.34551670
   9.24706349  3.96591046  6.72758349
   9.20669798  9.34797726  1.34551670
   9.20669798  9.34797726  6.72758349
  -0.02018275  2.69103340  2.69103340
  -0.02018275  2.69103340  8.07310019
  -0.06054826  8.07310019  2.69103340
  -0.06054826  8.07310019  8.07310019
   5.28115303  2.65066789  2.69103340
   5.28115303  2.65066789  8.07310019
   5.24078752  8.03273469  2.69103340
   5.24078752  8.03273469  8.07310019
   3.96591046  1.31524257  4.03655010
   3.96591046  1.31524257  9.41861689
   3.92554495  6.69730936  4.03655010
   3.92554495  6.69730936  9.41861689
   9.26724624  1.27487706  4.03655010
   9.26724624  1.27487706  9.41861689
   9.22688074  6.65694386  4.03655010
   9.22688074  6.65694386  9.41861689
   2.65066789 -0.02018275  2.69103340
   2.65066789 -0.02018275  8.07310019
   2.61030239  5.36188404  2.69103340
   2.61030239  5.36188404  8.07310019
   7.95200367 -0.06054826  2.69103340
   7.95200367 -0.06054826  8.07310019
   7.91163817  5.32151854  2.69103340
   7.91163817  5.32151854  8.07310019
   1.29505982  4.02645872  4.03655010
   1.29505982  4.02645872  9.41861689
   1.25469431  9.40852551  4.03655010
   1.25469431  9.40852551  9.41861689
   6.59639560  3.98609321  4.03655010
   6.59639560  3.98609321  9.41861689
   6.55603009  9.36816001  4.03655010
   6.55603009  9.36816001  9.41861689
   2.63048514  2.67085064  0.00000000
   2.63048514  2.67085064  5.38206679
   2.59011963  8.05291744  0.00000000
   2.59011963  8.05291744  5.38206679
   7.93182092  2.63048514  0.00000000
   7.93182092  2.63048514  5.38206679
   7.89145542  8.01255193  0.00000000
   7.89145542  8.01255193  5.38206679
   1.31524257  1.33542532  1.34551670
   1.31524257  1.33542532  6.72758349
   1.27487706  6.71749212  1.34551670
   1.27487706  6.71749212  6.72758349
   6.61657835  1.29505982  1.34551670
   6.61657835  1.29505982  6.72758349
   6.57621285  6.67712661  1.34551670
   6.57621285  6.67712661  6.72758349
 


--------------------------------------------------------------------------------------------------------


 k-point     1 :   0.0000 0.0000 0.0000  plane waves:   22361
 k-point     2 :   0.5000 0.0000 0.0000  plane waves:   22328
 k-point     3 :   0.0000 0.5000 0.0000  plane waves:   22322
 k-point     4 :   0.5000 0.5000 0.0000  plane waves:   22294
 k-point     5 :   0.0000 0.0000 0.5000  plane waves:   22324
 k-point     6 :   0.5000 0.0000 0.5000  plane waves:   22336
 k-point     7 :   0.0000 0.5000 0.5000  plane waves:   22296
 k-point     8 :   0.5000 0.5000 0.5000  plane waves:   22308

 maximum and minimum number of plane-waves per node :      1888     1810

 maximum number of plane-waves:     22361
 maximum index in each direction: 
   IXMAX=   17   IYMAX=   17   IZMAX=   17
   IXMIN=  -17   IYMIN=  -18   IZMIN=  -18


 real space projection operators:
  total allocation   :      11981.50 KBytes
  max/ min on nodes  :       1038.50        866.25


 parallel 3D FFT for wavefunctions:
    minimum data exchange during FFTs selected (reduces bandwidth)
 parallel 3D FFT for charge:
    minimum data exchange during FFTs selected (reduces bandwidth)


 total amount of memory used by VASP MPI-rank0    79470. kBytes
=======================================================================

   base      :      30000. kBytes
   nonlr-proj:       4631. kBytes
   fftplans  :      17992. kBytes
   grid      :       6881. kBytes
   one-center:         18. kBytes
   wavefun   :      19948. kBytes
 
     INWAV:  cpu time      0.0000: real time      0.0000
 Broyden mixing: mesh for mixing (old mesh)
   NGX = 35   NGY = 35   NGZ = 35
  (NGX  =140   NGY  =140   NGZ  =140)
  gives a total of  42875 points

 initial charge density was supplied:
 charge density of overlapping atoms calculated
 number of electron     256.0000000 magnetization 
 keeping initial charge density in first step


--------------------------------------------------------------------------------------------------------


 Maximum index for non-local projection operator          280
 Maximum index for augmentation-charges         3710 (set IRDMAX)


--------------------------------------------------------------------------------------------------------


 First call to EWALD:  gamma=   0.165
 Maximum number of real-space cells 3x 3x 3
 Maximum number of reciprocal cells 3x 3x 3

    FEWALD:  cpu time      0.0046: real time      0.0046


--------------------------------------- Ionic step        1  -------------------------------------------




--------------------------------------- Iteration      1(   1)  ---------------------------------------


    POTLOK:  cpu time      0.0919: real time      0.1002
    SETDIJ:  cpu time      0.0851: real time      0.0890
     EDDAV:  cpu time      1.2605: real time      1.3458
       DOS:  cpu time      0.0118: real time      0.0145
    --------------------------------------------
      LOOP:  cpu time      1.4493: real time      1.5495

 eigenvalue-minimisations  :  2592
 total energy-change (2. order) : 0.5689069E+03  (-0.8456420E+04)
 number of electron     256.0000000 magnetization 
 augmentation part      256.0000000 magnetization 

 Free energy of the ion-electron system (eV)
  ---------------------------------------------------
  alpha Z        PSCENC =       112.24468556
  Ewald energy   TEWEN  =     -7416.52526498
  -Hartree energ DENC   =      -332.29735957
  -exchange      EXHF   =         0.00000000
  -V(xc)+E(xc)   XCENC  =      -553.61651345
  PAW double counting   =      5598.62625415    -4492.17844134
  entropy T*S    EENTRO =         0.02915713
  eigenvalues    EBANDS =      1087.82854790
  atomic energy  EATOM  =      6564.79586099
  Solvation  Ediel_sol  =         0.00000000
  ---------------------------------------------------
  free energy    TOTEN  =       568.90692638 eV

  energy without entropy =      568.87776926  energy(sigma->0) =      568.89720734


--------------------------------------------------------------------------------------------------------




--------------------------------------- Iteration      1(   2)  ---------------------------------------


     EDDAV:  cpu time      1.3110: real time      1.3217
       DOS:  cpu time      0.0016: real time      0.0016
    --------------------------------------------
      LOOP:  cpu time      1.3126: real time      1.3233

 eigenvalue-minimisations  :  3080
 total energy-change (2. order) :-0.8787020E+03  (-0.8340948E+03)
 number of electron     256.0000000 magnetization 
 augmentation part      256.0000000 magnetization 

 Free energy of the ion-electron system (eV)
  ---------------------------------------------------
  alpha Z        PSCENC =       112.24468556
  Ewald energy   TEWEN  =     -7416.52526498
  -Hartree energ DENC   =      -332.29735957
  -exchange      EXHF   =         0.00000000
  -V(xc)+E(xc)   XCENC  =      -553.61651345
  PAW double counting   =      5598.62625415    -4492.17844134
  entropy T*S    EENTRO =         0.02332195
  eigenvalues    EBANDS =       209.13238884
  atomic energy  EATOM  =      6564.79586099
  Solvation  Ediel_sol  =         0.00000000
  ---------------------------------------------------
  free energy    TOTEN  =      -309.79506785 eV

  energy without entropy =     -309.81838980  energy(sigma->0) =     -309.80284183


--------------------------------------------------------------------------------------------------------




--------------------------------------- Iteration      1(   3)  ---------------------------------------


     EDDAV:  cpu time      1.3418: real time      1.3577
       DOS:  cpu time      0.0014: real time      0.0014
    --------------------------------------------
      LOOP:  cpu time      1.3433: real time      1.3591

 eigenvalue-minimisations  :  3144
 total energy-change (2. order) :-0.6328793E+02  (-0.6214127E+02)
 number of electron     256.0000000 magnetization 
 augmentation part      256.0000000 magnetization 

 Free energy of the ion-electron system (eV)
  ---------------------------------------------------
  alpha Z        PSCENC =       112.24468556
  Ewald energy   TEWEN  =     -7416.52526498
  -Hartree energ DENC   =      -332.29735957
  -exchange      EXHF   =         0.00000000
  -V(xc)+E(xc)   XCENC  =      -553.61651345
  PAW double counting   =      5598.62625415    -4492.17844134
  entropy T*S    EENTRO =         0.00800029
  eigenvalues    EBANDS =       145.85978474
  atomic energy  EATOM  =      6564.79586099
  Solvation  Ediel_sol  =         0.00000000
  ---------------------------------------------------
  free energy    TOTEN  =      -373.08299361 eV

  energy without entropy =     -373.09099390  energy(sigma->0) =     -373.08566038


--------------------------------------------------------------------------------------------------------




--------------------------------------- Iteration      1(   4)  ---------------------------------------


     EDDAV:  cpu time      1.3132: real time      1.3292
       DOS:  cpu time      0.0014: real time      0.0014
    --------------------------------------------
      LOOP:  cpu time      1.3146: real time      1.3306

 eigenvalue-minimisations  :  3104
 total energy-change (2. order) :-0.1626354E+01  (-0.1614304E+01)
 number of electron     256.0000000 magnetization 
 augmentation part      256.0000000 magnetization 

 Free energy of the ion-electron system (eV)
  ---------------------------------------------------
  alpha Z        PSCENC =       112.24468556
  Ewald energy   TEWEN  =     -7416.52526498
  -Hartree energ DENC   =      -332.29735957
  -exchange      EXHF   =         0.00000000
  -V(xc)+E(xc)   XCENC  =      -553.61651345
  PAW double counting   =      5598.62625415    -4492.17844134
  entropy T*S    EENTRO =         0.00820495
  eigenvalues    EBANDS =       144.23322639
  atomic energy  EATOM  =      6564.79586099
  Solvation  Ediel_sol  =         0.00000000
  ---------------------------------------------------
  free energy    TOTEN  =      -374.70934730 eV

  energy without entropy =     -374.71755225  energy(sigma->0) =     -374.71208229


--------------------------------------------------------------------------------------------------------




--------------------------------------- Iteration      1(   5)  ---------------------------------------


     EDDAV:  cpu time      1.3326: real time      1.3512
       DOS:  cpu time      0.0013: real time      0.0013
    CHARGE:  cpu time      0.2445: real time      0.2479
    MIXING:  cpu time      0.0101: real time      0.0121
    --------------------------------------------
      LOOP:  cpu time      1.5885: real time      1.6125

 eigenvalue-minimisations  :  3158
 total energy-change (2. order) :-0.5378073E-01  (-0.5367769E-01)
 number of electron     256.0000001 magnetization 
 augmentation part      -15.0622097 magnetization 

 Broyden mixing:
  rms(total) = 0.29713E+01    rms(broyden)= 0.29713E+01
  rms(prec ) = 0.32723E+01
  weight for this iteration     100.00

 Free energy of the ion-electron system (eV)
  ---------------------------------------------------
  alpha Z        PSCENC =       112.24468556
  Ewald energy   TEWEN  =     -7416.52526498
  -Hartree energ DENC   =      -332.29735957
  -exchange      EXHF   =         0.00000000
  -V(xc)+E(xc)   XCENC  =      -553.61651345
  PAW double counting   =      5598.62625415    -4492.17844134
  entropy T*S    EENTRO =         0.00820126
  eigenvalues    EBANDS =       144.17944935
  atomic energy  EATOM  =      6564.79586099
  Solvation  Ediel_sol  =         0.00000000
  ---------------------------------------------------
  free energy    TOTEN  =      -374.76312803 eV

  energy without entropy =     -374.77132929  energy(sigma->0) =     -374.76586178


--------------------------------------------------------------------------------------------------------




--------------------------------------- Iteration      1(   6)  ---------------------------------------


    POTLOK:  cpu time      0.0802: real time      0.0960
    SETDIJ:  cpu time      0.0667: real time      0.0670
    EDDIAG:  cpu time      0.1411: real time      0.1428
  RMM-DIIS:  cpu time      0.6936: real time      0.7013
    ORTHCH:  cpu time      0.0206: real time      0.0206
       DOS:  cpu time      0.0014: real time      0.0014
    CHARGE:  cpu time      0.2291: real time      0.2296
    MIXING:  cpu time      0.0088: real time      0.0113
    --------------------------------------------
      LOOP:  cpu time      1.2415: real time      1.2700

 eigenvalue-minimisations  :  2592
 total energy-change (2. order) : 0.5647164E+01  (-0.2915851E+00)
 number of electron     256.0000001 magnetization 
 augmentation part      -14.8858649 magnetization 

 Broyden mixing:
  rms(total) = 0.17905E+01    rms(broyden)= 0.17905E+01
  rms(prec ) = 0.19606E+01
  weight for this iteration     100.00

 eigenvalues of (default mixing * dielectric matrix)
  average eigenvalue GAMMA=   2.5106
  2.5106

 Free energy of the ion-electron system (eV)
  ---------------------------------------------------
  alpha Z        PSCENC =       112.24468556
  Ewald energy   TEWEN  =     -7416.52526498
  -Hartree energ DENC   =      -380.65682331
  -exchange      EXHF   =         0.00000000
  -V(xc)+E(xc)   XCENC  =      -545.96635598
  PAW double counting   =     12928.86429555   -11826.13791268
  entropy T*S    EENTRO =         0.02236594
  eigenvalues    EBANDS =       194.24318468
  atomic energy  EATOM  =      6564.79586099
  Solvation  Ediel_sol  =         0.00000000
  ---------------------------------------------------
  free energy    TOTEN  =      -369.11596423 eV

  energy without entropy =     -369.13833017  energy(sigma->0) =     -369.12341955


--------------------------------------------------------------------------------------------------------




--------------------------------------- Iteration      1(   7)  ---------------------------------------


    POTLOK:  cpu time      0.0737: real time      0.0880
    SETDIJ:  cpu time      0.0711: real time      0.0712
    EDDIAG:  cpu time      0.1383: real time      0.1385
  RMM-DIIS:  cpu time      0.7008: real time      0.7031
    ORTHCH:  cpu time      0.0214: real time      0.0215
       DOS:  cpu time      0.0016: real time      0.0016
    CHARGE:  cpu time      0.2324: real time      0.2328
    MIXING:  cpu time      0.0117: real time      0.0125
    --------------------------------------------
      LOOP:  cpu time      1.2510: real time      1.2693

 eigenvalue-minimisations  :  2645
 total energy-change (2. order) : 0.2495567E+01  (-0.7401227E+00)
 number of electron     256.0000001 magnetization 
 augmentation part      -14.6375632 magnetization 

 Broyden mixing:
  rms(total) = 0.10808E+00    rms(broyden)= 0.10808E+00
  rms(prec ) = 0.13594E+00
  weight for this iteration     100.00

 eigenvalues of (default mixing * dielectric matrix)
  average eigenvalue GAMMA=   2.2864
  2.2864  2.2864

 Free energy of the ion-electron system (eV)
  ---------------------------------------------------
  alpha Z        PSCENC =       112.24468556
  Ewald energy   TEWEN  =     -7416.52526498
  -Hartree energ DENC   =      -460.35217925
  -exchange      EXHF   =         0.00000000
  -V(xc)+E(xc)   XCENC  =      -532.77864234
  PAW double counting   =     30829.77883788   -29732.24291909
  entropy T*S    EENTRO =         0.02736695
  eigenvalues    EBANDS =       268.43185670
  atomic energy  EATOM  =      6564.79586099
  Solvation  Ediel_sol  =         0.00000000
  ---------------------------------------------------
  free energy    TOTEN  =      -366.62039757 eV

  energy without entropy =     -366.64776452  energy(sigma->0) =     -366.62951989


--------------------------------------------------------------------------------------------------------




--------------------------------------- Iteration      1(   8)  ---------------------------------------


    POTLOK:  cpu time      0.0733: real time      0.0866
    SETDIJ:  cpu time      0.0784: real time      0.0786
    EDDIAG:  cpu time      0.1336: real time      0.1339
  RMM-DIIS:  cpu time      0.7043: real time      0.7059
    ORTHCH:  cpu time      0.0216: real time      0.0216
       DOS:  cpu time      0.0014: real time      0.0014
    CHARGE:  cpu time      0.2448: real time      0.2458
    MIXING:  cpu time      0.0119: real time      0.0119
    --------------------------------------------
      LOOP:  cpu time      1.2692: real time      1.2858

 eigenvalue-minimisations  :  2622
 total energy-change (2. order) :-0.3872364E-01  (-0.7025970E-01)
 number of electron     256.0000001 magnetization 
 augmentation part      -14.6930154 magnetization 

 Broyden mixing:
  rms(total) = 0.52242E-01    rms(broyden)= 0.52242E-01
  rms(prec ) = 0.55822E-01
  weight for this iteration     100.00

 eigenvalues of (default mixing * dielectric matrix)
  average eigenvalue GAMMA=   2.1007
  2.5528  1.8746  1.8746

 Free energy of the ion-electron system (eV)
  ---------------------------------------------------
  alpha Z        PSCENC =       112.24468556
  Ewald energy   TEWEN  =     -7416.52526498
  -Hartree energ DENC   =      -451.98744813
  -exchange      EXHF   =         0.00000000
  -V(xc)+E(xc)   XCENC  =      -533.47199899
  PAW double counting   =     30537.60194282   -29439.06572749
  entropy T*S    EENTRO =         0.02962793
  eigenvalues    EBANDS =       259.71920107
  atomic energy  EATOM  =      6564.79586099
  Solvation  Ediel_sol  =         0.00000000
  ---------------------------------------------------
  free energy    TOTEN  =      -366.65912122 eV

  energy without entropy =     -366.68874914  energy(sigma->0) =     -366.66899719


--------------------------------------------------------------------------------------------------------




--------------------------------------- Iteration      1(   9)  ---------------------------------------


    POTLOK:  cpu time      0.0770: real time      0.0886
    SETDIJ:  cpu time      0.0677: real time      0.0714
    EDDIAG:  cpu time      0.1309: real time      0.1323
  RMM-DIIS:  cpu time      0.7146: real time      0.7241
    ORTHCH:  cpu time      0.0213: real time      0.0214
       DOS:  cpu time      0.0014: real time      0.0013
    CHARGE:  cpu time      0.2288: real time      0.2292
    MIXING:  cpu time      0.0119: real time      0.0119
    --------------------------------------------
      LOOP:  cpu time      1.2537: real time      1.2802

 eigenvalue-minimisations  :  2671
 total energy-change (2. order) :-0.2160327E-01  (-0.2041044E-01)
 number of electron     256.0000001 magnetization 
 augmentation part      -14.6802886 magnetization 

 Broyden mixing:
  rms(total) = 0.59516E-01    rms(broyden)= 0.59516E-01
  rms(prec ) = 0.67113E-01
  weight for this iteration     100.00

 eigenvalues of (default mixing * dielectric matrix)
  average eigenvalue GAMMA=   1.7507
  2.5475  2.1013  2.1013  0.2528

 Free energy of the ion-electron system (eV)
  ---------------------------------------------------
  alpha Z        PSCENC =       112.24468556
  Ewald energy   TEWEN  =     -7416.52526498
  -Hartree energ DENC   =      -455.06893354
  -exchange      EXHF   =         0.00000000
  -V(xc)+E(xc)   XCENC  =      -533.05379824
  PAW double counting   =     30931.37848228   -29833.10084084
  entropy T*S    EENTRO =         0.02922573
  eigenvalues    EBANDS =       262.61985854
  atomic energy  EATOM  =      6564.79586099
  Solvation  Ediel_sol  =         0.00000000
  ---------------------------------------------------
  free energy    TOTEN  =      -366.68072449 eV

  energy without entropy =     -366.70995022  energy(sigma->0) =     -366.69046640


--------------------------------------------------------------------------------------------------------




--------------------------------------- Iteration      1(  10)  ---------------------------------------


    POTLOK:  cpu time      0.0722: real time      0.0875
    SETDIJ:  cpu time      0.0749: real time      0.0750
    EDDIAG:  cpu time      0.1342: real time      0.1346
  RMM-DIIS:  cpu time      0.7351: real time      0.7373
    ORTHCH:  cpu time      0.0208: real time      0.0208
       DOS:  cpu time      0.0018: real time      0.0018
    CHARGE:  cpu time      0.2287: real time      0.2291
    MIXING:  cpu time      0.0113: real time      0.0113
    --------------------------------------------
      LOOP:  cpu time      1.2789: real time      1.2974

 eigenvalue-minimisations  :  2728
 total energy-change (2. order) :-0.4019087E-02  (-0.3538753E-02)
 number of electron     256.0000001 magnetization 
 augmentation part      -14.6863459 magnetization 

 Broyden mixing:
  rms(total) = 0.82048E-01    rms(broyden)= 0.82048E-01
  rms(prec ) = 0.88968E-01
  weight for this iteration     100.00

 eigenvalues of (default mixing * dielectric matrix)
  average eigenvalue GAMMA=   1.5992
  2.6833  2.2399  1.7764  0.6482  0.6482

 Free energy of the ion-electron system (eV)
  ---------------------------------------------------
  alpha Z        PSCENC =       112.24468556
  Ewald energy   TEWEN  =     -7416.52526498
  -Hartree energ DENC   =      -455.25321744
  -exchange      EXHF   =         0.00000000
  -V(xc)+E(xc)   XCENC  =      -533.03310572
  PAW double counting   =     30975.64373313   -29877.37373523
  entropy T*S    EENTRO =         0.02918167
  eigenvalues    EBANDS =       262.78711843
  atomic energy  EATOM  =      6564.79586099
  Solvation  Ediel_sol  =         0.00000000
  ---------------------------------------------------
  free energy    TOTEN  =      -366.68474357 eV

  energy without entropy =     -366.71392525  energy(sigma->0) =     -366.69447080


--------------------------------------------------------------------------------------------------------




--------------------------------------- Iteration      1(  11)  ---------------------------------------


    POTLOK:  cpu time      0.0789: real time      0.0947
    SETDIJ:  cpu time      0.0693: real time      0.0695
    EDDIAG:  cpu time      0.1338: real time      0.1347
  RMM-DIIS:  cpu time      0.7121: real time      0.7257
    ORTHCH:  cpu time      0.0213: real time      0.0214
       DOS:  cpu time      0.0016: real time      0.0016
    CHARGE:  cpu time      0.2293: real time      0.2303
    MIXING:  cpu time      0.0108: real time      0.0108
    --------------------------------------------
      LOOP:  cpu time      1.2572: real time      1.2886

 eigenvalue-minimisations  :  2592
 total energy-change (2. order) : 0.3620201E-02  (-0.1307165E-02)
 number of electron     256.0000001 magnetization 
 augmentation part      -14.7005524 magnetization 

 Broyden mixing:
  rms(total) = 0.60790E-01    rms(broyden)= 0.60790E-01
  rms(prec ) = 0.61314E-01
  weight for this iteration     100.00

 eigenvalues of (default mixing * dielectric matrix)
  average eigenvalue GAMMA=   1.4739
  2.5836  2.5836  1.2681  1.2681  0.8176  0.3224

 Free energy of the ion-electron system (eV)
  ---------------------------------------------------
  alpha Z        PSCENC =       112.24468556
  Ewald energy   TEWEN  =     -7416.52526498
  -Hartree energ DENC   =      -452.68401679
  -exchange      EXHF   =         0.00000000
  -V(xc)+E(xc)   XCENC  =      -533.22214206
  PAW double counting   =     30880.79502578   -29782.27171581
  entropy T*S    EENTRO =         0.02972698
  eigenvalues    EBANDS =       260.15671694
  atomic energy  EATOM  =      6564.79586099
  Solvation  Ediel_sol  =         0.00000000
  ---------------------------------------------------
  free energy    TOTEN  =      -366.68112337 eV

  energy without entropy =     -366.71085036  energy(sigma->0) =     -366.69103237


--------------------------------------------------------------------------------------------------------




--------------------------------------- Iteration      1(  12)  ---------------------------------------


    POTLOK:  cpu time      0.0780: real time      0.0962
    SETDIJ:  cpu time      0.0681: real time      0.0683
    EDDIAG:  cpu time      0.1329: real time      0.1333
  RMM-DIIS:  cpu time      0.6863: real time      0.6885
    ORTHCH:  cpu time      0.0208: real time      0.0208
       DOS:  cpu time      0.0015: real time      0.0015
    CHARGE:  cpu time      0.2289: real time      0.2293
    MIXING:  cpu time      0.0112: real time      0.0112
    --------------------------------------------
      LOOP:  cpu time      1.2278: real time      1.2491

 eigenvalue-minimisations  :  2611
 total energy-change (2. order) :-0.1717780E-03  (-0.1826761E-03)
 number of electron     256.0000001 magnetization 
 augmentation part      -14.7037416 magnetization 

 Broyden mixing:
  rms(total) = 0.58385E-01    rms(broyden)= 0.58385E-01
  rms(prec ) = 0.58704E-01
  weight for this iteration     100.00

 eigenvalues of (default mixing * dielectric matrix)
  average eigenvalue GAMMA=   1.4201
  2.5851  2.5851  0.7866  1.5939  1.1076  0.8572  0.4249

 Free energy of the ion-electron system (eV)
  ---------------------------------------------------
  alpha Z        PSCENC =       112.24468556
  Ewald energy   TEWEN  =     -7416.52526498
  -Hartree energ DENC   =      -452.52954540
  -exchange      EXHF   =         0.00000000
  -V(xc)+E(xc)   XCENC  =      -533.24971931
  PAW double counting   =     30796.71695509   -29698.20424948
  entropy T*S    EENTRO =         0.02973789
  eigenvalues    EBANDS =       260.04024448
  atomic energy  EATOM  =      6564.79586099
  Solvation  Ediel_sol  =         0.00000000
  ---------------------------------------------------
  free energy    TOTEN  =      -366.68129515 eV

  energy without entropy =     -366.71103304  energy(sigma->0) =     -366.69120778


--------------------------------------------------------------------------------------------------------




--------------------------------------- Iteration      1(  13)  ---------------------------------------


    POTLOK:  cpu time      0.0726: real time      0.0887
    SETDIJ:  cpu time      0.0705: real time      0.0707
    EDDIAG:  cpu time      0.1301: real time      0.1305
  RMM-DIIS:  cpu time      0.7072: real time      0.7095
    ORTHCH:  cpu time      0.0209: real time      0.0209
       DOS:  cpu time      0.0015: real time      0.0015
    CHARGE:  cpu time      0.2283: real time      0.2287
    MIXING:  cpu time      0.0114: real time      0.0114
    --------------------------------------------
      LOOP:  cpu time      1.2426: real time      1.2621

 eigenvalue-minimisations  :  2732
 total energy-change (2. order) :-0.6028876E-04  (-0.3462960E-04)
 number of electron     256.0000001 magnetization 
 augmentation part      -14.7042591 magnetization 

 Broyden mixing:
  rms(total) = 0.68147E-01    rms(broyden)= 0.68147E-01
  rms(prec ) = 0.68451E-01
  weight for this iteration     100.00

 eigenvalues of (default mixing * dielectric matrix)
  average eigenvalue GAMMA=   1.6603
  2.8289  2.8289  2.4279  2.0432  0.9881  0.8507  0.8507  0.4643

 Free energy of the ion-electron system (eV)
  ---------------------------------------------------
  alpha Z        PSCENC =       112.24468556
  Ewald energy   TEWEN  =     -7416.52526498
  -Hartree energ DENC   =      -452.58174126
  -exchange      EXHF   =         0.00000000
  -V(xc)+E(xc)   XCENC  =      -533.23621248
  PAW double counting   =     30869.57236832   -29771.05963265
  entropy T*S    EENTRO =         0.02973886
  eigenvalues    EBANDS =       260.07884220
  atomic energy  EATOM  =      6564.79586099
  Solvation  Ediel_sol  =         0.00000000
  ---------------------------------------------------
  free energy    TOTEN  =      -366.68135544 eV

  energy without entropy =     -366.71109430  energy(sigma->0) =     -366.69126839


--------------------------------------------------------------------------------------------------------




--------------------------------------- Iteration      1(  14)  ---------------------------------------


    POTLOK:  cpu time      0.0789: real time      0.0956
    SETDIJ:  cpu time      0.0686: real time      0.0687
    EDDIAG:  cpu time      0.1613: real time      0.1641
  RMM-DIIS:  cpu time      0.6935: real time      0.6959
    ORTHCH:  cpu time      0.0207: real time      0.0207
       DOS:  cpu time      0.0013: real time      0.0013
    CHARGE:  cpu time      0.2288: real time      0.2294
    MIXING:  cpu time      0.0114: real time      0.0115
    --------------------------------------------
      LOOP:  cpu time      1.2646: real time      1.2872

 eigenvalue-minimisations  :  2602
 total energy-change (2. order) :-0.2875364E-04  (-0.9452450E-05)
 number of electron     256.0000001 magnetization 
 augmentation part      -14.7044458 magnetization 

 Broyden mixing:
  rms(total) = 0.26690E-01    rms(broyden)= 0.26690E-01
  rms(prec ) = 0.26963E-01
  weight for this iteration     100.00

 eigenvalues of (default mixing * dielectric matrix)
  average eigenvalue GAMMA=   1.4785
  2.5780  2.5780  2.4312  1.9296  0.9639  0.9639  0.8883  0.4869  0.4869

 Free energy of the ion-electron system (eV)
  ---------------------------------------------------
  alpha Z        PSCENC =       112.24468556
  Ewald energy   TEWEN  =     -7416.52526498
  -Hartree energ DENC   =      -452.40520641
  -exchange      EXHF   =         0.00000000
  -V(xc)+E(xc)   XCENC  =      -533.27912363
  PAW double counting   =     30544.90462950   -29446.41682628
  entropy T*S    EENTRO =         0.02974454
  eigenvalues    EBANDS =       259.97011650
  atomic energy  EATOM  =      6564.79586099
  Solvation  Ediel_sol  =         0.00000000
  ---------------------------------------------------
  free energy    TOTEN  =      -366.68138419 eV

  energy without entropy =     -366.71112873  energy(sigma->0) =     -366.69129904


--------------------------------------------------------------------------------------------------------




--------------------------------------- Iteration      1(  15)  ---------------------------------------


    POTLOK:  cpu time      0.0710: real time      0.0886
    SETDIJ:  cpu time      0.0676: real time      0.0706
    EDDIAG:  cpu time      0.1322: real time      0.1349
  RMM-DIIS:  cpu time      0.6812: real time      0.7036
    ORTHCH:  cpu time      0.0212: real time      0.0218
       DOS:  cpu time      0.0012: real time      0.0012
    CHARGE:  cpu time      0.2277: real time      0.2313
    MIXING:  cpu time      0.0102: real time      0.0103
    --------------------------------------------
      LOOP:  cpu time      1.2123: real time      1.2624

 eigenvalue-minimisations  :  2638
 total energy-change (2. order) :-0.5431105E-04  (-0.3215837E-05)
 number of electron     256.0000001 magnetization 
 augmentation part      -14.7046767 magnetization 

 Broyden mixing:
  rms(total) = 0.22275E-01    rms(broyden)= 0.22275E-01
  rms(prec ) = 0.22462E-01
  weight for this iteration     100.00

 eigenvalues of (default mixing * dielectric matrix)
  average eigenvalue GAMMA=   1.4397
  2.6587  2.6587  2.3467  1.7520  0.9865  0.9865  0.8741  0.8328  0.8328  0.4685

 Free energy of the ion-electron system (eV)
  ---------------------------------------------------
  alpha Z        PSCENC =       112.24468556
  Ewald energy   TEWEN  =     -7416.52526498
  -Hartree energ DENC   =      -452.39632522
  -exchange      EXHF   =         0.00000000
  -V(xc)+E(xc)   XCENC  =      -533.27505658
  PAW double counting   =     30542.02718492   -29443.53583943
  entropy T*S    EENTRO =         0.02976051
  eigenvalues    EBANDS =       259.95355572
  atomic energy  EATOM  =      6564.79586099
  Solvation  Ediel_sol  =         0.00000000
  ---------------------------------------------------
  free energy    TOTEN  =      -366.68143851 eV

  energy without entropy =     -366.71119902  energy(sigma->0) =     -366.69135868


--------------------------------------------------------------------------------------------------------




--------------------------------------- Iteration      1(  16)  ---------------------------------------


    POTLOK:  cpu time      0.0778: real time      0.0962
    SETDIJ:  cpu time      0.0667: real time      0.0672
    EDDIAG:  cpu time      0.1374: real time      0.1377
  RMM-DIIS:  cpu time      0.6890: real time      0.6915
    ORTHCH:  cpu time      0.0208: real time      0.0208
       DOS:  cpu time      0.0015: real time      0.0015
    CHARGE:  cpu time      0.2323: real time      0.2328
    MIXING:  cpu time      0.0111: real time      0.0111
    --------------------------------------------
      LOOP:  cpu time      1.2365: real time      1.2587

 eigenvalue-minimisations  :  2592
 total energy-change (2. order) :-0.3646368E-04  (-0.2533257E-05)
 number of electron     256.0000001 magnetization 
 augmentation part      -14.7042510 magnetization 

 Broyden mixing:
  rms(total) = 0.12792E-01    rms(broyden)= 0.12792E-01
  rms(prec ) = 0.12860E-01
  weight for this iteration     100.00

 eigenvalues of (default mixing * dielectric matrix)
  average eigenvalue GAMMA=   1.3198
  2.6567  2.6567  2.3515  1.7345  0.8451  0.8451  0.9887  0.9887  0.8760  0.4694
  0.1055

 Free energy of the ion-electron system (eV)
  ---------------------------------------------------
  alpha Z        PSCENC =       112.24468556
  Ewald energy   TEWEN  =     -7416.52526498
  -Hartree energ DENC   =      -452.51972238
  -exchange      EXHF   =         0.00000000
  -V(xc)+E(xc)   XCENC  =      -533.26429118
  PAW double counting   =     30514.46060858   -29415.97182576
  entropy T*S    EENTRO =         0.02976622
  eigenvalues    EBANDS =       260.06870797
  atomic energy  EATOM  =      6564.79586099
  Solvation  Ediel_sol  =         0.00000000
  ---------------------------------------------------
  free energy    TOTEN  =      -366.68147497 eV

  energy without entropy =     -366.71124119  energy(sigma->0) =     -366.69139704


--------------------------------------------------------------------------------------------------------




--------------------------------------- Iteration      1(  17)  ---------------------------------------


    POTLOK:  cpu time      0.0764: real time      0.0947
    SETDIJ:  cpu time      0.0651: real time      0.0677
    EDDIAG:  cpu time      0.1334: real time      0.1361
  RMM-DIIS:  cpu time      0.6607: real time      0.6817
    ORTHCH:  cpu time      0.0207: real time      0.0214
       DOS:  cpu time      0.0016: real time      0.0016
    CHARGE:  cpu time      0.2317: real time      0.2347
    MIXING:  cpu time      0.0077: real time      0.0078
    --------------------------------------------
      LOOP:  cpu time      1.1973: real time      1.2456

 eigenvalue-minimisations  :  2555
 total energy-change (2. order) :-0.5366657E-05  (-0.7088940E-06)
 number of electron     256.0000001 magnetization 
 augmentation part      -14.7040424 magnetization 

 Broyden mixing:
  rms(total) = 0.37102E-02    rms(broyden)= 0.37101E-02
  rms(prec ) = 0.37467E-02
  weight for this iteration     100.00

 eigenvalues of (default mixing * dielectric matrix)
  average eigenvalue GAMMA=   1.6451
  2.3750  2.3750  2.6836  2.6836  2.5105  1.8663  1.0482  1.0482  0.9343  0.8710
  0.8710  0.4740

 Free energy of the ion-electron system (eV)
  ---------------------------------------------------
  alpha Z        PSCENC =       112.24468556
  Ewald energy   TEWEN  =     -7416.52526498
  -Hartree energ DENC   =      -452.53598334
  -exchange      EXHF   =         0.00000000
  -V(xc)+E(xc)   XCENC  =      -533.26838577
  PAW double counting   =     30455.91598101   -29357.42807557
  entropy T*S    EENTRO =         0.02976940
  eigenvalues    EBANDS =       260.08993236
  atomic energy  EATOM  =      6564.79586099
  Solvation  Ediel_sol  =         0.00000000
  ---------------------------------------------------
  free energy    TOTEN  =      -366.68148034 eV

  energy without entropy =     -366.71124974  energy(sigma->0) =     -366.69140347


--------------------------------------------------------------------------------------------------------




--------------------------------------- Iteration      1(  18)  ---------------------------------------


    POTLOK:  cpu time      0.0803: real time      0.0964
    SETDIJ:  cpu time      0.0670: real time      0.0674
    EDDIAG:  cpu time      0.1318: real time      0.1321
  RMM-DIIS:  cpu time      0.4541: real time      0.4559
    ORTHCH:  cpu time      0.0212: real time      0.0212
       DOS:  cpu time      0.0014: real time      0.0014
    CHARGE:  cpu time      0.2292: real time      0.2298
    MIXING:  cpu time      0.0119: real time      0.0119
    --------------------------------------------
      LOOP:  cpu time      0.9968: real time      1.0162

 eigenvalue-minimisations  :  1582
 total energy-change (2. order) :-0.1327568E-05  (-0.1528965E-06)
 number of electron     256.0000001 magnetization 
 augmentation part      -14.7039189 magnetization 

 Broyden mixing:
  rms(total) = 0.67567E-03    rms(broyden)= 0.67557E-03
  rms(prec ) = 0.70717E-03
  weight for this iteration     100.00

 eigenvalues of (default mixing * dielectric matrix)
  average eigenvalue GAMMA=   1.7297
  3.5635  3.5635  2.3780  2.1998  2.1998  1.6412  1.6412  1.2455  0.4742  1.0140
  0.8647  0.8647  0.8360

 Free energy of the ion-electron system (eV)
  ---------------------------------------------------
  alpha Z        PSCENC =       112.24468556
  Ewald energy   TEWEN  =     -7416.52526498
  -Hartree energ DENC   =      -452.55067247
  -exchange      EXHF   =         0.00000000
  -V(xc)+E(xc)   XCENC  =      -533.26872400
  PAW double counting   =     30436.87717092   -29338.38974342
  entropy T*S    EENTRO =         0.02976966
  eigenvalues    EBANDS =       260.10543607
  atomic energy  EATOM  =      6564.79586099
  Solvation  Ediel_sol  =         0.00000000
  ---------------------------------------------------
  free energy    TOTEN  =      -366.68148166 eV

  energy without entropy =     -366.71125132  energy(sigma->0) =     -366.69140488


--------------------------------------------------------------------------------------------------------




--------------------------------------- Iteration      1(  19)  ---------------------------------------


    POTLOK:  cpu time      0.0801: real time      0.0968
    SETDIJ:  cpu time      0.0672: real time      0.0674
    EDDIAG:  cpu time      0.1353: real time      0.1356
  RMM-DIIS:  cpu time      0.4427: real time      0.4448
    ORTHCH:  cpu time      0.0208: real time      0.0208
       DOS:  cpu time      0.0016: real time      0.0016
    --------------------------------------------
      LOOP:  cpu time      0.7475: real time      0.7669

 eigenvalue-minimisations  :  1556
 total energy-change (2. order) :-0.1976159E-06  (-0.7375602E-07)
 number of electron     256.0000001 magnetization 
 augmentation part      -14.7039189 magnetization 

 Free energy of the ion-electron system (eV)
  ---------------------------------------------------
  alpha Z        PSCENC =       112.24468556
  Ewald energy   TEWEN  =     -7416.52526498
  -Hartree energ DENC   =      -452.56953747
  -exchange      EXHF   =         0.00000000
  -V(xc)+E(xc)   XCENC  =      -533.26703860
  PAW double counting   =     30437.58662175   -29339.09881987
  entropy T*S    EENTRO =         0.02976998
  eigenvalues    EBANDS =       260.12224078
  atomic energy  EATOM  =      6564.79586099
  Solvation  Ediel_sol  =         0.00000000
  ---------------------------------------------------
  free energy    TOTEN  =      -366.68148186 eV

  energy without entropy =     -366.71125184  energy(sigma->0) =     -366.69140519


--------------------------------------------------------------------------------------------------------




 average (electrostatic) potential at core
  the test charge radii are     0.9892
  (the norm of the test charge is              1.0000)
       1 -82.5536       2 -82.5536       3 -82.5536       4 -82.5536       5 -82.5536
       6 -82.5536       7 -82.5536       8 -82.5536       9 -82.5536      10 -82.5536
      11 -82.5536      12 -82.5536      13 -82.5536      14 -82.5536      15 -82.5536
      16 -82.5536      17 -82.5536      18 -82.5536      19 -82.5536      20 -82.5536
      21 -82.5536      22 -82.5536      23 -82.5536      24 -82.5536      25 -82.5536
      26 -82.5536      27 -82.5536      28 -82.5536      29 -82.5536      30 -82.5536
      31 -82.5536      32 -82.5536      33 -82.5536      34 -82.5536      35 -82.5536
      36 -82.5536      37 -82.5536      38 -82.5536      39 -82.5536      40 -82.5536
      41 -82.5536      42 -82.5536      43 -82.5536      44 -82.5536      45 -82.5536
      46 -82.5536      47 -82.5536      48 -82.5536      49 -82.5536      50 -82.5536
      51 -82.5536      52 -82.5536      53 -82.5536      54 -82.5536      55 -82.5536
      56 -82.5536      57 -82.5536      58 -82.5536      59 -82.5536      60 -82.5536
      61 -82.5536      62 -82.5536      63 -82.5536      64 -82.5536
 
 
 
 E-fermi :   6.4582     XC(G=0):  -9.7152     alpha+bet :-12.4957

 val. band max:        6.3054368799   @ k =   0.0000   0.0000   0.0000
 cond. band min:       6.5674451379   @ k =   0.5000   0.0000   0.0000
 fundamental gap:      0.2620082580
 Fermi energy:         6.4582209171

 k-point     1 :       0.0000    0.0000    0.0000
  band No.  band energies     occupation 
      1      -6.0599      2.00000
      2      -4.9437      2.00000
      3      -4.9437      2.00000
      4      -4.9433      2.00000
      5      -4.9433      2.00000
      6      -4.9139      2.00000
      7      -4.9139      2.00000
      8      -3.9622      2.00000
      9      -3.9622      2.00000
     10      -3.9380      2.00000
     11      -3.9380      2.00000
     12      -3.9380      2.00000
     13      -3.9380      2.00000
     14      -3.9169      2.00000
     15      -3.9169      2.00000
     16      -3.9169      2.00000
     17      -3.9169      2.00000
     18      -3.8704      2.00000
     19      -3.8704      2.00000
     20      -3.6522      2.00000
     21      -3.6522      2.00000
     22      -3.5470      2.00000
     23      -3.5470      2.00000
     24      -1.8359      2.00000
     25      -1.7739      2.00000
     26      -1.7739      2.00000
     27      -1.7139      2.00000
     28      -1.6784      2.00000
     29      -1.6784      2.00000
     30      -1.6431      2.00000
     31      -1.6431      2.00000
     32      -1.6110      2.00000
     33      -1.6110      2.00000
     34      -1.5414      2.00000
     35      -1.5414      2.00000
     36      -1.5414      2.00000
     37      -1.5414      2.00000
     38      -1.5025      2.00000
     39      -1.5025      2.00000
     40      -1.4718      2.00000
     41      -1.4718      2.00000
     42      -1.0034      2.00000
     43      -1.0034      2.00000
     44      -0.9837      2.00000
     45      -0.9837      2.00000
     46       0.6076      2.00000
     47       0.6076      2.00000
     48       0.6350      2.00000
     49       0.6350      2.00000
     50       0.6350      2.00000
     51       0.6350      2.00000
     52       0.6606      2.00000
     53       0.6606      2.00000
     54       0.6926      2.00000
     55       0.6926      2.00000
     56       0.6926      2.00000
     57       0.6926      2.00000
     58       2.1283      2.00000
     59       2.1283      2.00000
     60       2.1310      2.00000
     61       2.1310      2.00000
     62       2.1381      2.00000
     63       2.1381      2.00000
     64       2.1407      2.00000
     65       2.1407      2.00000
     66       2.1407      2.00000
     67       2.1407      2.00000
     68       2.1419      2.00000
     69       2.1419      2.00000
     70       2.2107      2.00000
     71       2.2107      2.00000
     72       2.2288      2.00000
     73       2.2288      2.00000
     74       2.2288      2.00000
     75       2.2288      2.00000
     76       2.2455      2.00000
     77       2.2455      2.00000
     78       2.3162      2.00000
     79       2.3162      2.00000
     80       2.3162      2.00000
     81       2.3162      2.00000
     82       2.6747      2.00000
     83       2.6747      2.00000
     84       2.6782      2.00000
     85       2.6782      2.00000
     86       2.7889      2.00000
     87       2.7889      2.00000
     88       3.1616      2.00000
     89       3.1616      2.00000
     90       3.1961      2.00000
     91       3.2821      2.00000
     92       3.2821      2.00000
     93       3.3692      2.00000
     94       4.1771      2.00000
     95       4.1771      2.00000
     96       4.1771      2.00000
     97       4.1771      2.00000
     98       4.1939      2.00000
     99       4.1939      2.00000
    100       4.2536      2.00000
    101       4.2536      2.00000
    102       4.2871      2.00000
    103       4.2871      2.00000
    104       4.3496      2.00000
    105       4.3496      2.00000
    106       4.7607      2.00000
    107       4.7607      2.00000
    108       4.7607      2.00000
    109       4.7607      2.00000
    110       4.8438      2.00000
    111       4.8438      2.00000
    112       4.8740      2.00000
    113       4.8740      2.00000
    114       4.8841      2.00000
    115       4.8841      2.00000
    116       4.8841      2.00000
    117       4.8841      2.00000
    118       4.9269      2.00000
    119       4.9269      2.00000
    120       4.9530      2.00000
    121       4.9530      2.00000
    122       5.0265      2.00000
    123       5.0265      2.00000
    124       5.0996      2.00000
    125       5.0996      2.00000
    126       6.1892      2.06715
    127       6.1915      2.06779
    128       6.3054      1.96046
    129       6.6484     -0.03852
    130       6.6484     -0.03852
    131       6.6819     -0.06691
    132       6.7720     -0.04903
    133       6.7720     -0.04903
    134       6.8642     -0.01451
    135       7.1394     -0.00002
    136       7.1394     -0.00002
    137       7.2618     -0.00000
    138       7.2618     -0.00000
    139       7.2624     -0.00000
    140       7.2624     -0.00000
    141       7.7625     -0.00000
    142       7.7625     -0.00000
    143       7.9012     -0.00000
    144       7.9012     -0.00000
    145       8.5145     -0.00000
    146       8.5145     -0.00000
    147       8.5150     -0.00000
    148       8.5163     -0.00000
    149       8.6080     -0.00000
    150       8.6085     -0.00000
    151       8.6304     -0.00000
    152       8.6586     -0.00000
    153       8.6589     -0.00000
    154       8.6596     -0.00000
    155       8.6620     -0.00000
    156       8.7145     -0.00000
    157       8.7153     -0.00000
    158       8.7621     -0.00000
    159       8.8861     -0.00000
    160       9.2287     -0.00000
    161       9.2687     -0.00000
    162       9.3007     -0.00000

 k-point     2 :       0.5000    0.0000    0.0000
  band No.  band energies     occupation 
      1      -5.7708      2.00000
      2      -5.7708      2.00000
      3      -4.7020      2.00000
      4      -4.7020      2.00000
      5      -4.6795      2.00000
      6      -4.6795      2.00000
      7      -4.6795      2.00000
      8      -4.6795      2.00000
      9      -4.6561      2.00000
     10      -4.6561      2.00000
     11      -3.8193      2.00000
     12      -3.8193      2.00000
     13      -3.8193      2.00000
     14      -3.8193      2.00000
     15      -3.7564      2.00000
     16      -3.7564      2.00000
     17      -3.7564      2.00000
     18      -3.7564      2.00000
     19      -3.5250      2.00000
     20      -3.5250      2.00000
     21      -2.8413      2.00000
     22      -2.8413      2.00000
     23      -2.7759      2.00000
     24      -2.7759      2.00000
     25      -2.7759      2.00000
     26      -2.7759      2.00000
     27      -2.7091      2.00000
     28      -2.7091      2.00000
     29      -1.7462      2.00000
     30      -1.7462      2.00000
     31      -1.7235      2.00000
     32      -1.7235      2.00000
     33      -1.6346      2.00000
     34      -1.6346      2.00000
     35      -1.6137      2.00000
     36      -1.6137      2.00000
     37      -0.5118      2.00000
     38      -0.5118      2.00000
     39      -0.4624      2.00000
     40      -0.4624      2.00000
     41      -0.4624      2.00000
     42      -0.4624      2.00000
     43      -0.4161      2.00000
     44      -0.4161      2.00000
     45      -0.3392      2.00000
     46      -0.3392      2.00000
     47      -0.3392      2.00000
     48      -0.3392      2.00000
     49      -0.3247      2.00000
     50      -0.3247      2.00000
     51      -0.3247      2.00000
     52      -0.3247      2.00000
     53       0.4913      2.00000
     54       0.4913      2.00000
     55       1.7153      2.00000
     56       1.7153      2.00000
     57       1.7169      2.00000
     58       1.7169      2.00000
     59       1.7169      2.00000
     60       1.7169      2.00000
     61       1.7187      2.00000
     62       1.7187      2.00000
     63       1.8515      2.00000
     64       1.8515      2.00000
     65       1.8665      2.00000
     66       1.8665      2.00000
     67       1.8665      2.00000
     68       1.8665      2.00000
     69       1.8859      2.00000
     70       1.8859      2.00000
     71       2.5781      2.00000
     72       2.5781      2.00000
     73       2.6129      2.00000
     74       2.6129      2.00000
     75       2.6404      2.00000
     76       2.6404      2.00000
     77       2.6764      2.00000
     78       2.6764      2.00000
     79       3.3195      2.00000
     80       3.3195      2.00000
     81       3.3521      2.00000
     82       3.3521      2.00000
     83       3.3521      2.00000
     84       3.3521      2.00000
     85       3.3790      2.00000
     86       3.3790      2.00000
     87       3.4204      2.00000
     88       3.4204      2.00000
     89       3.4208      2.00000
     90       3.4208      2.00000
     91       3.5233      2.00000
     92       3.5233      2.00000
     93       3.5522      2.00000
     94       3.5522      2.00000
     95       3.5522      2.00000
     96       3.5522      2.00000
     97       3.5803      2.00000
     98       3.5803      2.00000
     99       3.6948      2.00000
    100       3.6948      2.00000
    101       3.6948      2.00000
    102       3.6948      2.00000
    103       3.7741      2.00000
    104       3.7741      2.00000
[...]
  0.000   0.000   4.172   0.000   0.000   7.771   0.000   0.000
 -0.001  -0.001   0.000   4.172   0.000   0.000   7.771   0.000
  0.000   0.000   0.000   0.000   4.172   0.000   0.000   7.771
  0.000   0.000   7.771   0.000   0.000  14.488   0.000   0.000
 -0.002  -0.002   0.000   7.771   0.000   0.000  14.488   0.000
  0.000   0.000   0.000   0.000   7.771   0.000   0.000  14.488
 total augmentation occupancy for first ion, spin component:           1
  6.284  -2.477   0.000   0.040   0.000   0.000  -0.015   0.000
 -2.477   1.085  -0.000  -0.020   0.000   0.000   0.007   0.000
  0.000  -0.000   3.103   0.000   0.005  -0.707  -0.000   0.001
  0.040  -0.020   0.000   3.103  -0.000  -0.000  -0.707  -0.000
  0.000   0.000   0.005  -0.000   3.073   0.001   0.000  -0.695
  0.000   0.000  -0.707  -0.000   0.001   0.170   0.000  -0.000
 -0.015   0.007  -0.000  -0.707   0.000   0.000   0.170  -0.000
  0.000   0.000   0.001   0.000  -0.695  -0.000   0.000   0.167


------------------------ aborting loop because EDIFF is reached ----------------------------------------


    CHARGE:  cpu time      0.2403: real time      0.2413
    FORLOC:  cpu time      0.0212: real time      0.0213
    FORNL :  cpu time      0.6585: real time      0.6609
    STRESS:  cpu time      2.0329: real time      2.0400
    FORCOR:  cpu time      0.0852: real time      0.0854
    FORHAR:  cpu time      0.0357: real time      0.0358
    MIXING:  cpu time      0.0563: real time      0.0564
    OFIELD:  cpu time      0.0000: real time      0.0000

  FORCE on cell =-STRESS in cart. coord.  units (eV):
  Direction    XX          YY          ZZ          XY          YZ          ZX
  --------------------------------------------------------------------------------------
  Alpha Z   112.24469   112.24469   112.24469
  Ewald   -2506.62259 -2455.23187 -2455.13767    10.10880     0.00000     0.00000
  Hartree   145.26267   153.56755   153.44046     6.63580    -0.00000    -0.00000
  E(xc)    -825.67237  -826.13258  -826.14462    -0.06078    -0.00000    -0.00000
  Local    -870.37584  -932.01511  -932.00089   -18.23352     0.00000    -0.00000
  n-local  2505.80030  2513.50249  2513.69115     0.34128     0.00001    -0.00000
  augment  -369.15550  -369.15214  -369.15682    -0.54485     0.00000     0.00000
  Kinetic  1850.51130  1835.62490  1835.32112    10.57482    -0.00001    -0.00000
  Fock        0.00000     0.00000     0.00000     0.00000     0.00000     0.00000
  -------------------------------------------------------------------------------------
  Total      41.99266    32.40792    32.25741     8.82155     0.00000     0.00000
  in kB      54.76907    42.26813    42.07184    11.50554     0.00000     0.00000
  external pressure =       46.37 kB  Pullay stress =        0.00 kB


 VOLUME and BASIS-vectors are now :
 -----------------------------------------------------------------------------
  energy-cutoff  :      400.00
  volume of cell :     1228.43
      direct lattice vectors                 reciprocal lattice vectors
    10.602671566 -0.080731012  0.000000000     0.094321238  0.000707409  0.000000000
    -0.080731012 10.764133590  0.000000000     0.000707409  0.092906419  0.000000000
     0.000000000  0.000000000 10.764133590     0.000000000  0.000000000  0.092901114

  length of vectors
    10.602978913 10.764436327 10.764133590     0.094323891  0.092909113  0.092901114


 FORCES acting on ions
    electron-ion (+dipol)            ewald-force                    non-local-force                 convergence-correction
 -----------------------------------------------------------------------------------------------
   0.170E-08 0.989E-09 0.127E+01   -.324E-13 0.207E-13 -.903E+00   0.135E-19 0.405E-20 -.371E+00   0.108E-12 -.107E-12 -.147E-04
   0.170E-08 0.989E-09 0.127E+01   -.298E-13 0.844E-14 -.903E+00   -.698E-20 -.372E-20 -.371E+00   -.128E-12 0.127E-13 -.147E-04
   0.170E-08 0.989E-09 0.127E+01   -.222E-13 0.213E-13 -.903E+00   -.737E-20 -.466E-20 -.371E+00   0.593E-13 0.111E-12 -.147E-04
   0.170E-08 0.989E-09 0.127E+01   -.187E-13 0.222E-13 -.903E+00   0.697E-20 -.338E-20 -.371E+00   -.762E-13 -.127E-14 -.147E-04
   0.170E-08 0.989E-09 0.127E+01   -.453E-13 0.120E-13 -.903E+00   0.863E-22 -.858E-21 -.371E+00   -.128E-12 -.694E-13 -.147E-04
   0.170E-08 0.989E-09 0.127E+01   -.275E-13 0.160E-13 -.903E+00   0.586E-20 -.234E-20 -.371E+00   0.136E-12 0.193E-13 -.147E-04
   0.170E-08 0.990E-09 0.127E+01   -.249E-13 0.271E-13 -.903E+00   0.660E-20 0.723E-20 -.371E+00   -.624E-13 0.645E-13 -.147E-04
   0.170E-08 0.989E-09 0.127E+01   -.355E-13 0.213E-13 -.903E+00   -.685E-20 -.102E-19 -.371E+00   0.746E-13 -.501E-14 -.147E-04
   0.140E-09 0.725E-09 -.127E+01   -.888E-14 0.355E-14 0.903E+00   -.593E-20 -.108E-19 0.371E+00   -.900E-13 -.277E-13 0.147E-04
   0.140E-09 0.725E-09 -.127E+01   -.124E-13 0.355E-14 0.903E+00   0.699E-20 0.373E-20 0.371E+00   0.134E-12 0.339E-14 0.147E-04
   0.140E-09 0.725E-09 -.127E+01   -.195E-13 -.888E-15 0.903E+00   0.654E-20 0.467E-20 0.371E+00   -.127E-12 0.675E-14 0.147E-04
   0.140E-09 0.725E-09 -.127E+01   -.107E-13 0.178E-14 0.903E+00   -.697E-20 0.340E-20 0.371E+00   0.122E-12 -.104E-13 0.147E-04
   0.140E-09 0.724E-09 -.127E+01   -.160E-13 0.444E-14 0.903E+00   -.942E-22 0.858E-21 0.371E+00   0.958E-13 0.591E-13 0.147E-04
   0.140E-09 0.726E-09 -.127E+01   -.178E-14 -.178E-14 0.903E+00   -.135E-19 0.234E-20 0.371E+00   -.151E-12 -.920E-13 0.147E-04
   0.140E-09 0.726E-09 -.127E+01   -.187E-13 -.888E-14 0.903E+00   -.660E-20 -.723E-20 0.371E+00   0.140E-12 -.783E-13 0.147E-04
   0.140E-09 0.726E-09 -.127E+01   -.711E-14 -.533E-14 0.903E+00   0.769E-20 0.102E-19 0.371E+00   -.134E-12 0.831E-13 0.147E-04
   0.170E-08 0.989E-09 0.127E+01   -.178E-13 0.600E-14 -.903E+00   0.204E-19 0.379E-20 -.371E+00   0.103E-12 -.361E-13 -.147E-04
   0.170E-08 0.989E-09 0.127E+01   -.351E-13 0.533E-14 -.903E+00   -.115E-20 -.955E-22 -.371E+00   -.109E-12 -.101E-12 -.147E-04
   0.170E-08 0.989E-09 0.127E+01   -.209E-13 0.755E-14 -.903E+00   -.559E-21 -.800E-20 -.371E+00   0.831E-13 0.470E-13 -.147E-04
   0.170E-08 0.989E-09 0.127E+01   -.169E-13 0.755E-14 -.903E+00   0.313E-20 0.134E-20 -.371E+00   -.914E-13 0.927E-13 -.147E-04
   0.170E-08 0.989E-09 0.127E+01   -.462E-13 0.933E-14 -.903E+00   0.541E-20 -.336E-20 -.371E+00   -.115E-12 -.648E-13 -.147E-04
   0.170E-08 0.989E-09 0.127E+01   -.409E-13 0.888E-14 -.903E+00   0.667E-20 0.183E-20 -.371E+00   0.113E-12 0.214E-14 -.147E-04
   0.170E-08 0.989E-09 0.127E+01   -.306E-13 0.111E-13 -.903E+00   0.183E-19 0.157E-19 -.371E+00   -.939E-13 0.697E-13 -.147E-04
   0.170E-08 0.989E-09 0.127E+01   -.178E-13 0.107E-13 -.903E+00   -.417E-21 -.445E-20 -.371E+00   0.980E-13 0.751E-14 -.147E-04
   0.140E-09 0.726E-09 -.127E+01   -.195E-13 -.137E-13 0.903E+00   0.115E-20 0.101E-19 0.371E+00   0.320E-13 -.473E-13 0.147E-04
   0.140E-09 0.726E-09 -.127E+01   -.533E-14 -.636E-14 0.903E+00   -.204E-19 -.183E-20 0.371E+00   -.181E-13 -.566E-13 0.147E-04
   0.140E-09 0.725E-09 -.127E+01   -.355E-14 -.680E-14 0.903E+00   0.121E-19 -.214E-20 0.371E+00   -.103E-13 0.365E-13 0.147E-04
   0.140E-09 0.725E-09 -.127E+01   -.355E-14 0.305E-15 0.903E+00   0.564E-21 0.444E-20 0.371E+00   0.372E-13 0.544E-13 0.147E-04
   0.140E-09 0.726E-09 -.127E+01   -.147E-13 -.261E-14 0.903E+00   0.137E-19 -.106E-19 0.371E+00   -.333E-13 -.615E-13 0.147E-04
   0.140E-09 0.725E-09 -.127E+01   0.311E-14 -.616E-14 0.903E+00   0.814E-20 0.107E-21 0.371E+00   0.865E-14 -.102E-12 0.147E-04
   0.140E-09 0.725E-09 -.127E+01   -.249E-13 0.305E-15 0.903E+00   0.417E-21 0.122E-20 0.371E+00   0.425E-14 0.516E-13 0.147E-04
   0.140E-09 0.727E-09 -.127E+01   -.178E-13 -.135E-13 0.903E+00   -.200E-19 -.135E-20 0.371E+00   -.380E-13 0.930E-13 0.147E-04
   0.170E-08 0.989E-09 0.127E+01   0.111E-14 0.511E-14 -.903E+00   -.155E-19 0.748E-20 -.371E+00   0.656E-14 -.358E-14 -.147E-04
   0.170E-08 0.989E-09 0.127E+01   0.444E-14 0.888E-14 -.903E+00   -.137E-19 -.329E-21 -.371E+00   -.148E-13 -.690E-13 -.147E-04
   0.170E-08 0.989E-09 0.127E+01   0.115E-13 0.488E-14 -.903E+00   -.190E-20 -.634E-20 -.371E+00   -.202E-13 0.966E-14 -.147E-04
   0.170E-08 0.989E-09 0.127E+01   0.444E-14 0.444E-15 -.903E+00   0.275E-19 -.338E-20 -.371E+00   0.795E-13 0.755E-13 -.147E-04
   0.170E-08 0.989E-09 0.127E+01   0.733E-14 0.799E-14 -.903E+00   -.133E-19 -.110E-19 -.371E+00   -.855E-15 -.288E-13 -.147E-04
   0.170E-08 0.989E-09 0.127E+01   0.204E-13 0.115E-13 -.903E+00   0.135E-19 0.112E-20 -.371E+00   0.346E-14 -.487E-13 -.147E-04
   0.170E-08 0.989E-09 0.127E+01   0.187E-13 0.444E-15 -.903E+00   -.204E-19 0.725E-20 -.371E+00   0.242E-13 0.258E-13 -.147E-04
   0.170E-08 0.989E-09 0.127E+01   0.107E-13 0.107E-13 -.903E+00   -.131E-19 -.172E-20 -.371E+00   -.930E-13 0.620E-13 -.147E-04
   0.140E-09 0.725E-09 -.127E+01   0.269E-13 -.622E-14 0.903E+00   0.139E-21 0.422E-20 0.371E+00   0.181E-13 -.573E-13 0.147E-04
   0.140E-09 0.725E-09 -.127E+01   0.231E-13 -.622E-14 0.903E+00   0.138E-19 -.113E-20 0.371E+00   0.307E-13 0.229E-13 0.147E-04
   0.140E-09 0.725E-09 -.127E+01   0.304E-13 -.187E-13 0.903E+00   -.139E-19 -.722E-20 0.371E+00   0.570E-14 0.414E-13 0.147E-04
   0.140E-09 0.725E-09 -.127E+01   0.375E-13 -.115E-13 0.903E+00   0.154E-19 -.503E-20 0.371E+00   -.197E-13 -.357E-13 0.147E-04
   0.140E-09 0.726E-09 -.127E+01   0.266E-13 -.533E-14 0.903E+00   -.118E-19 -.750E-20 0.371E+00   -.132E-13 -.935E-13 0.147E-04
   0.140E-09 0.725E-09 -.127E+01   0.348E-14 -.533E-14 0.903E+00   0.133E-19 0.711E-20 0.371E+00   -.160E-13 0.701E-13 0.147E-04
   0.140E-09 0.724E-09 -.127E+01   0.110E-13 -.107E-13 0.903E+00   -.436E-21 0.131E-19 0.371E+00   0.460E-14 0.845E-13 0.147E-04
   0.140E-09 0.726E-09 -.127E+01   0.216E-14 -.355E-14 0.903E+00   0.137E-19 0.335E-20 0.371E+00   0.187E-13 -.894E-13 0.147E-04
   0.170E-08 0.989E-09 0.127E+01   0.777E-14 -.400E-14 -.903E+00   -.703E-20 -.841E-20 -.371E+00   0.692E-14 -.280E-13 -.147E-04
   0.170E-08 0.989E-09 0.127E+01   0.133E-14 -.222E-14 -.903E+00   0.647E-20 0.693E-20 -.371E+00   0.343E-13 -.705E-13 -.147E-04
   0.170E-08 0.989E-09 0.127E+01   0.200E-13 -.222E-15 -.903E+00   0.231E-20 0.218E-20 -.371E+00   -.341E-13 0.374E-13 -.147E-04
   0.170E-08 0.989E-09 0.127E+01   0.977E-14 -.577E-14 -.903E+00   -.111E-19 -.272E-20 -.371E+00   0.295E-13 0.734E-13 -.147E-04
   0.170E-08 0.990E-09 0.127E+01   0.167E-13 -.533E-14 -.903E+00   -.449E-23 -.128E-20 -.371E+00   -.465E-14 0.294E-13 -.147E-04
   0.170E-08 0.988E-09 0.127E+01   0.488E-14 -.178E-14 -.903E+00   -.146E-19 0.501E-20 -.371E+00   -.454E-13 -.130E-12 -.147E-04
   0.170E-08 0.989E-09 0.127E+01   0.293E-13 -.133E-14 -.903E+00   -.749E-20 -.965E-20 -.371E+00   0.404E-13 -.183E-13 -.147E-04
   0.170E-08 0.989E-09 0.127E+01   0.178E-13 0.000E+00 -.903E+00   0.688E-20 0.138E-20 -.371E+00   -.410E-13 0.125E-12 -.147E-04
   0.140E-09 0.725E-09 -.127E+01   0.243E-13 -.102E-13 0.903E+00   0.787E-20 0.842E-20 0.371E+00   0.119E-12 -.720E-13 0.147E-04
   0.140E-09 0.725E-09 -.127E+01   0.272E-13 -.155E-13 0.903E+00   0.308E-21 -.694E-20 0.371E+00   -.104E-12 -.861E-13 0.147E-04
   0.140E-09 0.725E-09 -.127E+01   0.264E-13 -.354E-13 0.903E+00   -.654E-20 -.219E-20 0.371E+00   0.379E-13 0.683E-13 0.147E-04
   0.140E-09 0.725E-09 -.127E+01   0.295E-13 -.228E-13 0.903E+00   0.775E-20 -.406E-20 0.371E+00   -.112E-13 0.764E-13 0.147E-04
   0.140E-09 0.726E-09 -.127E+01   0.364E-13 -.159E-13 0.903E+00   -.136E-19 0.128E-20 0.371E+00   -.133E-12 -.295E-13 0.147E-04
   0.140E-09 0.726E-09 -.127E+01   0.269E-13 -.123E-13 0.903E+00   0.138E-19 0.176E-20 0.371E+00   0.122E-12 -.770E-13 0.147E-04
   0.140E-09 0.725E-09 -.127E+01   0.416E-13 -.342E-13 0.903E+00   0.109E-19 0.287E-20 0.371E+00   -.383E-13 0.304E-13 0.147E-04
   0.140E-09 0.725E-09 -.127E+01   0.176E-13 -.213E-13 0.903E+00   -.264E-20 -.816E-20 0.371E+00   0.245E-13 0.593E-13 0.147E-04
 -----------------------------------------------------------------------------------------------
   0.588E-07 0.549E-07 -.435E-04   -.664E-13 -.425E-13 0.434E-13   0.339E-19 -.135E-19 0.344E-14   -.393E-13 -.928E-13 -.110E-09
 
 
 POSITION                                       TOTAL-FORCE (eV/Angst)
 -----------------------------------------------------------------------------------
      0.00000      0.00000     10.75795        -0.000000      0.000000      0.000324
      0.00000      0.00000      5.37588        -0.000000      0.000000      0.000324
     -0.04037      5.38207     10.75795         0.000000      0.000000      0.000324
     -0.04037      5.38207      5.37588         0.000000      0.000000      0.000324
      5.30134     -0.04037     10.75795         0.000000      0.000000      0.000324
      5.30134     -0.04037      5.37588        -0.000000     -0.000000      0.000324
      5.26097      5.34170     10.75795         0.000000     -0.000000      0.000324
      5.26097      5.34170      5.37588         0.000000     -0.000000      0.000324
      3.94573      4.00628      1.35170         0.000000     -0.000000     -0.000324
      3.94573      4.00628      6.73377         0.000000      0.000000     -0.000324
      3.90536      9.38834      1.35170        -0.000000     -0.000000     -0.000324
      3.90536      9.38834      6.73377        -0.000000     -0.000000     -0.000324
      9.24706      3.96591      1.35170         0.000000      0.000000     -0.000324
      9.24706      3.96591      6.73377        -0.000000     -0.000000     -0.000324
      9.20670      9.34798      1.35170        -0.000000     -0.000000     -0.000324
      9.20670      9.34798      6.73377        -0.000000     -0.000000     -0.000324
     -0.02018      2.69103      2.68485        -0.000000      0.000000      0.000324
     -0.02018      2.69103      8.06691        -0.000000     -0.000000      0.000324
     -0.06055      8.07310      2.68485         0.000000     -0.000000      0.000324
     -0.06055      8.07310      8.06691        -0.000000     -0.000000      0.000324
      5.28115      2.65067      2.68485        -0.000000     -0.000000      0.000324
      5.28115      2.65067      8.06691        -0.000000     -0.000000      0.000324
      5.24079      8.03273      2.68485         0.000000     -0.000000      0.000324
      5.24079      8.03273      8.06691         0.000000      0.000000      0.000324
      3.96591      1.31524      4.04274        -0.000000      0.000000     -0.000324
      3.96591      1.31524      9.42480        -0.000000      0.000000     -0.000324
      3.92554      6.69731      4.04274         0.000000      0.000000     -0.000324
      3.92554      6.69731      9.42480         0.000000     -0.000000     -0.000324
      9.26725      1.27488      4.04274         0.000000     -0.000000     -0.000324
      9.26725      1.27488      9.42480         0.000000      0.000000     -0.000324
      9.22688      6.65694      4.04274         0.000000      0.000000     -0.000324
      9.22688      6.65694      9.42480         0.000000      0.000000     -0.000324
      2.65067     -0.02018      2.68485        -0.000000      0.000000      0.000324
      2.65067     -0.02018      8.06691        -0.000000      0.000000      0.000324
      2.61030      5.36188      2.68485         0.000000     -0.000000      0.000324
      2.61030      5.36188      8.06691         0.000000      0.000000      0.000324
      7.95200     -0.06055      2.68485         0.000000     -0.000000      0.000324
      7.95200     -0.06055      8.06691        -0.000000      0.000000      0.000324
      7.91164      5.32152      2.68485         0.000000      0.000000      0.000324
      7.91164      5.32152      8.06691         0.000000      0.000000      0.000324
      1.29506      4.02646      4.04274        -0.000000     -0.000000     -0.000324
      1.29506      4.02646      9.42480         0.000000      0.000000     -0.000324
      1.25469      9.40853      4.04274        -0.000000     -0.000000     -0.000324
      1.25469      9.40853      9.42480        -0.000000     -0.000000     -0.000324
      6.59640      3.98609      4.04274        -0.000000     -0.000000     -0.000324
      6.59640      3.98609      9.42480        -0.000000      0.000000     -0.000324
      6.55603      9.36816      4.04274        -0.000000      0.000000     -0.000324
      6.55603      9.36816      9.42480        -0.000000     -0.000000     -0.000324
      2.63049      2.67085     10.75795        -0.000000     -0.000000      0.000324
      2.63049      2.67085      5.37588        -0.000000     -0.000000      0.000324
      2.59012      8.05292     10.75795        -0.000000      0.000000      0.000324
      2.59012      8.05292      5.37588         0.000000     -0.000000      0.000324
      7.93182      2.63049     10.75795        -0.000000     -0.000000      0.000324
      7.93182      2.63049      5.37588        -0.000000     -0.000000      0.000324
      7.89146      8.01255     10.75795         0.000000     -0.000000      0.000324
      7.89146      8.01255      5.37588         0.000000     -0.000000      0.000324
      1.31524      1.33543      1.35170         0.000000      0.000000     -0.000324
      1.31524      1.33543      6.73377         0.000000      0.000000     -0.000324
      1.27488      6.71749      1.35170         0.000000      0.000000     -0.000324
      1.27488      6.71749      6.73377         0.000000      0.000000     -0.000324
      6.61658      1.29506      1.35170        -0.000000     -0.000000     -0.000324
      6.61658      1.29506      6.73377         0.000000      0.000000     -0.000324
      6.57621      6.67713      1.35170         0.000000      0.000000     -0.000324
      6.57621      6.67713      6.73377         0.000000      0.000000     -0.000324
 -----------------------------------------------------------------------------------
    total drift:                                0.000000      0.000000     -0.000043


--------------------------------------------------------------------------------------------------------



  FREE ENERGIE OF THE ION-ELECTRON SYSTEM (eV)
  ---------------------------------------------------
  free  energy   TOTEN  =      -366.71683651 eV

  energy  without entropy=     -366.74148886  energy(sigma->0) =     -366.72505396
 
 d Force = 0.5557030E-02[ 0.508E-04, 0.111E-01]  d Energy = 0.5568068E-02-0.110E-04
 d Force =-0.1314945E+00[-0.141E+00,-0.122E+00]  d Ewald  =-0.1315035E+00 0.907E-05


--------------------------------------------------------------------------------------------------------


    POTLOK:  cpu time      0.1424: real time      0.1428


--------------------------------------------------------------------------------------------------------




--------------------------------------------------------------------------------------------------------


  
 reached required accuracy - stopping structural energy minimisation
     LOOP+:  cpu time     12.8312: real time     12.9918
    4ORBIT:  cpu time      0.0000: real time      0.0000

 total amount of memory used by VASP MPI-rank0    79470. kBytes
=======================================================================

   base      :      30000. kBytes
   nonlr-proj:       4631. kBytes
   fftplans  :      17992. kBytes
   grid      :       6881. kBytes
   one-center:         18. kBytes
   wavefun   :      19948. kBytes
 
  
  
 General timing and accounting informations for this job:
 ========================================================
  
                  Total CPU time used (sec):       59.485
                            User time (sec):       55.908
                          System time (sec):        3.577
                         Elapsed time (sec):       63.008
  
                   Maximum memory used (kb):      407020.
                   Average memory used (kb):          N/A
  
                          Minor page faults:        91684
                          Major page faults:            0
                 Voluntary context switches:         9050
