Si64                                    
           1
    10.602672   -0.080731    0.000000
    -0.080731   10.764134    0.000000
     0.000000    0.000000   10.764134
   Si
    64
Direct configuration=     1
   0.00000000  0.00000000  0.00000000
   0.00000000  0.00000000  0.50000000
   0.00000000  0.50000000  0.00000000
   0.00000000  0.50000000  0.50000000
   0.50000000  0.00000000  0.00000000
   0.50000000  0.00000000  0.50000000
   0.50000000  0.50000000  0.00000000
   0.50000000  0.50000000  0.50000000
   0.37500000  0.37500000  0.12500000
   0.37500000  0.37500000  0.62500000
   0.37500000  0.87500000  0.12500000
   0.37500000  0.87500000  0.62500000
   0.87500000  0.37500000  0.12500000
   0.87500000  0.37500000  0.62500000
   0.87500000  0.87500000  0.12500000
   0.87500000  0.87500000  0.62500000
   0.00000000  0.25000000  0.25000000
   0.00000000  0.25000000  0.75000000
   0.00000000  0.75000000  0.25000000
   0.00000000  0.75000000  0.75000000
   0.50000000  0.25000000  0.25000000
   0.50000000  0.25000000  0.75000000
   0.50000000  0.75000000  0.25000000
   0.50000000  0.75000000  0.75000000
   0.37500000  0.12500000  0.37500000
   0.37500000  0.12500000  0.87500000
   0.37500000  0.62500000  0.37500000
   0.37500000  0.62500000  0.87500000
   0.87500000  0.12500000  0.37500000
   0.87500000  0.12500000  0.87500000
   0.87500000  0.62500000  0.37500000
   0.87500000  0.62500000  0.87500000
   0.25000000  0.00000000  0.25000000
   0.25000000  0.00000000  0.75000000
   0.25000000  0.50000000  0.25000000
   0.25000000  0.50000000  0.75000000
   0.75000000  0.00000000  0.25000000
   0.75000000  0.00000000  0.75000000
   0.75000000  0.50000000  0.25000000
   0.75000000  0.50000000  0.75000000
   0.12500000  0.37500000  0.37500000
   0.12500000  0.37500000  0.87500000
   0.12500000  0.87500000  0.37500000
   0.12500000  0.87500000  0.87500000
   0.62500000  0.37500000  0.37500000
   0.62500000  0.37500000  0.87500000
   0.62500000  0.87500000  0.37500000
   0.62500000  0.87500000  0.87500000
   0.25000000  0.25000000  0.00000000
   0.25000000  0.25000000  0.50000000
   0.25000000  0.75000000  0.00000000
   0.25000000  0.75000000  0.50000000
   0.75000000  0.25000000  0.00000000
   0.75000000  0.25000000  0.50000000
   0.75000000  0.75000000  0.00000000
   0.75000000  0.75000000  0.50000000
   0.12500000  0.12500000  0.12500000
   0.12500000  0.12500000  0.62500000
   0.12500000  0.62500000  0.12500000
   0.12500000  0.62500000  0.62500000
   0.62500000  0.12500000  0.12500000
   0.62500000  0.12500000  0.62500000
   0.62500000  0.62500000  0.12500000
   0.62500000  0.62500000  0.62500000
Direct configuration=     2
   0.00000000  0.00000000  0.99919820
   0.00000000  0.00000000  0.49919820
   1.00000000  0.50000000  0.99919820
   1.00000000  0.50000000  0.49919820
   0.50000000  0.00000000  0.99919820
   0.50000000  0.00000000  0.49919820
   0.50000000  0.50000000  0.99919820
   0.50000000  0.50000000  0.49919820
   0.37500000  0.37500000  0.12580180
   0.37500000  0.37500000  0.62580180
   0.37500000  0.87500000  0.12580180
   0.37500000  0.87500000  0.62580180
   0.87500000  0.37500000  0.12580180
   0.87500000  0.37500000  0.62580180
   0.87500000  0.87500000  0.12580180
   0.87500000  0.87500000  0.62580180
   0.00000000  0.25000000  0.24919820
   0.00000000  0.25000000  0.74919820
   1.00000000  0.75000000  0.24919820
   1.00000000  0.75000000  0.74919820
   0.50000000  0.25000000  0.24919820
   0.50000000  0.25000000  0.74919820
   0.50000000  0.75000000  0.24919820
   0.50000000  0.75000000  0.74919820
   0.37500000  0.12500000  0.37580180
   0.37500000  0.12500000  0.87580180
   0.37500000  0.62500000  0.37580180
   0.37500000  0.62500000  0.87580180
   0.87500000  0.12500000  0.37580180
   0.87500000  0.12500000  0.87580180
   0.87500000  0.62500000  0.37580180
   0.87500000  0.62500000  0.87580180
   0.25000000  0.00000000  0.24919820
   0.25000000  0.00000000  0.74919820
   0.25000000  0.50000000  0.24919820
   0.25000000  0.50000000  0.74919820
   0.75000000  0.00000000  0.24919820
   0.75000000  0.00000000  0.74919820
   0.75000000  0.50000000  0.24919820
   0.75000000  0.50000000  0.74919820
   0.12500000  0.37500000  0.37580180
   0.12500000  0.37500000  0.87580180
   0.12500000  0.87500000  0.37580180
   0.12500000  0.87500000  0.87580180
   0.62500000  0.37500000  0.37580180
   0.62500000  0.37500000  0.87580180
   0.62500000  0.87500000  0.37580180
   0.62500000  0.87500000  0.87580180
   0.25000000  0.25000000  0.99919820
   0.25000000  0.25000000  0.49919820
   0.25000000  0.75000000  0.99919820
   0.25000000  0.75000000  0.49919820
   0.75000000  0.25000000  0.99919820
   0.75000000  0.25000000  0.49919820
   0.75000000  0.75000000  0.99919820
   0.75000000  0.75000000  0.49919820
   0.12500000  0.12500000  0.12580180
   0.12500000  0.12500000  0.62580180
   0.12500000  0.62500000  0.12580180
   0.12500000  0.62500000  0.62580180
   0.62500000  0.12500000  0.12580180
   0.62500000  0.12500000  0.62580180
   0.62500000  0.62500000  0.12580180
   0.62500000  0.62500000  0.62580180
Direct configuration=     3
   0.00000000  0.00000000  0.99942533
   0.00000000  0.00000000  0.49942533
   0.00000000  0.50000000  0.99942533
   0.00000000  0.50000000  0.49942533
   0.50000000  0.00000000  0.99942533
   0.50000000  0.00000000  0.49942533
   0.50000000  0.50000000  0.99942533
   0.50000000  0.50000000  0.49942533
   0.37500000  0.37500000  0.12557467
   0.37500000  0.37500000  0.62557467
   0.37500000  0.87500000  0.12557467
   0.37500000  0.87500000  0.62557467
   0.87500000  0.37500000  0.12557467
   0.87500000  0.37500000  0.62557467
   0.87500000  0.87500000  0.12557467
   0.87500000  0.87500000  0.62557467
   0.00000000  0.25000000  0.24942533
   0.00000000  0.25000000  0.74942533
   0.00000000  0.75000000  0.24942533
   0.00000000  0.75000000  0.74942533
   0.50000000  0.25000000  0.24942533
   0.50000000  0.25000000  0.74942533
   0.50000000  0.75000000  0.24942533
   0.50000000  0.75000000  0.74942533
   0.37500000  0.12500000  0.37557467
   0.37500000  0.12500000  0.87557467
   0.37500000  0.62500000  0.37557467
   0.37500000  0.62500000  0.87557467
   0.87500000  0.12500000  0.37557467
   0.87500000  0.12500000  0.87557467
   0.87500000  0.62500000  0.37557467
   0.87500000  0.62500000  0.87557467
   0.25000000  0.00000000  0.24942533
   0.25000000  0.00000000  0.74942533
   0.25000000  0.50000000  0.24942533
   0.25000000  0.50000000  0.74942533
   0.75000000  0.00000000  0.24942533
   0.75000000  0.00000000  0.74942533
   0.75000000  0.50000000  0.24942533
   0.75000000  0.50000000  0.74942533
   0.12500000  0.37500000  0.37557467
   0.12500000  0.37500000  0.87557467
   0.12500000  0.87500000  0.37557467
   0.12500000  0.87500000  0.87557467
   0.62500000  0.37500000  0.37557467
   0.62500000  0.37500000  0.87557467
   0.62500000  0.87500000  0.37557467
   0.62500000  0.87500000  0.87557467
   0.25000000  0.25000000  0.99942533
   0.25000000  0.25000000  0.49942533
   0.25000000  0.75000000  0.99942533
   0.25000000  0.75000000  0.49942533
   0.75000000  0.25000000  0.99942533
   0.75000000  0.25000000  0.49942533
   0.75000000  0.75000000  0.99942533
   0.75000000  0.75000000  0.49942533
   0.12500000  0.12500000  0.12557467
   0.12500000  0.12500000  0.62557467
   0.12500000  0.62500000  0.12557467
   0.12500000  0.62500000  0.62557467
   0.62500000  0.12500000  0.12557467
   0.62500000  0.12500000  0.62557467
   0.62500000  0.62500000  0.12557467
   0.62500000  0.62500000  0.62557467
