Si64                                    
           1
    10.745264    0.053194    0.000000
     0.053194   10.638876    0.000000
     0.000000    0.000000   10.638876
   Si
    64
Direct configuration=     1
   0.00000000  0.00000000  0.00000000
   0.00000000  0.00000000  0.50000000
   0.00000000  0.50000000  0.00000000
   0.00000000  0.50000000  0.50000000
   0.50000000  0.00000000  0.00000000
   0.50000000  0.00000000  0.50000000
   0.50000000  0.50000000  0.00000000
   0.50000000  0.50000000  0.50000000
   0.37500000  0.37500000  0.12500000
   0.37500000  0.37500000  0.62500000
   0.37500000  0.87500000  0.12500000
   0.37500000  0.87500000  0.62500000
   0.87500000  0.37500000  0.12500000
   0.87500000  0.37500000  0.62500000
   0.87500000  0.87500000  0.12500000
   0.87500000  0.87500000  0.62500000
   0.00000000  0.25000000  0.25000000
   0.00000000  0.25000000  0.75000000
   0.00000000  0.75000000  0.25000000
   0.00000000  0.75000000  0.75000000
   0.50000000  0.25000000  0.25000000
   0.50000000  0.25000000  0.75000000
   0.50000000  0.75000000  0.25000000
   0.50000000  0.75000000  0.75000000
   0.37500000  0.12500000  0.37500000
   0.37500000  0.12500000  0.87500000
   0.37500000  0.62500000  0.37500000
   0.37500000  0.62500000  0.87500000
   0.87500000  0.12500000  0.37500000
   0.87500000  0.12500000  0.87500000
   0.87500000  0.62500000  0.37500000
   0.87500000  0.62500000  0.87500000
   0.25000000  0.00000000  0.25000000
   0.25000000  0.00000000  0.75000000
   0.25000000  0.50000000  0.25000000
   0.25000000  0.50000000  0.75000000
   0.75000000  0.00000000  0.25000000
   0.75000000  0.00000000  0.75000000
   0.75000000  0.50000000  0.25000000
   0.75000000  0.50000000  0.75000000
   0.12500000  0.37500000  0.37500000
   0.12500000  0.37500000  0.87500000
   0.12500000  0.87500000  0.37500000
   0.12500000  0.87500000  0.87500000
   0.62500000  0.37500000  0.37500000
   0.62500000  0.37500000  0.87500000
   0.62500000  0.87500000  0.37500000
   0.62500000  0.87500000  0.87500000
   0.25000000  0.25000000  0.00000000
   0.25000000  0.25000000  0.50000000
   0.25000000  0.75000000  0.00000000
   0.25000000  0.75000000  0.50000000
   0.75000000  0.25000000  0.00000000
   0.75000000  0.25000000  0.50000000
   0.75000000  0.75000000  0.00000000
   0.75000000  0.75000000  0.50000000
   0.12500000  0.12500000  0.12500000
   0.12500000  0.12500000  0.62500000
   0.12500000  0.62500000  0.12500000
   0.12500000  0.62500000  0.62500000
   0.62500000  0.12500000  0.12500000
   0.62500000  0.12500000  0.62500000
   0.62500000  0.62500000  0.12500000
   0.62500000  0.62500000  0.62500000
Direct configuration=     2
   0.00000000  1.00000000  0.00056486
   0.00000000  1.00000000  0.50056486
   0.00000000  0.50000000  0.00056486
   1.00000000  0.50000000  0.50056486
   0.50000000  0.00000000  0.00056486
   0.50000000  0.00000000  0.50056486
   0.50000000  0.50000000  0.00056486
   0.50000000  0.50000000  0.50056486
   0.37500000  0.37500000  0.12443514
   0.37500000  0.37500000  0.62443514
   0.37500000  0.87500000  0.12443514
   0.37500000  0.87500000  0.62443514
   0.87500000  0.37500000  0.12443514
   0.87500000  0.37500000  0.62443514
   0.87500000  0.87500000  0.12443514
   0.87500000  0.87500000  0.62443514
   1.00000000  0.25000000  0.25056486
   0.00000000  0.25000000  0.75056486
   0.00000000  0.75000000  0.25056486
   0.00000000  0.75000000  0.75056486
   0.50000000  0.25000000  0.25056486
   0.50000000  0.25000000  0.75056486
   0.50000000  0.75000000  0.25056486
   0.50000000  0.75000000  0.75056486
   0.37500000  0.12500000  0.37443514
   0.37500000  0.12500000  0.87443514
   0.37500000  0.62500000  0.37443514
   0.37500000  0.62500000  0.87443514
   0.87500000  0.12500000  0.37443514
   0.87500000  0.12500000  0.87443514
   0.87500000  0.62500000  0.37443514
   0.87500000  0.62500000  0.87443514
   0.25000000  1.00000000  0.25056486
   0.25000000  1.00000000  0.75056486
   0.25000000  0.50000000  0.25056486
   0.25000000  0.50000000  0.75056486
   0.75000000  0.00000000  0.25056486
   0.75000000  0.00000000  0.75056486
   0.75000000  0.50000000  0.25056486
   0.75000000  0.50000000  0.75056486
   0.12500000  0.37500000  0.37443514
   0.12500000  0.37500000  0.87443514
   0.12500000  0.87500000  0.37443514
   0.12500000  0.87500000  0.87443514
   0.62500000  0.37500000  0.37443514
   0.62500000  0.37500000  0.87443514
   0.62500000  0.87500000  0.37443514
   0.62500000  0.87500000  0.87443514
   0.25000000  0.25000000  0.00056486
   0.25000000  0.25000000  0.50056486
   0.25000000  0.75000000  0.00056486
   0.25000000  0.75000000  0.50056486
   0.75000000  0.25000000  0.00056486
   0.75000000  0.25000000  0.50056486
   0.75000000  0.75000000  0.00056486
   0.75000000  0.75000000  0.50056486
   0.12500000  0.12500000  0.12443514
   0.12500000  0.12500000  0.62443514
   0.12500000  0.62500000  0.12443514
   0.12500000  0.62500000  0.62443514
   0.62500000  0.12500000  0.12443514
   0.62500000  0.12500000  0.62443514
   0.62500000  0.62500000  0.12443514
   0.62500000  0.62500000  0.62443514
Direct configuration=     3
   0.00000000  0.00000000  0.00039601
   0.00000000  0.00000000  0.50039601
   0.00000000  0.50000000  0.00039601
   0.00000000  0.50000000  0.50039601
   0.50000000  0.00000000  0.00039601
   0.50000000  0.00000000  0.50039601
   0.50000000  0.50000000  0.00039601
   0.50000000  0.50000000  0.50039601
   0.37500000  0.37500000  0.12460399
   0.37500000  0.37500000  0.62460399
   0.37500000  0.87500000  0.12460399
   0.37500000  0.87500000  0.62460399
   0.87500000  0.37500000  0.12460399
   0.87500000  0.37500000  0.62460399
   0.87500000  0.87500000  0.12460399
   0.87500000  0.87500000  0.62460399
   0.00000000  0.25000000  0.25039601
   0.00000000  0.25000000  0.75039601
   0.00000000  0.75000000  0.25039601
   0.00000000  0.75000000  0.75039601
   0.50000000  0.25000000  0.25039601
   0.50000000  0.25000000  0.75039601
   0.50000000  0.75000000  0.25039601
   0.50000000  0.75000000  0.75039601
   0.37500000  0.12500000  0.37460399
   0.37500000  0.12500000  0.87460399
   0.37500000  0.62500000  0.37460399
   0.37500000  0.62500000  0.87460399
   0.87500000  0.12500000  0.37460399
   0.87500000  0.12500000  0.87460399
   0.87500000  0.62500000  0.37460399
   0.87500000  0.62500000  0.87460399
   0.25000000  0.00000000  0.25039601
   0.25000000  0.00000000  0.75039601
   0.25000000  0.50000000  0.25039601
   0.25000000  0.50000000  0.75039601
   0.75000000  0.00000000  0.25039601
   0.75000000  0.00000000  0.75039601
   0.75000000  0.50000000  0.25039601
   0.75000000  0.50000000  0.75039601
   0.12500000  0.37500000  0.37460399
   0.12500000  0.37500000  0.87460399
   0.12500000  0.87500000  0.37460399
   0.12500000  0.87500000  0.87460399
   0.62500000  0.37500000  0.37460399
   0.62500000  0.37500000  0.87460399
   0.62500000  0.87500000  0.37460399
   0.62500000  0.87500000  0.87460399
   0.25000000  0.25000000  0.00039601
   0.25000000  0.25000000  0.50039601
   0.25000000  0.75000000  0.00039601
   0.25000000  0.75000000  0.50039601
   0.75000000  0.25000000  0.00039601
   0.75000000  0.25000000  0.50039601
   0.75000000  0.75000000  0.00039601
   0.75000000  0.75000000  0.50039601
   0.12500000  0.12500000  0.12460399
   0.12500000  0.12500000  0.62460399
   0.12500000  0.62500000  0.12460399
   0.12500000  0.62500000  0.62460399
   0.62500000  0.12500000  0.12460399
   0.62500000  0.12500000  0.62460399
   0.62500000  0.62500000  0.12460399
   0.62500000  0.62500000  0.62460399
