  64  64   0   0
  0.1969373E+02  0.1094640E-08  0.1073178E-08  0.1073125E-08  0.5000000E-15
  1.000000000000000E-004
  CAR 
 Si64                                    
     11.36197309     -8.14436879  301      6.20210637      1.00000000
     -8.144  0.0000E+00  0.0000E+00
     -8.079  0.0000E+00  0.0000E+00
     -8.014  0.0000E+00  0.0000E+00
     -7.949  0.0000E+00  0.0000E+00
     -7.884  0.0000E+00  0.0000E+00
     -7.819  0.0000E+00  0.0000E+00
     -7.754 -0.1057E-28 -0.6871E-30
     -7.689 -0.1700E-26 -0.1112E-27
     -7.624 -0.2220E-24 -0.1455E-25
     -7.559 -0.2342E-22 -0.1538E-23
     -7.494 -0.1995E-20 -0.1312E-21
     -7.429 -0.1371E-18 -0.9047E-20
     -7.364 -0.7605E-17 -0.5036E-18
     -7.299 -0.3295E-15 -0.2193E-16
     -7.234 -0.1185E-13 -0.7927E-15
     -7.169 -0.3428E-12 -0.2308E-13
     -7.104 -0.7967E-11 -0.5411E-12
     -7.039 -0.1487E-09 -0.1021E-10
     -6.974 -0.2225E-08 -0.1549E-09
     -6.909 -0.2662E-07 -0.1886E-08
     -6.844 -0.2539E-06 -0.1840E-07
     -6.779 -0.1922E-05 -0.1434E-06
     -6.714 -0.1147E-04 -0.8895E-06
     -6.649 -0.5346E-04 -0.4365E-05
     -6.584 -0.1910E-03 -0.1678E-04
     -6.519 -0.5064E-03 -0.4971E-04
     -6.454 -0.9211E-03 -0.1096E-03
     -6.389 -0.8541E-03 -0.1651E-03
     -6.324  0.7438E-03 -0.1168E-03
     -6.259  0.4266E-02  0.1606E-03
     -6.194  0.8330E-02  0.7022E-03
     -6.129  0.1185E-01  0.1473E-02
     -6.064  0.1866E-01  0.2686E-02
     -5.999  0.3608E-01  0.5032E-02
     -5.934  0.6372E-01  0.9175E-02
     -5.869  0.8842E-01  0.1492E-01
     -5.804  0.1013E+00  0.2151E-01
     -5.739  0.1155E+00  0.2902E-01
     -5.674  0.1483E+00  0.3866E-01
     -5.609  0.1878E+00  0.5087E-01
     -5.544  0.2009E+00  0.6394E-01
     -5.479  0.1793E+00  0.7560E-01
     -5.413  0.1506E+00  0.8538E-01
     -5.348  0.1358E+00  0.9421E-01
     -5.283  0.1245E+00  0.1023E+00
     -5.218  0.1025E+00  0.1090E+00
     -5.153  0.7893E-01  0.1141E+00
     -5.088  0.7094E-01  0.1187E+00
     -5.023  0.8608E-01  0.1243E+00
     -4.958  0.1329E+00  0.1330E+00
     -4.893  0.2218E+00  0.1474E+00
     -4.828  0.3345E+00  0.1691E+00
     -4.763  0.4216E+00  0.1965E+00
     -4.698  0.4562E+00  0.2262E+00
     -4.633  0.4603E+00  0.2561E+00
     -4.568  0.4499E+00  0.2854E+00
     -4.503  0.3963E+00  0.3111E+00
     -4.438  0.2762E+00  0.3291E+00
     -4.373  0.1265E+00  0.3373E+00
     -4.308  0.1527E-01  0.3383E+00
     -4.243 -0.1500E-01  0.3373E+00
     -4.178  0.4034E-01  0.3400E+00
     -4.113  0.1647E+00  0.3507E+00
     -4.048  0.3228E+00  0.3717E+00
     -3.983  0.4586E+00  0.4015E+00
     -3.918  0.5150E+00  0.4350E+00
     -3.853  0.4715E+00  0.4656E+00
     -3.788  0.3635E+00  0.4893E+00
     -3.723  0.2622E+00  0.5063E+00
     -3.658  0.2322E+00  0.5214E+00
     -3.593  0.2999E+00  0.5409E+00
     -3.528  0.4414E+00  0.5696E+00
     -3.463  0.5932E+00  0.6082E+00
     -3.398  0.6899E+00  0.6531E+00
     -3.333  0.7042E+00  0.6988E+00
     -3.268  0.6503E+00  0.7411E+00
     -3.203  0.5602E+00  0.7776E+00
     -3.138  0.4713E+00  0.8082E+00
     -3.073  0.4197E+00  0.8355E+00
     -3.008  0.4122E+00  0.8623E+00
     -2.943  0.4056E+00  0.8887E+00
     -2.878  0.3433E+00  0.9110E+00
     -2.813  0.2207E+00  0.9253E+00
     -2.748  0.9012E-01  0.9312E+00
     -2.683  0.3582E-02  0.9314E+00
     -2.618 -0.2696E-01  0.9297E+00
     -2.553 -0.1386E-01  0.9288E+00
     -2.488  0.3304E-01  0.9309E+00
     -2.423  0.1030E+00  0.9376E+00
     -2.357  0.1670E+00  0.9485E+00
     -2.292  0.1861E+00  0.9606E+00
     -2.227  0.1463E+00  0.9701E+00
     -2.162  0.7852E-01  0.9752E+00
     -2.097  0.4039E-01  0.9778E+00
     -2.032  0.8056E-01  0.9831E+00
     -1.967  0.2110E+00  0.9968E+00
     -1.902  0.3926E+00  0.1022E+01
     -1.837  0.5431E+00  0.1058E+01
     -1.772  0.5797E+00  0.1095E+01
     -1.707  0.4794E+00  0.1126E+01
     -1.642  0.2992E+00  0.1146E+01
     -1.577  0.1337E+00  0.1155E+01
     -1.512  0.5022E-01  0.1158E+01
     -1.447  0.5685E-01  0.1162E+01
     -1.382  0.1142E+00  0.1169E+01
     -1.317  0.1677E+00  0.1180E+01
     -1.252  0.1804E+00  0.1192E+01
     -1.187  0.1561E+00  0.1202E+01
     -1.122  0.1379E+00  0.1211E+01
     -1.057  0.1750E+00  0.1222E+01
     -0.992  0.2715E+00  0.1240E+01
     -0.927  0.3661E+00  0.1264E+01
     -0.862  0.3927E+00  0.1289E+01
     -0.797  0.3671E+00  0.1313E+01
     -0.732  0.3868E+00  0.1338E+01
     -0.667  0.5276E+00  0.1372E+01
     -0.602  0.7554E+00  0.1422E+01
     -0.537  0.9378E+00  0.1483E+01
     -0.472  0.9371E+00  0.1543E+01
     -0.407  0.7196E+00  0.1590E+01
     -0.342  0.3946E+00  0.1616E+01
     -0.277  0.1337E+00  0.1625E+01
     -0.212  0.4682E-01  0.1628E+01
     -0.147  0.1266E+00  0.1636E+01
     -0.082  0.2779E+00  0.1654E+01
     -0.017  0.3838E+00  0.1679E+01
      0.048  0.3773E+00  0.1703E+01
      0.113  0.2787E+00  0.1722E+01
      0.178  0.1646E+00  0.1732E+01
      0.243  0.1001E+00  0.1739E+01
      0.308  0.1056E+00  0.1746E+01
      0.373  0.1710E+00  0.1757E+01
      0.438  0.2740E+00  0.1775E+01
      0.503  0.3814E+00  0.1799E+01
      0.568  0.4494E+00  0.1829E+01
      0.633  0.4398E+00  0.1857E+01
      0.699  0.3461E+00  0.1880E+01
      0.764  0.2063E+00  0.1893E+01
      0.829  0.8030E-01  0.1898E+01
      0.894  0.6186E-02  0.1899E+01
      0.959 -0.1795E-01  0.1898E+01
      1.024 -0.1678E-01  0.1896E+01
      1.089 -0.1254E-01  0.1896E+01
      1.154 -0.1617E-01  0.1895E+01
      1.219 -0.2862E-01  0.1893E+01
      1.284 -0.3668E-01  0.1890E+01
      1.349 -0.3228E-02  0.1890E+01
      1.414  0.1256E+00  0.1898E+01
      1.479  0.3747E+00  0.1923E+01
      1.544  0.6800E+00  0.1967E+01
      1.609  0.8893E+00  0.2025E+01
      1.674  0.8700E+00  0.2081E+01
      1.739  0.6396E+00  0.2123E+01
      1.804  0.3681E+00  0.2147E+01
      1.869  0.2290E+00  0.2162E+01
      1.934  0.2552E+00  0.2178E+01
      1.999  0.3433E+00  0.2201E+01
      2.064  0.3802E+00  0.2225E+01
      2.129  0.3569E+00  0.2249E+01
      2.194  0.3749E+00  0.2273E+01
      2.259  0.5470E+00  0.2308E+01
      2.324  0.8764E+00  0.2365E+01
      2.389  0.1219E+01  0.2445E+01
      2.454  0.1377E+01  0.2534E+01
      2.519  0.1242E+01  0.2615E+01
      2.584  0.8769E+00  0.2672E+01
      2.649  0.4554E+00  0.2702E+01
      2.714  0.1340E+00  0.2710E+01
      2.779 -0.3441E-01  0.2708E+01
      2.844 -0.7910E-01  0.2703E+01
      2.909 -0.2742E-01  0.2701E+01
      2.974  0.1417E+00  0.2710E+01
      3.039  0.4522E+00  0.2740E+01
      3.104  0.8473E+00  0.2795E+01
      3.169  0.1184E+01  0.2872E+01
      3.234  0.1334E+01  0.2959E+01
      3.299  0.1284E+01  0.3042E+01
      3.364  0.1115E+01  0.3115E+01
      3.429  0.9209E+00  0.3175E+01
      3.494  0.7578E+00  0.3224E+01
      3.559  0.6570E+00  0.3267E+01
      3.624  0.6346E+00  0.3308E+01
      3.689  0.6701E+00  0.3351E+01
      3.754  0.6976E+00  0.3397E+01
      3.820  0.6536E+00  0.3439E+01
      3.885  0.5465E+00  0.3475E+01
      3.950  0.4546E+00  0.3504E+01
      4.015  0.4413E+00  0.3533E+01
      4.080  0.4901E+00  0.3565E+01
      4.145  0.5390E+00  0.3600E+01
      4.210  0.5570E+00  0.3636E+01
      4.275  0.5697E+00  0.3673E+01
      4.340  0.6214E+00  0.3714E+01
      4.405  0.7236E+00  0.3761E+01
      4.470  0.8387E+00  0.3815E+01
      4.535  0.9062E+00  0.3874E+01
      4.600  0.8885E+00  0.3932E+01
      4.665  0.7914E+00  0.3983E+01
      4.730  0.6435E+00  0.4025E+01
      4.795  0.4737E+00  0.4056E+01
      4.860  0.3136E+00  0.4076E+01
      4.925  0.2014E+00  0.4089E+01
      4.990  0.1646E+00  0.4100E+01
      5.055  0.1994E+00  0.4113E+01
      5.120  0.2712E+00  0.4131E+01
      5.185  0.3292E+00  0.4152E+01
      5.250  0.3292E+00  0.4174E+01
      5.315  0.2605E+00  0.4190E+01
      5.380  0.1581E+00  0.4201E+01
      5.445  0.7851E-01  0.4206E+01
      5.510  0.5750E-01  0.4210E+01
      5.575  0.8943E-01  0.4215E+01
      5.640  0.1395E+00  0.4224E+01
      5.705  0.1700E+00  0.4236E+01
      5.770  0.1613E+00  0.4246E+01
      5.835  0.1205E+00  0.4254E+01
      5.900  0.7269E-01  0.4259E+01
      5.965  0.4008E-01  0.4261E+01
      6.030  0.2592E-01  0.4263E+01
      6.095  0.2072E-01  0.4264E+01
      6.160  0.2015E-01  0.4266E+01
      6.225  0.3085E-01  0.4268E+01
      6.290  0.5769E-01  0.4271E+01
      6.355  0.9202E-01  0.4277E+01
      6.420  0.1179E+00  0.4285E+01
      6.485  0.1265E+00  0.4293E+01
      6.550  0.1194E+00  0.4301E+01
      6.615  0.1005E+00  0.4307E+01
      6.680  0.7659E-01  0.4312E+01
      6.745  0.6222E-01  0.4316E+01
      6.810  0.7322E-01  0.4321E+01
      6.876  0.1100E+00  0.4328E+01
      6.941  0.1548E+00  0.4338E+01
      7.006  0.1901E+00  0.4351E+01
      7.071  0.2143E+00  0.4365E+01
      7.136  0.2386E+00  0.4380E+01
      7.201  0.2751E+00  0.4398E+01
      7.266  0.3282E+00  0.4419E+01
      7.331  0.3858E+00  0.4445E+01
      7.396  0.4183E+00  0.4472E+01
      7.461  0.4039E+00  0.4498E+01
      7.526  0.3585E+00  0.4521E+01
      7.591  0.3304E+00  0.4543E+01
      7.656  0.3550E+00  0.4566E+01
      7.721  0.4221E+00  0.4593E+01
      7.786  0.4984E+00  0.4626E+01
      7.851  0.5687E+00  0.4663E+01
      7.916  0.6337E+00  0.4704E+01
      7.981  0.6852E+00  0.4749E+01
      8.046  0.7139E+00  0.4795E+01
      8.111  0.7366E+00  0.4843E+01
      8.176  0.7831E+00  0.4894E+01
      8.241  0.8547E+00  0.4949E+01
      8.306  0.9204E+00  0.5009E+01
      8.371  0.9504E+00  0.5071E+01
      8.436  0.9321E+00  0.5132E+01
      8.501  0.8580E+00  0.5187E+01
      8.566  0.7258E+00  0.5235E+01
      8.631  0.5593E+00  0.5271E+01
      8.696  0.4086E+00  0.5297E+01
      8.761  0.3162E+00  0.5318E+01
      8.826  0.2848E+00  0.5337E+01
      8.891  0.2776E+00  0.5355E+01
      8.956  0.2509E+00  0.5371E+01
      9.021  0.1885E+00  0.5383E+01
      9.086  0.1083E+00  0.5390E+01
      9.151  0.4226E-01  0.5393E+01
      9.216  0.1062E-01  0.5394E+01
      9.281  0.1053E-01  0.5394E+01
      9.346  0.2308E-01  0.5396E+01
      9.411  0.2964E-01  0.5398E+01
      9.476  0.2407E-01  0.5399E+01
      9.541  0.1231E-01  0.5400E+01
      9.606  0.2745E-02  0.5400E+01
      9.671 -0.1370E-02  0.5400E+01
      9.736 -0.1734E-02  0.5400E+01
      9.801 -0.9659E-03  0.5400E+01
      9.866 -0.3626E-03  0.5400E+01
      9.932 -0.1006E-03  0.5400E+01
      9.997 -0.2140E-04  0.5400E+01
     10.062 -0.3552E-05  0.5400E+01
     10.127 -0.4650E-06  0.5400E+01
     10.192 -0.4832E-07  0.5400E+01
     10.257 -0.4004E-08  0.5400E+01
     10.322 -0.2654E-09  0.5400E+01
     10.387 -0.1410E-10  0.5400E+01
     10.452 -0.6017E-12  0.5400E+01
     10.517 -0.2066E-13  0.5400E+01
     10.582 -0.5549E-15  0.5400E+01
     10.647 -0.1423E-16  0.5400E+01
     10.712  0.0000E+00  0.5400E+01
     10.777  0.0000E+00  0.5400E+01
     10.842  0.0000E+00  0.5400E+01
     10.907  0.0000E+00  0.5400E+01
     10.972  0.0000E+00  0.5400E+01
     11.037  0.0000E+00  0.5400E+01
     11.102  0.0000E+00  0.5400E+01
     11.167  0.0000E+00  0.5400E+01
     11.232  0.0000E+00  0.5400E+01
     11.297  0.0000E+00  0.5400E+01
     11.362  0.0000E+00  0.5400E+01
