Si64                                    
           1
    10.945871    0.107312    0.000000
     0.107312   10.731246    0.000000
     0.000000    0.000000   10.731246
   Si
    64
Direct configuration=     1
   0.00000000  0.00000000  0.00000000
   0.00000000  0.00000000  0.50000000
   0.00000000  0.50000000  0.00000000
   0.00000000  0.50000000  0.50000000
   0.50000000  0.00000000  0.00000000
   0.50000000  0.00000000  0.50000000
   0.50000000  0.50000000  0.00000000
   0.50000000  0.50000000  0.50000000
   0.37500000  0.37500000  0.12500000
   0.37500000  0.37500000  0.62500000
   0.37500000  0.87500000  0.12500000
   0.37500000  0.87500000  0.62500000
   0.87500000  0.37500000  0.12500000
   0.87500000  0.37500000  0.62500000
   0.87500000  0.87500000  0.12500000
   0.87500000  0.87500000  0.62500000
   0.00000000  0.25000000  0.25000000
   0.00000000  0.25000000  0.75000000
   0.00000000  0.75000000  0.25000000
   0.00000000  0.75000000  0.75000000
   0.50000000  0.25000000  0.25000000
   0.50000000  0.25000000  0.75000000
   0.50000000  0.75000000  0.25000000
   0.50000000  0.75000000  0.75000000
   0.37500000  0.12500000  0.37500000
   0.37500000  0.12500000  0.87500000
   0.37500000  0.62500000  0.37500000
   0.37500000  0.62500000  0.87500000
   0.87500000  0.12500000  0.37500000
   0.87500000  0.12500000  0.87500000
   0.87500000  0.62500000  0.37500000
   0.87500000  0.62500000  0.87500000
   0.25000000  0.00000000  0.25000000
   0.25000000  0.00000000  0.75000000
   0.25000000  0.50000000  0.25000000
   0.25000000  0.50000000  0.75000000
   0.75000000  0.00000000  0.25000000
   0.75000000  0.00000000  0.75000000
   0.75000000  0.50000000  0.25000000
   0.75000000  0.50000000  0.75000000
   0.12500000  0.37500000  0.37500000
   0.12500000  0.37500000  0.87500000
   0.12500000  0.87500000  0.37500000
   0.12500000  0.87500000  0.87500000
   0.62500000  0.37500000  0.37500000
   0.62500000  0.37500000  0.87500000
   0.62500000  0.87500000  0.37500000
   0.62500000  0.87500000  0.87500000
   0.25000000  0.25000000  0.00000000
   0.25000000  0.25000000  0.50000000
   0.25000000  0.75000000  0.00000000
   0.25000000  0.75000000  0.50000000
   0.75000000  0.25000000  0.00000000
   0.75000000  0.25000000  0.50000000
   0.75000000  0.75000000  0.00000000
   0.75000000  0.75000000  0.50000000
   0.12500000  0.12500000  0.12500000
   0.12500000  0.12500000  0.62500000
   0.12500000  0.62500000  0.12500000
   0.12500000  0.62500000  0.62500000
   0.62500000  0.12500000  0.12500000
   0.62500000  0.12500000  0.62500000
   0.62500000  0.62500000  0.12500000
   0.62500000  0.62500000  0.62500000
Direct configuration=     2
   1.00000000  0.00000000  0.00095955
   0.00000000  0.00000000  0.50095955
   1.00000000  0.50000000  0.00095955
   1.00000000  0.50000000  0.50095955
   0.50000000  1.00000000  0.00095955
   0.50000000  1.00000000  0.50095955
   0.50000000  0.50000000  0.00095955
   0.50000000  0.50000000  0.50095955
   0.37500000  0.37500000  0.12404045
   0.37500000  0.37500000  0.62404045
   0.37500000  0.87500000  0.12404045
   0.37500000  0.87500000  0.62404045
   0.87500000  0.37500000  0.12404045
   0.87500000  0.37500000  0.62404045
   0.87500000  0.87500000  0.12404045
   0.87500000  0.87500000  0.62404045
   1.00000000  0.25000000  0.25095955
   1.00000000  0.25000000  0.75095955
   1.00000000  0.75000000  0.25095955
   1.00000000  0.75000000  0.75095955
   0.50000000  0.25000000  0.25095955
   0.50000000  0.25000000  0.75095955
   0.50000000  0.75000000  0.25095955
   0.50000000  0.75000000  0.75095955
   0.37500000  0.12500000  0.37404045
   0.37500000  0.12500000  0.87404045
   0.37500000  0.62500000  0.37404045
   0.37500000  0.62500000  0.87404045
   0.87500000  0.12500000  0.37404045
   0.87500000  0.12500000  0.87404045
   0.87500000  0.62500000  0.37404045
   0.87500000  0.62500000  0.87404045
   0.25000000  0.00000000  0.25095955
   0.25000000  0.00000000  0.75095955
   0.25000000  0.50000000  0.25095955
   0.25000000  0.50000000  0.75095955
   0.75000000  1.00000000  0.25095955
   0.75000000  1.00000000  0.75095955
   0.75000000  0.50000000  0.25095955
   0.75000000  0.50000000  0.75095955
   0.12500000  0.37500000  0.37404045
   0.12500000  0.37500000  0.87404045
   0.12500000  0.87500000  0.37404045
   0.12500000  0.87500000  0.87404045
   0.62500000  0.37500000  0.37404045
   0.62500000  0.37500000  0.87404045
   0.62500000  0.87500000  0.37404045
   0.62500000  0.87500000  0.87404045
   0.25000000  0.25000000  0.00095955
   0.25000000  0.25000000  0.50095955
   0.25000000  0.75000000  0.00095955
   0.25000000  0.75000000  0.50095955
   0.75000000  0.25000000  0.00095955
   0.75000000  0.25000000  0.50095955
   0.75000000  0.75000000  0.00095955
   0.75000000  0.75000000  0.50095955
   0.12500000  0.12500000  0.12404045
   0.12500000  0.12500000  0.62404045
   0.12500000  0.62500000  0.12404045
   0.12500000  0.62500000  0.62404045
   0.62500000  0.12500000  0.12404045
   0.62500000  0.12500000  0.62404045
   0.62500000  0.62500000  0.12404045
   0.62500000  0.62500000  0.62404045
Direct configuration=     3
   0.00000000  0.00000000  0.00072609
   0.00000000  0.00000000  0.50072609
   0.00000000  0.50000000  0.00072609
   0.00000000  0.50000000  0.50072609
   0.50000000  0.00000000  0.00072609
   0.50000000  0.00000000  0.50072609
   0.50000000  0.50000000  0.00072609
   0.50000000  0.50000000  0.50072609
   0.37500000  0.37500000  0.12427391
   0.37500000  0.37500000  0.62427391
   0.37500000  0.87500000  0.12427391
   0.37500000  0.87500000  0.62427391
   0.87500000  0.37500000  0.12427391
   0.87500000  0.37500000  0.62427391
   0.87500000  0.87500000  0.12427391
   0.87500000  0.87500000  0.62427391
   0.00000000  0.25000000  0.25072609
   0.00000000  0.25000000  0.75072609
   0.00000000  0.75000000  0.25072609
   0.00000000  0.75000000  0.75072609
   0.50000000  0.25000000  0.25072609
   0.50000000  0.25000000  0.75072609
   0.50000000  0.75000000  0.25072609
   0.50000000  0.75000000  0.75072609
   0.37500000  0.12500000  0.37427391
   0.37500000  0.12500000  0.87427391
   0.37500000  0.62500000  0.37427391
   0.37500000  0.62500000  0.87427391
   0.87500000  0.12500000  0.37427391
   0.87500000  0.12500000  0.87427391
   0.87500000  0.62500000  0.37427391
   0.87500000  0.62500000  0.87427391
   0.25000000  0.00000000  0.25072609
   0.25000000  0.00000000  0.75072609
   0.25000000  0.50000000  0.25072609
   0.25000000  0.50000000  0.75072609
   0.75000000  0.00000000  0.25072609
   0.75000000  0.00000000  0.75072609
   0.75000000  0.50000000  0.25072609
   0.75000000  0.50000000  0.75072609
   0.12500000  0.37500000  0.37427391
   0.12500000  0.37500000  0.87427391
   0.12500000  0.87500000  0.37427391
   0.12500000  0.87500000  0.87427391
   0.62500000  0.37500000  0.37427391
   0.62500000  0.37500000  0.87427391
   0.62500000  0.87500000  0.37427391
   0.62500000  0.87500000  0.87427391
   0.25000000  0.25000000  0.00072609
   0.25000000  0.25000000  0.50072609
   0.25000000  0.75000000  0.00072609
   0.25000000  0.75000000  0.50072609
   0.75000000  0.25000000  0.00072609
   0.75000000  0.25000000  0.50072609
   0.75000000  0.75000000  0.00072609
   0.75000000  0.75000000  0.50072609
   0.12500000  0.12500000  0.12427391
   0.12500000  0.12500000  0.62427391
   0.12500000  0.62500000  0.12427391
   0.12500000  0.62500000  0.62427391
   0.62500000  0.12500000  0.12427391
   0.62500000  0.12500000  0.62427391
   0.62500000  0.62500000  0.12427391
   0.62500000  0.62500000  0.62427391
