  64  64   0   0
  0.1933451E+02  0.1080756E-08  0.1070055E-08  0.1070042E-08  0.5000000E-15
  1.000000000000000E-004
  CAR 
 Si64                                    
     11.60663195     -8.08379505  301      6.41478921      1.00000000
     -8.084  0.0000E+00  0.0000E+00
     -8.018  0.0000E+00  0.0000E+00
     -7.953  0.0000E+00  0.0000E+00
     -7.887  0.0000E+00  0.0000E+00
     -7.821  0.0000E+00  0.0000E+00
     -7.756  0.0000E+00  0.0000E+00
     -7.690 -0.1404E-28 -0.9217E-30
     -7.624 -0.2340E-26 -0.1545E-27
     -7.559 -0.3151E-24 -0.2084E-25
     -7.493 -0.3414E-22 -0.2262E-23
     -7.427 -0.2974E-20 -0.1975E-21
     -7.362 -0.2083E-18 -0.1387E-19
     -7.296 -0.1172E-16 -0.7832E-18
     -7.231 -0.5121E-15 -0.3439E-16
     -7.165 -0.1857E-13 -0.1253E-14
     -7.099 -0.5378E-12 -0.3655E-13
     -7.034 -0.1247E-10 -0.8550E-12
     -6.968 -0.2312E-09 -0.1603E-10
     -6.902 -0.3420E-08 -0.2405E-09
     -6.837 -0.4027E-07 -0.2884E-08
     -6.771 -0.3762E-06 -0.2758E-07
     -6.705 -0.2774E-05 -0.2097E-06
     -6.640 -0.1603E-04 -0.1262E-05
     -6.574 -0.7175E-04 -0.5971E-05
     -6.509 -0.2437E-03 -0.2196E-04
     -6.443 -0.6028E-03 -0.6153E-04
     -6.377 -0.9773E-03 -0.1257E-03
     -6.312 -0.6075E-03 -0.1655E-03
     -6.246  0.1583E-02 -0.6166E-04
     -6.180  0.5554E-02  0.3029E-03
     -6.115  0.9444E-02  0.9227E-03
     -6.049  0.1285E-01  0.1766E-02
     -5.983  0.2132E-01  0.3165E-02
     -5.918  0.4198E-01  0.5921E-02
     -5.852  0.7079E-01  0.1057E-01
     -5.787  0.9223E-01  0.1662E-01
     -5.721  0.1017E+00  0.2330E-01
     -5.655  0.1181E+00  0.3105E-01
     -5.590  0.1557E+00  0.4127E-01
     -5.524  0.1932E+00  0.5396E-01
     -5.458  0.1968E+00  0.6688E-01
     -5.393  0.1686E+00  0.7794E-01
     -5.327  0.1423E+00  0.8728E-01
     -5.262  0.1321E+00  0.9595E-01
     -5.196  0.1205E+00  0.1039E+00
     -5.130  0.9625E-01  0.1102E+00
     -5.065  0.7414E-01  0.1150E+00
     -4.999  0.7006E-01  0.1196E+00
     -4.933  0.8807E-01  0.1254E+00
     -4.868  0.1387E+00  0.1345E+00
     -4.802  0.2339E+00  0.1499E+00
     -4.736  0.3482E+00  0.1727E+00
     -4.671  0.4256E+00  0.2007E+00
     -4.605  0.4479E+00  0.2301E+00
     -4.540  0.4500E+00  0.2596E+00
     -4.474  0.4443E+00  0.2888E+00
     -4.408  0.3889E+00  0.3143E+00
     -4.343  0.2603E+00  0.3314E+00
     -4.277  0.1066E+00  0.3384E+00
     -4.211  0.5690E-03  0.3384E+00
     -4.146 -0.2223E-01  0.3369E+00
     -4.080  0.3648E-01  0.3393E+00
     -4.014  0.1608E+00  0.3499E+00
     -3.949  0.3201E+00  0.3709E+00
     -3.883  0.4604E+00  0.4011E+00
     -3.818  0.5209E+00  0.4353E+00
     -3.752  0.4757E+00  0.4665E+00
     -3.686  0.3609E+00  0.4902E+00
     -3.621  0.2524E+00  0.5068E+00
     -3.555  0.2181E+00  0.5211E+00
     -3.489  0.2859E+00  0.5399E+00
     -3.424  0.4314E+00  0.5682E+00
     -3.358  0.5854E+00  0.6066E+00
     -3.292  0.6778E+00  0.6511E+00
     -3.227  0.6869E+00  0.6962E+00
     -3.161  0.6366E+00  0.7380E+00
     -3.096  0.5564E+00  0.7745E+00
     -3.030  0.4706E+00  0.8054E+00
     -2.964  0.4137E+00  0.8325E+00
     -2.899  0.4073E+00  0.8592E+00
     -2.833  0.4135E+00  0.8864E+00
     -2.767  0.3614E+00  0.9101E+00
     -2.702  0.2353E+00  0.9255E+00
     -2.636  0.9463E-01  0.9318E+00
     -2.570  0.1917E-02  0.9319E+00
     -2.505 -0.3120E-01  0.9298E+00
     -2.439 -0.2352E-01  0.9283E+00
     -2.374  0.1509E-01  0.9293E+00
     -2.308  0.8321E-01  0.9347E+00
     -2.242  0.1595E+00  0.9452E+00
     -2.177  0.1981E+00  0.9582E+00
     -2.111  0.1677E+00  0.9692E+00
     -2.045  0.8915E-01  0.9751E+00
     -1.980  0.2521E-01  0.9767E+00
     -1.914  0.3961E-01  0.9793E+00
     -1.848  0.1613E+00  0.9899E+00
     -1.783  0.3610E+00  0.1014E+01
     -1.717  0.5482E+00  0.1050E+01
     -1.652  0.6168E+00  0.1090E+01
     -1.586  0.5240E+00  0.1124E+01
     -1.520  0.3271E+00  0.1146E+01
     -1.455  0.1356E+00  0.1155E+01
     -1.389  0.3287E-01  0.1157E+01
     -1.323  0.3705E-01  0.1159E+01
     -1.258  0.1092E+00  0.1167E+01
     -1.192  0.1831E+00  0.1179E+01
     -1.127  0.2062E+00  0.1192E+01
     -1.061  0.1769E+00  0.1204E+01
     -0.995  0.1490E+00  0.1214E+01
     -0.930  0.1840E+00  0.1226E+01
     -0.864  0.2820E+00  0.1244E+01
     -0.798  0.3649E+00  0.1268E+01
     -0.733  0.3600E+00  0.1292E+01
     -0.667  0.3038E+00  0.1312E+01
     -0.601  0.3253E+00  0.1333E+01
     -0.536  0.5083E+00  0.1366E+01
     -0.470  0.7895E+00  0.1418E+01
     -0.405  0.9957E+00  0.1484E+01
     -0.339  0.9760E+00  0.1548E+01
     -0.273  0.7200E+00  0.1595E+01
     -0.208  0.3662E+00  0.1619E+01
     -0.142  0.9163E-01  0.1625E+01
     -0.076 -0.5344E-02  0.1625E+01
     -0.011  0.6858E-01  0.1629E+01
      0.055  0.2337E+00  0.1644E+01
      0.121  0.3758E+00  0.1669E+01
      0.186  0.4060E+00  0.1696E+01
      0.252  0.3220E+00  0.1717E+01
      0.317  0.1987E+00  0.1730E+01
      0.383  0.1125E+00  0.1737E+01
      0.449  0.9555E-01  0.1744E+01
      0.514  0.1497E+00  0.1753E+01
      0.580  0.2617E+00  0.1771E+01
      0.646  0.3950E+00  0.1796E+01
      0.711  0.4865E+00  0.1828E+01
      0.777  0.4766E+00  0.1860E+01
      0.843  0.3582E+00  0.1883E+01
      0.908  0.1915E+00  0.1896E+01
      0.974  0.5649E-01  0.1899E+01
      1.039 -0.9792E-02  0.1899E+01
      1.105 -0.2320E-01  0.1897E+01
      1.171 -0.1736E-01  0.1896E+01
      1.236 -0.1452E-01  0.1895E+01
      1.302 -0.2119E-01  0.1894E+01
      1.368 -0.3014E-01  0.1892E+01
      1.433 -0.1600E-01  0.1891E+01
      1.499  0.6273E-01  0.1895E+01
      1.565  0.2360E+00  0.1910E+01
      1.630  0.4805E+00  0.1942E+01
      1.696  0.7076E+00  0.1988E+01
      1.761  0.8088E+00  0.2041E+01
      1.827  0.7320E+00  0.2090E+01
      1.893  0.5321E+00  0.2124E+01
      1.958  0.3457E+00  0.2147E+01
      2.024  0.2862E+00  0.2166E+01
      2.090  0.3445E+00  0.2189E+01
      2.155  0.4067E+00  0.2215E+01
      2.221  0.3822E+00  0.2240E+01
      2.286  0.3113E+00  0.2261E+01
      2.352  0.3409E+00  0.2283E+01
      2.418  0.5886E+00  0.2322E+01
      2.483  0.1008E+01  0.2388E+01
      2.549  0.1379E+01  0.2478E+01
      2.615  0.1458E+01  0.2574E+01
      2.680  0.1172E+01  0.2651E+01
      2.746  0.6854E+00  0.2696E+01
      2.812  0.2443E+00  0.2712E+01
      2.877 -0.1199E-01  0.2711E+01
      2.943 -0.9864E-01  0.2705E+01
      3.008 -0.8145E-01  0.2699E+01
      3.074  0.2473E-01  0.2701E+01
      3.140  0.2512E+00  0.2718E+01
      3.205  0.5907E+00  0.2756E+01
      3.271  0.9485E+00  0.2819E+01
      3.337  0.1201E+01  0.2897E+01
      3.402  0.1289E+01  0.2982E+01
      3.468  0.1235E+01  0.3063E+01
      3.534  0.1086E+01  0.3134E+01
      3.599  0.8919E+00  0.3193E+01
      3.665  0.7135E+00  0.3240E+01
      3.730  0.6254E+00  0.3281E+01
      3.796  0.6581E+00  0.3324E+01
      3.862  0.7366E+00  0.3372E+01
      3.927  0.7242E+00  0.3420E+01
      3.993  0.5728E+00  0.3458E+01
      4.059  0.3929E+00  0.3483E+01
      4.124  0.3317E+00  0.3505E+01
      4.190  0.4118E+00  0.3532E+01
      4.256  0.5309E+00  0.3567E+01
      4.321  0.5965E+00  0.3606E+01
      4.387  0.6095E+00  0.3646E+01
      4.452  0.6174E+00  0.3687E+01
      4.518  0.6426E+00  0.3729E+01
      4.584  0.6832E+00  0.3774E+01
      4.649  0.7431E+00  0.3822E+01
      4.715  0.8216E+00  0.3876E+01
      4.781  0.8835E+00  0.3934E+01
      4.846  0.8643E+00  0.3991E+01
      4.912  0.7200E+00  0.4038E+01
      4.978  0.4774E+00  0.4070E+01
      5.043  0.2317E+00  0.4085E+01
      5.109  0.8625E-01  0.4091E+01
      5.174  0.8824E-01  0.4096E+01
      5.240  0.2064E+00  0.4110E+01
      5.306  0.3495E+00  0.4133E+01
      5.371  0.4175E+00  0.4160E+01
      5.437  0.3644E+00  0.4184E+01
      5.503  0.2272E+00  0.4199E+01
      5.568  0.8888E-01  0.4205E+01
      5.634  0.1529E-01  0.4206E+01
      5.700  0.2378E-01  0.4207E+01
      5.765  0.8924E-01  0.4213E+01
      5.831  0.1620E+00  0.4224E+01
      5.896  0.1934E+00  0.4237E+01
      5.962  0.1675E+00  0.4248E+01
      6.028  0.1113E+00  0.4255E+01
      6.093  0.6411E-01  0.4259E+01
      6.159  0.4095E-01  0.4262E+01
      6.225  0.3003E-01  0.4264E+01
      6.290  0.1819E-01  0.4265E+01
      6.356  0.9343E-02  0.4266E+01
      6.421  0.1979E-01  0.4267E+01
      6.487  0.5969E-01  0.4271E+01
      6.553  0.1180E+00  0.4279E+01
      6.618  0.1650E+00  0.4289E+01
      6.684  0.1723E+00  0.4301E+01
      6.750  0.1344E+00  0.4310E+01
      6.815  0.7271E-01  0.4314E+01
      6.881  0.2120E-01  0.4316E+01
      6.947  0.1009E-01  0.4316E+01
      7.012  0.5360E-01  0.4320E+01
      7.078  0.1386E+00  0.4329E+01
      7.143  0.2217E+00  0.4344E+01
      7.209  0.2552E+00  0.4360E+01
      7.275  0.2342E+00  0.4376E+01
      7.340  0.2150E+00  0.4390E+01
      7.406  0.2626E+00  0.4407E+01
      7.472  0.3720E+00  0.4431E+01
      7.537  0.4566E+00  0.4461E+01
      7.603  0.4328E+00  0.4490E+01
      7.669  0.3104E+00  0.4510E+01
      7.734  0.1903E+00  0.4523E+01
      7.800  0.1797E+00  0.4534E+01
      7.865  0.3137E+00  0.4555E+01
      7.931  0.5320E+00  0.4590E+01
      7.997  0.7148E+00  0.4637E+01
      8.062  0.7614E+00  0.4687E+01
      8.128  0.6663E+00  0.4731E+01
      8.194  0.5265E+00  0.4765E+01
      8.259  0.4648E+00  0.4796E+01
      8.325  0.5411E+00  0.4831E+01
      8.391  0.7319E+00  0.4879E+01
      8.456  0.9642E+00  0.4942E+01
      8.522  0.1147E+01  0.5018E+01
      8.587  0.1196E+01  0.5096E+01
      8.653  0.1071E+01  0.5167E+01
      8.719  0.8152E+00  0.5220E+01
      8.784  0.5294E+00  0.5255E+01
      8.850  0.3116E+00  0.5275E+01
      8.916  0.2055E+00  0.5289E+01
      8.981  0.2005E+00  0.5302E+01
      9.047  0.2568E+00  0.5319E+01
      9.113  0.3196E+00  0.5340E+01
      9.178  0.3324E+00  0.5362E+01
      9.244  0.2696E+00  0.5379E+01
      9.309  0.1594E+00  0.5390E+01
      9.375  0.5918E-01  0.5394E+01
      9.441  0.7333E-02  0.5394E+01
      9.506  0.2160E-02  0.5394E+01
      9.572  0.1767E-01  0.5395E+01
      9.638  0.2901E-01  0.5397E+01
      9.703  0.2655E-01  0.5399E+01
      9.769  0.1522E-01  0.5400E+01
      9.834  0.4465E-02  0.5400E+01
      9.900 -0.8852E-03  0.5400E+01
      9.966 -0.1816E-02  0.5400E+01
     10.031 -0.1120E-02  0.5400E+01
     10.097 -0.4456E-03  0.5400E+01
     10.163 -0.1289E-03  0.5400E+01
     10.228 -0.2829E-04  0.5400E+01
     10.294 -0.4814E-05  0.5400E+01
     10.360 -0.6424E-06  0.5400E+01
     10.425 -0.6771E-07  0.5400E+01
     10.491 -0.5665E-08  0.5400E+01
     10.556 -0.3775E-09  0.5400E+01
     10.622 -0.2008E-10  0.5400E+01
     10.688 -0.8543E-12  0.5400E+01
     10.753 -0.2912E-13  0.5400E+01
     10.819 -0.8035E-15  0.5400E+01
     10.885 -0.1410E-16  0.5400E+01
     10.950  0.0000E+00  0.5400E+01
     11.016  0.0000E+00  0.5400E+01
     11.082  0.0000E+00  0.5400E+01
     11.147  0.0000E+00  0.5400E+01
     11.213  0.0000E+00  0.5400E+01
     11.278  0.0000E+00  0.5400E+01
     11.344  0.0000E+00  0.5400E+01
     11.410  0.0000E+00  0.5400E+01
     11.475  0.0000E+00  0.5400E+01
     11.541  0.0000E+00  0.5400E+01
     11.607  0.0000E+00  0.5400E+01
