 vasp.6.4.3 19Mar24 (build Oct 21 2024 22:36:34) complex                        
  
 executed on             LinuxIFC date 2024.11.01  22:53:09
 running   96 mpi-ranks, on    1 nodes
 distrk:  each k-point on   24 cores,    4 groups
 distr:  one band on NCORE=  12 cores,    2 groups


--------------------------------------------------------------------------------------------------------


 INCAR:
   SYSTEM = Si64
   ISTART = 0
   ICHARG = 2
   LREAL = Auto
   PREC = Accurate
   LWAVE = .False.
   LCHARG = .False.
   ADDGRID = .True.
   ENCUT = 400
   GGA = PS
   GGA_COMPAT = .FALSE.
   ISMEAR = 1
   SIGMA = 0.2
   NELM = 60
   NELMIN = 8
   EDIFF = 1e-06
   EDIFFG = -0.01
   NSW = 60
   IBRION = 2
   ISIF = 2
   KPAR = 4
   NPAR = 2
   ALGO = Fast

 POTCAR:    PAW_PBE Si 05Jan2001                  
 POTCAR:    PAW_PBE Si 05Jan2001                  
   VRHFIN =Si: s2p2                                                                                 
   LEXCH  = PE                                                                                      
   EATOM  =   103.0669 eV,    7.5752 Ry                                                             
                                                                                                    
   TITEL  = PAW_PBE Si 05Jan2001                                                                    
   LULTRA =        F    use ultrasoft PP ?                                                          
   IUNSCR =        1    unscreen: 0-lin 1-nonlin 2-no                                               
   RPACOR =    1.500    partial core radius                                                         
   POMASS =   28.085; ZVAL   =    4.000    mass and valenz                                          
   RCORE  =    1.900    outmost cutoff radius                                                       
   RWIGS  =    2.480; RWIGS  =    1.312    wigner-seitz radius (au A)                               
   ENMAX  =  245.345; ENMIN  =  184.009 eV                                                          
   ICORE  =        2    local potential                                                             
   LCOR   =        T    correct aug charges                                                         
   LPAW   =        T    paw PP                                                                      
   EAUG   =  322.069                                                                                
   DEXC   =    0.000                                                                                
   RMAX   =    1.950    core radius for proj-oper                                                   
   RAUG   =    1.300    factor for augmentation sphere                                              
   RDEP   =    1.993    radius for radial grids                                                     
   RDEPT  =    1.837    core radius for aug-charge                                                  
                                                                                                    
   Atomic configuration                                                                             
    6 entries                                                                                       
     n  l   j            E        occ.                                                              
     1  0  0.50     -1785.8828   2.0000                                                             
     2  0  0.50      -139.4969   2.0000                                                             
     2  1  1.50       -95.5546   6.0000                                                             
     3  0  0.50       -10.8127   2.0000                                                             
     3  1  0.50        -4.0811   2.0000                                                             
     3  2  1.50        -4.0817   0.0000                                                             
   Description                                                                                      
     l       E           TYP  RCUT    TYP  RCUT                                                     
     0    -10.8127223     23  1.900                                                                 
     0     -7.6451159     23  1.900                                                                 
     1     -4.0811372     23  1.900                                                                 
     1      2.4879257     23  1.900                                                                 
     2     -4.0817478      7  1.900                                                                 
  local pseudopotential read in
  partial core-charges read in
  partial kinetic energy density read in
  atomic valenz-charges read in
  non local Contribution for L=           0  read in
    real space projection operators read in
  non local Contribution for L=           0  read in
    real space projection operators read in
  non local Contribution for L=           1  read in
    real space projection operators read in
  non local Contribution for L=           1  read in
    real space projection operators read in
    PAW grid and wavefunctions read in
 
   number of l-projection  operators is LMAX  =           4
   number of lm-projection operators is LMMAX =           8
 
 Optimization of the real space projectors (new method)

 maximal supplied QI-value         = 19.84
 optimisation between [QCUT,QGAM] = [ 10.12, 20.44] = [ 28.68,116.96] Ry 
 Optimized for a Real-space Cutoff    1.38 Angstroem

   l    n(q)    QCUT    max X(q) W(low)/X(q) W(high)/X(q)  e(spline) 
   0      8    10.119   159.560    0.58E-04    0.11E-03    0.54E-07
   0      8    10.119   115.863    0.56E-04    0.11E-03    0.54E-07
   1      8    10.119    88.339    0.22E-03    0.17E-03    0.19E-06
   1      8    10.119    48.592    0.22E-03    0.17E-03    0.18E-06
 -----------------------------------------------------------------------------
|                                                                             |
|               ----> ADVICE to this user running VASP <----                  |
|                                                                             |
|     You enforced a specific xc type in the INCAR file but a different       |
|     type was found in the POTCAR file.                                      |
|     I HOPE YOU KNOW WHAT YOU ARE DOING!                                     |
|                                                                             |
 -----------------------------------------------------------------------------

  PAW_PBE Si 05Jan2001                  :
 energy of atom  1       EATOM= -103.0669
 kinetic energy error for atom=    0.0012 (will be added to EATOM!!)
 
 
 POSCAR: Si8
  positions in direct lattice
  velocities in cartesian coordinates


 exchange-correlation table for PS
   RHO(1)=    0.500       N(1)  =     2000
   RHO(2)=  100.500       N(2)  =     4000
 


--------------------------------------------------------------------------------------------------------


 ion  position               nearest neighbor table
   1  0.000  0.000  0.000-  30 2.32  44 2.32  15 2.33  57 2.33
   2  0.000  0.000  0.500-  29 2.32  43 2.32  16 2.33  58 2.33
   3  0.000  0.500  0.000-  32 2.32  42 2.32  13 2.33  59 2.33
   4  0.000  0.500  0.500-  31 2.32  41 2.32  14 2.33  60 2.33
   5  0.500  0.000  0.000-  26 2.32  48 2.32  11 2.33  61 2.33
   6  0.500  0.000  0.500-  25 2.32  47 2.32  12 2.33  62 2.33
   7  0.500  0.500  0.000-  28 2.32  46 2.32   9 2.33  63 2.33
   8  0.500  0.500  0.500-  27 2.32  45 2.32  10 2.33  64 2.33
   9  0.375  0.375  0.125-  21 2.32  35 2.32   7 2.33  49 2.33
  10  0.375  0.375  0.625-  22 2.32  36 2.32   8 2.33  50 2.33
  11  0.375  0.875  0.125-  23 2.32  33 2.32   5 2.33  51 2.33
  12  0.375  0.875  0.625-  24 2.32  34 2.32   6 2.33  52 2.33
  13  0.875  0.375  0.125-  17 2.32  39 2.32   3 2.33  53 2.33
  14  0.875  0.375  0.625-  18 2.32  40 2.32   4 2.33  54 2.33
  15  0.875  0.875  0.125-  19 2.32  37 2.32   1 2.33  55 2.33
  16  0.875  0.875  0.625-  20 2.32  38 2.32   2 2.33  56 2.33
  17  0.000  0.250  0.250-  13 2.32  57 2.32  41 2.33  29 2.33
  18  0.000  0.250  0.750-  14 2.32  58 2.32  42 2.33  30 2.33
  19  0.000  0.750  0.250-  15 2.32  59 2.32  43 2.33  31 2.33
  20  0.000  0.750  0.750-  16 2.32  60 2.32  44 2.33  32 2.33
  21  0.500  0.250  0.250-   9 2.32  61 2.32  45 2.33  25 2.33
  22  0.500  0.250  0.750-  10 2.32  62 2.32  46 2.33  26 2.33
  23  0.500  0.750  0.250-  11 2.32  63 2.32  47 2.33  27 2.33
  24  0.500  0.750  0.750-  12 2.32  64 2.32  48 2.33  28 2.33
  25  0.375  0.125  0.375-   6 2.32  50 2.32  33 2.33  21 2.33
  26  0.375  0.125  0.875-   5 2.32  49 2.32  34 2.33  22 2.33
  27  0.375  0.625  0.375-   8 2.32  52 2.32  35 2.33  23 2.33
  28  0.375  0.625  0.875-   7 2.32  51 2.32  36 2.33  24 2.33
  29  0.875  0.125  0.375-   2 2.32  54 2.32  37 2.33  17 2.33
  30  0.875  0.125  0.875-   1 2.32  53 2.32  38 2.33  18 2.33
  31  0.875  0.625  0.375-   4 2.32  56 2.32  39 2.33  19 2.33
  32  0.875  0.625  0.875-   3 2.32  55 2.32  40 2.33  20 2.33
  33  0.250  0.000  0.250-  11 2.32  57 2.32  43 2.33  25 2.33
  34  0.250  0.000  0.750-  12 2.32  58 2.32  44 2.33  26 2.33
  35  0.250  0.500  0.250-   9 2.32  59 2.32  41 2.33  27 2.33
  36  0.250  0.500  0.750-  10 2.32  60 2.32  42 2.33  28 2.33
  37  0.750  0.000  0.250-  15 2.32  61 2.32  47 2.33  29 2.33
  38  0.750  0.000  0.750-  16 2.32  62 2.32  48 2.33  30 2.33
  39  0.750  0.500  0.250-  13 2.32  63 2.32  45 2.33  31 2.33
  40  0.750  0.500  0.750-  14 2.32  64 2.32  46 2.33  32 2.33
  41  0.125  0.375  0.375-   4 2.32  50 2.32  35 2.33  17 2.33
  42  0.125  0.375  0.875-   3 2.32  49 2.32  36 2.33  18 2.33
  43  0.125  0.875  0.375-   2 2.32  52 2.32  33 2.33  19 2.33
  44  0.125  0.875  0.875-   1 2.32  51 2.32  34 2.33  20 2.33
  45  0.625  0.375  0.375-   8 2.32  54 2.32  39 2.33  21 2.33
  46  0.625  0.375  0.875-   7 2.32  53 2.32  40 2.33  22 2.33
  47  0.625  0.875  0.375-   6 2.32  56 2.32  37 2.33  23 2.33
  48  0.625  0.875  0.875-   5 2.32  55 2.32  38 2.33  24 2.33
  49  0.250  0.250  0.000-  26 2.32  42 2.32   9 2.33  57 2.33
  50  0.250  0.250  0.500-  25 2.32  41 2.32  10 2.33  58 2.33
  51  0.250  0.750  0.000-  28 2.32  44 2.32  11 2.33  59 2.33
  52  0.250  0.750  0.500-  27 2.32  43 2.32  12 2.33  60 2.33
  53  0.750  0.250  0.000-  30 2.32  46 2.32  13 2.33  61 2.33
  54  0.750  0.250  0.500-  29 2.32  45 2.32  14 2.33  62 2.33
  55  0.750  0.750  0.000-  32 2.32  48 2.32  15 2.33  63 2.33
  56  0.750  0.750  0.500-  31 2.32  47 2.32  16 2.33  64 2.33
  57  0.125  0.125  0.125-  17 2.32  33 2.32   1 2.33  49 2.33
  58  0.125  0.125  0.625-  18 2.32  34 2.32   2 2.33  50 2.33
  59  0.125  0.625  0.125-  19 2.32  35 2.32   3 2.33  51 2.33
  60  0.125  0.625  0.625-  20 2.32  36 2.32   4 2.33  52 2.33
  61  0.625  0.125  0.125-  21 2.32  37 2.32   5 2.33  53 2.33
  62  0.625  0.125  0.625-  22 2.32  38 2.32   6 2.33  54 2.33
  63  0.625  0.625  0.125-  23 2.32  39 2.32   7 2.33  55 2.33
  64  0.625  0.625  0.625-  24 2.32  40 2.32   8 2.33  56 2.33
 
  LATTYP: Found a simple monoclinic cell.
 ALAT       =    10.7005543342
 B/A-ratio  =     0.9999875003
 C/A-ratio  =     1.0099997335
 COS(beta)  =    -0.0099502312
  
  Lattice vectors:
  
 A1 = (   0.0535020079,  10.7004205802,   0.0000000000)
 A2 = (   0.0000000000,   0.0000000000, -10.7004205802)
 A3 = ( -10.8074245960,  -0.0535020079,   0.0000000000)


Analysis of symmetry for initial positions (statically):
=====================================================================
 Subroutine PRICEL returns following result:
 
  LATTYP: Found a base centered monoclinic cell.
 ALAT       =     5.3502771671
 B/A-ratio  =     0.9999875003
 C/A-ratio  =     0.7071067812
 COS(beta)  =    -0.7000005484
  
  Lattice vectors:
  
 A1 = (   0.0133755020,   2.6751051451,  -2.6751051451)
 A2 = (   0.0133755020,   2.6751051451,   2.6751051451)
 A3 = (   2.6884806470,  -2.6617296431,   0.0000000000)
 
  32 primitive cells build up your supercell.
 

 Routine SETGRP: Setting up the symmetry group for a 
 simple monoclinic supercell.


 Subroutine GETGRP returns: Found  4 space group operations
 (whereof  2 operations were pure point group operations)
 out of a pool of  4 trial point group operations.


The static configuration has the point symmetry C_2 .
 The point group associated with its full space group is C_2h.


Analysis of symmetry for dynamics (positions and initial velocities):
=====================================================================
 Subroutine PRICEL returns following result:
 
  LATTYP: Found a base centered monoclinic cell.
 ALAT       =     5.3502771671
 B/A-ratio  =     0.9999875003
 C/A-ratio  =     0.7071067812
 COS(beta)  =    -0.7000005484
  
  Lattice vectors:
  
 A1 = (   0.0133755020,   2.6751051451,  -2.6751051451)
 A2 = (   0.0133755020,   2.6751051451,   2.6751051451)
 A3 = (   2.6884806470,  -2.6617296431,   0.0000000000)
 
  32 primitive cells build up your supercell.
 

 Routine SETGRP: Setting up the symmetry group for a 
 simple monoclinic supercell.


 Subroutine GETGRP returns: Found  4 space group operations
 (whereof  2 operations were pure point group operations)
 out of a pool of  4 trial point group operations.


The dynamic configuration has the point symmetry C_2 .
 The point group associated with its full space group is C_2h.


 Subroutine INISYM returns: Found  4 space group operations
 (whereof  2 operations are pure point group operations),
 and found    32 'primitive' translations


----------------------------------------------------------------------------------------

                                     Primitive cell                                     

  volume of cell :      38.6690

  direct lattice vectors                    reciprocal lattice vectors
     0.013375502  2.675105145 -2.675105145     0.184137234  0.185987857 -0.186908541
     0.013375502  2.675105145  2.675105145     0.184137234  0.185987857  0.186908541
     2.688480647 -2.661729643  0.000000000     0.370125091 -0.001850622 -0.000000000

  length of vectors
     3.783193622  3.783193622  3.783217266     0.321609712  0.321609712  0.370129718

  position of ions in fractional coordinates (direct lattice)
     0.000000000  0.000000000  0.000000000
     0.250000000  0.750000000  0.500000000

  ion indices of the primitive-cell ions
   primitive index   ion index
                 1           1
                 2          15

----------------------------------------------------------------------------------------

 
 
 KPOINTS: Automatic mesh                          

Automatic generation of k-mesh.
 Grid dimensions read from file:
 generate k-points for:    2    2    2

 Generating k-lattice:

  Cartesian coordinates                     Fractional coordinates (reciprocal lattice)
     0.046265636 -0.000231328  0.000000000     0.500000000  0.000000000  0.000000000
    -0.000231328  0.046728292  0.000000000    -0.000000000  0.500000000  0.000000000
     0.000000000  0.000000000  0.046727135     0.000000000  0.000000000  0.500000000

  Length of vectors
     0.046266215  0.046728865  0.046727135

  Shift w.r.t. Gamma in fractional coordinates (k-lattice)
     0.000000000  0.000000000  0.000000000

 
 Subroutine IBZKPT returns following result:
 ===========================================
 
 Found      8 irreducible k-points:
 
 Following reciprocal coordinates:
            Coordinates               Weight
  0.000000  0.000000  0.000000      1.000000
  0.500000 -0.000000  0.000000      1.000000
 -0.000000  0.500000  0.000000      1.000000
  0.500000  0.500000  0.000000      1.000000
  0.000000  0.000000  0.500000      1.000000
  0.500000 -0.000000  0.500000      1.000000
 -0.000000  0.500000  0.500000      1.000000
  0.500000  0.500000  0.500000      1.000000
 
 Following cartesian coordinates:
            Coordinates               Weight
  0.000000  0.000000  0.000000      1.000000
  0.046266 -0.000231  0.000000      1.000000
 -0.000231  0.046728  0.000000      1.000000
  0.046034  0.046497  0.000000      1.000000
  0.000000  0.000000  0.046727      1.000000
  0.046266 -0.000231  0.046727      1.000000
 -0.000231  0.046728  0.046727      1.000000
  0.046034  0.046497  0.046727      1.000000
 


--------------------------------------------------------------------------------------------------------




 Dimension of arrays:
   k-points           NKPTS =      8   k-points in BZ     NKDIM =      8   number of bands    NBANDS=    162
   number of dos      NEDOS =    301   number of ions     NIONS =     64
   non local maximal  LDIM  =      4   non local SUM 2l+1 LMDIM =      8
   total plane-waves  NPLWV = 343000
   max r-space proj   IRMAX =   3104   max aug-charges    IRDMAX=  74334
   dimension x,y,z NGX =    70 NGY =   70 NGZ =   70
   dimension x,y,z NGXF=   140 NGYF=  140 NGZF=  140
   support grid    NGXF=   280 NGYF=  280 NGZF=  280
   ions per type =              64
   NGX,Y,Z   is equivalent  to a cutoff of  10.77, 10.88, 10.88 a.u.
   NGXF,Y,Z  is equivalent  to a cutoff of  21.54, 21.75, 21.75 a.u.

 SYSTEM =  Si64                                    
 POSCAR =  Si8                                     

 Startparameter for this run:
   NWRITE =      2    write-flag & timer
   PREC   = accura    normal or accurate (medium, high low for compatibility)
   ISTART =      0    job   : 0-new  1-cont  2-samecut
   ICHARG =      2    charge: 1-file 2-atom 10-const
   ISPIN  =      1    spin polarized calculation?
   LNONCOLLINEAR =      F non collinear calculations
   LSORBIT =      F    spin-orbit coupling
   INIWAV =      1    electr: 0-lowe 1-rand  2-diag
   LASPH  =      F    aspherical Exc in radial PAW
 Electronic Relaxation 1
   ENCUT  =  400.0 eV  29.40 Ry    5.42 a.u.  17.62 17.45 17.45*2*pi/ulx,y,z
   ENINI  =  400.0     initial cutoff
   ENAUG  =  322.1 eV  augmentation charge cutoff
   NELM   =     60;   NELMIN=  8; NELMDL= -5     # of ELM steps 
   EDIFF  = 0.1E-05   stopping-criterion for ELM
   LREAL  =      T    real-space projection
   NLSPLINE    = F    spline interpolate recip. space projectors
   LCOMPAT=      F    compatible to vasp.4.4
   GGA_COMPAT  = F    GGA compatible to vasp.4.4-vasp.4.6
   LMAXPAW     = -100 max onsite density
   LMAXMIX     =    2 max onsite mixed and CHGCAR
   VOSKOWN=      0    Vosko Wilk Nusair interpolation
   ROPT   =   -0.00025
 Ionic relaxation
   EDIFFG = -.1E-01   stopping-criterion for IOM
   NSW    =     60    number of steps for IOM
   NBLOCK =      1;   KBLOCK =     60    inner block; outer block 
   IBRION =      2    ionic relax: 0-MD 1-quasi-New 2-CG
   NFREE  =      1    steps in history (QN), initial steepest desc. (CG)
   ISIF   =      2    stress and relaxation
   IWAVPR =     11    prediction:  0-non 1-charg 2-wave 3-comb
   ISYM   =      2    0-nonsym 1-usesym 2-fastsym
   LCORR  =      T    Harris-Foulkes like correction to forces

   POTIM  = 0.5000    time-step for ionic-motion
   TEIN   =    0.0    initial temperature
   TEBEG  =    0.0;   TEEND  =   0.0 temperature during run
   SMASS  =  -3.00    Nose mass-parameter (am)
   estimated Nose-frequenzy (Omega)   =  0.10E-29 period in steps = 0.13E+47 mass=  -0.267E-26a.u.
   SCALEE = 1.0000    scale energy and forces
   NPACO  =    256;   APACO  = 10.0  distance and # of slots for P.C.
   PSTRESS=    0.0 pullay stress

  Mass of Ions in am
   POMASS =  28.09
  Ionic Valenz
   ZVAL   =   4.00
  Atomic Wigner-Seitz radii
   RWIGS  =  -1.00
  virtual crystal weights 
   VCA    =   1.00
   NELECT =     256.0000    total number of electrons
   NUPDOWN=      -1.0000    fix difference up-down

 DOS related values:
   EMIN   =  10.00;   EMAX   =-10.00  energy-range for DOS
   EFERMI =   0.00;   METHOD = LEGACY      
   ISMEAR =     1;   SIGMA  =   0.20  broadening in eV -4-tet -1-fermi 0-gaus

 Electronic relaxation 2 (details)
   IALGO  =     68    algorithm
   LDIAG  =      T    sub-space diagonalisation (order eigenvalues)
   LSUBROT=      F    optimize rotation matrix (better conditioning)
   TURBO    =      0    0=normal 1=particle mesh
   IRESTART =      0    0=no restart 2=restart with 2 vectors
   NREBOOT  =      0    no. of reboots
   NMIN     =      0    reboot dimension
   EREF     =   0.00    reference energy to select bands
   IMIX   =      4    mixing-type and parameters
     AMIX     =   0.40;   BMIX     =  1.00
     AMIX_MAG =   1.60;   BMIX_MAG =  1.00
     AMIN     =   0.10
     WC   =   100.;   INIMIX=   1;  MIXPRE=   1;  MAXMIX= -45

 Intra band minimization:
   WEIMIN = 0.0010     energy-eigenvalue tresh-hold
   EBREAK =  0.15E-08  absolut break condition
   DEPER  =   0.30     relativ break condition  

   TIME   =   0.40     timestep for ELM

  volume/ion in A,a.u.               =      19.33       130.48
  Fermi-wavevector in a.u.,A,eV,Ry     =   0.968242  1.829711 12.755352  0.937492
  Thomas-Fermi vector in A             =   2.098195
 
 Write flags
   LWAVE        =      F    write WAVECAR
   LDOWNSAMPLE  =      F    k-point downsampling of WAVECAR
   LCHARG       =      F    write CHGCAR
   LVTOT        =      F    write LOCPOT, total local potential
   LVHAR        =      F    write LOCPOT, Hartree potential only
   WRT_POTENTIAL= false  ! write potential to hdf5 file
   LELF         =      F    write electronic localiz. function (ELF)
   LORBIT       =      0    0 simple, 1 ext, 2 COOP (PROOUT), +10 PAW based schemes


 Dipole corrections
   LMONO      =      F    monopole corrections only (constant potential shift)
   LDIPOL     =      F    correct potential (dipole corrections)
   IDIPOL     =      0    1-x, 2-y, 3-z, 4-all directions 
   EPSILON    =  1.0000000 bulk dielectric constant
   LVACPOTAV  =      F  vacuum potentials using an averaging scheme for the charge density
   VACPOTFLAT =  0.1000000 required flatness to determine vacuum potential
 Exchange correlation treatment:
   GGA     = PS    functional components
   XC_C    = 1    coefficients multiplying the functional components
   LIBXC   =     F    Libxc                    
   VOSKOWN =     0    Vosko Wilk Nusair interpolation
   LHFCALC =     F    Hartree Fock is set to
   LHFONE  =     F    Hartree Fock one center treatment
   AEXX    =    0.0000 exact exchange contribution

 Parameters of functionals:
   PS:
     No parameter
 
 Van der Waals corrections
   IVDW    =     0    specifies the selected vdW correction

 Linear response parameters
   LEPSILON=     F    determine dielectric tensor
   LRPA    =     F    only Hartree local field effects (RPA)
   LNABLA  =     F    use nabla operator in PAW spheres
   LVEL    =     F    velocity operator in full k-point grid
   CSHIFT  =0.1000    complex shift for real part using Kramers Kronig
   OMEGAMAX=  -1.0    maximum frequency
   DEG_THRESHOLD= 0.2000000E-02 threshold for treating states as degnerate
   RTIME   =   -0.100 relaxation time in fs
  (WPLASMAI=    0.000 imaginary part of plasma frequency in eV, 0.658/RTIME)
   DFIELD  = 0.0000000 0.0000000 0.0000000 field for delta impulse in time
 
  Optional k-point grid parameters
   LKPOINTS_OPT  =     F    use optional k-point grid
   KPOINTS_OPT_MODE=     1    mode for optional k-point grid
 
 Orbital magnetization related:
   ORBITALMAG=     F  switch on orbital magnetization
   LCHIMAG   =     F  perturbation theory with respect to B field
   DQ        =  0.001000  dq finite difference perturbation B field
   LLRAUG    =     F  two centre corrections for induced B field
   LBONE     =     F  B-component reconstruction in AE one-centre
   LVGVCALC  =     T  calculate vGv susceptibility
   LVGVAPPL  =     F  apply vGv susceptibility instead of pGv for G=0

 Random number generation:
   RANDOM_GENERATOR = DEFAULT
   PCG_SEED         = not used


--------------------------------------------------------------------------------------------------------


 conjugate gradient relaxation of ions
 charge density and potential will be updated during run
 non-spin polarized calculation
 RMM-DIIS sequential band-by-band and
  variant of blocked Davidson during initial phase
 perform sub-space diagonalisation
    before iterative eigenvector-optimisation
 modified Broyden-mixing scheme, WC =      100.0
 initial mixing is a Kerker type mixing with AMIX =  0.4000 and BMIX =      1.0000
 Hartree-type preconditioning will be used
 using additional bands           34
 real space projection scheme for non local part
 use partial core corrections
 calculate Harris-corrections to forces 
   (improved forces if not selfconsistent)
 use gradient corrections 
 use of overlap-Matrix (Vanderbilt PP)
 Methfessel and Paxton  Order N= 1 SIGMA  =   0.20


--------------------------------------------------------------------------------------------------------


  energy-cutoff  :      400.00
  volume of cell :     1237.41
      direct lattice vectors                 reciprocal lattice vectors
    10.807424596  0.053502008  0.000000000     0.092531273 -0.000462656  0.000000000
     0.053502008 10.700420580  0.000000000    -0.000462656  0.093456584  0.000000000
     0.000000000  0.000000000 10.700420580     0.000000000  0.000000000  0.093454271

  length of vectors
    10.807557026 10.700554334 10.700420580     0.092532429  0.093457729  0.093454271


 
 k-points in units of 2pi/SCALE and weight: Automatic mesh                          
   0.00000000  0.00000000  0.00000000       0.125
   0.04626564 -0.00023133  0.00000000       0.125
  -0.00023133  0.04672830  0.00000000       0.125
   0.04603432  0.04649697  0.00000000       0.125
   0.00000000  0.00000000  0.04672714       0.125
   0.04626564 -0.00023133  0.04672714       0.125
  -0.00023133  0.04672830  0.04672714       0.125
   0.04603432  0.04649697  0.04672714       0.125
 
 k-points in reciprocal lattice and weights: Automatic mesh                          
   0.00000000  0.00000000  0.00000000       0.125
   0.50000000 -0.00000000  0.00000000       0.125
  -0.00000000  0.50000000  0.00000000       0.125
   0.50000000  0.50000000  0.00000000       0.125
   0.00000000  0.00000000  0.50000000       0.125
   0.50000000 -0.00000000  0.50000000       0.125
  -0.00000000  0.50000000  0.50000000       0.125
   0.50000000  0.50000000  0.50000000       0.125
 
 position of ions in fractional coordinates (direct lattice) 
   0.00000000  0.00000000  0.00000000
   0.00000000  0.00000000  0.50000000
   0.00000000  0.50000000  0.00000000
   0.00000000  0.50000000  0.50000000
   0.50000000  0.00000000  0.00000000
   0.50000000  0.00000000  0.50000000
   0.50000000  0.50000000  0.00000000
   0.50000000  0.50000000  0.50000000
   0.37500000  0.37500000  0.12500000
   0.37500000  0.37500000  0.62500000
   0.37500000  0.87500000  0.12500000
   0.37500000  0.87500000  0.62500000
   0.87500000  0.37500000  0.12500000
   0.87500000  0.37500000  0.62500000
   0.87500000  0.87500000  0.12500000
   0.87500000  0.87500000  0.62500000
   0.00000000  0.25000000  0.25000000
   0.00000000  0.25000000  0.75000000
   0.00000000  0.75000000  0.25000000
   0.00000000  0.75000000  0.75000000
   0.50000000  0.25000000  0.25000000
   0.50000000  0.25000000  0.75000000
   0.50000000  0.75000000  0.25000000
   0.50000000  0.75000000  0.75000000
   0.37500000  0.12500000  0.37500000
   0.37500000  0.12500000  0.87500000
   0.37500000  0.62500000  0.37500000
   0.37500000  0.62500000  0.87500000
   0.87500000  0.12500000  0.37500000
   0.87500000  0.12500000  0.87500000
   0.87500000  0.62500000  0.37500000
   0.87500000  0.62500000  0.87500000
   0.25000000  0.00000000  0.25000000
   0.25000000  0.00000000  0.75000000
   0.25000000  0.50000000  0.25000000
   0.25000000  0.50000000  0.75000000
   0.75000000  0.00000000  0.25000000
   0.75000000  0.00000000  0.75000000
   0.75000000  0.50000000  0.25000000
   0.75000000  0.50000000  0.75000000
   0.12500000  0.37500000  0.37500000
   0.12500000  0.37500000  0.87500000
   0.12500000  0.87500000  0.37500000
   0.12500000  0.87500000  0.87500000
   0.62500000  0.37500000  0.37500000
   0.62500000  0.37500000  0.87500000
   0.62500000  0.87500000  0.37500000
   0.62500000  0.87500000  0.87500000
   0.25000000  0.25000000  0.00000000
   0.25000000  0.25000000  0.50000000
   0.25000000  0.75000000  0.00000000
   0.25000000  0.75000000  0.50000000
   0.75000000  0.25000000  0.00000000
   0.75000000  0.25000000  0.50000000
   0.75000000  0.75000000  0.00000000
   0.75000000  0.75000000  0.50000000
   0.12500000  0.12500000  0.12500000
   0.12500000  0.12500000  0.62500000
   0.12500000  0.62500000  0.12500000
   0.12500000  0.62500000  0.62500000
   0.62500000  0.12500000  0.12500000
   0.62500000  0.12500000  0.62500000
   0.62500000  0.62500000  0.12500000
   0.62500000  0.62500000  0.62500000
 
 position of ions in cartesian coordinates  (Angst):
   0.00000000  0.00000000  0.00000000
   0.00000000  0.00000000  5.35021029
   0.02675100  5.35021029  0.00000000
   0.02675100  5.35021029  5.35021029
   5.40371230  0.02675100  0.00000000
   5.40371230  0.02675100  5.35021029
   5.43046330  5.37696129  0.00000000
   5.43046330  5.37696129  5.35021029
   4.07284748  4.03272097  1.33755257
   4.07284748  4.03272097  6.68776286
   4.09959848  9.38293126  1.33755257
   4.09959848  9.38293126  6.68776286
   9.47655977  4.05947197  1.33755257
   9.47655977  4.05947197  6.68776286
   9.50331078  9.40968226  1.33755257
   9.50331078  9.40968226  6.68776286
   0.01337550  2.67510515  2.67510515
   0.01337550  2.67510515  8.02531544
   0.04012651  8.02531544  2.67510515
   0.04012651  8.02531544  8.02531544
   5.41708780  2.70185615  2.67510515
   5.41708780  2.70185615  8.02531544
   5.44383880  8.05206644  2.67510515
   5.44383880  8.05206644  8.02531544
   4.05947197  1.35761583  4.01265772
   4.05947197  1.35761583  9.36286801
   4.08622298  6.70782612  4.01265772
   4.08622298  6.70782612  9.36286801
   9.46318427  1.38436683  4.01265772
   9.46318427  1.38436683  9.36286801
   9.48993528  6.73457712  4.01265772
   9.48993528  6.73457712  9.36286801
   2.70185615  0.01337550  2.67510515
   2.70185615  0.01337550  8.02531544
   2.72860715  5.36358579  2.67510515
   2.72860715  5.36358579  8.02531544
   8.10556845  0.04012651  2.67510515
   8.10556845  0.04012651  8.02531544
   8.13231945  5.39033680  2.67510515
   8.13231945  5.39033680  8.02531544
   1.37099133  4.01934547  4.01265772
   1.37099133  4.01934547  9.36286801
   1.39774233  9.36955576  4.01265772
   1.39774233  9.36955576  9.36286801
   6.77470363  4.04609647  4.01265772
   6.77470363  4.04609647  9.36286801
   6.80145463  9.39630676  4.01265772
   6.80145463  9.39630676  9.36286801
   2.71523165  2.68848065  0.00000000
   2.71523165  2.68848065  5.35021029
   2.74198265  8.03869094  0.00000000
   2.74198265  8.03869094  5.35021029
   8.11894395  2.71523165  0.00000000
   8.11894395  2.71523165  5.35021029
   8.14569495  8.06544194  0.00000000
   8.14569495  8.06544194  5.35021029
   1.35761583  1.34424032  1.33755257
   1.35761583  1.34424032  6.68776286
   1.38436683  6.69445061  1.33755257
   1.38436683  6.69445061  6.68776286
   6.76132812  1.37099133  1.33755257
   6.76132812  1.37099133  6.68776286
   6.78807913  6.72120162  1.33755257
   6.78807913  6.72120162  6.68776286
 


--------------------------------------------------------------------------------------------------------


 k-point     1 :   0.0000 0.0000 0.0000  plane waves:   22473
 k-point     2 :   0.5000-0.0000 0.0000  plane waves:   22496
 k-point     3 :  -0.0000 0.5000 0.0000  plane waves:   22460
 k-point     4 :   0.5000 0.5000 0.0000  plane waves:   22492
 k-point     5 :   0.0000 0.0000 0.5000  plane waves:   22486
 k-point     6 :   0.5000-0.0000 0.5000  plane waves:   22488
 k-point     7 :  -0.0000 0.5000 0.5000  plane waves:   22484
 k-point     8 :   0.5000 0.5000 0.5000  plane waves:   22460

 maximum and minimum number of plane-waves per node :      1899     1839

 maximum number of plane-waves:     22496
 maximum index in each direction: 
   IXMAX=   17   IYMAX=   17   IZMAX=   17
   IXMIN=  -18   IYMIN=  -17   IZMIN=  -17


 real space projection operators:
  total allocation   :      11875.50 KBytes
  max/ min on nodes  :       1031.50        853.75


 parallel 3D FFT for wavefunctions:
    minimum data exchange during FFTs selected (reduces bandwidth)
 parallel 3D FFT for charge:
    minimum data exchange during FFTs selected (reduces bandwidth)


 total amount of memory used by VASP MPI-rank0    79484. kBytes
=======================================================================

   base      :      30000. kBytes
   nonlr-proj:       4583. kBytes
   fftplans  :      17992. kBytes
   grid      :       6881. kBytes
   one-center:         18. kBytes
   wavefun   :      20010. kBytes
 
     INWAV:  cpu time      0.0000: real time      0.0000
 Broyden mixing: mesh for mixing (old mesh)
   NGX = 35   NGY = 35   NGZ = 35
  (NGX  =140   NGY  =140   NGZ  =140)
  gives a total of  42875 points

 initial charge density was supplied:
 charge density of overlapping atoms calculated
 number of electron     256.0000000 magnetization 
 keeping initial charge density in first step


--------------------------------------------------------------------------------------------------------


 Maximum index for non-local projection operator          272
 Maximum index for augmentation-charges         3642 (set IRDMAX)


--------------------------------------------------------------------------------------------------------


 First call to EWALD:  gamma=   0.165
 Maximum number of real-space cells 3x 3x 3
 Maximum number of reciprocal cells 3x 3x 3

    FEWALD:  cpu time      0.0069: real time      0.0069


--------------------------------------- Ionic step        1  -------------------------------------------




--------------------------------------- Iteration      1(   1)  ---------------------------------------


    POTLOK:  cpu time      0.0924: real time      0.0978
    SETDIJ:  cpu time      0.0862: real time      0.0871
     EDDAV:  cpu time      1.2852: real time      1.3488
       DOS:  cpu time      0.0110: real time      0.0129
    --------------------------------------------
      LOOP:  cpu time      1.4749: real time      1.5466

 eigenvalue-minimisations  :  2592
 total energy-change (2. order) : 0.5625676E+03  (-0.8433403E+04)
 number of electron     256.0000000 magnetization 
 augmentation part      256.0000000 magnetization 

 Free energy of the ion-electron system (eV)
  ---------------------------------------------------
  alpha Z        PSCENC =       111.42978496
  Ewald energy   TEWEN  =     -7398.56652725
  -Hartree energ DENC   =      -335.68454111
  -exchange      EXHF   =         0.00000000
  -V(xc)+E(xc)   XCENC  =      -554.48612730
  PAW double counting   =      5598.62625415    -4492.17844134
  entropy T*S    EENTRO =         0.01135892
  eigenvalues    EBANDS =      1068.61994130
  atomic energy  EATOM  =      6564.79586099
  Solvation  Ediel_sol  =         0.00000000
  ---------------------------------------------------
  free energy    TOTEN  =       562.56756333 eV

  energy without entropy =      562.55620441  energy(sigma->0) =      562.56377702


--------------------------------------------------------------------------------------------------------




--------------------------------------- Iteration      1(   2)  ---------------------------------------


     EDDAV:  cpu time      1.3207: real time      1.3252
       DOS:  cpu time      0.0014: real time      0.0014
    --------------------------------------------
      LOOP:  cpu time      1.3221: real time      1.3267

 eigenvalue-minimisations  :  3096
 total energy-change (2. order) :-0.8731427E+03  (-0.8283288E+03)
 number of electron     256.0000000 magnetization 
 augmentation part      256.0000000 magnetization 

 Free energy of the ion-electron system (eV)
  ---------------------------------------------------
  alpha Z        PSCENC =       111.42978496
  Ewald energy   TEWEN  =     -7398.56652725
  -Hartree energ DENC   =      -335.68454111
  -exchange      EXHF   =         0.00000000
  -V(xc)+E(xc)   XCENC  =      -554.48612730
  PAW double counting   =      5598.62625415    -4492.17844134
  entropy T*S    EENTRO =         0.00876005
  eigenvalues    EBANDS =       195.47986981
  atomic energy  EATOM  =      6564.79586099
  Solvation  Ediel_sol  =         0.00000000
  ---------------------------------------------------
  free energy    TOTEN  =      -310.57510703 eV

  energy without entropy =     -310.58386708  energy(sigma->0) =     -310.57802705


--------------------------------------------------------------------------------------------------------




--------------------------------------- Iteration      1(   3)  ---------------------------------------


     EDDAV:  cpu time      1.3118: real time      1.3655
       DOS:  cpu time      0.0016: real time      0.0016
    --------------------------------------------
      LOOP:  cpu time      1.3134: real time      1.3671

 eigenvalue-minimisations  :  3152
 total energy-change (2. order) :-0.6269937E+02  (-0.6154603E+02)
 number of electron     256.0000000 magnetization 
 augmentation part      256.0000000 magnetization 

 Free energy of the ion-electron system (eV)
  ---------------------------------------------------
  alpha Z        PSCENC =       111.42978496
  Ewald energy   TEWEN  =     -7398.56652725
  -Hartree energ DENC   =      -335.68454111
  -exchange      EXHF   =         0.00000000
  -V(xc)+E(xc)   XCENC  =      -554.48612730
  PAW double counting   =      5598.62625415    -4492.17844134
  entropy T*S    EENTRO =         0.00908800
  eigenvalues    EBANDS =       132.78016861
  atomic energy  EATOM  =      6564.79586099
  Solvation  Ediel_sol  =         0.00000000
  ---------------------------------------------------
  free energy    TOTEN  =      -373.27448028 eV

  energy without entropy =     -373.28356828  energy(sigma->0) =     -373.27750962


--------------------------------------------------------------------------------------------------------




--------------------------------------- Iteration      1(   4)  ---------------------------------------


     EDDAV:  cpu time      1.3134: real time      1.3281
       DOS:  cpu time      0.0012: real time      0.0012
    --------------------------------------------
      LOOP:  cpu time      1.3146: real time      1.3293

 eigenvalue-minimisations  :  3136
 total energy-change (2. order) :-0.1599823E+01  (-0.1588820E+01)
 number of electron     256.0000000 magnetization 
 augmentation part      256.0000000 magnetization 

 Free energy of the ion-electron system (eV)
  ---------------------------------------------------
  alpha Z        PSCENC =       111.42978496
  Ewald energy   TEWEN  =     -7398.56652725
  -Hartree energ DENC   =      -335.68454111
  -exchange      EXHF   =         0.00000000
  -V(xc)+E(xc)   XCENC  =      -554.48612730
  PAW double counting   =      5598.62625415    -4492.17844134
  entropy T*S    EENTRO =         0.00821238
  eigenvalues    EBANDS =       131.18122079
  atomic energy  EATOM  =      6564.79586099
  Solvation  Ediel_sol  =         0.00000000
  ---------------------------------------------------
  free energy    TOTEN  =      -374.87430372 eV

  energy without entropy =     -374.88251610  energy(sigma->0) =     -374.87704118


--------------------------------------------------------------------------------------------------------




--------------------------------------- Iteration      1(   5)  ---------------------------------------


     EDDAV:  cpu time      1.2995: real time      1.3297
       DOS:  cpu time      0.0011: real time      0.0011
    CHARGE:  cpu time      0.2470: real time      0.2493
    MIXING:  cpu time      0.0103: real time      0.0180
    --------------------------------------------
      LOOP:  cpu time      1.5578: real time      1.5980

 eigenvalue-minimisations  :  3092
 total energy-change (2. order) :-0.4788223E-01  (-0.4777492E-01)
 number of electron     256.0000002 magnetization 
 augmentation part      -15.0445539 magnetization 

 Broyden mixing:
  rms(total) = 0.29430E+01    rms(broyden)= 0.29430E+01
  rms(prec ) = 0.32406E+01
  weight for this iteration     100.00

 Free energy of the ion-electron system (eV)
  ---------------------------------------------------
  alpha Z        PSCENC =       111.42978496
  Ewald energy   TEWEN  =     -7398.56652725
  -Hartree energ DENC   =      -335.68454111
  -exchange      EXHF   =         0.00000000
  -V(xc)+E(xc)   XCENC  =      -554.48612730
  PAW double counting   =      5598.62625415    -4492.17844134
  entropy T*S    EENTRO =         0.00818163
  eigenvalues    EBANDS =       131.13336931
  atomic energy  EATOM  =      6564.79586099
  Solvation  Ediel_sol  =         0.00000000
  ---------------------------------------------------
  free energy    TOTEN  =      -374.92218595 eV

  energy without entropy =     -374.93036758  energy(sigma->0) =     -374.92491316


--------------------------------------------------------------------------------------------------------




--------------------------------------- Iteration      1(   6)  ---------------------------------------


    POTLOK:  cpu time      0.0741: real time      0.0894
    SETDIJ:  cpu time      0.0714: real time      0.0716
    EDDIAG:  cpu time      0.1387: real time      0.1405
  RMM-DIIS:  cpu time      0.6933: real time      0.6971
    ORTHCH:  cpu time      0.0208: real time      0.0208
       DOS:  cpu time      0.0012: real time      0.0012
    CHARGE:  cpu time      0.2344: real time      0.2350
    MIXING:  cpu time      0.0057: real time      0.0075
    --------------------------------------------
      LOOP:  cpu time      1.2397: real time      1.2631

 eigenvalue-minimisations  :  2592
 total energy-change (2. order) : 0.5514021E+01  (-0.2824991E+00)
 number of electron     256.0000002 magnetization 
 augmentation part      -14.8712565 magnetization 

 Broyden mixing:
  rms(total) = 0.17729E+01    rms(broyden)= 0.17729E+01
  rms(prec ) = 0.19416E+01
  weight for this iteration     100.00

 eigenvalues of (default mixing * dielectric matrix)
  average eigenvalue GAMMA=   2.5096
  2.5096

 Free energy of the ion-electron system (eV)
  ---------------------------------------------------
  alpha Z        PSCENC =       111.42978496
  Ewald energy   TEWEN  =     -7398.56652725
  -Hartree energ DENC   =      -383.65885383
  -exchange      EXHF   =         0.00000000
  -V(xc)+E(xc)   XCENC  =      -546.89705707
  PAW double counting   =     12820.82856404   -11718.01900677
  entropy T*S    EENTRO =         0.01062740
  eigenvalues    EBANDS =       180.66844245
  atomic energy  EATOM  =      6564.79586099
  Solvation  Ediel_sol  =         0.00000000
  ---------------------------------------------------
  free energy    TOTEN  =      -369.40816508 eV

  energy without entropy =     -369.41879248  energy(sigma->0) =     -369.41170755


--------------------------------------------------------------------------------------------------------




--------------------------------------- Iteration      1(   7)  ---------------------------------------


    POTLOK:  cpu time      0.0758: real time      0.0872
    SETDIJ:  cpu time      0.0714: real time      0.0716
    EDDIAG:  cpu time      0.1408: real time      0.1412
  RMM-DIIS:  cpu time      0.7009: real time      0.7030
    ORTHCH:  cpu time      0.0218: real time      0.0218
       DOS:  cpu time      0.0012: real time      0.0012
    CHARGE:  cpu time      0.2344: real time      0.2350
    MIXING:  cpu time      0.0064: real time      0.0065
    --------------------------------------------
      LOOP:  cpu time      1.2527: real time      1.2675

 eigenvalue-minimisations  :  2658
 total energy-change (2. order) : 0.2460848E+01  (-0.7225283E+00)
 number of electron     256.0000002 magnetization 
 augmentation part      -14.6270092 magnetization 

 Broyden mixing:
  rms(total) = 0.10550E+00    rms(broyden)= 0.10550E+00
  rms(prec ) = 0.13247E+00
  weight for this iteration     100.00

 eigenvalues of (default mixing * dielectric matrix)
  average eigenvalue GAMMA=   2.2702
  2.2702  2.2702

 Free energy of the ion-electron system (eV)
  ---------------------------------------------------
  alpha Z        PSCENC =       111.42978496
  Ewald energy   TEWEN  =     -7398.56652725
  -Hartree energ DENC   =      -462.79189040
  -exchange      EXHF   =         0.00000000
  -V(xc)+E(xc)   XCENC  =      -533.80147411
  PAW double counting   =     30386.39157902   -29288.64705254
  entropy T*S    EENTRO =         0.03195784
  eigenvalues    EBANDS =       254.21044436
  atomic energy  EATOM  =      6564.79586099
  Solvation  Ediel_sol  =         0.00000000
  ---------------------------------------------------
  free energy    TOTEN  =      -366.94731712 eV

  energy without entropy =     -366.97927496  energy(sigma->0) =     -366.95796973


--------------------------------------------------------------------------------------------------------




--------------------------------------- Iteration      1(   8)  ---------------------------------------


    POTLOK:  cpu time      0.0751: real time      0.0881
    SETDIJ:  cpu time      0.0713: real time      0.0715
    EDDIAG:  cpu time      0.1409: real time      0.1413
  RMM-DIIS:  cpu time      0.6908: real time      0.6929
    ORTHCH:  cpu time      0.0212: real time      0.0212
       DOS:  cpu time      0.0015: real time      0.0015
    CHARGE:  cpu time      0.2363: real time      0.2369
    MIXING:  cpu time      0.0051: real time      0.0051
    --------------------------------------------
      LOOP:  cpu time      1.2422: real time      1.2585

 eigenvalue-minimisations  :  2612
 total energy-change (2. order) :-0.3703240E-01  (-0.6555084E-01)
 number of electron     256.0000002 magnetization 
 augmentation part      -14.6815488 magnetization 

 Broyden mixing:
  rms(total) = 0.50944E-01    rms(broyden)= 0.50943E-01
  rms(prec ) = 0.54456E-01
  weight for this iteration     100.00

 eigenvalues of (default mixing * dielectric matrix)
  average eigenvalue GAMMA=   2.0994
  2.5478  1.8752  1.8752

 Free energy of the ion-electron system (eV)
  ---------------------------------------------------
  alpha Z        PSCENC =       111.42978496
  Ewald energy   TEWEN  =     -7398.56652725
  -Hartree energ DENC   =      -454.74516284
  -exchange      EXHF   =         0.00000000
  -V(xc)+E(xc)   XCENC  =      -534.46397150
  PAW double counting   =     30090.46954995   -28991.75523332
  entropy T*S    EENTRO =         0.03199768
  eigenvalues    EBANDS =       245.81935180
  atomic energy  EATOM  =      6564.79586099
  Solvation  Ediel_sol  =         0.00000000
  ---------------------------------------------------
  free energy    TOTEN  =      -366.98434952 eV

  energy without entropy =     -367.01634720  energy(sigma->0) =     -366.99501541


--------------------------------------------------------------------------------------------------------




--------------------------------------- Iteration      1(   9)  ---------------------------------------


    POTLOK:  cpu time      0.0761: real time      0.0885
    SETDIJ:  cpu time      0.0710: real time      0.0712
    EDDIAG:  cpu time      0.1333: real time      0.1338
  RMM-DIIS:  cpu time      0.7050: real time      0.7071
    ORTHCH:  cpu time      0.0206: real time      0.0207
       DOS:  cpu time      0.0013: real time      0.0013
    CHARGE:  cpu time      0.2345: real time      0.2352
    MIXING:  cpu time      0.0050: real time      0.0050
    --------------------------------------------
      LOOP:  cpu time      1.2469: real time      1.2627

 eigenvalue-minimisations  :  2666
 total energy-change (2. order) :-0.2098955E-01  (-0.1965500E-01)
 number of electron     256.0000002 magnetization 
 augmentation part      -14.6690932 magnetization 

 Broyden mixing:
  rms(total) = 0.58655E-01    rms(broyden)= 0.58655E-01
  rms(prec ) = 0.66174E-01
  weight for this iteration     100.00

 eigenvalues of (default mixing * dielectric matrix)
  average eigenvalue GAMMA=   1.9337
  2.5361  2.3864  2.3864  0.4258

 Free energy of the ion-electron system (eV)
  ---------------------------------------------------
  alpha Z        PSCENC =       111.42978496
  Ewald energy   TEWEN  =     -7398.56652725
  -Hartree energ DENC   =      -457.75497102
  -exchange      EXHF   =         0.00000000
  -V(xc)+E(xc)   XCENC  =      -534.05618302
  PAW double counting   =     30462.85296455   -29364.38829922
  entropy T*S    EENTRO =         0.03221597
  eigenvalues    EBANDS =       248.64981496
  atomic energy  EATOM  =      6564.79586099
  Solvation  Ediel_sol  =         0.00000000
  ---------------------------------------------------
  free energy    TOTEN  =      -367.00533907 eV

  energy without entropy =     -367.03755504  energy(sigma->0) =     -367.01607773


--------------------------------------------------------------------------------------------------------




--------------------------------------- Iteration      1(  10)  ---------------------------------------


    POTLOK:  cpu time      0.0881: real time      0.0887
    SETDIJ:  cpu time      0.0713: real time      0.0714
    EDDIAG:  cpu time      0.1322: real time      0.1325
  RMM-DIIS:  cpu time      0.7482: real time      0.7504
    ORTHCH:  cpu time      0.0210: real time      0.0211
       DOS:  cpu time      0.0013: real time      0.0013
    CHARGE:  cpu time      0.2349: real time      0.2355
    MIXING:  cpu time      0.0056: real time      0.0056
    --------------------------------------------
      LOOP:  cpu time      1.3026: real time      1.3066

 eigenvalue-minimisations  :  2744
 total energy-change (2. order) :-0.3605293E-02  (-0.3525424E-02)
 number of electron     256.0000002 magnetization 
 augmentation part      -14.6758029 magnetization 

 Broyden mixing:
  rms(total) = 0.73074E-01    rms(broyden)= 0.73074E-01
  rms(prec ) = 0.79662E-01
  weight for this iteration     100.00

 eigenvalues of (default mixing * dielectric matrix)
  average eigenvalue GAMMA=   1.4801
  2.6342  2.0012  2.0012  0.6412  0.1229

 Free energy of the ion-electron system (eV)
  ---------------------------------------------------
  alpha Z        PSCENC =       111.42978496
  Ewald energy   TEWEN  =     -7398.56652725
  -Hartree energ DENC   =      -457.77840860
  -exchange      EXHF   =         0.00000000
  -V(xc)+E(xc)   XCENC  =      -534.05332658
  PAW double counting   =     30468.80427660   -29370.34059489
  entropy T*S    EENTRO =         0.03221800
  eigenvalues    EBANDS =       248.66777241
  atomic energy  EATOM  =      6564.79586099
  Solvation  Ediel_sol  =         0.00000000
  ---------------------------------------------------
  free energy    TOTEN  =      -367.00894436 eV

  energy without entropy =     -367.04116236  energy(sigma->0) =     -367.01968370


--------------------------------------------------------------------------------------------------------




--------------------------------------- Iteration      1(  11)  ---------------------------------------


    POTLOK:  cpu time      0.0744: real time      0.0893
    SETDIJ:  cpu time      0.0716: real time      0.0717
    EDDIAG:  cpu time      0.1377: real time      0.1380
  RMM-DIIS:  cpu time      0.6954: real time      0.6972
    ORTHCH:  cpu time      0.0211: real time      0.0212
       DOS:  cpu time      0.0013: real time      0.0013
    CHARGE:  cpu time      0.2362: real time      0.2368
    MIXING:  cpu time      0.0051: real time      0.0051
    --------------------------------------------
      LOOP:  cpu time      1.2428: real time      1.2606

 eigenvalue-minimisations  :  2592
 total energy-change (2. order) : 0.3127725E-02  (-0.1132685E-02)
 number of electron     256.0000002 magnetization 
 augmentation part      -14.6895352 magnetization 

 Broyden mixing:
  rms(total) = 0.76769E-01    rms(broyden)= 0.76769E-01
  rms(prec ) = 0.77513E-01
  weight for this iteration     100.00

 eigenvalues of (default mixing * dielectric matrix)
  average eigenvalue GAMMA=   1.3189
  2.5185  2.5185  1.3685  0.6858  0.6858  0.1365

 Free energy of the ion-electron system (eV)
  ---------------------------------------------------
  alpha Z        PSCENC =       111.42978496
  Ewald energy   TEWEN  =     -7398.56652725
  -Hartree energ DENC   =      -455.41606250
  -exchange      EXHF   =         0.00000000
  -V(xc)+E(xc)   XCENC  =      -534.21570667
  PAW double counting   =     30469.11126955   -29370.38946667
  entropy T*S    EENTRO =         0.03191625
  eigenvalues    EBANDS =       246.21311468
  atomic energy  EATOM  =      6564.79586099
  Solvation  Ediel_sol  =         0.00000000
  ---------------------------------------------------
  free energy    TOTEN  =      -367.00581664 eV

  energy without entropy =     -367.03773289  energy(sigma->0) =     -367.01645539


--------------------------------------------------------------------------------------------------------




--------------------------------------- Iteration      1(  12)  ---------------------------------------


    POTLOK:  cpu time      0.0744: real time      0.0892
    SETDIJ:  cpu time      0.0717: real time      0.0718
    EDDIAG:  cpu time      0.1318: real time      0.1321
  RMM-DIIS:  cpu time      0.6912: real time      0.6933
    ORTHCH:  cpu time      0.0214: real time      0.0215
       DOS:  cpu time      0.0017: real time      0.0017
    CHARGE:  cpu time      0.2342: real time      0.2348
    MIXING:  cpu time      0.0053: real time      0.0053
    --------------------------------------------
      LOOP:  cpu time      1.2316: real time      1.2496

 eigenvalue-minimisations  :  2600
 total energy-change (2. order) :-0.3066925E-04  (-0.1770437E-03)
 number of electron     256.0000002 magnetization 
 augmentation part      -14.6931225 magnetization 

 Broyden mixing:
  rms(total) = 0.83322E-01    rms(broyden)= 0.83322E-01
  rms(prec ) = 0.83916E-01
  weight for this iteration     100.00

 eigenvalues of (default mixing * dielectric matrix)
  average eigenvalue GAMMA=   1.2317
  2.5251  2.5251  1.3888  0.7983  0.7983  0.4468  0.1394

 Free energy of the ion-electron system (eV)
  ---------------------------------------------------
  alpha Z        PSCENC =       111.42978496
  Ewald energy   TEWEN  =     -7398.56652725
  -Hartree energ DENC   =      -455.17261135
  -exchange      EXHF   =         0.00000000
  -V(xc)+E(xc)   XCENC  =      -534.25174252
  PAW double counting   =     30404.89982651   -29306.18309405
  entropy T*S    EENTRO =         0.03189819
  eigenvalues    EBANDS =       246.01075721
  atomic energy  EATOM  =      6564.79586099
  Solvation  Ediel_sol  =         0.00000000
  ---------------------------------------------------
  free energy    TOTEN  =      -367.00584731 eV

  energy without entropy =     -367.03774550  energy(sigma->0) =     -367.01648004


--------------------------------------------------------------------------------------------------------




--------------------------------------- Iteration      1(  13)  ---------------------------------------


    POTLOK:  cpu time      0.0741: real time      0.0880
    SETDIJ:  cpu time      0.0718: real time      0.0720
    EDDIAG:  cpu time      0.1316: real time      0.1320
  RMM-DIIS:  cpu time      0.7220: real time      0.7241
    ORTHCH:  cpu time      0.0208: real time      0.0208
       DOS:  cpu time      0.0014: real time      0.0014
    CHARGE:  cpu time      0.2343: real time      0.2349
    MIXING:  cpu time      0.0053: real time      0.0053
    --------------------------------------------
      LOOP:  cpu time      1.2613: real time      1.2785

 eigenvalue-minimisations  :  2750
 total energy-change (2. order) :-0.1020585E-03  (-0.3590453E-04)
 number of electron     256.0000002 magnetization 
 augmentation part      -14.6934980 magnetization 

 Broyden mixing:
  rms(total) = 0.86981E-01    rms(broyden)= 0.86981E-01
  rms(prec ) = 0.87514E-01
  weight for this iteration     100.00

 eigenvalues of (default mixing * dielectric matrix)
  average eigenvalue GAMMA=   1.5683
  2.6399  2.6399  2.5546  1.8601  1.1365  0.7875  0.7875  0.1400

 Free energy of the ion-electron system (eV)
  ---------------------------------------------------
  alpha Z        PSCENC =       111.42978496
  Ewald energy   TEWEN  =     -7398.56652725
  -Hartree energ DENC   =      -455.23328910
  -exchange      EXHF   =         0.00000000
  -V(xc)+E(xc)   XCENC  =      -534.24297132
  PAW double counting   =     30439.41585108   -29340.69816019
  entropy T*S    EENTRO =         0.03189948
  eigenvalues    EBANDS =       246.06160197
  atomic energy  EATOM  =      6564.79586099
  Solvation  Ediel_sol  =         0.00000000
  ---------------------------------------------------
  free energy    TOTEN  =      -367.00594937 eV

  energy without entropy =     -367.03784884  energy(sigma->0) =     -367.01658253


--------------------------------------------------------------------------------------------------------




--------------------------------------- Iteration      1(  14)  ---------------------------------------


    POTLOK:  cpu time      0.0731: real time      0.0883
    SETDIJ:  cpu time      0.0715: real time      0.0717
    EDDIAG:  cpu time      0.1325: real time      0.1328
  RMM-DIIS:  cpu time      0.6889: real time      0.6909
    ORTHCH:  cpu time      0.0214: real time      0.0214
       DOS:  cpu time      0.0014: real time      0.0014
    CHARGE:  cpu time      0.2356: real time      0.2362
    MIXING:  cpu time      0.0053: real time      0.0053
    --------------------------------------------
      LOOP:  cpu time      1.2296: real time      1.2480

 eigenvalue-minimisations  :  2592
 total energy-change (2. order) : 0.4406695E-03  (-0.2133382E-04)
 number of electron     256.0000002 magnetization 
 augmentation part      -14.6947935 magnetization 

 Broyden mixing:
  rms(total) = 0.79591E-01    rms(broyden)= 0.79591E-01
  rms(prec ) = 0.80479E-01
  weight for this iteration     100.00

 eigenvalues of (default mixing * dielectric matrix)
  average eigenvalue GAMMA=   1.4455
  2.8310  2.3863  2.3863  1.3391  1.3391  0.9571  0.8152  0.8152  0.1401

 Free energy of the ion-electron system (eV)
  ---------------------------------------------------
  alpha Z        PSCENC =       111.42978496
  Ewald energy   TEWEN  =     -7398.56652725
  -Hartree energ DENC   =      -454.77815866
  -exchange      EXHF   =         0.00000000
  -V(xc)+E(xc)   XCENC  =      -534.29568056
  PAW double counting   =     30248.86339436   -29150.17685603
  entropy T*S    EENTRO =         0.03188308
  eigenvalues    EBANDS =       245.69079040
  atomic energy  EATOM  =      6564.79586099
  Solvation  Ediel_sol  =         0.00000000
  ---------------------------------------------------
  free energy    TOTEN  =      -367.00550870 eV

  energy without entropy =     -367.03739177  energy(sigma->0) =     -367.01613639


--------------------------------------------------------------------------------------------------------




--------------------------------------- Iteration      1(  15)  ---------------------------------------


    POTLOK:  cpu time      0.0740: real time      0.0889
    SETDIJ:  cpu time      0.0718: real time      0.0720
    EDDIAG:  cpu time      0.1321: real time      0.1324
  RMM-DIIS:  cpu time      0.6950: real time      0.6970
    ORTHCH:  cpu time      0.0206: real time      0.0207
       DOS:  cpu time      0.0013: real time      0.0013
    CHARGE:  cpu time      0.2344: real time      0.2350
    MIXING:  cpu time      0.0053: real time      0.0053
    --------------------------------------------
      LOOP:  cpu time      1.2346: real time      1.2526

 eigenvalue-minimisations  :  2606
 total energy-change (2. order) :-0.2403698E-03  (-0.7871998E-05)
 number of electron     256.0000002 magnetization 
 augmentation part      -14.6955069 magnetization 

 Broyden mixing:
  rms(total) = 0.74867E-01    rms(broyden)= 0.74867E-01
  rms(prec ) = 0.75625E-01
  weight for this iteration     100.00

 eigenvalues of (default mixing * dielectric matrix)
  average eigenvalue GAMMA=   1.4522
  2.7480  2.4455  2.4455  1.6087  1.6087  0.8697  0.8697  0.9560  0.8299  0.1401

 Free energy of the ion-electron system (eV)
  ---------------------------------------------------
  alpha Z        PSCENC =       111.42978496
  Ewald energy   TEWEN  =     -7398.56652725
  -Hartree energ DENC   =      -454.71732133
  -exchange      EXHF   =         0.00000000
  -V(xc)+E(xc)   XCENC  =      -534.29447988
  PAW double counting   =     30247.90403021   -29149.21145843
  entropy T*S    EENTRO =         0.03185848
  eigenvalues    EBANDS =       245.62250318
  atomic energy  EATOM  =      6564.79586099
  Solvation  Ediel_sol  =         0.00000000
  ---------------------------------------------------
  free energy    TOTEN  =      -367.00574907 eV

  energy without entropy =     -367.03760755  energy(sigma->0) =     -367.01636856


--------------------------------------------------------------------------------------------------------




--------------------------------------- Iteration      1(  16)  ---------------------------------------


    POTLOK:  cpu time      0.0748: real time      0.0890
    SETDIJ:  cpu time      0.0731: real time      0.0732
    EDDIAG:  cpu time      0.1340: real time      0.1343
  RMM-DIIS:  cpu time      0.6924: real time      0.6947
    ORTHCH:  cpu time      0.0199: real time      0.0955
       DOS:  cpu time      0.0014: real time      0.0014
    CHARGE:  cpu time      0.2350: real time      0.2358
    MIXING:  cpu time      0.0065: real time      0.0065
    --------------------------------------------
      LOOP:  cpu time      1.2370: real time      1.3304

 eigenvalue-minimisations  :  2592
 total energy-change (2. order) :-0.3425765E-03  (-0.1022378E-04)
 number of electron     256.0000002 magnetization 
 augmentation part      -14.6945454 magnetization 

 Broyden mixing:
  rms(total) = 0.60251E-01    rms(broyden)= 0.60251E-01
  rms(prec ) = 0.60646E-01
  weight for this iteration     100.00

 eigenvalues of (default mixing * dielectric matrix)
  average eigenvalue GAMMA=   1.4667
  2.6289  2.6289  2.4099  1.5464  1.5464  1.7210  0.9060  0.9060  0.8503  0.8503
  0.1401

 Free energy of the ion-electron system (eV)
  ---------------------------------------------------
  alpha Z        PSCENC =       111.42978496
  Ewald energy   TEWEN  =     -7398.56652725
  -Hartree energ DENC   =      -455.06495503
  -exchange      EXHF   =         0.00000000
  -V(xc)+E(xc)   XCENC  =      -534.25829024
  PAW double counting   =     30263.55742629   -29164.86913114
  entropy T*S    EENTRO =         0.03186713
  eigenvalues    EBANDS =       245.93787263
  atomic energy  EATOM  =      6564.79586099
  Solvation  Ediel_sol  =         0.00000000
  ---------------------------------------------------
  free energy    TOTEN  =      -367.00609164 eV

  energy without entropy =     -367.03795877  energy(sigma->0) =     -367.01671402


--------------------------------------------------------------------------------------------------------




--------------------------------------- Iteration      1(  17)  ---------------------------------------


    POTLOK:  cpu time      0.0761: real time      0.0902
    SETDIJ:  cpu time      0.0707: real time      0.0709
    EDDIAG:  cpu time      0.1337: real time      0.1341
  RMM-DIIS:  cpu time      0.6889: real time      0.6909
    ORTHCH:  cpu time      0.0206: real time      0.0207
       DOS:  cpu time      0.0018: real time      0.0018
    CHARGE:  cpu time      0.2344: real time      0.2350
    MIXING:  cpu time      0.0066: real time      0.0066
    --------------------------------------------
      LOOP:  cpu time      1.2329: real time      1.2502

 eigenvalue-minimisations  :  2595
 total energy-change (2. order) :-0.7465702E-04  (-0.3754854E-05)
 number of electron     256.0000002 magnetization 
 augmentation part      -14.6936608 magnetization 

 Broyden mixing:
  rms(total) = 0.43646E-01    rms(broyden)= 0.43646E-01
  rms(prec ) = 0.43956E-01
  weight for this iteration     100.00

 eigenvalues of (default mixing * dielectric matrix)
  average eigenvalue GAMMA=   1.4487
  2.5937  2.5937  2.4846  1.6950  1.6950  1.7611  0.9525  0.9525  0.8814  0.8175
  0.8175  0.1401

 Free energy of the ion-electron system (eV)
  ---------------------------------------------------
  alpha Z        PSCENC =       111.42978496
  Ewald energy   TEWEN  =     -7398.56652725
  -Hartree energ DENC   =      -455.17933330
  -exchange      EXHF   =         0.00000000
  -V(xc)+E(xc)   XCENC  =      -534.25621086
  PAW double counting   =     30177.09943347   -29078.41895593
  entropy T*S    EENTRO =         0.03187326
  eigenvalues    EBANDS =       246.05790835
  atomic energy  EATOM  =      6564.79586099
  Solvation  Ediel_sol  =         0.00000000
  ---------------------------------------------------
  free energy    TOTEN  =      -367.00616630 eV

  energy without entropy =     -367.03803956  energy(sigma->0) =     -367.01679072


--------------------------------------------------------------------------------------------------------




--------------------------------------- Iteration      1(  18)  ---------------------------------------


    POTLOK:  cpu time      0.0756: real time      0.0889
    SETDIJ:  cpu time      0.0711: real time      0.0713
    EDDIAG:  cpu time      0.1326: real time      0.1329
  RMM-DIIS:  cpu time      0.6837: real time      0.6857
    ORTHCH:  cpu time      0.0215: real time      0.0215
       DOS:  cpu time      0.0015: real time      0.0015
    CHARGE:  cpu time      0.2327: real time      0.2332
    MIXING:  cpu time      0.0061: real time      0.0061
    --------------------------------------------
      LOOP:  cpu time      1.2247: real time      1.2410

 eigenvalue-minimisations  :  2591
 total energy-change (2. order) :-0.3087031E-04  (-0.7047243E-06)
 number of electron     256.0000002 magnetization 
 augmentation part      -14.6935230 magnetization 

 Broyden mixing:
  rms(total) = 0.31989E-01    rms(broyden)= 0.31989E-01
  rms(prec ) = 0.32262E-01
  weight for this iteration     100.00

 eigenvalues of (default mixing * dielectric matrix)
  average eigenvalue GAMMA=   1.4006
  2.6117  2.6117  2.4671  1.8129  1.8129  1.7514  0.8510  0.8510  0.8829  0.8943
  0.8943  0.1401  0.6265

 Free energy of the ion-electron system (eV)
  ---------------------------------------------------
  alpha Z        PSCENC =       111.42978496
  Ewald energy   TEWEN  =     -7398.56652725
  -Hartree energ DENC   =      -455.18837574
  -exchange      EXHF   =         0.00000000
  -V(xc)+E(xc)   XCENC  =      -534.26208354
  PAW double counting   =     30105.43879036   -29006.76049562
  entropy T*S    EENTRO =         0.03186956
  eigenvalues    EBANDS =       246.07497911
  atomic energy  EATOM  =      6564.79586099
  Solvation  Ediel_sol  =         0.00000000
  ---------------------------------------------------
  free energy    TOTEN  =      -367.00619717 eV

  energy without entropy =     -367.03806672  energy(sigma->0) =     -367.01682035


--------------------------------------------------------------------------------------------------------




--------------------------------------- Iteration      1(  19)  ---------------------------------------


    POTLOK:  cpu time      0.0753: real time      0.0884
    SETDIJ:  cpu time      0.0708: real time      0.0710
    EDDIAG:  cpu time      0.1313: real time      0.1316
  RMM-DIIS:  cpu time      0.6886: real time      0.6905
    ORTHCH:  cpu time      0.0213: real time      0.0214
       DOS:  cpu time      0.0012: real time      0.0012
    CHARGE:  cpu time      0.2344: real time      0.2349
    MIXING:  cpu time      0.0060: real time      0.0060
    --------------------------------------------
      LOOP:  cpu time      1.2288: real time      1.2449

 eigenvalue-minimisations  :  2618
 total energy-change (2. order) :-0.5941746E-04  (-0.2254348E-05)
 number of electron     256.0000002 magnetization 
 augmentation part      -14.6932223 magnetization 

 Broyden mixing:
  rms(total) = 0.12760E-01    rms(broyden)= 0.12760E-01
  rms(prec ) = 0.12903E-01
  weight for this iteration     100.00

 eigenvalues of (default mixing * dielectric matrix)
  average eigenvalue GAMMA=   1.7434
  5.4431  2.8468  2.4267  2.4267  1.9334  1.9334  1.3415  1.3415  0.9717  0.9717
  0.8966  0.8670  0.8670  0.1401

 Free energy of the ion-electron system (eV)
  ---------------------------------------------------
  alpha Z        PSCENC =       111.42978496
  Ewald energy   TEWEN  =     -7398.56652725
  -Hartree energ DENC   =      -455.23363802
  -exchange      EXHF   =         0.00000000
  -V(xc)+E(xc)   XCENC  =      -534.26655128
  PAW double counting   =     30010.74709693   -28912.06926095
  entropy T*S    EENTRO =         0.03185903
  eigenvalues    EBANDS =       246.12511897
  atomic energy  EATOM  =      6564.79586099
  Solvation  Ediel_sol  =         0.00000000
  ---------------------------------------------------
  free energy    TOTEN  =      -367.00625659 eV

  energy without entropy =     -367.03811562  energy(sigma->0) =     -367.01687627


--------------------------------------------------------------------------------------------------------




--------------------------------------- Iteration      1(  20)  ---------------------------------------


    POTLOK:  cpu time      0.0735: real time      0.0884
    SETDIJ:  cpu time      0.0707: real time      0.0708
    EDDIAG:  cpu time      0.1308: real time      0.1311
  RMM-DIIS:  cpu time      0.6864: real time      0.6884
    ORTHCH:  cpu time      0.0205: real time      0.0205
       DOS:  cpu time      0.0016: real time      0.0016
    CHARGE:  cpu time      0.2330: real time      0.2336
    MIXING:  cpu time      0.0063: real time      0.0063
    --------------------------------------------
      LOOP:  cpu time      1.2228: real time      1.2408

 eigenvalue-minimisations  :  2591
 total energy-change (2. order) :-0.1456151E-04  (-0.1295900E-05)
 number of electron     256.0000002 magnetization 
 augmentation part      -14.6930550 magnetization 

 Broyden mixing:
  rms(total) = 0.23626E-02    rms(broyden)= 0.23625E-02
  rms(prec ) = 0.24151E-02
  weight for this iteration     100.00

 eigenvalues of (default mixing * dielectric matrix)
  average eigenvalue GAMMA=   1.6441
  2.7664  3.0251  3.0251  2.0873  2.0873  2.4524  2.3479  1.1120  1.1120  0.9151
  0.9123  0.9123  0.8829  0.8829  0.1401

 Free energy of the ion-electron system (eV)
  ---------------------------------------------------
  alpha Z        PSCENC =       111.42978496
  Ewald energy   TEWEN  =     -7398.56652725
  -Hartree energ DENC   =      -455.24974362
  -exchange      EXHF   =         0.00000000
  -V(xc)+E(xc)   XCENC  =      -534.26935927
  PAW double counting   =     29963.71669888   -28865.03787266
  entropy T*S    EENTRO =         0.03185013
  eigenvalues    EBANDS =       246.14303668
  atomic energy  EATOM  =      6564.79586099
  Solvation  Ediel_sol  =         0.00000000
  ---------------------------------------------------
  free energy    TOTEN  =      -367.00627115 eV

  energy without entropy =     -367.03812128  energy(sigma->0) =     -367.01688786


--------------------------------------------------------------------------------------------------------




--------------------------------------- Iteration      1(  21)  ---------------------------------------


    POTLOK:  cpu time      0.0726: real time      0.0882
    SETDIJ:  cpu time      0.0704: real time      0.0706
    EDDIAG:  cpu time      0.1307: real time      0.1310
  RMM-DIIS:  cpu time      0.4821: real time      0.4849
    ORTHCH:  cpu time      0.0212: real time      0.0214
       DOS:  cpu time      0.0012: real time      0.0012
    CHARGE:  cpu time      0.2331: real time      0.2341
    MIXING:  cpu time      0.0063: real time      0.0063
    --------------------------------------------
      LOOP:  cpu time      1.0175: real time      1.0376

 eigenvalue-minimisations  :  1720
 total energy-change (2. order) :-0.2013944E-05  (-0.2791299E-06)
 number of electron     256.0000002 magnetization 
 augmentation part      -14.6928852 magnetization 

 Broyden mixing:
  rms(total) = 0.67241E-03    rms(broyden)= 0.67232E-03
  rms(prec ) = 0.68477E-03
  weight for this iteration     100.00

 eigenvalues of (default mixing * dielectric matrix)
  average eigenvalue GAMMA=   1.7187
  5.6461  2.9510  2.9510  2.0210  2.0210  2.4979  2.2964  1.0855  1.0855  0.9286
  0.8888  0.8888  0.9051  0.9051  0.1401  0.2873

 Free energy of the ion-electron system (eV)
  ---------------------------------------------------
  alpha Z        PSCENC =       111.42978496
  Ewald energy   TEWEN  =     -7398.56652725
  -Hartree energ DENC   =      -455.26413043
  -exchange      EXHF   =         0.00000000
  -V(xc)+E(xc)   XCENC  =      -534.26856929
  PAW double counting   =     29959.12776365   -28860.44908324
  entropy T*S    EENTRO =         0.03184843
  eigenvalues    EBANDS =       246.15677901
  atomic energy  EATOM  =      6564.79586099
  Solvation  Ediel_sol  =         0.00000000
  ---------------------------------------------------
  free energy    TOTEN  =      -367.00627316 eV

  energy without entropy =     -367.03812159  energy(sigma->0) =     -367.01688930


--------------------------------------------------------------------------------------------------------




--------------------------------------- Iteration      1(  22)  ---------------------------------------


    POTLOK:  cpu time      0.0803: real time      0.0888
    SETDIJ:  cpu time      0.0701: real time      0.0702
    EDDIAG:  cpu time      0.1317: real time      0.1320
  RMM-DIIS:  cpu time      0.4553: real time      0.4563
    ORTHCH:  cpu time      0.0219: real time      0.0222
       DOS:  cpu time      0.0095: real time      0.0095
    --------------------------------------------
      LOOP:  cpu time      0.7687: real time      0.7791

 eigenvalue-minimisations  :  1547
 total energy-change (2. order) :-0.7416484E-06  (-0.3782522E-07)
 number of electron     256.0000002 magnetization 
 augmentation part      -14.6928852 magnetization 

 Free energy of the ion-electron system (eV)
  ---------------------------------------------------
  alpha Z        PSCENC =       111.42978496
  Ewald energy   TEWEN  =     -7398.56652725
  -Hartree energ DENC   =      -455.27033841
  -exchange      EXHF   =         0.00000000
  -V(xc)+E(xc)   XCENC  =      -534.26765049
  PAW double counting   =     29964.36155164   -28865.68310864
  entropy T*S    EENTRO =         0.03184845
  eigenvalues    EBANDS =       246.16230484
  atomic energy  EATOM  =      6564.79586099
  Solvation  Ediel_sol  =         0.00000000
  ---------------------------------------------------
  free energy    TOTEN  =      -367.00627390 eV

  energy without entropy =     -367.03812235  energy(sigma->0) =     -367.01689005


--------------------------------------------------------------------------------------------------------




 average (electrostatic) potential at core
  the test charge radii are     0.9892
  (the norm of the test charge is              1.0000)
       1 -82.6367       2 -82.6367       3 -82.6367       4 -82.6367       5 -82.6367
       6 -82.6367       7 -82.6367       8 -82.6367       9 -82.6367      10 -82.6367
      11 -82.6367      12 -82.6367      13 -82.6367      14 -82.6367      15 -82.6367
      16 -82.6367      17 -82.6367      18 -82.6367      19 -82.6367      20 -82.6367
      21 -82.6367      22 -82.6367      23 -82.6367      24 -82.6367      25 -82.6367
      26 -82.6367      27 -82.6367      28 -82.6367      29 -82.6367      30 -82.6367
      31 -82.6367      32 -82.6367      33 -82.6367      34 -82.6367      35 -82.6367
      36 -82.6367      37 -82.6367      38 -82.6367      39 -82.6367      40 -82.6367
      41 -82.6367      42 -82.6367      43 -82.6367      44 -82.6367      45 -82.6367
      46 -82.6367      47 -82.6367      48 -82.6367      49 -82.6367      50 -82.6367
      51 -82.6367      52 -82.6367      53 -82.6367      54 -82.6367      55 -82.6367
      56 -82.6367      57 -82.6367      58 -82.6367      59 -82.6367      60 -82.6367
      61 -82.6367      62 -82.6367      63 -82.6367      64 -82.6367
 
 
 
 E-fermi :   6.4187     XC(G=0):  -9.6868     alpha+bet :-12.4050

 val. band max:        6.1789527142   @ k =   0.0000   0.0000   0.0000
 cond. band min:       6.5634876889   @ k =   0.0000   0.0000   0.5000
 fundamental gap:      0.3845349746
 Fermi energy:         6.4186762456

 k-point     1 :       0.0000    0.0000    0.0000
  band No.  band energies     occupation 
      1      -6.0840      2.00000
      2      -4.9775      2.00000
      3      -4.9775      2.00000
      4      -4.9586      2.00000
      5      -4.9586      2.00000
      6      -4.9584      2.00000
      7      -4.9584      2.00000
      8      -3.9963      2.00000
      9      -3.9963      2.00000
     10      -3.9668      2.00000
     11      -3.9668      2.00000
     12      -3.9668      2.00000
     13      -3.9668      2.00000
     14      -3.9533      2.00000
     15      -3.9533      2.00000
     16      -3.9533      2.00000
     17      -3.9533      2.00000
     18      -3.9368      2.00000
     19      -3.9368      2.00000
     20      -3.6776      2.00000
     21      -3.6776      2.00000
     22      -3.6092      2.00000
     23      -3.6092      2.00000
     24      -1.8355      2.00000
     25      -1.8355      2.00000
     26      -1.8148      2.00000
     27      -1.7731      2.00000
     28      -1.7731      2.00000
     29      -1.7323      2.00000
     30      -1.6607      2.00000
     31      -1.6607      2.00000
     32      -1.6387      2.00000
     33      -1.6387      2.00000
     34      -1.6143      2.00000
     35      -1.6143      2.00000
     36      -1.6143      2.00000
     37      -1.6143      2.00000
     38      -1.5679      2.00000
     39      -1.5679      2.00000
     40      -1.5465      2.00000
     41      -1.5465      2.00000
     42      -1.0407      2.00000
     43      -1.0407      2.00000
     44      -1.0265      2.00000
     45      -1.0265      2.00000
     46       0.5674      2.00000
     47       0.5674      2.00000
     48       0.5674      2.00000
     49       0.5674      2.00000
     50       0.5852      2.00000
     51       0.5852      2.00000
     52       0.6044      2.00000
     53       0.6044      2.00000
     54       0.6044      2.00000
     55       0.6044      2.00000
     56       0.6229      2.00000
     57       0.6229      2.00000
     58       2.0894      2.00000
     59       2.0894      2.00000
     60       2.0903      2.00000
     61       2.0904      2.00000
     62       2.0904      2.00000
     63       2.0904      2.00000
     64       2.0907      2.00000
     65       2.0907      2.00000
     66       2.0943      2.00000
     67       2.0943      2.00000
     68       2.0960      2.00000
     69       2.0960      2.00000
     70       2.1718      2.00000
     71       2.1718      2.00000
     72       2.1718      2.00000
     73       2.1718      2.00000
     74       2.2169      2.00000
     75       2.2169      2.00000
     76       2.2286      2.00000
     77       2.2286      2.00000
     78       2.2286      2.00000
     79       2.2286      2.00000
     80       2.2399      2.00000
     81       2.2399      2.00000
     82       2.5880      2.00000
     83       2.5880      2.00000
     84       2.6611      2.00000
[...]
 -0.000  -0.000   4.173   0.000  -0.000   7.773   0.000   0.000
  0.001   0.001   0.000   4.173   0.000   0.000   7.773   0.000
 -0.000  -0.000  -0.000   0.000   4.173   0.000   0.000   7.773
 -0.000  -0.000   7.773   0.000   0.000  14.491   0.000   0.000
  0.001   0.002   0.000   7.773   0.000   0.000  14.491   0.000
 -0.000  -0.000   0.000   0.000   7.773   0.000   0.000  14.491
 total augmentation occupancy for first ion, spin component:           1
  6.221  -2.442  -0.000  -0.027   0.000   0.000   0.010  -0.000
 -2.442   1.067  -0.000   0.014  -0.000   0.000  -0.005   0.000
 -0.000  -0.000   3.060  -0.000  -0.004  -0.692   0.000  -0.000
 -0.027   0.014  -0.000   3.060   0.000   0.000  -0.692   0.000
  0.000  -0.000  -0.004   0.000   3.079  -0.000   0.000  -0.700
 -0.000   0.000  -0.692   0.000  -0.000   0.166  -0.000   0.000
  0.010  -0.005   0.000  -0.692   0.000  -0.000   0.166   0.000
 -0.000   0.000  -0.000   0.000  -0.700   0.000   0.000   0.168


------------------------ aborting loop because EDIFF is reached ----------------------------------------


    CHARGE:  cpu time      0.2332: real time      0.2338
    FORLOC:  cpu time      0.0224: real time      0.0224
    FORNL :  cpu time      0.6784: real time      0.6807
    STRESS:  cpu time      2.1164: real time      2.1231
    FORCOR:  cpu time      0.0856: real time      0.0858
    FORHAR:  cpu time      0.0343: real time      0.0344
    MIXING:  cpu time      0.0196: real time      0.0196
    OFIELD:  cpu time      0.0001: real time      0.0001

  FORCE on cell =-STRESS in cart. coord.  units (eV):
  Direction    XX          YY          ZZ          XY          YZ          ZX
  --------------------------------------------------------------------------------------
  Alpha Z   111.42978   111.42978   111.42978
  Ewald   -2443.78882 -2477.52982 -2477.47273    -6.84890     0.00000    -0.00000
  Hartree   155.37569   149.91444   149.85820    -4.27388    -0.00000    -0.00000
  E(xc)    -824.75916  -824.45372  -824.46395     0.05999    -0.00000    -0.00000
  Local    -941.78178  -901.17272  -901.29120    12.22949     0.00000    -0.00000
  n-local  2509.50612  2504.36001  2504.54088    -0.54977    -0.00001    -0.00000
  augment  -368.95325  -368.97813  -368.98324     0.37731     0.00000     0.00000
  Kinetic  1827.98160  1838.54803  1838.29054    -6.68068    -0.00000    -0.00000
  Fock        0.00000     0.00000     0.00000     0.00000     0.00000     0.00000
  -------------------------------------------------------------------------------------
  Total      25.01018    32.11787    31.90828    -5.68644     0.00000     0.00000
  in kB      32.38279    41.58572    41.31434    -7.36272     0.00000     0.00000
  external pressure =       38.43 kB  Pullay stress =        0.00 kB


 VOLUME and BASIS-vectors are now :
 -----------------------------------------------------------------------------
  energy-cutoff  :      400.00
  volume of cell :     1237.41
      direct lattice vectors                 reciprocal lattice vectors
    10.807424596  0.053502008  0.000000000     0.092531273 -0.000462656  0.000000000
     0.053502008 10.700420580  0.000000000    -0.000462656  0.093456584  0.000000000
     0.000000000  0.000000000 10.700420580     0.000000000  0.000000000  0.093454271

  length of vectors
    10.807557026 10.700554334 10.700420580     0.092532429  0.093457729  0.093454271


 FORCES acting on ions
    electron-ion (+dipol)            ewald-force                    non-local-force                 convergence-correction
 -----------------------------------------------------------------------------------------------
   0.252E-08 0.329E-08 -.847E+00   0.511E-14 -.155E-13 0.602E+00   -.384E-21 -.207E-22 0.245E+00   0.660E-13 -.437E-13 0.113E-04
   0.252E-08 0.329E-08 -.847E+00   -.311E-14 -.155E-13 0.602E+00   0.646E-20 -.230E-21 0.245E+00   -.845E-13 -.141E-13 0.113E-04
   0.252E-08 0.329E-08 -.847E+00   0.977E-14 -.129E-13 0.602E+00   0.139E-19 -.441E-21 0.245E+00   0.329E-13 0.399E-13 0.113E-04
   0.252E-08 0.329E-08 -.847E+00   0.169E-13 -.147E-13 0.602E+00   -.793E-20 -.383E-21 0.245E+00   -.563E-13 0.171E-13 0.113E-04
   0.252E-08 0.329E-08 -.847E+00   -.162E-13 -.151E-13 0.602E+00   0.131E-19 -.987E-22 0.245E+00   -.836E-13 -.242E-13 0.113E-04
   0.252E-08 0.329E-08 -.847E+00   0.311E-14 -.151E-13 0.602E+00   -.159E-20 -.188E-21 0.245E+00   0.897E-13 -.667E-13 0.113E-04
   0.252E-08 0.329E-08 -.847E+00   -.129E-13 -.164E-13 0.602E+00   -.226E-21 -.100E-21 0.245E+00   -.546E-13 0.139E-13 0.113E-04
   0.252E-08 0.329E-08 -.847E+00   0.711E-14 -.178E-13 0.602E+00   0.624E-20 -.345E-21 0.245E+00   0.616E-13 0.675E-13 0.113E-04
   -.107E-08 -.167E-08 0.847E+00   -.533E-14 -.711E-14 -.602E+00   0.821E-20 0.240E-21 -.245E+00   -.940E-13 0.274E-13 -.113E-04
   -.107E-08 -.167E-08 0.847E+00   0.107E-13 0.000E+00 -.602E+00   0.578E-22 -.368E-21 -.245E+00   0.780E-13 0.177E-13 -.113E-04
   -.107E-08 -.167E-08 0.847E+00   -.133E-14 0.577E-14 -.602E+00   -.615E-20 0.315E-21 -.245E+00   -.772E-13 -.270E-13 -.113E-04
   -.107E-08 -.167E-08 0.847E+00   -.355E-14 0.355E-14 -.602E+00   -.676E-21 -.111E-21 -.245E+00   0.943E-13 -.215E-13 -.113E-04
   -.107E-08 -.167E-08 0.847E+00   -.355E-14 0.133E-14 -.602E+00   -.594E-20 0.441E-21 -.245E+00   0.105E-12 0.115E-12 -.113E-04
   -.107E-08 -.167E-08 0.847E+00   -.888E-14 0.355E-14 -.602E+00   0.663E-20 -.128E-21 -.245E+00   -.787E-13 -.601E-13 -.113E-04
   -.107E-08 -.167E-08 0.847E+00   -.266E-14 -.444E-15 -.602E+00   0.159E-19 0.821E-23 -.245E+00   0.842E-13 -.117E-12 -.113E-04
   -.107E-08 -.167E-08 0.847E+00   -.178E-14 -.178E-14 -.602E+00   0.930E-21 -.557E-21 -.245E+00   -.922E-13 0.602E-13 -.113E-04
   0.252E-08 0.329E-08 -.847E+00   -.355E-14 -.264E-13 0.602E+00   0.588E-20 -.797E-21 0.245E+00   0.972E-13 0.519E-13 0.113E-04
   0.252E-08 0.329E-08 -.847E+00   0.977E-14 -.266E-13 0.602E+00   0.110E-20 0.346E-21 0.245E+00   -.893E-13 -.544E-13 0.113E-04
   0.252E-08 0.329E-08 -.847E+00   0.888E-15 -.231E-13 0.602E+00   -.865E-20 -.471E-21 0.245E+00   0.682E-14 -.525E-13 0.113E-04
   0.252E-08 0.329E-08 -.847E+00   0.133E-13 -.213E-13 0.602E+00   -.656E-20 0.633E-21 0.245E+00   -.354E-13 0.501E-13 0.113E-04
   0.252E-08 0.329E-08 -.847E+00   -.377E-14 -.266E-13 0.602E+00   -.160E-19 -.608E-21 0.245E+00   -.101E-12 0.140E-13 0.113E-04
   0.252E-08 0.329E-08 -.847E+00   0.120E-13 -.266E-13 0.602E+00   -.762E-20 0.823E-21 0.245E+00   0.844E-13 -.168E-13 0.113E-04
   0.252E-08 0.329E-08 -.847E+00   -.120E-13 -.235E-13 0.602E+00   0.585E-20 -.931E-21 0.245E+00   -.162E-13 -.115E-13 0.113E-04
   0.252E-08 0.329E-08 -.847E+00   0.249E-13 -.249E-13 0.602E+00   0.227E-21 0.102E-21 0.245E+00   0.307E-13 0.158E-13 0.113E-04
   -.107E-08 -.167E-08 0.847E+00   -.311E-14 -.584E-14 -.602E+00   0.116E-20 0.599E-21 -.245E+00   0.438E-13 -.366E-13 -.113E-04
   -.107E-08 -.167E-08 0.847E+00   -.311E-14 -.127E-13 -.602E+00   -.629E-20 0.443E-21 -.245E+00   -.602E-13 -.545E-14 -.113E-04
   -.107E-08 -.167E-08 0.847E+00   0.355E-14 -.132E-13 -.602E+00   -.730E-20 0.658E-21 -.245E+00   0.790E-13 0.423E-13 -.113E-04
   -.107E-08 -.167E-08 0.847E+00   -.142E-13 -.125E-13 -.602E+00   -.639E-20 0.260E-22 -.245E+00   -.655E-13 0.171E-13 -.113E-04
   -.107E-08 -.167E-08 0.847E+00   0.888E-14 -.673E-14 -.602E+00   -.130E-19 0.451E-21 -.245E+00   -.214E-13 -.378E-13 -.113E-04
   -.107E-08 -.167E-08 0.847E+00   -.533E-14 -.673E-14 -.602E+00   0.224E-21 0.313E-21 -.245E+00   0.455E-13 -.501E-14 -.113E-04
   -.107E-08 -.167E-08 0.847E+00   0.533E-14 -.109E-13 -.602E+00   0.160E-20 0.400E-21 -.245E+00   -.683E-13 0.477E-13 -.113E-04
   -.107E-08 -.167E-08 0.847E+00   -.160E-13 -.176E-13 -.602E+00   -.131E-19 0.202E-21 -.245E+00   0.639E-13 0.111E-13 -.113E-04
   0.252E-08 0.329E-08 -.847E+00   0.155E-14 0.600E-14 0.602E+00   -.569E-20 0.733E-21 0.245E+00   0.451E-13 -.601E-13 0.113E-04
   0.252E-08 0.329E-08 -.847E+00   -.488E-14 0.488E-14 0.602E+00   0.143E-21 0.940E-22 0.245E+00   -.466E-13 -.428E-15 0.113E-04
   0.252E-08 0.329E-08 -.847E+00   0.888E-14 0.131E-13 0.602E+00   0.752E-20 -.355E-22 0.245E+00   0.487E-14 0.579E-13 0.113E-04
   0.252E-08 0.329E-08 -.847E+00   0.178E-14 0.400E-14 0.602E+00   0.594E-21 -.168E-21 0.245E+00   -.989E-14 -.563E-14 0.113E-04
   0.252E-08 0.329E-08 -.847E+00   0.306E-13 0.142E-13 0.602E+00   0.167E-19 -.313E-22 0.245E+00   -.406E-13 -.153E-12 0.113E-04
   0.252E-08 0.329E-08 -.847E+00   0.200E-13 0.355E-14 0.602E+00   0.350E-20 -.354E-21 0.245E+00   0.471E-13 0.609E-13 0.113E-04
   0.252E-08 0.329E-08 -.847E+00   0.289E-13 0.151E-13 0.602E+00   -.693E-20 0.690E-21 0.245E+00   -.398E-14 0.145E-12 0.113E-04
   0.252E-08 0.329E-08 -.847E+00   0.178E-13 0.142E-13 0.602E+00   -.102E-20 -.292E-22 0.245E+00   0.132E-13 -.538E-13 0.113E-04
   -.107E-08 -.167E-08 0.847E+00   -.158E-14 0.209E-13 -.602E+00   -.180E-20 -.492E-21 -.245E+00   0.398E-13 0.606E-13 -.113E-04
   -.107E-08 -.167E-08 0.847E+00   -.780E-14 0.244E-13 -.602E+00   0.634E-20 -.360E-21 -.245E+00   -.482E-13 -.250E-13 -.113E-04
   -.107E-08 -.167E-08 0.847E+00   -.189E-13 0.271E-13 -.602E+00   0.426E-21 -.265E-21 -.245E+00   0.377E-13 -.613E-13 -.113E-04
   -.107E-08 -.167E-08 0.847E+00   -.647E-14 0.235E-13 -.602E+00   0.627E-20 0.111E-21 -.245E+00   -.452E-13 0.238E-13 -.113E-04
   -.107E-08 -.167E-08 0.847E+00   -.129E-13 0.195E-13 -.602E+00   -.102E-20 -.459E-21 -.245E+00   -.477E-13 0.104E-12 -.113E-04
   -.107E-08 -.167E-08 0.847E+00   -.465E-15 0.195E-13 -.602E+00   0.489E-20 0.183E-21 -.245E+00   0.659E-13 -.381E-13 -.113E-04
   -.107E-08 -.167E-08 0.847E+00   -.142E-13 0.213E-13 -.602E+00   -.551E-21 -.342E-21 -.245E+00   -.425E-13 -.101E-12 -.113E-04
   -.107E-08 -.167E-08 0.847E+00   -.156E-13 0.249E-13 -.602E+00   0.140E-19 -.340E-22 -.245E+00   0.614E-13 0.356E-13 -.113E-04
   0.252E-08 0.329E-08 -.847E+00   0.688E-14 -.888E-15 0.602E+00   -.719E-20 -.590E-22 0.245E+00   -.706E-13 -.176E-13 0.113E-04
   0.252E-08 0.329E-08 -.847E+00   0.102E-13 -.444E-14 0.602E+00   0.688E-20 0.280E-21 0.245E+00   0.460E-13 0.182E-13 0.113E-04
   0.252E-08 0.329E-08 -.847E+00   0.355E-14 0.355E-14 0.602E+00   -.114E-19 0.103E-21 0.245E+00   -.840E-13 0.225E-13 0.113E-04
   0.252E-08 0.329E-08 -.847E+00   -.355E-14 0.444E-14 0.602E+00   -.635E-20 0.473E-21 0.245E+00   0.901E-13 -.199E-13 0.113E-04
   0.252E-08 0.329E-08 -.847E+00   0.178E-13 -.178E-14 0.602E+00   -.489E-20 -.767E-22 0.245E+00   0.760E-13 0.139E-13 0.113E-04
   0.252E-08 0.330E-08 -.847E+00   0.115E-13 -.533E-14 0.602E+00   -.660E-20 0.349E-21 0.245E+00   -.479E-13 -.131E-13 0.113E-04
   0.252E-08 0.329E-08 -.847E+00   0.977E-14 0.622E-14 0.602E+00   -.634E-20 0.138E-21 0.245E+00   0.109E-12 -.101E-13 0.113E-04
   0.252E-08 0.329E-08 -.847E+00   0.249E-13 0.711E-14 0.602E+00   0.551E-21 0.263E-22 0.245E+00   -.106E-12 0.581E-14 0.113E-04
   -.107E-08 -.167E-08 0.847E+00   -.156E-14 0.156E-13 -.602E+00   0.618E-20 -.203E-21 -.245E+00   0.733E-13 -.276E-13 -.113E-04
   -.107E-08 -.167E-08 0.847E+00   -.129E-13 0.156E-13 -.602E+00   0.949E-22 -.122E-21 -.245E+00   -.759E-13 -.902E-15 -.113E-04
   -.107E-08 -.167E-08 0.847E+00   -.151E-13 0.207E-13 -.602E+00   -.145E-19 0.695E-22 -.245E+00   -.129E-13 0.349E-13 -.113E-04
   -.107E-08 -.167E-08 0.847E+00   -.794E-14 0.198E-13 -.602E+00   -.146E-19 0.268E-21 -.245E+00   -.127E-15 0.132E-13 -.113E-04
   -.107E-08 -.167E-08 0.847E+00   -.143E-13 0.165E-13 -.602E+00   -.999E-20 0.926E-22 -.245E+00   -.762E-13 -.437E-13 -.113E-04
   -.107E-08 -.167E-08 0.847E+00   -.804E-14 0.941E-14 -.602E+00   -.323E-20 0.266E-21 -.245E+00   0.883E-13 -.184E-13 -.113E-04
   -.107E-08 -.167E-08 0.847E+00   -.169E-13 0.752E-14 -.602E+00   0.666E-20 -.607E-21 -.245E+00   0.154E-13 0.549E-13 -.113E-04
   -.107E-08 -.167E-08 0.847E+00   -.352E-14 0.137E-13 -.602E+00   -.568E-20 -.190E-22 -.245E+00   0.561E-14 0.266E-13 -.113E-04
 -----------------------------------------------------------------------------------------------
   0.464E-07 0.519E-07 0.193E-04   0.385E-13 -.196E-13 0.264E-13   -.474E-19 0.442E-21 0.297E-14   0.437E-13 0.424E-13 -.905E-10
 
 
 POSITION                                       TOTAL-FORCE (eV/Angst)
 -----------------------------------------------------------------------------------
      0.00000      0.00000      0.00403        -0.000000     -0.000000     -0.000194
      0.00000      0.00000      5.35424         0.000000     -0.000000     -0.000194
      0.02675      5.35021      0.00403         0.000000     -0.000000     -0.000194
      0.02675      5.35021      5.35424         0.000000     -0.000000     -0.000194
      5.40371      0.02675      0.00403        -0.000000      0.000000     -0.000194
      5.40371      0.02675      5.35424        -0.000000      0.000000     -0.000194
      5.43046      5.37696      0.00403         0.000000      0.000000     -0.000194
      5.43046      5.37696      5.35424         0.000000      0.000000     -0.000194
      4.07285      4.03272      1.33352        -0.000000     -0.000000      0.000194
      4.07285      4.03272      6.68373        -0.000000     -0.000000      0.000194
      4.09960      9.38293      1.33352        -0.000000     -0.000000      0.000194
      4.09960      9.38293      6.68373        -0.000000      0.000000      0.000194
      9.47656      4.05947      1.33352         0.000000     -0.000000      0.000194
      9.47656      4.05947      6.68373         0.000000      0.000000      0.000194
      9.50331      9.40968      1.33352        -0.000000      0.000000      0.000194
      9.50331      9.40968      6.68373        -0.000000      0.000000      0.000194
      0.01338      2.67511      2.67913         0.000000     -0.000000     -0.000194
      0.01338      2.67511      8.02935         0.000000     -0.000000     -0.000194
      0.04013      8.02532      2.67913         0.000000     -0.000000     -0.000194
      0.04013      8.02532      8.02935         0.000000     -0.000000     -0.000194
      5.41709      2.70186      2.67913         0.000000      0.000000     -0.000194
      5.41709      2.70186      8.02935         0.000000      0.000000     -0.000194
      5.44384      8.05207      2.67913        -0.000000      0.000000     -0.000194
      5.44384      8.05207      8.02935         0.000000     -0.000000     -0.000194
      4.05947      1.35762      4.00863        -0.000000     -0.000000      0.000194
      4.05947      1.35762      9.35884        -0.000000     -0.000000      0.000194
      4.08622      6.70783      4.00863        -0.000000      0.000000      0.000194
      4.08622      6.70783      9.35884        -0.000000     -0.000000      0.000194
      9.46318      1.38437      4.00863         0.000000     -0.000000      0.000194
      9.46318      1.38437      9.35884         0.000000      0.000000      0.000194
      9.48994      6.73458      4.00863        -0.000000      0.000000      0.000194
      9.48994      6.73458      9.35884         0.000000      0.000000      0.000194
      2.70186      0.01338      2.67913         0.000000     -0.000000     -0.000194
      2.70186      0.01338      8.02935        -0.000000     -0.000000     -0.000194
      2.72861      5.36359      2.67913         0.000000      0.000000     -0.000194
      2.72861      5.36359      8.02935        -0.000000     -0.000000     -0.000194
      8.10557      0.04013      2.67913        -0.000000      0.000000     -0.000194
      8.10557      0.04013      8.02935        -0.000000      0.000000     -0.000194
      8.13232      5.39034      2.67913        -0.000000      0.000000     -0.000194
      8.13232      5.39034      8.02935         0.000000      0.000000     -0.000194
      1.37099      4.01935      4.00863         0.000000      0.000000      0.000194
      1.37099      4.01935      9.35884         0.000000      0.000000      0.000194
      1.39774      9.36956      4.00863         0.000000      0.000000      0.000194
      1.39774      9.36956      9.35884         0.000000     -0.000000      0.000194
      6.77470      4.04610      4.00863        -0.000000     -0.000000      0.000194
      6.77470      4.04610      9.35884         0.000000     -0.000000      0.000194
      6.80145      9.39631      4.00863        -0.000000     -0.000000      0.000194
      6.80145      9.39631      9.35884        -0.000000     -0.000000      0.000194
      2.71523      2.68848      0.00403         0.000000      0.000000     -0.000194
      2.71523      2.68848      5.35424        -0.000000      0.000000     -0.000194
      2.74198      8.03869      0.00403        -0.000000     -0.000000     -0.000194
      2.74198      8.03869      5.35424         0.000000     -0.000000     -0.000194
      8.11894      2.71523      0.00403        -0.000000      0.000000     -0.000194
      8.11894      2.71523      5.35424        -0.000000      0.000000     -0.000194
      8.14569      8.06544      0.00403        -0.000000      0.000000     -0.000194
      8.14569      8.06544      5.35424        -0.000000      0.000000     -0.000194
      1.35762      1.34424      1.33352         0.000000      0.000000      0.000194
      1.35762      1.34424      6.68373         0.000000      0.000000      0.000194
      1.38437      6.69445      1.33352         0.000000     -0.000000      0.000194
      1.38437      6.69445      6.68373         0.000000      0.000000      0.000194
      6.76133      1.37099      1.33352        -0.000000     -0.000000      0.000194
      6.76133      1.37099      6.68373        -0.000000     -0.000000      0.000194
      6.78808      6.72120      1.33352        -0.000000      0.000000      0.000194
      6.78808      6.72120      6.68373         0.000000     -0.000000      0.000194
 -----------------------------------------------------------------------------------
    total drift:                                0.000000      0.000000      0.000019


--------------------------------------------------------------------------------------------------------



  FREE ENERGIE OF THE ION-ELECTRON SYSTEM (eV)
  ---------------------------------------------------
  free  energy   TOTEN  =      -367.02115466 eV

  energy  without entropy=     -367.05179425  energy(sigma->0) =     -367.03136786
 
 d Force = 0.2232324E-02[ 0.193E-04, 0.445E-02]  d Energy = 0.2236270E-02-0.395E-05
 d Force =-0.5607102E-01[-0.599E-01,-0.523E-01]  d Ewald  =-0.5607097E-01-0.510E-07


--------------------------------------------------------------------------------------------------------


    POTLOK:  cpu time      0.1441: real time      0.1450


--------------------------------------------------------------------------------------------------------




--------------------------------------------------------------------------------------------------------


  
 reached required accuracy - stopping structural energy minimisation
     LOOP+:  cpu time     12.6003: real time     12.7911
    4ORBIT:  cpu time      0.0000: real time      0.0000

 total amount of memory used by VASP MPI-rank0    79484. kBytes
=======================================================================

   base      :      30000. kBytes
   nonlr-proj:       4583. kBytes
   fftplans  :      17992. kBytes
   grid      :       6881. kBytes
   one-center:         18. kBytes
   wavefun   :      20010. kBytes
 
  
  
 General timing and accounting informations for this job:
 ========================================================
  
                  Total CPU time used (sec):       62.506
                            User time (sec):       59.080
                          System time (sec):        3.426
                         Elapsed time (sec):       66.159
  
                   Maximum memory used (kb):      413980.
                   Average memory used (kb):          N/A
  
                          Minor page faults:        92922
                          Major page faults:            0
                 Voluntary context switches:         9331
