       N       E                     dE             d eps       ncg     rms          rms(c)
DAV:   1     0.559489108593E+03    0.55949E+03   -0.83504E+04  2592   0.106E+03
DAV:   2    -0.308909476564E+03   -0.86840E+03   -0.82509E+03  3080   0.171E+02
DAV:   3    -0.372597713257E+03   -0.63688E+02   -0.62475E+02  3144   0.411E+01
DAV:   4    -0.374276456134E+03   -0.16787E+01   -0.16650E+01  3112   0.806E+00
DAV:   5    -0.374334729279E+03   -0.58273E-01   -0.58086E-01  3128   0.139E+00    0.277E+01
RMM:   6    -0.369507194411E+03    0.48275E+01   -0.23851E+00  2592   0.241E+00    0.166E+01
RMM:   7    -0.367274727449E+03    0.22325E+01   -0.61289E+00  2622   0.389E+00    0.901E-01
RMM:   8    -0.367322357619E+03   -0.47630E-01   -0.62752E-01  2635   0.150E+00    0.488E-01
RMM:   9    -0.367341391089E+03   -0.19033E-01   -0.17669E-01  2681   0.739E-01    0.568E-01
RMM:  10    -0.367344731309E+03   -0.33402E-02   -0.29477E-02  2734   0.342E-01    0.792E-01
RMM:  11    -0.367342748427E+03    0.19829E-02   -0.10926E-02  2592   0.209E-01    0.585E-01
RMM:  12    -0.367342898670E+03   -0.15024E-03   -0.17393E-03  2604   0.976E-02    0.548E-01
RMM:  13    -0.367342939510E+03   -0.40840E-04   -0.31084E-04  2778   0.391E-02    0.648E-01
RMM:  14    -0.367342994697E+03   -0.55188E-04   -0.85173E-05  2593   0.230E-02    0.272E-01
RMM:  15    -0.367343033157E+03   -0.38460E-04   -0.26114E-05  2676   0.115E-02    0.201E-01
RMM:  16    -0.367343052181E+03   -0.19024E-04   -0.15062E-05  2593   0.884E-03    0.964E-02
RMM:  17    -0.367343058325E+03   -0.61440E-05   -0.78986E-06  2578   0.643E-03    0.139E-02
RMM:  18    -0.367343058522E+03   -0.19763E-06   -0.28644E-06  1757   0.345E-03
   1 F= -.36734306E+03 E0= -.36735161E+03  d E =-.367343E+03
       N       E                     dE             d eps       ncg     rms          rms(c)
DAV:   1    -0.367374739900E+03   -0.31682E-01   -0.13831E+00  2944   0.224E+00    0.493E-01
RMM:   2    -0.367381777589E+03   -0.70377E-02   -0.74279E-02  2592   0.564E-01    0.201E-01
RMM:   3    -0.367383010079E+03   -0.12325E-02   -0.12332E-02  2642   0.258E-01    0.874E-02
RMM:   4    -0.367383043430E+03   -0.33352E-04   -0.17270E-03  2692   0.108E-01    0.312E-02
RMM:   5    -0.367383055144E+03   -0.11714E-04   -0.28194E-04  2669   0.426E-02    0.675E-03
RMM:   6    -0.367383062149E+03   -0.70044E-05   -0.69630E-05  2789   0.190E-02    0.182E-03
RMM:   7    -0.367383062984E+03   -0.83568E-06   -0.86702E-06  2164   0.677E-03    0.122E-03
RMM:   8    -0.367383063146E+03   -0.16165E-06   -0.19431E-06  1712   0.306E-03
   2 F= -.36738306E+03 E0= -.36739049E+03  d E =-.400046E-01
       N       E                     dE             d eps       ncg     rms          rms(c)
DAV:   1    -0.367385690035E+03   -0.26271E-02   -0.60578E-02  2950   0.468E-01    0.103E-01
RMM:   2    -0.367385993728E+03   -0.30369E-03   -0.31733E-03  2592   0.117E-01    0.425E-02
RMM:   3    -0.367386045247E+03   -0.51519E-04   -0.51140E-04  2641   0.534E-02    0.179E-02
RMM:   4    -0.367386046977E+03   -0.17298E-05   -0.71551E-05  2688   0.224E-02    0.642E-03
RMM:   5    -0.367386047574E+03   -0.59673E-06   -0.11649E-05  2516   0.873E-03    0.138E-03
RMM:   6    -0.367386047824E+03   -0.25015E-06   -0.26860E-06  1751   0.391E-03    0.292E-04
RMM:   7    -0.367386047866E+03   -0.42023E-07   -0.46474E-07  1506   0.158E-03    0.194E-04
RMM:   8    -0.367386047884E+03   -0.18539E-07   -0.12145E-07  1119   0.810E-04
   3 F= -.36738605E+03 E0= -.36739390E+03  d E =-.429894E-01
