 vasp.6.4.3 19Mar24 (build Oct 21 2024 22:36:34) complex                        
  
 executed on             LinuxIFC date 2024.11.01  22:47:26
 running   96 mpi-ranks, on    1 nodes
 distrk:  each k-point on   24 cores,    4 groups
 distr:  one band on NCORE=  12 cores,    2 groups


--------------------------------------------------------------------------------------------------------


 INCAR:
   SYSTEM = Si64
   ISTART = 0
   ICHARG = 2
   LREAL = Auto
   PREC = Accurate
   LWAVE = .False.
   LCHARG = .False.
   ADDGRID = .True.
   ENCUT = 400
   GGA = PS
   GGA_COMPAT = .FALSE.
   ISMEAR = 1
   SIGMA = 0.2
   NELM = 60
   NELMIN = 8
   EDIFF = 1e-06
   EDIFFG = -0.01
   NSW = 60
   IBRION = 2
   ISIF = 2
   KPAR = 4
   NPAR = 2
   ALGO = Fast

 POTCAR:    PAW_PBE Si 05Jan2001                  
 POTCAR:    PAW_PBE Si 05Jan2001                  
   VRHFIN =Si: s2p2                                                                                 
   LEXCH  = PE                                                                                      
   EATOM  =   103.0669 eV,    7.5752 Ry                                                             
                                                                                                    
   TITEL  = PAW_PBE Si 05Jan2001                                                                    
   LULTRA =        F    use ultrasoft PP ?                                                          
   IUNSCR =        1    unscreen: 0-lin 1-nonlin 2-no                                               
   RPACOR =    1.500    partial core radius                                                         
   POMASS =   28.085; ZVAL   =    4.000    mass and valenz                                          
   RCORE  =    1.900    outmost cutoff radius                                                       
   RWIGS  =    2.480; RWIGS  =    1.312    wigner-seitz radius (au A)                               
   ENMAX  =  245.345; ENMIN  =  184.009 eV                                                          
   ICORE  =        2    local potential                                                             
   LCOR   =        T    correct aug charges                                                         
   LPAW   =        T    paw PP                                                                      
   EAUG   =  322.069                                                                                
   DEXC   =    0.000                                                                                
   RMAX   =    1.950    core radius for proj-oper                                                   
   RAUG   =    1.300    factor for augmentation sphere                                              
   RDEP   =    1.993    radius for radial grids                                                     
   RDEPT  =    1.837    core radius for aug-charge                                                  
                                                                                                    
   Atomic configuration                                                                             
    6 entries                                                                                       
     n  l   j            E        occ.                                                              
     1  0  0.50     -1785.8828   2.0000                                                             
     2  0  0.50      -139.4969   2.0000                                                             
     2  1  1.50       -95.5546   6.0000                                                             
     3  0  0.50       -10.8127   2.0000                                                             
     3  1  0.50        -4.0811   2.0000                                                             
     3  2  1.50        -4.0817   0.0000                                                             
   Description                                                                                      
     l       E           TYP  RCUT    TYP  RCUT                                                     
     0    -10.8127223     23  1.900                                                                 
     0     -7.6451159     23  1.900                                                                 
     1     -4.0811372     23  1.900                                                                 
     1      2.4879257     23  1.900                                                                 
     2     -4.0817478      7  1.900                                                                 
  local pseudopotential read in
  partial core-charges read in
  partial kinetic energy density read in
  atomic valenz-charges read in
  non local Contribution for L=           0  read in
    real space projection operators read in
  non local Contribution for L=           0  read in
    real space projection operators read in
  non local Contribution for L=           1  read in
    real space projection operators read in
  non local Contribution for L=           1  read in
    real space projection operators read in
    PAW grid and wavefunctions read in
 
   number of l-projection  operators is LMAX  =           4
   number of lm-projection operators is LMMAX =           8
 
 Optimization of the real space projectors (new method)

 maximal supplied QI-value         = 19.84
 optimisation between [QCUT,QGAM] = [ 10.12, 20.44] = [ 28.68,116.96] Ry 
 Optimized for a Real-space Cutoff    1.38 Angstroem

   l    n(q)    QCUT    max X(q) W(low)/X(q) W(high)/X(q)  e(spline) 
   0      8    10.119   159.560    0.58E-04    0.11E-03    0.54E-07
   0      8    10.119   115.863    0.56E-04    0.11E-03    0.54E-07
   1      8    10.119    88.339    0.22E-03    0.17E-03    0.19E-06
   1      8    10.119    48.592    0.22E-03    0.17E-03    0.18E-06
 -----------------------------------------------------------------------------
|                                                                             |
|               ----> ADVICE to this user running VASP <----                  |
|                                                                             |
|     You enforced a specific xc type in the INCAR file but a different       |
|     type was found in the POTCAR file.                                      |
|     I HOPE YOU KNOW WHAT YOU ARE DOING!                                     |
|                                                                             |
 -----------------------------------------------------------------------------

  PAW_PBE Si 05Jan2001                  :
 energy of atom  1       EATOM= -103.0669
 kinetic energy error for atom=    0.0012 (will be added to EATOM!!)
 
 
 POSCAR: Si8
  positions in direct lattice
  velocities in cartesian coordinates


 exchange-correlation table for PS
   RHO(1)=    0.500       N(1)  =     2000
   RHO(2)=  100.500       N(2)  =     4000
 


--------------------------------------------------------------------------------------------------------


 ion  position               nearest neighbor table
   1  0.000  0.000  0.000-  30 2.35  44 2.35  15 2.38  57 2.38
   2  0.000  0.000  0.500-  29 2.35  43 2.35  16 2.38  58 2.38
   3  0.000  0.500  0.000-  32 2.35  42 2.35  13 2.38  59 2.38
   4  0.000  0.500  0.500-  31 2.35  41 2.35  14 2.38  60 2.38
   5  0.500  0.000  0.000-  26 2.35  48 2.35  11 2.38  61 2.38
   6  0.500  0.000  0.500-  25 2.35  47 2.35  12 2.38  62 2.38
   7  0.500  0.500  0.000-  28 2.35  46 2.35   9 2.38  63 2.38
   8  0.500  0.500  0.500-  27 2.35  45 2.35  10 2.38  64 2.38
   9  0.375  0.375  0.125-  21 2.35  35 2.35   7 2.38  49 2.38
  10  0.375  0.375  0.625-  22 2.35  36 2.35   8 2.38  50 2.38
  11  0.375  0.875  0.125-  23 2.35  33 2.35   5 2.38  51 2.38
  12  0.375  0.875  0.625-  24 2.35  34 2.35   6 2.38  52 2.38
  13  0.875  0.375  0.125-  17 2.35  39 2.35   3 2.38  53 2.38
  14  0.875  0.375  0.625-  18 2.35  40 2.35   4 2.38  54 2.38
  15  0.875  0.875  0.125-  19 2.35  37 2.35   1 2.38  55 2.38
  16  0.875  0.875  0.625-  20 2.35  38 2.35   2 2.38  56 2.38
  17  0.000  0.250  0.250-  13 2.35  57 2.35  41 2.38  29 2.38
  18  0.000  0.250  0.750-  14 2.35  58 2.35  42 2.38  30 2.38
  19  0.000  0.750  0.250-  15 2.35  59 2.35  43 2.38  31 2.38
  20  0.000  0.750  0.750-  16 2.35  60 2.35  44 2.38  32 2.38
  21  0.500  0.250  0.250-   9 2.35  61 2.35  45 2.38  25 2.38
  22  0.500  0.250  0.750-  10 2.35  62 2.35  46 2.38  26 2.38
  23  0.500  0.750  0.250-  11 2.35  63 2.35  47 2.38  27 2.38
  24  0.500  0.750  0.750-  12 2.35  64 2.35  48 2.38  28 2.38
  25  0.375  0.125  0.375-   6 2.35  50 2.35  33 2.38  21 2.38
  26  0.375  0.125  0.875-   5 2.35  49 2.35  34 2.38  22 2.38
  27  0.375  0.625  0.375-   8 2.35  52 2.35  35 2.38  23 2.38
  28  0.375  0.625  0.875-   7 2.35  51 2.35  36 2.38  24 2.38
  29  0.875  0.125  0.375-   2 2.35  54 2.35  37 2.38  17 2.38
  30  0.875  0.125  0.875-   1 2.35  53 2.35  38 2.38  18 2.38
  31  0.875  0.625  0.375-   4 2.35  56 2.35  39 2.38  19 2.38
  32  0.875  0.625  0.875-   3 2.35  55 2.35  40 2.38  20 2.38
  33  0.250  0.000  0.250-  11 2.35  57 2.35  43 2.38  25 2.38
  34  0.250  0.000  0.750-  12 2.35  58 2.35  44 2.38  26 2.38
  35  0.250  0.500  0.250-   9 2.35  59 2.35  41 2.38  27 2.38
  36  0.250  0.500  0.750-  10 2.35  60 2.35  42 2.38  28 2.38
  37  0.750  0.000  0.250-  15 2.35  61 2.35  47 2.38  29 2.38
  38  0.750  0.000  0.750-  16 2.35  62 2.35  48 2.38  30 2.38
  39  0.750  0.500  0.250-  13 2.35  63 2.35  45 2.38  31 2.38
  40  0.750  0.500  0.750-  14 2.35  64 2.35  46 2.38  32 2.38
  41  0.125  0.375  0.375-   4 2.35  50 2.35  35 2.38  17 2.38
  42  0.125  0.375  0.875-   3 2.35  49 2.35  36 2.38  18 2.38
  43  0.125  0.875  0.375-   2 2.35  52 2.35  33 2.38  19 2.38
  44  0.125  0.875  0.875-   1 2.35  51 2.35  34 2.38  20 2.38
  45  0.625  0.375  0.375-   8 2.35  54 2.35  39 2.38  21 2.38
  46  0.625  0.375  0.875-   7 2.35  53 2.35  40 2.38  22 2.38
  47  0.625  0.875  0.375-   6 2.35  56 2.35  37 2.38  23 2.38
  48  0.625  0.875  0.875-   5 2.35  55 2.35  38 2.38  24 2.38
  49  0.250  0.250  0.000-  26 2.35  42 2.35   9 2.38  57 2.38
  50  0.250  0.250  0.500-  25 2.35  41 2.35  10 2.38  58 2.38
  51  0.250  0.750  0.000-  28 2.35  44 2.35  11 2.38  59 2.38
  52  0.250  0.750  0.500-  27 2.35  43 2.35  12 2.38  60 2.38
  53  0.750  0.250  0.000-  30 2.35  46 2.35  13 2.38  61 2.38
  54  0.750  0.250  0.500-  29 2.35  45 2.35  14 2.38  62 2.38
  55  0.750  0.750  0.000-  32 2.35  48 2.35  15 2.38  63 2.38
  56  0.750  0.750  0.500-  31 2.35  47 2.35  16 2.38  64 2.38
  57  0.125  0.125  0.125-  17 2.35  33 2.35   1 2.38  49 2.38
  58  0.125  0.125  0.625-  18 2.35  34 2.35   2 2.38  50 2.38
  59  0.125  0.625  0.125-  19 2.35  35 2.35   3 2.38  51 2.38
  60  0.125  0.625  0.625-  20 2.35  36 2.35   4 2.38  52 2.38
  61  0.625  0.125  0.125-  21 2.35  37 2.35   5 2.38  53 2.38
  62  0.625  0.125  0.625-  22 2.35  38 2.35   6 2.38  54 2.38
  63  0.625  0.625  0.125-  23 2.35  39 2.35   7 2.38  55 2.38
  64  0.625  0.625  0.625-  24 2.35  40 2.35   8 2.38  56 2.38
 
  LATTYP: Found a simple monoclinic cell.
 ALAT       =    10.8344622805
 B/A-ratio  =     0.9999500039
 C/A-ratio  =     1.0199980770
 COS(beta)  =    -0.0198019445
  
  Lattice vectors:
  
 A1 = (   0.1083390160,  10.8339206000,   0.0000000000)
 A2 = (   0.0000000000,   0.0000000000, -10.8339206000)
 A3 = ( -11.0505996320,  -0.1083390160,   0.0000000000)


Analysis of symmetry for initial positions (statically):
=====================================================================
 Subroutine PRICEL returns following result:
 
  LATTYP: Found a base centered monoclinic cell.
 ALAT       =     5.4172311403
 B/A-ratio  =     0.9999500039
 C/A-ratio  =     0.7071068141
 COS(beta)  =    -0.6928246448
  
  Lattice vectors:
  
 A1 = (   0.0270847540,   2.7084801500,  -2.7084801500)
 A2 = (   0.0270847540,   2.7084801500,   2.7084801500)
 A3 = (   2.7355651540,  -2.6813953960,   0.0000000000)
 
  32 primitive cells build up your supercell.
 

 Routine SETGRP: Setting up the symmetry group for a 
 simple monoclinic supercell.


 Subroutine GETGRP returns: Found  4 space group operations
 (whereof  2 operations were pure point group operations)
 out of a pool of  4 trial point group operations.


The static configuration has the point symmetry C_2 .
 The point group associated with its full space group is C_2h.


Analysis of symmetry for dynamics (positions and initial velocities):
=====================================================================
 Subroutine PRICEL returns following result:
 
  LATTYP: Found a base centered monoclinic cell.
 ALAT       =     5.4172311403
 B/A-ratio  =     0.9999500039
 C/A-ratio  =     0.7071068141
 COS(beta)  =    -0.6928246448
  
  Lattice vectors:
  
 A1 = (   0.0270847540,   2.7084801500,  -2.7084801500)
 A2 = (   0.0270847540,   2.7084801500,   2.7084801500)
 A3 = (   2.7355651540,  -2.6813953960,   0.0000000000)
 
  32 primitive cells build up your supercell.
 

 Routine SETGRP: Setting up the symmetry group for a 
 simple monoclinic supercell.


 Subroutine GETGRP returns: Found  4 space group operations
 (whereof  2 operations were pure point group operations)
 out of a pool of  4 trial point group operations.


The dynamic configuration has the point symmetry C_2 .
 The point group associated with its full space group is C_2h.


 Subroutine INISYM returns: Found  4 space group operations
 (whereof  2 operations are pure point group operations),
 and found    32 'primitive' translations


----------------------------------------------------------------------------------------

                                     Primitive cell                                     

  volume of cell :      40.5289

  direct lattice vectors                    reciprocal lattice vectors
     0.027084754  2.708480150 -2.708480150     0.179193368  0.182813447 -0.184605377
     0.027084754  2.708480150  2.708480150     0.179193368  0.182813447  0.184605377
     2.735565154 -2.681395396  0.000000000     0.362006798 -0.003620062 -0.000000000

  length of vectors
     3.830465119  3.830465119  3.830561053     0.315610781  0.315610781  0.362024898

  position of ions in fractional coordinates (direct lattice)
     0.000000000  0.000000000  0.000000000
     0.250000000  0.750000000  0.500000000

  ion indices of the primitive-cell ions
   primitive index   ion index
                 1           1
                 2          15

----------------------------------------------------------------------------------------

 
 
 KPOINTS: Automatic mesh                          

Automatic generation of k-mesh.
 Grid dimensions read from file:
 generate k-points for:    2    2    2

 Generating k-lattice:

  Cartesian coordinates                     Fractional coordinates (reciprocal lattice)
     0.045250850 -0.000452508  0.000000000     0.500000000  0.000000000  0.000000000
    -0.000452508  0.046155869  0.000000000     0.000000000  0.500000000  0.000000000
     0.000000000  0.000000000  0.046151344     0.000000000  0.000000000  0.500000000

  Length of vectors
     0.045253112  0.046158088  0.046151344

  Shift w.r.t. Gamma in fractional coordinates (k-lattice)
     0.000000000  0.000000000  0.000000000

 
 Subroutine IBZKPT returns following result:
 ===========================================
 
 Found      8 irreducible k-points:
 
 Following reciprocal coordinates:
            Coordinates               Weight
  0.000000  0.000000  0.000000      1.000000
  0.500000 -0.000000  0.000000      1.000000
 -0.000000  0.500000  0.000000      1.000000
  0.500000  0.500000  0.000000      1.000000
  0.000000  0.000000  0.500000      1.000000
  0.500000 -0.000000  0.500000      1.000000
 -0.000000  0.500000  0.500000      1.000000
  0.500000  0.500000  0.500000      1.000000
 
 Following cartesian coordinates:
            Coordinates               Weight
  0.000000  0.000000  0.000000      1.000000
  0.045251 -0.000453  0.000000      1.000000
 -0.000453  0.046156  0.000000      1.000000
  0.044798  0.045703  0.000000      1.000000
  0.000000  0.000000  0.046151      1.000000
  0.045251 -0.000453  0.046151      1.000000
 -0.000453  0.046156  0.046151      1.000000
  0.044798  0.045703  0.046151      1.000000
 


--------------------------------------------------------------------------------------------------------




 Dimension of arrays:
   k-points           NKPTS =      8   k-points in BZ     NKDIM =      8   number of bands    NBANDS=    162
   number of dos      NEDOS =    301   number of ions     NIONS =     64
   non local maximal  LDIM  =      4   non local SUM 2l+1 LMDIM =      8
   total plane-waves  NPLWV = 373248
   max r-space proj   IRMAX =   3221   max aug-charges    IRDMAX=  77170
   dimension x,y,z NGX =    72 NGY =   72 NGZ =   72
   dimension x,y,z NGXF=   144 NGYF=  144 NGZF=  144
   support grid    NGXF=   288 NGYF=  288 NGZF=  288
   ions per type =              64
   NGX,Y,Z   is equivalent  to a cutoff of  10.83, 11.05, 11.05 a.u.
   NGXF,Y,Z  is equivalent  to a cutoff of  21.66, 22.10, 22.10 a.u.

 SYSTEM =  Si64                                    
 POSCAR =  Si8                                     

 Startparameter for this run:
   NWRITE =      2    write-flag & timer
   PREC   = accura    normal or accurate (medium, high low for compatibility)
   ISTART =      0    job   : 0-new  1-cont  2-samecut
   ICHARG =      2    charge: 1-file 2-atom 10-const
   ISPIN  =      1    spin polarized calculation?
   LNONCOLLINEAR =      F non collinear calculations
   LSORBIT =      F    spin-orbit coupling
   INIWAV =      1    electr: 0-lowe 1-rand  2-diag
   LASPH  =      F    aspherical Exc in radial PAW
 Electronic Relaxation 1
   ENCUT  =  400.0 eV  29.40 Ry    5.42 a.u.  18.02 17.67 17.67*2*pi/ulx,y,z
   ENINI  =  400.0     initial cutoff
   ENAUG  =  322.1 eV  augmentation charge cutoff
   NELM   =     60;   NELMIN=  8; NELMDL= -5     # of ELM steps 
   EDIFF  = 0.1E-05   stopping-criterion for ELM
   LREAL  =      T    real-space projection
   NLSPLINE    = F    spline interpolate recip. space projectors
   LCOMPAT=      F    compatible to vasp.4.4
   GGA_COMPAT  = F    GGA compatible to vasp.4.4-vasp.4.6
   LMAXPAW     = -100 max onsite density
   LMAXMIX     =    2 max onsite mixed and CHGCAR
   VOSKOWN=      0    Vosko Wilk Nusair interpolation
   ROPT   =   -0.00025
 Ionic relaxation
   EDIFFG = -.1E-01   stopping-criterion for IOM
   NSW    =     60    number of steps for IOM
   NBLOCK =      1;   KBLOCK =     60    inner block; outer block 
   IBRION =      2    ionic relax: 0-MD 1-quasi-New 2-CG
   NFREE  =      1    steps in history (QN), initial steepest desc. (CG)
   ISIF   =      2    stress and relaxation
   IWAVPR =     11    prediction:  0-non 1-charg 2-wave 3-comb
   ISYM   =      2    0-nonsym 1-usesym 2-fastsym
   LCORR  =      T    Harris-Foulkes like correction to forces

   POTIM  = 0.5000    time-step for ionic-motion
   TEIN   =    0.0    initial temperature
   TEBEG  =    0.0;   TEEND  =   0.0 temperature during run
   SMASS  =  -3.00    Nose mass-parameter (am)
   estimated Nose-frequenzy (Omega)   =  0.10E-29 period in steps = 0.13E+47 mass=  -0.279E-26a.u.
   SCALEE = 1.0000    scale energy and forces
   NPACO  =    256;   APACO  = 10.0  distance and # of slots for P.C.
   PSTRESS=    0.0 pullay stress

  Mass of Ions in am
   POMASS =  28.09
  Ionic Valenz
   ZVAL   =   4.00
  Atomic Wigner-Seitz radii
   RWIGS  =  -1.00
  virtual crystal weights 
   VCA    =   1.00
   NELECT =     256.0000    total number of electrons
   NUPDOWN=      -1.0000    fix difference up-down

 DOS related values:
   EMIN   =  10.00;   EMAX   =-10.00  energy-range for DOS
   EFERMI =   0.00;   METHOD = LEGACY      
   ISMEAR =     1;   SIGMA  =   0.20  broadening in eV -4-tet -1-fermi 0-gaus

 Electronic relaxation 2 (details)
   IALGO  =     68    algorithm
   LDIAG  =      T    sub-space diagonalisation (order eigenvalues)
   LSUBROT=      F    optimize rotation matrix (better conditioning)
   TURBO    =      0    0=normal 1=particle mesh
   IRESTART =      0    0=no restart 2=restart with 2 vectors
   NREBOOT  =      0    no. of reboots
   NMIN     =      0    reboot dimension
   EREF     =   0.00    reference energy to select bands
   IMIX   =      4    mixing-type and parameters
     AMIX     =   0.40;   BMIX     =  1.00
     AMIX_MAG =   1.60;   BMIX_MAG =  1.00
     AMIN     =   0.10
     WC   =   100.;   INIMIX=   1;  MIXPRE=   1;  MAXMIX= -45

 Intra band minimization:
   WEIMIN = 0.0010     energy-eigenvalue tresh-hold
   EBREAK =  0.15E-08  absolut break condition
   DEPER  =   0.30     relativ break condition  

   TIME   =   0.40     timestep for ELM

  volume/ion in A,a.u.               =      20.26       136.75
  Fermi-wavevector in a.u.,A,eV,Ry     =   0.953198  1.801284 12.362079  0.908587
  Thomas-Fermi vector in A             =   2.081831
 
 Write flags
   LWAVE        =      F    write WAVECAR
   LDOWNSAMPLE  =      F    k-point downsampling of WAVECAR
   LCHARG       =      F    write CHGCAR
   LVTOT        =      F    write LOCPOT, total local potential
   LVHAR        =      F    write LOCPOT, Hartree potential only
   WRT_POTENTIAL= false  ! write potential to hdf5 file
   LELF         =      F    write electronic localiz. function (ELF)
   LORBIT       =      0    0 simple, 1 ext, 2 COOP (PROOUT), +10 PAW based schemes


 Dipole corrections
   LMONO      =      F    monopole corrections only (constant potential shift)
   LDIPOL     =      F    correct potential (dipole corrections)
   IDIPOL     =      0    1-x, 2-y, 3-z, 4-all directions 
   EPSILON    =  1.0000000 bulk dielectric constant
   LVACPOTAV  =      F  vacuum potentials using an averaging scheme for the charge density
   VACPOTFLAT =  0.1000000 required flatness to determine vacuum potential
 Exchange correlation treatment:
   GGA     = PS    functional components
   XC_C    = 1    coefficients multiplying the functional components
   LIBXC   =     F    Libxc                    
   VOSKOWN =     0    Vosko Wilk Nusair interpolation
   LHFCALC =     F    Hartree Fock is set to
   LHFONE  =     F    Hartree Fock one center treatment
   AEXX    =    0.0000 exact exchange contribution

 Parameters of functionals:
   PS:
     No parameter
 
 Van der Waals corrections
   IVDW    =     0    specifies the selected vdW correction

 Linear response parameters
   LEPSILON=     F    determine dielectric tensor
   LRPA    =     F    only Hartree local field effects (RPA)
   LNABLA  =     F    use nabla operator in PAW spheres
   LVEL    =     F    velocity operator in full k-point grid
   CSHIFT  =0.1000    complex shift for real part using Kramers Kronig
   OMEGAMAX=  -1.0    maximum frequency
   DEG_THRESHOLD= 0.2000000E-02 threshold for treating states as degnerate
   RTIME   =   -0.100 relaxation time in fs
  (WPLASMAI=    0.000 imaginary part of plasma frequency in eV, 0.658/RTIME)
   DFIELD  = 0.0000000 0.0000000 0.0000000 field for delta impulse in time
 
  Optional k-point grid parameters
   LKPOINTS_OPT  =     F    use optional k-point grid
   KPOINTS_OPT_MODE=     1    mode for optional k-point grid
 
 Orbital magnetization related:
   ORBITALMAG=     F  switch on orbital magnetization
   LCHIMAG   =     F  perturbation theory with respect to B field
   DQ        =  0.001000  dq finite difference perturbation B field
   LLRAUG    =     F  two centre corrections for induced B field
   LBONE     =     F  B-component reconstruction in AE one-centre
   LVGVCALC  =     T  calculate vGv susceptibility
   LVGVAPPL  =     F  apply vGv susceptibility instead of pGv for G=0

 Random number generation:
   RANDOM_GENERATOR = DEFAULT
   PCG_SEED         = not used


--------------------------------------------------------------------------------------------------------


 conjugate gradient relaxation of ions
 charge density and potential will be updated during run
 non-spin polarized calculation
 RMM-DIIS sequential band-by-band and
  variant of blocked Davidson during initial phase
 perform sub-space diagonalisation
    before iterative eigenvector-optimisation
 modified Broyden-mixing scheme, WC =      100.0
 initial mixing is a Kerker type mixing with AMIX =  0.4000 and BMIX =      1.0000
 Hartree-type preconditioning will be used
 using additional bands           34
 real space projection scheme for non local part
 use partial core corrections
 calculate Harris-corrections to forces 
   (improved forces if not selfconsistent)
 use gradient corrections 
 use of overlap-Matrix (Vanderbilt PP)
 Methfessel and Paxton  Order N= 1 SIGMA  =   0.20


--------------------------------------------------------------------------------------------------------


  energy-cutoff  :      400.00
  volume of cell :     1296.92
      direct lattice vectors                 reciprocal lattice vectors
    11.050599632  0.108339016  0.000000000     0.090501700 -0.000905015  0.000000000
     0.108339016 10.833920600  0.000000000    -0.000905015  0.092311739  0.000000000
     0.000000000  0.000000000 10.833920600     0.000000000  0.000000000  0.092302689

  length of vectors
    11.051130692 10.834462281 10.833920600     0.090506225  0.092316175  0.092302689


 
 k-points in units of 2pi/SCALE and weight: Automatic mesh                          
   0.00000000  0.00000000  0.00000000       0.125
   0.04525086 -0.00045251  0.00000000       0.125
  -0.00045251  0.04615588  0.00000000       0.125
   0.04479835  0.04570337  0.00000000       0.125
   0.00000000  0.00000000  0.04615135       0.125
   0.04525086 -0.00045251  0.04615135       0.125
  -0.00045251  0.04615588  0.04615135       0.125
   0.04479835  0.04570337  0.04615135       0.125
 
 k-points in reciprocal lattice and weights: Automatic mesh                          
   0.00000000  0.00000000  0.00000000       0.125
   0.50000000 -0.00000000  0.00000000       0.125
  -0.00000000  0.50000000  0.00000000       0.125
   0.50000000  0.50000000  0.00000000       0.125
   0.00000000  0.00000000  0.50000000       0.125
   0.50000000 -0.00000000  0.50000000       0.125
  -0.00000000  0.50000000  0.50000000       0.125
   0.50000000  0.50000000  0.50000000       0.125
 
 position of ions in fractional coordinates (direct lattice) 
   0.00000000  0.00000000  0.00000000
   0.00000000  0.00000000  0.50000000
   0.00000000  0.50000000  0.00000000
   0.00000000  0.50000000  0.50000000
   0.50000000  0.00000000  0.00000000
   0.50000000  0.00000000  0.50000000
   0.50000000  0.50000000  0.00000000
   0.50000000  0.50000000  0.50000000
   0.37500000  0.37500000  0.12500000
   0.37500000  0.37500000  0.62500000
   0.37500000  0.87500000  0.12500000
   0.37500000  0.87500000  0.62500000
   0.87500000  0.37500000  0.12500000
   0.87500000  0.37500000  0.62500000
   0.87500000  0.87500000  0.12500000
   0.87500000  0.87500000  0.62500000
   0.00000000  0.25000000  0.25000000
   0.00000000  0.25000000  0.75000000
   0.00000000  0.75000000  0.25000000
   0.00000000  0.75000000  0.75000000
   0.50000000  0.25000000  0.25000000
   0.50000000  0.25000000  0.75000000
   0.50000000  0.75000000  0.25000000
   0.50000000  0.75000000  0.75000000
   0.37500000  0.12500000  0.37500000
   0.37500000  0.12500000  0.87500000
   0.37500000  0.62500000  0.37500000
   0.37500000  0.62500000  0.87500000
   0.87500000  0.12500000  0.37500000
   0.87500000  0.12500000  0.87500000
   0.87500000  0.62500000  0.37500000
   0.87500000  0.62500000  0.87500000
   0.25000000  0.00000000  0.25000000
   0.25000000  0.00000000  0.75000000
   0.25000000  0.50000000  0.25000000
   0.25000000  0.50000000  0.75000000
   0.75000000  0.00000000  0.25000000
   0.75000000  0.00000000  0.75000000
   0.75000000  0.50000000  0.25000000
   0.75000000  0.50000000  0.75000000
   0.12500000  0.37500000  0.37500000
   0.12500000  0.37500000  0.87500000
   0.12500000  0.87500000  0.37500000
   0.12500000  0.87500000  0.87500000
   0.62500000  0.37500000  0.37500000
   0.62500000  0.37500000  0.87500000
   0.62500000  0.87500000  0.37500000
   0.62500000  0.87500000  0.87500000
   0.25000000  0.25000000  0.00000000
   0.25000000  0.25000000  0.50000000
   0.25000000  0.75000000  0.00000000
   0.25000000  0.75000000  0.50000000
   0.75000000  0.25000000  0.00000000
   0.75000000  0.25000000  0.50000000
   0.75000000  0.75000000  0.00000000
   0.75000000  0.75000000  0.50000000
   0.12500000  0.12500000  0.12500000
   0.12500000  0.12500000  0.62500000
   0.12500000  0.62500000  0.12500000
   0.12500000  0.62500000  0.62500000
   0.62500000  0.12500000  0.12500000
   0.62500000  0.12500000  0.62500000
   0.62500000  0.62500000  0.12500000
   0.62500000  0.62500000  0.62500000
 
 position of ions in cartesian coordinates  (Angst):
   0.00000000  0.00000000  0.00000000
   0.00000000  0.00000000  5.41696030
   0.05416951  5.41696030  0.00000000
   0.05416951  5.41696030  5.41696030
   5.52529982  0.05416951  0.00000000
   5.52529982  0.05416951  5.41696030
   5.57946932  5.47112981  0.00000000
   5.57946932  5.47112981  5.41696030
   4.18460199  4.10334736  1.35424007
   4.18460199  4.10334736  6.77120037
   4.23877150  9.52030766  1.35424007
   4.23877150  9.52030766  6.77120037
   9.70990181  4.15751686  1.35424007
   9.70990181  4.15751686  6.77120037
   9.76407132  9.57447716  1.35424007
   9.76407132  9.57447716  6.77120037
   0.02708475  2.70848015  2.70848015
   0.02708475  2.70848015  8.12544045
   0.08125426  8.12544045  2.70848015
   0.08125426  8.12544045  8.12544045
   5.55238457  2.76264966  2.70848015
   5.55238457  2.76264966  8.12544045
   5.60655408  8.17960996  2.70848015
   5.60655408  8.17960996  8.12544045
   4.15751724  1.39486721  4.06272022
   4.15751724  1.39486721  9.47968052
   4.21168675  6.81182751  4.06272022
   4.21168675  6.81182751  9.47968052
   9.68281705  1.44903671  4.06272022
   9.68281705  1.44903671  9.47968052
   9.73698656  6.86599701  4.06272022
   9.73698656  6.86599701  9.47968052
   2.76264991  0.02708475  2.70848015
   2.76264991  0.02708475  8.12544045
   2.81681942  5.44404505  2.70848015
   2.81681942  5.44404505  8.12544045
   8.28794972  0.08125426  2.70848015
   8.28794972  0.08125426  8.12544045
   8.34211923  5.49821456  2.70848015
   8.34211923  5.49821456  8.12544045
   1.42195208  4.07626260  4.06272022
   1.42195208  4.07626260  9.47968052
   1.47612159  9.49322290  4.06272022
   1.47612159  9.49322290  9.47968052
   6.94725190  4.13043211  4.06272022
   6.94725190  4.13043211  9.47968052
   7.00142141  9.54739241  4.06272022
   7.00142141  9.54739241  9.47968052
   2.78973466  2.73556490  0.00000000
   2.78973466  2.73556490  5.41696030
   2.84390417  8.15252520  0.00000000
   2.84390417  8.15252520  5.41696030
   8.31503448  2.78973441  0.00000000
   8.31503448  2.78973441  5.41696030
   8.36920399  8.20669471  0.00000000
   8.36920399  8.20669471  5.41696030
   1.39486733  1.36778245  1.35424007
   1.39486733  1.36778245  6.77120037
   1.44903684  6.78474275  1.35424007
   1.44903684  6.78474275  6.77120037
   6.92016715  1.42195196  1.35424007
   6.92016715  1.42195196  6.77120037
   6.97433665  6.83891226  1.35424007
   6.97433665  6.83891226  6.77120037
 


--------------------------------------------------------------------------------------------------------


 k-point     1 :   0.0000 0.0000 0.0000  plane waves:   23527
 k-point     2 :   0.5000-0.0000 0.0000  plane waves:   23562
 k-point     3 :  -0.0000 0.5000 0.0000  plane waves:   23530
 k-point     4 :   0.5000 0.5000 0.0000  plane waves:   23582
 k-point     5 :   0.0000 0.0000 0.5000  plane waves:   23600
 k-point     6 :   0.5000-0.0000 0.5000  plane waves:   23564
 k-point     7 :  -0.0000 0.5000 0.5000  plane waves:   23480
 k-point     8 :   0.5000 0.5000 0.5000  plane waves:   23528

 maximum and minimum number of plane-waves per node :      1992     1931

 maximum number of plane-waves:     23600
 maximum index in each direction: 
   IXMAX=   18   IYMAX=   17   IZMAX=   17
   IXMIN=  -18   IYMIN=  -18   IZMIN=  -18


 real space projection operators:
  total allocation   :      12220.00 KBytes
  max/ min on nodes  :       1027.00       1001.00


 parallel 3D FFT for wavefunctions:
    minimum data exchange during FFTs selected (reduces bandwidth)
 parallel 3D FFT for charge:
    minimum data exchange during FFTs selected (reduces bandwidth)


 total amount of memory used by VASP MPI-rank0    82288. kBytes
=======================================================================

   base      :      30000. kBytes
   nonlr-proj:       4670. kBytes
   fftplans  :      19172. kBytes
   grid      :       7278. kBytes
   one-center:         18. kBytes
   wavefun   :      21150. kBytes
 
     INWAV:  cpu time      0.0000: real time      0.0000
 Broyden mixing: mesh for mixing (old mesh)
   NGX = 37   NGY = 35   NGZ = 35
  (NGX  =144   NGY  =144   NGZ  =144)
  gives a total of  45325 points

 initial charge density was supplied:
 charge density of overlapping atoms calculated
 number of electron     256.0000000 magnetization 
 keeping initial charge density in first step


--------------------------------------------------------------------------------------------------------


 Maximum index for non-local projection operator          282
 Maximum index for augmentation-charges         3410 (set IRDMAX)


--------------------------------------------------------------------------------------------------------


 First call to EWALD:  gamma=   0.163
 Maximum number of real-space cells 3x 3x 3
 Maximum number of reciprocal cells 3x 3x 3

    FEWALD:  cpu time      0.0032: real time      0.0032


--------------------------------------- Ionic step        1  -------------------------------------------




--------------------------------------- Iteration      1(   1)  ---------------------------------------


    POTLOK:  cpu time      0.0970: real time      0.1051
    SETDIJ:  cpu time      0.0856: real time      0.0926
     EDDAV:  cpu time      1.3016: real time      1.3763
       DOS:  cpu time      0.0109: real time      0.0132
    --------------------------------------------
      LOOP:  cpu time      1.4950: real time      1.5872

 eigenvalue-minimisations  :  2592
 total energy-change (2. order) : 0.5594891E+03  (-0.8350368E+04)
 number of electron     256.0000000 magnetization 
 augmentation part      256.0000000 magnetization 

 Free energy of the ion-electron system (eV)
  ---------------------------------------------------
  alpha Z        PSCENC =       106.31630908
  Ewald energy   TEWEN  =     -7283.54305499
  -Hartree energ DENC   =      -358.11248487
  -exchange      EXHF   =         0.00000000
  -V(xc)+E(xc)   XCENC  =      -560.01916627
  PAW double counting   =      5598.62625415    -4492.17844134
  entropy T*S    EENTRO =         0.00287689
  eigenvalues    EBANDS =       983.60095494
  atomic energy  EATOM  =      6564.79586099
  Solvation  Ediel_sol  =         0.00000000
  ---------------------------------------------------
  free energy    TOTEN  =       559.48910859 eV

  energy without entropy =      559.48623170  energy(sigma->0) =      559.48814963


--------------------------------------------------------------------------------------------------------




--------------------------------------- Iteration      1(   2)  ---------------------------------------


     EDDAV:  cpu time      1.3487: real time      1.3689
       DOS:  cpu time      0.0014: real time      0.0014
    --------------------------------------------
      LOOP:  cpu time      1.3500: real time      1.3703

 eigenvalue-minimisations  :  3080
 total energy-change (2. order) :-0.8683986E+03  (-0.8250850E+03)
 number of electron     256.0000000 magnetization 
 augmentation part      256.0000000 magnetization 

 Free energy of the ion-electron system (eV)
  ---------------------------------------------------
  alpha Z        PSCENC =       106.31630908
  Ewald energy   TEWEN  =     -7283.54305499
  -Hartree energ DENC   =      -358.11248487
  -exchange      EXHF   =         0.00000000
  -V(xc)+E(xc)   XCENC  =      -560.01916627
  PAW double counting   =      5598.62625415    -4492.17844134
  entropy T*S    EENTRO =         0.00237854
  eigenvalues    EBANDS =       115.20286814
  atomic energy  EATOM  =      6564.79586099
  Solvation  Ediel_sol  =         0.00000000
  ---------------------------------------------------
  free energy    TOTEN  =      -308.90947656 eV

  energy without entropy =     -308.91185510  energy(sigma->0) =     -308.91026941


--------------------------------------------------------------------------------------------------------




--------------------------------------- Iteration      1(   3)  ---------------------------------------


     EDDAV:  cpu time      1.3876: real time      1.4041
       DOS:  cpu time      0.0013: real time      0.0013
    --------------------------------------------
      LOOP:  cpu time      1.3889: real time      1.4055

 eigenvalue-minimisations  :  3144
 total energy-change (2. order) :-0.6368824E+02  (-0.6247506E+02)
 number of electron     256.0000000 magnetization 
 augmentation part      256.0000000 magnetization 

 Free energy of the ion-electron system (eV)
  ---------------------------------------------------
  alpha Z        PSCENC =       106.31630908
  Ewald energy   TEWEN  =     -7283.54305499
  -Hartree energ DENC   =      -358.11248487
  -exchange      EXHF   =         0.00000000
  -V(xc)+E(xc)   XCENC  =      -560.01916627
  PAW double counting   =      5598.62625415    -4492.17844134
  entropy T*S    EENTRO =         0.00752337
  eigenvalues    EBANDS =        51.50948661
  atomic energy  EATOM  =      6564.79586099
  Solvation  Ediel_sol  =         0.00000000
  ---------------------------------------------------
  free energy    TOTEN  =      -372.59771326 eV

  energy without entropy =     -372.60523663  energy(sigma->0) =     -372.60022105


--------------------------------------------------------------------------------------------------------




--------------------------------------- Iteration      1(   4)  ---------------------------------------


     EDDAV:  cpu time      1.3732: real time      1.3814
       DOS:  cpu time      0.0013: real time      0.0013
    --------------------------------------------
      LOOP:  cpu time      1.3745: real time      1.3827

 eigenvalue-minimisations  :  3112
 total energy-change (2. order) :-0.1678743E+01  (-0.1664967E+01)
 number of electron     256.0000000 magnetization 
 augmentation part      256.0000000 magnetization 

 Free energy of the ion-electron system (eV)
  ---------------------------------------------------
  alpha Z        PSCENC =       106.31630908
  Ewald energy   TEWEN  =     -7283.54305499
  -Hartree energ DENC   =      -358.11248487
  -exchange      EXHF   =         0.00000000
  -V(xc)+E(xc)   XCENC  =      -560.01916627
  PAW double counting   =      5598.62625415    -4492.17844134
  entropy T*S    EENTRO =         0.00755560
  eigenvalues    EBANDS =        49.83071151
  atomic energy  EATOM  =      6564.79586099
  Solvation  Ediel_sol  =         0.00000000
  ---------------------------------------------------
  free energy    TOTEN  =      -374.27645613 eV

  energy without entropy =     -374.28401174  energy(sigma->0) =     -374.27897467


--------------------------------------------------------------------------------------------------------




--------------------------------------- Iteration      1(   5)  ---------------------------------------


     EDDAV:  cpu time      1.3690: real time      1.3836
       DOS:  cpu time      0.0012: real time      0.0012
    CHARGE:  cpu time      0.2569: real time      0.2607
    MIXING:  cpu time      0.0078: real time      0.0084
    --------------------------------------------
      LOOP:  cpu time      1.6350: real time      1.6540

 eigenvalue-minimisations  :  3128
 total energy-change (2. order) :-0.5827314E-01  (-0.5808648E-01)
 number of electron     255.9999998 magnetization 
 augmentation part      -14.9482295 magnetization 

 Broyden mixing:
  rms(total) = 0.27692E+01    rms(broyden)= 0.27692E+01
  rms(prec ) = 0.30495E+01
  weight for this iteration     100.00

 Free energy of the ion-electron system (eV)
  ---------------------------------------------------
  alpha Z        PSCENC =       106.31630908
  Ewald energy   TEWEN  =     -7283.54305499
  -Hartree energ DENC   =      -358.11248487
  -exchange      EXHF   =         0.00000000
  -V(xc)+E(xc)   XCENC  =      -560.01916627
  PAW double counting   =      5598.62625415    -4492.17844134
  entropy T*S    EENTRO =         0.00762614
  eigenvalues    EBANDS =        49.77236782
  atomic energy  EATOM  =      6564.79586099
  Solvation  Ediel_sol  =         0.00000000
  ---------------------------------------------------
  free energy    TOTEN  =      -374.33472928 eV

  energy without entropy =     -374.34235542  energy(sigma->0) =     -374.33727133


--------------------------------------------------------------------------------------------------------




--------------------------------------- Iteration      1(   6)  ---------------------------------------


    POTLOK:  cpu time      0.0841: real time      0.0997
    SETDIJ:  cpu time      0.0676: real time      0.0678
    EDDIAG:  cpu time      0.1374: real time      0.1405
  RMM-DIIS:  cpu time      0.7324: real time      0.7363
    ORTHCH:  cpu time      0.0210: real time      0.0211
       DOS:  cpu time      0.0026: real time      0.0027
    CHARGE:  cpu time      0.2443: real time      0.2449
    MIXING:  cpu time      0.0051: real time      0.0063
    --------------------------------------------
      LOOP:  cpu time      1.2945: real time      1.3191

 eigenvalue-minimisations  :  2592
 total energy-change (2. order) : 0.4827535E+01  (-0.2385072E+00)
 number of electron     255.9999998 magnetization 
 augmentation part      -14.7949422 magnetization 

 Broyden mixing:
  rms(total) = 0.16641E+01    rms(broyden)= 0.16641E+01
  rms(prec ) = 0.18256E+01
  weight for this iteration     100.00

 eigenvalues of (default mixing * dielectric matrix)
  average eigenvalue GAMMA=   2.5007
  2.5007

 Free energy of the ion-electron system (eV)
  ---------------------------------------------------
  alpha Z        PSCENC =       106.31630908
  Ewald energy   TEWEN  =     -7283.54305499
  -Hartree energ DENC   =      -403.60639047
  -exchange      EXHF   =         0.00000000
  -V(xc)+E(xc)   XCENC  =      -552.84183146
  PAW double counting   =     12155.83490944   -11052.51073586
  entropy T*S    EENTRO =         0.00967568
  eigenvalues    EBANDS =        96.03806317
  atomic energy  EATOM  =      6564.79586099
  Solvation  Ediel_sol  =         0.00000000
  ---------------------------------------------------
  free energy    TOTEN  =      -369.50719441 eV

  energy without entropy =     -369.51687009  energy(sigma->0) =     -369.51041964


--------------------------------------------------------------------------------------------------------




--------------------------------------- Iteration      1(   7)  ---------------------------------------


    POTLOK:  cpu time      0.0847: real time      0.1000
    SETDIJ:  cpu time      0.0691: real time      0.0693
    EDDIAG:  cpu time      0.1320: real time      0.1323
  RMM-DIIS:  cpu time      0.7264: real time      0.7284
    ORTHCH:  cpu time      0.0221: real time      0.0222
       DOS:  cpu time      0.0016: real time      0.0016
    CHARGE:  cpu time      0.2489: real time      0.2495
    MIXING:  cpu time      0.0059: real time      0.0059
    --------------------------------------------
      LOOP:  cpu time      1.2907: real time      1.3092

 eigenvalue-minimisations  :  2622
 total energy-change (2. order) : 0.2232467E+01  (-0.6128932E+00)
 number of electron     255.9999998 magnetization 
 augmentation part      -14.5810671 magnetization 

 Broyden mixing:
  rms(total) = 0.90072E-01    rms(broyden)= 0.90072E-01
  rms(prec ) = 0.11324E+00
  weight for this iteration     100.00

 eigenvalues of (default mixing * dielectric matrix)
  average eigenvalue GAMMA=   2.2749
  2.2749  2.2749

 Free energy of the ion-electron system (eV)
  ---------------------------------------------------
  alpha Z        PSCENC =       106.31630908
  Ewald energy   TEWEN  =     -7283.54305499
  -Hartree energ DENC   =      -478.96169643
  -exchange      EXHF   =         0.00000000
  -V(xc)+E(xc)   XCENC  =      -540.39482131
  PAW double counting   =     27657.20137576   -26558.16735866
  entropy T*S    EENTRO =         0.02607689
  eigenvalues    EBANDS =       165.45258121
  atomic energy  EATOM  =      6564.79586099
  Solvation  Ediel_sol  =         0.00000000
  ---------------------------------------------------
  free energy    TOTEN  =      -367.27472745 eV

  energy without entropy =     -367.30080434  energy(sigma->0) =     -367.28341975


--------------------------------------------------------------------------------------------------------




--------------------------------------- Iteration      1(   8)  ---------------------------------------


    POTLOK:  cpu time      0.0862: real time      0.1000
    SETDIJ:  cpu time      0.0676: real time      0.0677
    EDDIAG:  cpu time      0.1342: real time      0.1345
  RMM-DIIS:  cpu time      0.7423: real time      0.7445
    ORTHCH:  cpu time      0.0211: real time      0.0212
       DOS:  cpu time      0.0021: real time      0.0022
    CHARGE:  cpu time      0.2455: real time      0.2461
    MIXING:  cpu time      0.0046: real time      0.0046
    --------------------------------------------
      LOOP:  cpu time      1.3036: real time      1.3208

 eigenvalue-minimisations  :  2635
 total energy-change (2. order) :-0.4763017E-01  (-0.6275205E-01)
 number of electron     255.9999998 magnetization 
 augmentation part      -14.6302919 magnetization 

 Broyden mixing:
  rms(total) = 0.48820E-01    rms(broyden)= 0.48820E-01
  rms(prec ) = 0.52186E-01
  weight for this iteration     100.00

 eigenvalues of (default mixing * dielectric matrix)
  average eigenvalue GAMMA=   2.1719
  2.5559  1.9800  1.9800

 Free energy of the ion-electron system (eV)
  ---------------------------------------------------
  alpha Z        PSCENC =       106.31630908
  Ewald energy   TEWEN  =     -7283.54305499
  -Hartree energ DENC   =      -472.31713889
  -exchange      EXHF   =         0.00000000
  -V(xc)+E(xc)   XCENC  =      -540.92708210
  PAW double counting   =     27226.63920459   -26126.77400219
  entropy T*S    EENTRO =         0.02583382
  eigenvalues    EBANDS =       158.46171206
  atomic energy  EATOM  =      6564.79586099
  Solvation  Ediel_sol  =         0.00000000
  ---------------------------------------------------
  free energy    TOTEN  =      -367.32235762 eV

  energy without entropy =     -367.34819144  energy(sigma->0) =     -367.33096889


--------------------------------------------------------------------------------------------------------




--------------------------------------- Iteration      1(   9)  ---------------------------------------


    POTLOK:  cpu time      0.0795: real time      0.0943
    SETDIJ:  cpu time      0.0711: real time      0.0712
    EDDIAG:  cpu time      0.1327: real time      0.1330
  RMM-DIIS:  cpu time      0.7481: real time      0.7501
    ORTHCH:  cpu time      0.0208: real time      0.0209
       DOS:  cpu time      0.0018: real time      0.0018
    CHARGE:  cpu time      0.2747: real time      0.2754
    MIXING:  cpu time      0.0061: real time      0.0061
    --------------------------------------------
      LOOP:  cpu time      1.3347: real time      1.3528

 eigenvalue-minimisations  :  2681
 total energy-change (2. order) :-0.1903347E-01  (-0.1766869E-01)
 number of electron     255.9999998 magnetization 
 augmentation part      -14.6213309 magnetization 

 Broyden mixing:
  rms(total) = 0.56848E-01    rms(broyden)= 0.56848E-01
  rms(prec ) = 0.62894E-01
  weight for this iteration     100.00

 eigenvalues of (default mixing * dielectric matrix)
  average eigenvalue GAMMA=   1.7396
  2.5533  2.1253  2.1253  0.1544

 Free energy of the ion-electron system (eV)
  ---------------------------------------------------
  alpha Z        PSCENC =       106.31630908
  Ewald energy   TEWEN  =     -7283.54305499
  -Hartree energ DENC   =      -474.76282215
  -exchange      EXHF   =         0.00000000
  -V(xc)+E(xc)   XCENC  =      -540.58582787
  PAW double counting   =     27538.05599971   -26438.37888873
  entropy T*S    EENTRO =         0.02602357
  eigenvalues    EBANDS =       160.73500931
  atomic energy  EATOM  =      6564.79586099
  Solvation  Ediel_sol  =         0.00000000
  ---------------------------------------------------
  free energy    TOTEN  =      -367.34139109 eV

  energy without entropy =     -367.36741465  energy(sigma->0) =     -367.35006561


--------------------------------------------------------------------------------------------------------




--------------------------------------- Iteration      1(  10)  ---------------------------------------


    POTLOK:  cpu time      0.0899: real time      0.1011
    SETDIJ:  cpu time      0.0677: real time      0.0679
    EDDIAG:  cpu time      0.1339: real time      0.1342
  RMM-DIIS:  cpu time      0.7562: real time      0.7580
    ORTHCH:  cpu time      0.0209: real time      0.0210
       DOS:  cpu time      0.0030: real time      0.0030
    CHARGE:  cpu time      0.2441: real time      0.2447
    MIXING:  cpu time      0.0052: real time      0.0052
    --------------------------------------------
      LOOP:  cpu time      1.3207: real time      1.3349

 eigenvalue-minimisations  :  2734
 total energy-change (2. order) :-0.3340220E-02  (-0.2947655E-02)
 number of electron     255.9999998 magnetization 
 augmentation part      -14.6272550 magnetization 

 Broyden mixing:
  rms(total) = 0.79206E-01    rms(broyden)= 0.79206E-01
  rms(prec ) = 0.84751E-01
  weight for this iteration     100.00

 eigenvalues of (default mixing * dielectric matrix)
  average eigenvalue GAMMA=   1.6273
  2.6771  2.1080  2.1080  0.6217  0.6217

 Free energy of the ion-electron system (eV)
  ---------------------------------------------------
  alpha Z        PSCENC =       106.31630908
  Ewald energy   TEWEN  =     -7283.54305499
  -Hartree energ DENC   =      -474.96134812
  -exchange      EXHF   =         0.00000000
  -V(xc)+E(xc)   XCENC  =      -540.56243328
  PAW double counting   =     27585.16724550   -26485.49754410
  entropy T*S    EENTRO =         0.02604418
  eigenvalues    EBANDS =       160.91418942
  atomic energy  EATOM  =      6564.79586099
  Solvation  Ediel_sol  =         0.00000000
  ---------------------------------------------------
  free energy    TOTEN  =      -367.34473131 eV

  energy without entropy =     -367.37077549  energy(sigma->0) =     -367.35341270


--------------------------------------------------------------------------------------------------------




--------------------------------------- Iteration      1(  11)  ---------------------------------------


    POTLOK:  cpu time      0.0791: real time      0.0937
    SETDIJ:  cpu time      0.0756: real time      0.0758
    EDDIAG:  cpu time      0.1341: real time      0.1344
  RMM-DIIS:  cpu time      0.7221: real time      0.7239
    ORTHCH:  cpu time      0.0216: real time      0.0216
       DOS:  cpu time      0.0014: real time      0.0014
    CHARGE:  cpu time      0.2447: real time      0.2453
    MIXING:  cpu time      0.0051: real time      0.0051
    --------------------------------------------
      LOOP:  cpu time      1.2837: real time      1.3012

 eigenvalue-minimisations  :  2592
 total energy-change (2. order) : 0.1982882E-02  (-0.1092558E-02)
 number of electron     255.9999998 magnetization 
 augmentation part      -14.6398571 magnetization 

 Broyden mixing:
  rms(total) = 0.58478E-01    rms(broyden)= 0.58478E-01
  rms(prec ) = 0.58976E-01
  weight for this iteration     100.00

 eigenvalues of (default mixing * dielectric matrix)
  average eigenvalue GAMMA=   1.4872
  2.5969  2.5969  1.2761  1.2761  0.8230  0.3545

 Free energy of the ion-electron system (eV)
  ---------------------------------------------------
  alpha Z        PSCENC =       106.31630908
  Ewald energy   TEWEN  =     -7283.54305499
  -Hartree energ DENC   =      -472.84735906
  -exchange      EXHF   =         0.00000000
  -V(xc)+E(xc)   XCENC  =      -540.70200504
  PAW double counting   =     27468.17888164   -26368.29207999
  entropy T*S    EENTRO =         0.02570808
  eigenvalues    EBANDS =       158.72499085
  atomic energy  EATOM  =      6564.79586099
  Solvation  Ediel_sol  =         0.00000000
  ---------------------------------------------------
  free energy    TOTEN  =      -367.34274843 eV

  energy without entropy =     -367.36845651  energy(sigma->0) =     -367.35131779


--------------------------------------------------------------------------------------------------------




--------------------------------------- Iteration      1(  12)  ---------------------------------------


    POTLOK:  cpu time      0.0836: real time      0.0998
    SETDIJ:  cpu time      0.0679: real time      0.0685
    EDDIAG:  cpu time      0.1317: real time      0.1320
  RMM-DIIS:  cpu time      0.7176: real time      0.7193
    ORTHCH:  cpu time      0.0213: real time      0.0213
       DOS:  cpu time      0.0015: real time      0.0015
    CHARGE:  cpu time      0.2443: real time      0.2449
    MIXING:  cpu time      0.0052: real time      0.0052
    --------------------------------------------
      LOOP:  cpu time      1.2730: real time      1.2924

 eigenvalue-minimisations  :  2604
 total energy-change (2. order) :-0.1502432E-03  (-0.1739331E-03)
 number of electron     255.9999998 magnetization 
 augmentation part      -14.6435137 magnetization 

 Broyden mixing:
  rms(total) = 0.54832E-01    rms(broyden)= 0.54832E-01
  rms(prec ) = 0.55087E-01
  weight for this iteration     100.00

 eigenvalues of (default mixing * dielectric matrix)
  average eigenvalue GAMMA=   1.3707
  2.5927  2.5927  1.4366  1.1581  0.8243  0.4560  0.5341

 Free energy of the ion-electron system (eV)
  ---------------------------------------------------
  alpha Z        PSCENC =       106.31630908
  Ewald energy   TEWEN  =     -7283.54305499
  -Hartree energ DENC   =      -472.61503449
  -exchange      EXHF   =         0.00000000
  -V(xc)+E(xc)   XCENC  =      -540.73852404
  PAW double counting   =     27382.46750179   -26282.58792992
  entropy T*S    EENTRO =         0.02567971
  eigenvalues    EBANDS =       158.53629320
  atomic energy  EATOM  =      6564.79586099
  Solvation  Ediel_sol  =         0.00000000
  ---------------------------------------------------
  free energy    TOTEN  =      -367.34289867 eV

  energy without entropy =     -367.36857838  energy(sigma->0) =     -367.35145857


--------------------------------------------------------------------------------------------------------




--------------------------------------- Iteration      1(  13)  ---------------------------------------


    POTLOK:  cpu time      0.0836: real time      0.0946
    SETDIJ:  cpu time      0.0731: real time      0.0733
    EDDIAG:  cpu time      0.1311: real time      0.1314
  RMM-DIIS:  cpu time      0.7610: real time      0.7629
    ORTHCH:  cpu time      0.0207: real time      0.0208
       DOS:  cpu time      0.0018: real time      0.0018
    CHARGE:  cpu time      0.2425: real time      0.2436
    MIXING:  cpu time      0.0051: real time      0.0051
    --------------------------------------------
      LOOP:  cpu time      1.3188: real time      1.3333

 eigenvalue-minimisations  :  2778
 total energy-change (2. order) :-0.4083988E-04  (-0.3108378E-04)
 number of electron     255.9999998 magnetization 
 augmentation part      -14.6438842 magnetization 

 Broyden mixing:
  rms(total) = 0.64774E-01    rms(broyden)= 0.64774E-01
  rms(prec ) = 0.65042E-01
  weight for this iteration     100.00

 eigenvalues of (default mixing * dielectric matrix)
  average eigenvalue GAMMA=   1.5866
  2.7241  2.7241  2.2607  1.9200  0.8422  0.8422  0.8396  0.5398

 Free energy of the ion-electron system (eV)
  ---------------------------------------------------
  alpha Z        PSCENC =       106.31630908
  Ewald energy   TEWEN  =     -7283.54305499
  -Hartree energ DENC   =      -472.67188805
  -exchange      EXHF   =         0.00000000
  -V(xc)+E(xc)   XCENC  =      -540.72600465
  PAW double counting   =     27442.22875321   -26342.34783436
  entropy T*S    EENTRO =         0.02568567
  eigenvalues    EBANDS =       158.57923358
  atomic energy  EATOM  =      6564.79586099
  Solvation  Ediel_sol  =         0.00000000
  ---------------------------------------------------
  free energy    TOTEN  =      -367.34293951 eV

  energy without entropy =     -367.36862518  energy(sigma->0) =     -367.35150140


--------------------------------------------------------------------------------------------------------




--------------------------------------- Iteration      1(  14)  ---------------------------------------


    POTLOK:  cpu time      0.0844: real time      0.1005
    SETDIJ:  cpu time      0.0702: real time      0.0704
    EDDIAG:  cpu time      0.1312: real time      0.1315
  RMM-DIIS:  cpu time      0.7180: real time      0.7198
    ORTHCH:  cpu time      0.0210: real time      0.0210
       DOS:  cpu time      0.0020: real time      0.0021
    CHARGE:  cpu time      0.2435: real time      0.2444
    MIXING:  cpu time      0.0048: real time      0.0048
    --------------------------------------------
      LOOP:  cpu time      1.2752: real time      1.2945

 eigenvalue-minimisations  :  2593
 total energy-change (2. order) :-0.5518754E-04  (-0.8517280E-05)
 number of electron     255.9999998 magnetization 
 augmentation part      -14.6440793 magnetization 

 Broyden mixing:
  rms(total) = 0.27150E-01    rms(broyden)= 0.27150E-01
  rms(prec ) = 0.27316E-01
  weight for this iteration     100.00

 eigenvalues of (default mixing * dielectric matrix)
  average eigenvalue GAMMA=   1.4581
  2.6892  2.6892  2.2599  1.7372  0.9988  0.9988  0.7633  0.4934  0.4934

 Free energy of the ion-electron system (eV)
  ---------------------------------------------------
  alpha Z        PSCENC =       106.31630908
  Ewald energy   TEWEN  =     -7283.54305499
  -Hartree energ DENC   =      -472.52257387
  -exchange      EXHF   =         0.00000000
  -V(xc)+E(xc)   XCENC  =      -540.76222292
  PAW double counting   =     27189.73998126   -26089.88240242
  entropy T*S    EENTRO =         0.02566239
  eigenvalues    EBANDS =       158.48944578
  atomic energy  EATOM  =      6564.79586099
  Solvation  Ediel_sol  =         0.00000000
  ---------------------------------------------------
  free energy    TOTEN  =      -367.34299470 eV

  energy without entropy =     -367.36865708  energy(sigma->0) =     -367.35154883


--------------------------------------------------------------------------------------------------------




--------------------------------------- Iteration      1(  15)  ---------------------------------------


    POTLOK:  cpu time      0.0840: real time      0.0987
    SETDIJ:  cpu time      0.0716: real time      0.0718
    EDDIAG:  cpu time      0.1312: real time      0.1315
  RMM-DIIS:  cpu time      0.7438: real time      0.7456
    ORTHCH:  cpu time      0.0207: real time      0.0207
       DOS:  cpu time      0.0020: real time      0.0020
    CHARGE:  cpu time      0.2502: real time      0.2510
    MIXING:  cpu time      0.0067: real time      0.0067
    --------------------------------------------
      LOOP:  cpu time      1.3102: real time      1.3279

 eigenvalue-minimisations  :  2676
 total energy-change (2. order) :-0.3845968E-04  (-0.2611351E-05)
 number of electron     255.9999998 magnetization 
 augmentation part      -14.6442214 magnetization 

 Broyden mixing:
  rms(total) = 0.20088E-01    rms(broyden)= 0.20088E-01
  rms(prec ) = 0.20213E-01
  weight for this iteration     100.00

 eigenvalues of (default mixing * dielectric matrix)
  average eigenvalue GAMMA=   1.4088
  2.7257  2.7257  2.2557  1.7244  0.9878  0.9878  0.7660  0.5465  0.6842  0.6842

 Free energy of the ion-electron system (eV)
  ---------------------------------------------------
  alpha Z        PSCENC =       106.31630908
  Ewald energy   TEWEN  =     -7283.54305499
  -Hartree energ DENC   =      -472.51248884
  -exchange      EXHF   =         0.00000000
  -V(xc)+E(xc)   XCENC  =      -540.76209877
  PAW double counting   =     27154.40910664   -26054.54919460
  entropy T*S    EENTRO =         0.02565037
  eigenvalues    EBANDS =       158.47687696
  atomic energy  EATOM  =      6564.79586099
  Solvation  Ediel_sol  =         0.00000000
  ---------------------------------------------------
  free energy    TOTEN  =      -367.34303316 eV

  energy without entropy =     -367.36868353  energy(sigma->0) =     -367.35158328


--------------------------------------------------------------------------------------------------------




--------------------------------------- Iteration      1(  16)  ---------------------------------------


    POTLOK:  cpu time      0.0830: real time      0.0985
    SETDIJ:  cpu time      0.0731: real time      0.0733
    EDDIAG:  cpu time      0.1372: real time      0.1375
  RMM-DIIS:  cpu time      0.7209: real time      0.7226
    ORTHCH:  cpu time      0.0211: real time      0.0211
       DOS:  cpu time      0.0022: real time      0.0022
    CHARGE:  cpu time      0.2446: real time      0.2454
    MIXING:  cpu time      0.0077: real time      0.0077
    --------------------------------------------
      LOOP:  cpu time      1.2899: real time      1.3085

 eigenvalue-minimisations  :  2593
 total energy-change (2. order) :-0.1902401E-04  (-0.1506152E-05)
 number of electron     255.9999998 magnetization 
 augmentation part      -14.6438524 magnetization 

 Broyden mixing:
  rms(total) = 0.96432E-02    rms(broyden)= 0.96432E-02
  rms(prec ) = 0.97119E-02
  weight for this iteration     100.00

 eigenvalues of (default mixing * dielectric matrix)
  average eigenvalue GAMMA=   1.4074
  2.7604  2.7604  2.1572  1.8110  1.0864  1.0864  0.9595  0.9595  0.7317  0.5845
  0.5845

 Free energy of the ion-electron system (eV)
  ---------------------------------------------------
  alpha Z        PSCENC =       106.31630908
  Ewald energy   TEWEN  =     -7283.54305499
  -Hartree energ DENC   =      -472.59270955
  -exchange      EXHF   =         0.00000000
  -V(xc)+E(xc)   XCENC  =      -540.75802619
  PAW double counting   =     27101.16884963   -26001.31144572
  entropy T*S    EENTRO =         0.02565161
  eigenvalues    EBANDS =       158.55551296
  atomic energy  EATOM  =      6564.79586099
  Solvation  Ediel_sol  =         0.00000000
  ---------------------------------------------------
  free energy    TOTEN  =      -367.34305218 eV

  energy without entropy =     -367.36870379  energy(sigma->0) =     -367.35160272


--------------------------------------------------------------------------------------------------------




--------------------------------------- Iteration      1(  17)  ---------------------------------------


    POTLOK:  cpu time      0.0860: real time      0.1006
    SETDIJ:  cpu time      0.0710: real time      0.0712
    EDDIAG:  cpu time      0.1330: real time      0.1333
  RMM-DIIS:  cpu time      0.7206: real time      0.7224
    ORTHCH:  cpu time      0.0210: real time      0.0211
       DOS:  cpu time      0.0016: real time      0.0016
    CHARGE:  cpu time      0.2439: real time      0.2446
    MIXING:  cpu time      0.0053: real time      0.0053
    --------------------------------------------
      LOOP:  cpu time      1.2824: real time      1.2999

 eigenvalue-minimisations  :  2578
 total energy-change (2. order) :-0.6143957E-05  (-0.7898623E-06)
 number of electron     255.9999998 magnetization 
 augmentation part      -14.6436053 magnetization 

 Broyden mixing:
  rms(total) = 0.13860E-02    rms(broyden)= 0.13860E-02
  rms(prec ) = 0.14558E-02
  weight for this iteration     100.00

 eigenvalues of (default mixing * dielectric matrix)
  average eigenvalue GAMMA=   1.7483
  3.1445  3.1445  2.6956  2.6956  2.4148  1.8983  1.0147  1.0147  0.8491  0.7579
  0.7579  0.5918

 Free energy of the ion-electron system (eV)
  ---------------------------------------------------
  alpha Z        PSCENC =       106.31630908
  Ewald energy   TEWEN  =     -7283.54305499
  -Hartree energ DENC   =      -472.64149532
  -exchange      EXHF   =         0.00000000
  -V(xc)+E(xc)   XCENC  =      -540.75716229
  PAW double counting   =     27055.69855246   -25955.84148869
  entropy T*S    EENTRO =         0.02565041
  eigenvalues    EBANDS =       158.60377001
  atomic energy  EATOM  =      6564.79586099
  Solvation  Ediel_sol  =         0.00000000
  ---------------------------------------------------
  free energy    TOTEN  =      -367.34305832 eV

  energy without entropy =     -367.36870873  energy(sigma->0) =     -367.35160846


--------------------------------------------------------------------------------------------------------




--------------------------------------- Iteration      1(  18)  ---------------------------------------


    POTLOK:  cpu time      0.0832: real time      0.1002
    SETDIJ:  cpu time      0.0682: real time      0.0684
    EDDIAG:  cpu time      0.1309: real time      0.1312
  RMM-DIIS:  cpu time      0.5187: real time      0.5200
    ORTHCH:  cpu time      0.0209: real time      0.0209
       DOS:  cpu time      0.0017: real time      0.0017
    --------------------------------------------
      LOOP:  cpu time      0.8236: real time      0.8424

 eigenvalue-minimisations  :  1757
 total energy-change (2. order) :-0.1976314E-06  (-0.2864370E-06)
 number of electron     255.9999998 magnetization 
 augmentation part      -14.6436053 magnetization 

 Free energy of the ion-electron system (eV)
  ---------------------------------------------------
  alpha Z        PSCENC =       106.31630908
  Ewald energy   TEWEN  =     -7283.54305499
  -Hartree energ DENC   =      -472.67594272
  -exchange      EXHF   =         0.00000000
  -V(xc)+E(xc)   XCENC  =      -540.75487140
  PAW double counting   =     27045.70693205   -25945.85018745
  entropy T*S    EENTRO =         0.02565228
  eigenvalues    EBANDS =       158.63624364
  atomic energy  EATOM  =      6564.79586099
  Solvation  Ediel_sol  =         0.00000000
  ---------------------------------------------------
  free energy    TOTEN  =      -367.34305852 eV

  energy without entropy =     -367.36871081  energy(sigma->0) =     -367.35160928


--------------------------------------------------------------------------------------------------------




 average (electrostatic) potential at core
  the test charge radii are     0.9892
  (the norm of the test charge is              1.0000)
       1 -83.1675       2 -83.1675       3 -83.1675       4 -83.1675       5 -83.1675
       6 -83.1675       7 -83.1675       8 -83.1675       9 -83.1675      10 -83.1675
      11 -83.1675      12 -83.1675      13 -83.1675      14 -83.1675      15 -83.1675
      16 -83.1675      17 -83.1675      18 -83.1675      19 -83.1675      20 -83.1675
      21 -83.1675      22 -83.1675      23 -83.1675      24 -83.1675      25 -83.1675
      26 -83.1675      27 -83.1675      28 -83.1675      29 -83.1675      30 -83.1675
      31 -83.1675      32 -83.1675      33 -83.1675      34 -83.1675      35 -83.1675
      36 -83.1675      37 -83.1675      38 -83.1675      39 -83.1675      40 -83.1675
      41 -83.1675      42 -83.1675      43 -83.1675      44 -83.1675      45 -83.1675
      46 -83.1675      47 -83.1675      48 -83.1675      49 -83.1675      50 -83.1675
      51 -83.1675      52 -83.1675      53 -83.1675      54 -83.1675      55 -83.1675
      56 -83.1675      57 -83.1675      58 -83.1675      59 -83.1675      60 -83.1675
      61 -83.1675      62 -83.1675      63 -83.1675      64 -83.1675
 
 
 
 E-fermi :   5.9689     XC(G=0):  -9.5065     alpha+bet :-11.8358

 val. band max:        5.7228416164   @ k =   0.0000   0.0000   0.0000
 cond. band min:       6.1232721405   @ k =   0.0000   0.0000   0.0000
 fundamental gap:      0.4004305241
 Fermi energy:         5.9688572646

 k-point     1 :       0.0000    0.0000    0.0000
  band No.  band energies     occupation 
      1      -6.2378      2.00000
      2      -5.1863      2.00000
      3      -5.1863      2.00000
      4      -5.1512      2.00000
      5      -5.1512      2.00000
      6      -5.1505      2.00000
      7      -5.1505      2.00000
      8      -4.2711      2.00000
      9      -4.2711      2.00000
     10      -4.2147      2.00000
     11      -4.2147      2.00000
     12      -4.2147      2.00000
     13      -4.2147      2.00000
     14      -4.1900      2.00000
     15      -4.1900      2.00000
     16      -4.1900      2.00000
     17      -4.1900      2.00000
     18      -4.1563      2.00000
     19      -4.1563      2.00000
     20      -3.9827      2.00000
     21      -3.9827      2.00000
     22      -3.8516      2.00000
     23      -3.8516      2.00000
     24      -2.1967      2.00000
     25      -2.1967      2.00000
     26      -2.1656      2.00000
     27      -2.0803      2.00000
     28      -2.0803      2.00000
     29      -2.0594      2.00000
     30      -2.0594      2.00000
     31      -2.0167      2.00000
     32      -2.0167      2.00000
     33      -1.9985      2.00000
     34      -1.9692      2.00000
     35      -1.9692      2.00000
     36      -1.9692      2.00000
     37      -1.9692      2.00000
     38      -1.8789      2.00000
     39      -1.8789      2.00000
     40      -1.8379      2.00000
     41      -1.8379      2.00000
     42      -1.3049      2.00000
     43      -1.3049      2.00000
     44      -1.2713      2.00000
     45      -1.2713      2.00000
     46       0.1555      2.00000
     47       0.1555      2.00000
     48       0.1555      2.00000
     49       0.1555      2.00000
     50       0.1810      2.00000
     51       0.1810      2.00000
     52       0.2231      2.00000
     53       0.2231      2.00000
     54       0.2231      2.00000
     55       0.2231      2.00000
     56       0.2616      2.00000
     57       0.2616      2.00000
     58       1.8121      2.00000
     59       1.8121      2.00000
     60       1.8124      2.00000
     61       1.8124      2.00000
     62       1.8135      2.00000
     63       1.8135      2.00000
     64       1.8135      2.00000
     65       1.8135      2.00000
     66       1.8186      2.00000
     67       1.8186      2.00000
     68       1.8204      2.00000
     69       1.8204      2.00000
     70       1.8410      2.00000
     71       1.8410      2.00000
     72       1.8410      2.00000
     73       1.8410      2.00000
     74       1.9269      2.00000
     75       1.9269      2.00000
     76       1.9486      2.00000
     77       1.9486      2.00000
     78       1.9486      2.00000
     79       1.9486      2.00000
     80       1.9690      2.00000
     81       1.9690      2.00000
     82       2.0564      2.00000
     83       2.0564      2.00000
     84       2.1913      2.00000
     85       2.1913      2.00000
     86       2.1968      2.00000
     87       2.1968      2.00000
     88       2.6782      2.00000
     89       2.7801      2.00000
     90       2.7801      2.00000
     91       2.8837      2.00000
     92       2.9297      2.00000
     93       2.9297      2.00000
     94       3.6571      2.00000
     95       3.6571      2.00000
     96       3.7237      2.00000
     97       3.7237      2.00000
     98       3.7689      2.00000
     99       3.7689      2.00000
    100       3.8397      2.00000
    101       3.8397      2.00000
    102       3.8629      2.00000
    103       3.8629      2.00000
    104       3.8631      2.00000
    105       3.8631      2.00000
    106       4.2504      2.00000
    107       4.2504      2.00000
    108       4.2953      2.00000
    109       4.2953      2.00000
    110       4.2953      2.00000
    111       4.2953      2.00000
    112       4.3390      2.00000
    113       4.3390      2.00000
    114       4.3435      2.00000
    115       4.3435      2.00000
    116       4.4305      2.00000
    117       4.4305      2.00000
    118       4.4531      2.00000
    119       4.4531      2.00000
    120       4.4531      2.00000
    121       4.4531      2.00000
    122       4.5252      2.00000
    123       4.5252      2.00000
    124       4.6218      2.00000
    125       4.6218      2.00000
    126       5.5759      2.01788
    127       5.7157      2.07043
    128       5.7228      2.07091
    129       6.1233      0.03489
    130       6.2317     -0.06875
    131       6.2317     -0.06875
    132       6.3441     -0.02337
    133       6.3879     -0.01161
    134       6.3879     -0.01161
    135       6.6658     -0.00001
    136       6.6658     -0.00001
    137       6.6659     -0.00001
    138       6.6659     -0.00001
    139       6.8222     -0.00000
    140       6.8222     -0.00000
    141       6.9805     -0.00000
    142       6.9805     -0.00000
    143       7.1758     -0.00000
    144       7.1758     -0.00000
    145       7.9007     -0.00000
    146       7.9008     -0.00000
    147       7.9642     -0.00000
    148       7.9644     -0.00000
    149       7.9647     -0.00000
    150       7.9657     -0.00000
    151       8.0382     -0.00000
    152       8.0386     -0.00000
    153       8.0452     -0.00000
    154       8.1100     -0.00000
    155       8.1487     -0.00000
    156       8.1490     -0.00000
    157       8.1501     -0.00000
    158       8.1551     -0.00000
    159       8.3619     -0.00000
    160       8.7204     -0.00000
    161       8.7363     -0.00000
    162       8.8547     -0.00000

 k-point     2 :       0.5000   -0.0000    0.0000
  band No.  band energies     occupation 
      1      -5.9727      2.00000
      2      -5.9727      2.00000
      3      -4.9387      2.00000
      4      -4.9387      2.00000
      5      -4.9107      2.00000
      6      -4.9107      2.00000
      7      -4.9107      2.00000
      8      -4.9107      2.00000
      9      -4.8811      2.00000
     10      -4.8811      2.00000
     11      -4.1070      2.00000
     12      -4.1070      2.00000
     13      -4.1070      2.00000
     14      -4.1070      2.00000
     15      -4.0266      2.00000
     16      -4.0266      2.00000
     17      -4.0266      2.00000
     18      -4.0266      2.00000
     19      -3.9079      2.00000
     20      -3.9079      2.00000
     21      -3.2422      2.00000
     22      -3.2422      2.00000
     23      -3.1607      2.00000
     24      -3.1607      2.00000
     25      -3.1607      2.00000
     26      -3.1607      2.00000
     27      -3.0770      2.00000
     28      -3.0770      2.00000
     29      -2.0972      2.00000
     30      -2.0972      2.00000
     31      -2.0629      2.00000
     32      -2.0629      2.00000
     33      -1.9513      2.00000
     34      -1.9513      2.00000
     35      -1.9200      2.00000
     36      -1.9200      2.00000
     37      -0.9374      2.00000
     38      -0.9374      2.00000
     39      -0.8671      2.00000
     40      -0.8671      2.00000
     41      -0.8671      2.00000
     42      -0.8671      2.00000
     43      -0.8014      2.00000
     44      -0.8014      2.00000
     45      -0.7192      2.00000
     46      -0.7192      2.00000
     47      -0.7192      2.00000
     48      -0.7192      2.00000
     49      -0.7126      2.00000
     50      -0.7126      2.00000
     51      -0.7126      2.00000
     52      -0.7126      2.00000
     53      -0.1570      2.00000
     54      -0.1570      2.00000
     55       1.3827      2.00000
     56       1.3827      2.00000
     57       1.4046      2.00000
     58       1.4046      2.00000
     59       1.4046      2.00000
     60       1.4046      2.00000
     61       1.4319      2.00000
     62       1.4319      2.00000
     63       1.4737      2.00000
     64       1.4737      2.00000
     65       1.4759      2.00000
     66       1.4759      2.00000
     67       1.4759      2.00000
     68       1.4759      2.00000
     69       1.4785      2.00000
     70       1.4785      2.00000
     71       2.1806      2.00000
     72       2.1806      2.00000
     73       2.2200      2.00000
     74       2.2200      2.00000
     75       2.2552      2.00000
     76       2.2552      2.00000
     77       2.2962      2.00000
     78       2.2962      2.00000
     79       2.9273      2.00000
     80       2.9273      2.00000
     81       2.9666      2.00000
     82       2.9666      2.00000
     83       2.9666      2.00000
     84       2.9666      2.00000
     85       2.9945      2.00000
     86       2.9945      2.00000
     87       2.9983      2.00000
     88       2.9983      2.00000
     89       3.0242      2.00000
     90       3.0242      2.00000
     91       3.0242      2.00000
     92       3.0242      2.00000
     93       3.0521      2.00000
     94       3.0521      2.00000
     95       3.0679      2.00000
     96       3.0679      2.00000
     97       3.0679      2.00000
     98       3.0679      2.00000
     99       3.1630      2.00000
    100       3.1630      2.00000
    101       3.1630      2.00000
    102       3.1630      2.00000
    103       3.1673      2.00000
    104       3.1673      2.00000
    105       3.1679      2.00000
    106       3.1679      2.00000
    107       4.2193      2.00000
    108       4.2193      2.00000
    109       4.2193      2.00000
    110       4.2193      2.00000
    111       4.2219      2.00000
    112       4.2219      2.00000
    113       4.2243      2.00000
    114       4.2243      2.00000
    115       4.2374      2.00000
    116       4.2374      2.00000
    117       4.4786      2.00000
    118       4.4786      2.00000
    119       4.4786      2.00000
    120       4.4786      2.00000
    121       4.5437      2.00000
    122       4.5437      2.00000
    123       4.5437      2.00000
    124       4.5437      2.00000
    125       4.9186      2.00000
    126       4.9186      2.00000
    127       4.9214      2.00000
    128       4.9214      2.00000
    129       6.3119     -0.03577
    130       6.3119     -0.03577
    131       7.1667     -0.00000
    132       7.1667     -0.00000
    133       7.3103     -0.00000
    134       7.3103     -0.00000
    135       7.4416     -0.00000
    136       7.4416     -0.00000
    137       7.4672     -0.00000
    138       7.4672     -0.00000
    139       7.6018     -0.00000
    140       7.6019     -0.00000
    141       7.6846     -0.00000
    142       7.6851     -0.00000
    143       7.8862     -0.00000
    144       7.8884     -0.00000
    145       7.9506     -0.00000
    146       7.9509     -0.00000
    147       7.9514     -0.00000
    148       7.9523     -0.00000
    149       7.9631     -0.00000
    150       7.9643     -0.00000
    151       7.9654     -0.00000
    152       7.9694     -0.00000
    153       8.0331     -0.00000
    154       8.0346     -0.00000
    155       8.0847     -0.00000
    156       8.0853     -0.00000
    157       8.0868     -0.00000
    158       8.1162     -0.00000
    159       8.3898     -0.00000
    160       8.4290     -0.00000
    161       8.4595     -0.00000
    162       8.5112     -0.00000

 k-point     3 :      -0.0000    0.5000    0.0000
  band No.  band energies     occupation 
[...]
 -0.000  -0.000   4.178   0.000  -0.000   7.784   0.000  -0.000
  0.001   0.002   0.000   4.178   0.000   0.000   7.784   0.000
 -0.000  -0.000  -0.000   0.000   4.178  -0.000   0.000   7.784
 -0.000  -0.000   7.784   0.000  -0.000  14.513   0.000  -0.000
  0.002   0.003   0.000   7.784   0.000   0.000  14.513   0.000
 -0.000  -0.000  -0.000   0.000   7.784  -0.000   0.000  14.512
 total augmentation occupancy for first ion, spin component:           1
  5.812  -2.214   0.000  -0.054   0.000  -0.000   0.020   0.000
 -2.214   0.954  -0.000   0.027  -0.000  -0.000  -0.009  -0.000
  0.000  -0.000   2.875   0.000  -0.013  -0.637   0.000   0.001
 -0.054   0.027   0.000   2.876  -0.000   0.000  -0.637   0.000
  0.000  -0.000  -0.013  -0.000   2.912   0.001   0.000  -0.651
 -0.000  -0.000  -0.637   0.000   0.001   0.150  -0.000  -0.000
  0.020  -0.009   0.000  -0.637   0.000  -0.000   0.150   0.000
  0.000  -0.000   0.001   0.000  -0.651  -0.000   0.000   0.154


------------------------ aborting loop because EDIFF is reached ----------------------------------------


    CHARGE:  cpu time      0.2574: real time      0.2586
    FORLOC:  cpu time      0.0223: real time      0.0224
    FORNL :  cpu time      0.6696: real time      0.6712
    STRESS:  cpu time      2.0684: real time      2.0834
    FORCOR:  cpu time      0.0914: real time      0.0924
    FORHAR:  cpu time      0.0365: real time      0.0367
    MIXING:  cpu time      0.0756: real time      0.0761
    OFIELD:  cpu time      0.0000: real time      0.0000

  FORCE on cell =-STRESS in cart. coord.  units (eV):
  Direction    XX          YY          ZZ          XY          YZ          ZX
  --------------------------------------------------------------------------------------
  Alpha Z   106.31631   106.31631   106.31631
  Ewald   -2384.13297 -2450.18471 -2449.90129   -18.23462     0.00000    -0.00000
  Hartree   165.08048   153.73129   153.51574    -8.99383    -0.00000    -0.00000
  E(xc)    -815.65426  -815.08478  -815.11025     0.19690    -0.00000    -0.00000
  Local    -988.63770  -907.54052  -907.74979    29.27823     0.00000     0.00000
  n-local  2482.60428  2472.76992  2473.18042    -2.30568    -0.00000    -0.00001
  augment  -368.23769  -368.25047  -368.25313     0.79061     0.00000     0.00000
  Kinetic  1785.34947  1806.62848  1805.89383   -12.26986    -0.00000     0.00000
  Fock        0.00000     0.00000     0.00000     0.00000     0.00000     0.00000
  -------------------------------------------------------------------------------------
  Total     -17.31208    -1.61449    -2.10816   -11.53826     0.00000     0.00000
  in kB     -21.38678    -1.99449    -2.60436   -14.25399     0.00000     0.00000
  external pressure =       -8.66 kB  Pullay stress =        0.00 kB


 VOLUME and BASIS-vectors are now :
 -----------------------------------------------------------------------------
  energy-cutoff  :      400.00
  volume of cell :     1296.92
      direct lattice vectors                 reciprocal lattice vectors
    11.050599632  0.108339016  0.000000000     0.090501700 -0.000905015  0.000000000
     0.108339016 10.833920600  0.000000000    -0.000905015  0.092311739  0.000000000
     0.000000000  0.000000000 10.833920600     0.000000000  0.000000000  0.092302689

  length of vectors
    11.051130692 10.834462281 10.833920600     0.090506225  0.092316175  0.092302689


 FORCES acting on ions
    electron-ion (+dipol)            ewald-force                    non-local-force                 convergence-correction
 -----------------------------------------------------------------------------------------------
   -.412E-09 -.536E-09 -.169E+01   0.173E-13 -.888E-15 0.121E+01   0.307E-23 0.115E-22 0.475E+00   0.138E-12 0.722E-13 0.119E-04
   -.412E-09 -.536E-09 -.169E+01   0.213E-13 -.444E-14 0.121E+01   -.382E-24 0.311E-23 0.475E+00   -.138E-12 0.145E-12 0.119E-04
   -.412E-09 -.536E-09 -.169E+01   0.111E-13 0.600E-14 0.121E+01   -.726E-24 -.307E-23 0.475E+00   0.581E-13 -.857E-13 0.119E-04
   -.412E-09 -.536E-09 -.169E+01   0.187E-13 0.311E-14 0.121E+01   -.220E-23 0.127E-24 0.475E+00   -.504E-13 -.140E-12 0.119E-04
   -.412E-09 -.536E-09 -.169E+01   0.147E-13 0.000E+00 0.121E+01   0.143E-22 0.933E-23 0.475E+00   -.114E-12 0.785E-13 0.119E-04
   -.412E-09 -.536E-09 -.169E+01   0.218E-13 -.355E-14 0.121E+01   0.725E-23 -.715E-23 0.475E+00   0.111E-12 0.135E-12 0.119E-04
   -.412E-09 -.536E-09 -.169E+01   0.147E-13 0.138E-13 0.121E+01   -.504E-23 -.121E-22 0.475E+00   -.285E-13 -.798E-13 0.119E-04
   -.412E-09 -.535E-09 -.169E+01   0.142E-13 0.107E-13 0.121E+01   -.595E-23 0.133E-22 0.475E+00   0.266E-13 -.145E-12 0.119E-04
   0.412E-09 0.536E-09 0.169E+01   0.187E-13 0.888E-15 -.121E+01   -.157E-23 0.722E-23 -.475E+00   0.711E-13 -.845E-13 -.119E-04
   0.412E-09 0.536E-09 0.169E+01   0.178E-13 0.178E-14 -.121E+01   0.268E-22 0.537E-23 -.475E+00   -.295E-13 -.238E-13 -.119E-04
   0.412E-09 0.535E-09 0.169E+01   0.142E-13 0.222E-14 -.121E+01   0.490E-23 -.107E-22 -.475E+00   0.238E-13 0.846E-13 -.119E-04
   0.412E-09 0.535E-09 0.169E+01   0.284E-13 0.888E-14 -.121E+01   0.125E-24 0.831E-23 -.475E+00   -.545E-14 0.220E-13 -.119E-04
   0.412E-09 0.537E-09 0.169E+01   0.711E-14 0.000E+00 -.121E+01   -.156E-22 0.662E-23 -.475E+00   -.847E-13 -.249E-13 -.119E-04
   0.412E-09 0.535E-09 0.169E+01   0.231E-13 0.533E-14 -.121E+01   -.421E-23 -.160E-22 -.475E+00   0.376E-13 -.111E-12 -.119E-04
   0.412E-09 0.535E-09 0.169E+01   0.888E-15 -.533E-14 -.121E+01   0.508E-24 -.896E-23 -.475E+00   -.244E-13 0.435E-13 -.119E-04
   0.412E-09 0.536E-09 0.169E+01   0.160E-13 0.178E-14 -.121E+01   -.906E-23 -.132E-22 -.475E+00   -.991E-14 0.988E-13 -.119E-04
   -.412E-09 -.536E-09 -.169E+01   0.910E-14 -.222E-15 0.121E+01   -.101E-22 0.155E-23 0.475E+00   -.105E-12 0.829E-13 0.119E-04
   -.412E-09 -.536E-09 -.169E+01   0.222E-14 -.400E-14 0.121E+01   0.129E-22 -.314E-23 0.475E+00   0.682E-13 -.171E-13 0.119E-04
   -.412E-09 -.536E-09 -.169E+01   0.977E-14 0.133E-14 0.121E+01   0.255E-22 -.980E-23 0.475E+00   -.359E-13 -.876E-13 0.119E-04
   -.412E-09 -.536E-09 -.169E+01   0.115E-13 0.400E-14 0.121E+01   -.137E-22 -.476E-23 0.475E+00   0.904E-13 0.199E-13 0.119E-04
   -.412E-09 -.536E-09 -.169E+01   0.377E-14 -.888E-15 0.121E+01   -.865E-23 -.146E-22 0.475E+00   0.110E-12 0.463E-13 0.119E-04
   -.412E-09 -.535E-09 -.169E+01   0.400E-14 -.444E-14 0.121E+01   0.498E-23 0.330E-23 0.475E+00   -.663E-13 -.295E-13 0.119E-04
   -.412E-09 -.536E-09 -.169E+01   0.355E-14 0.400E-14 0.121E+01   -.222E-23 0.110E-23 0.475E+00   0.480E-13 -.546E-13 0.119E-04
   -.412E-09 -.536E-09 -.169E+01   -.107E-13 0.000E+00 0.121E+01   -.150E-22 0.223E-22 0.475E+00   -.955E-13 0.356E-13 0.119E-04
   0.412E-09 0.536E-09 0.169E+01   0.799E-14 -.470E-14 -.121E+01   0.996E-23 0.563E-23 -.475E+00   0.119E-12 0.149E-12 -.119E-04
   0.412E-09 0.536E-09 0.169E+01   0.799E-14 -.401E-14 -.121E+01   -.167E-22 0.749E-23 -.475E+00   -.601E-13 -.231E-14 -.119E-04
   0.412E-09 0.536E-09 0.169E+01   0.533E-14 -.845E-14 -.121E+01   0.187E-22 -.517E-23 -.475E+00   0.661E-13 -.157E-12 -.119E-04
   0.412E-09 0.536E-09 0.169E+01   0.888E-14 -.382E-14 -.121E+01   0.199E-22 -.262E-22 -.475E+00   -.674E-13 0.646E-14 -.119E-04
   0.412E-09 0.536E-09 0.169E+01   0.142E-13 -.736E-14 -.121E+01   -.626E-23 -.235E-23 -.475E+00   -.142E-12 0.184E-12 -.119E-04
   0.412E-09 0.535E-09 0.169E+01   0.711E-14 -.736E-14 -.121E+01   -.866E-23 -.658E-23 -.475E+00   0.641E-13 0.402E-13 -.119E-04
   0.412E-09 0.536E-09 0.169E+01   0.711E-14 -.555E-16 -.121E+01   0.482E-23 -.160E-22 -.475E+00   -.753E-13 -.186E-12 -.119E-04
   0.412E-09 0.536E-09 0.169E+01   0.711E-14 0.439E-14 -.121E+01   -.922E-23 -.307E-23 -.475E+00   0.723E-13 -.359E-13 -.119E-04
   -.412E-09 -.536E-09 -.169E+01   -.155E-13 -.755E-14 0.121E+01   -.348E-25 -.989E-23 0.475E+00   0.846E-13 0.155E-12 0.119E-04
   -.412E-09 -.536E-09 -.169E+01   -.160E-13 -.844E-14 0.121E+01   -.136E-24 0.111E-22 0.475E+00   -.322E-14 0.662E-14 0.119E-04
   -.412E-09 -.536E-09 -.169E+01   -.844E-14 0.222E-14 0.121E+01   0.348E-23 -.234E-22 0.475E+00   0.516E-13 -.156E-12 0.119E-04
   -.412E-09 -.536E-09 -.169E+01   -.107E-13 0.488E-14 0.121E+01   -.336E-23 0.738E-23 0.475E+00   -.125E-13 -.159E-13 0.119E-04
   -.412E-09 -.536E-09 -.169E+01   -.142E-13 -.266E-14 0.121E+01   -.125E-22 -.326E-23 0.475E+00   -.901E-13 0.224E-12 0.119E-04
   -.412E-09 -.536E-09 -.169E+01   -.711E-14 0.888E-15 0.121E+01   0.123E-22 -.263E-22 0.475E+00   0.345E-14 0.310E-13 0.119E-04
   -.412E-09 -.536E-09 -.169E+01   -.666E-14 0.115E-13 0.121E+01   -.534E-24 0.175E-23 0.475E+00   -.546E-13 -.223E-12 0.119E-04
   -.412E-09 -.536E-09 -.169E+01   -.711E-14 0.711E-14 0.121E+01   -.190E-23 -.223E-23 0.475E+00   0.225E-13 -.437E-13 0.119E-04
   0.412E-09 0.536E-09 0.169E+01   -.251E-14 0.178E-14 -.121E+01   0.133E-22 -.846E-23 -.475E+00   -.629E-13 -.637E-13 -.119E-04
   0.412E-09 0.536E-09 0.169E+01   -.185E-14 0.178E-14 -.121E+01   0.224E-23 0.647E-23 -.475E+00   0.777E-13 -.264E-13 -.119E-04
   0.412E-09 0.536E-09 0.169E+01   0.583E-15 0.355E-14 -.121E+01   0.344E-23 -.410E-23 -.475E+00   -.331E-13 0.660E-13 -.119E-04
   0.412E-09 0.536E-09 0.169E+01   -.119E-14 0.355E-14 -.121E+01   -.166E-22 -.241E-22 -.475E+00   0.119E-12 0.193E-13 -.119E-04
   0.412E-09 0.537E-09 0.169E+01   -.103E-13 0.178E-14 -.121E+01   0.548E-23 0.683E-23 -.475E+00   0.803E-13 -.123E-12 -.119E-04
   0.412E-09 0.535E-09 0.169E+01   0.371E-14 0.178E-14 -.121E+01   0.139E-22 0.154E-23 -.475E+00   -.840E-13 -.336E-13 -.119E-04
   0.412E-09 0.535E-09 0.169E+01   -.143E-13 0.355E-14 -.121E+01   0.374E-23 0.204E-22 -.475E+00   0.472E-13 0.125E-12 -.119E-04
   0.412E-09 0.536E-09 0.169E+01   -.486E-15 0.355E-14 -.121E+01   0.437E-23 0.724E-23 -.475E+00   -.126E-12 0.295E-13 -.119E-04
   -.412E-09 -.535E-09 -.169E+01   -.131E-13 -.244E-14 0.121E+01   0.837E-24 0.750E-23 0.475E+00   0.513E-13 -.136E-13 0.119E-04
   -.412E-09 -.536E-09 -.169E+01   -.213E-13 -.266E-14 0.121E+01   -.199E-23 -.125E-22 0.475E+00   0.467E-14 0.509E-13 0.119E-04
   -.412E-09 -.536E-09 -.169E+01   -.124E-13 0.822E-14 0.121E+01   -.788E-25 0.993E-24 0.475E+00   0.564E-13 0.144E-13 0.119E-04
   -.412E-09 -.536E-09 -.169E+01   -.302E-13 0.444E-14 0.121E+01   -.205E-24 -.238E-23 0.475E+00   0.303E-14 -.595E-13 0.119E-04
   -.412E-09 -.535E-09 -.169E+01   -.400E-14 -.755E-14 0.121E+01   -.496E-24 0.225E-22 0.475E+00   -.801E-13 0.708E-13 0.119E-04
   -.412E-09 -.537E-09 -.169E+01   -.755E-14 -.355E-14 0.121E+01   -.215E-22 0.216E-22 0.475E+00   0.287E-13 -.289E-13 0.119E-04
   -.412E-09 -.536E-09 -.169E+01   0.444E-15 0.711E-14 0.121E+01   -.779E-23 -.473E-23 0.475E+00   -.729E-13 -.695E-13 0.119E-04
   -.412E-09 -.535E-09 -.169E+01   -.249E-13 0.107E-13 0.121E+01   0.373E-23 -.284E-23 0.475E+00   0.185E-13 0.347E-13 0.119E-04
   0.412E-09 0.536E-09 0.169E+01   -.156E-13 -.323E-14 -.121E+01   0.157E-23 0.248E-23 -.475E+00   0.912E-13 0.111E-12 -.119E-04
   0.412E-09 0.536E-09 0.169E+01   -.180E-13 -.101E-13 -.121E+01   -.133E-22 -.218E-22 -.475E+00   -.608E-13 0.575E-13 -.119E-04
   0.412E-09 0.536E-09 0.169E+01   -.918E-14 -.787E-15 -.121E+01   0.683E-23 -.545E-23 -.475E+00   0.407E-13 -.121E-12 -.119E-04
   0.412E-09 0.536E-09 0.169E+01   -.558E-14 -.552E-15 -.121E+01   0.134E-22 -.671E-23 -.475E+00   0.214E-13 -.531E-13 -.119E-04
   0.412E-09 0.536E-09 0.169E+01   -.643E-14 -.173E-14 -.121E+01   0.171E-22 0.978E-23 -.475E+00   -.835E-13 0.164E-12 -.119E-04
   0.412E-09 0.536E-09 0.169E+01   -.135E-13 -.569E-14 -.121E+01   0.749E-23 0.158E-22 -.475E+00   0.581E-13 0.214E-13 -.119E-04
   0.412E-09 0.535E-09 0.169E+01   -.136E-15 -.139E-13 -.121E+01   0.102E-22 -.109E-22 -.475E+00   -.379E-13 -.176E-12 -.119E-04
   0.412E-09 0.536E-09 0.169E+01   -.174E-13 -.678E-14 -.121E+01   -.780E-23 0.144E-22 -.475E+00   -.188E-13 -.140E-13 -.119E-04
 -----------------------------------------------------------------------------------------------
   -.139E-11 -.285E-11 -.446E-11   0.478E-13 0.938E-14 0.289E-14   0.536E-22 -.678E-22 0.772E-14   0.113E-13 -.616E-13 -.135E-12
 
 
 POSITION                                       TOTAL-FORCE (eV/Angst)
 -----------------------------------------------------------------------------------
      0.00000      0.00000      0.00717        -0.000000      0.000000     -0.000248
      0.00000      0.00000      5.42413        -0.000000      0.000000     -0.000248
      0.05417      5.41696      0.00717        -0.000000      0.000000     -0.000248
      0.05417      5.41696      5.42413        -0.000000      0.000000     -0.000248
      5.52530      0.05417      0.00717         0.000000     -0.000000     -0.000248
      5.52530      0.05417      5.42413         0.000000     -0.000000     -0.000248
      5.57947      5.47113      0.00717         0.000000     -0.000000     -0.000248
      5.57947      5.47113      5.42413         0.000000      0.000000     -0.000248
      4.18460      4.10335      1.34707        -0.000000     -0.000000      0.000248
      4.18460      4.10335      6.76403        -0.000000     -0.000000      0.000248
      4.23877      9.52031      1.34707         0.000000      0.000000      0.000248
      4.23877      9.52031      6.76403         0.000000      0.000000      0.000248
      9.70990      4.15752      1.34707        -0.000000     -0.000000      0.000248
      9.70990      4.15752      6.76403        -0.000000     -0.000000      0.000248
      9.76407      9.57448      1.34707        -0.000000      0.000000      0.000248
      9.76407      9.57448      6.76403        -0.000000     -0.000000      0.000248
      0.02708      2.70848      2.71565        -0.000000      0.000000     -0.000248
      0.02708      2.70848      8.13261        -0.000000      0.000000     -0.000248
      0.08125      8.12544      2.71565        -0.000000     -0.000000     -0.000248
      0.08125      8.12544      8.13261        -0.000000     -0.000000     -0.000248
      5.55238      2.76265      2.71565         0.000000     -0.000000     -0.000248
      5.55238      2.76265      8.13261         0.000000     -0.000000     -0.000248
      5.60655      8.17961      2.71565         0.000000      0.000000     -0.000248
      5.60655      8.17961      8.13261         0.000000      0.000000     -0.000248
      4.15752      1.39487      4.05555        -0.000000      0.000000      0.000248
      4.15752      1.39487      9.47251         0.000000     -0.000000      0.000248
      4.21169      6.81183      4.05555         0.000000     -0.000000      0.000248
      4.21169      6.81183      9.47251         0.000000     -0.000000      0.000248
      9.68282      1.44904      4.05555        -0.000000     -0.000000      0.000248
      9.68282      1.44904      9.47251        -0.000000     -0.000000      0.000248
      9.73699      6.86600      4.05555         0.000000     -0.000000      0.000248
      9.73699      6.86600      9.47251        -0.000000     -0.000000      0.000248
      2.76265      0.02708      2.71565         0.000000     -0.000000     -0.000248
      2.76265      0.02708      8.13261         0.000000      0.000000     -0.000248
      2.81682      5.44405      2.71565        -0.000000      0.000000     -0.000248
      2.81682      5.44405      8.13261        -0.000000      0.000000     -0.000248
      8.28795      0.08125      2.71565        -0.000000     -0.000000     -0.000248
      8.28795      0.08125      8.13261        -0.000000     -0.000000     -0.000248
      8.34212      5.49821      2.71565        -0.000000     -0.000000     -0.000248
      8.34212      5.49821      8.13261        -0.000000     -0.000000     -0.000248
      1.42195      4.07626      4.05555         0.000000     -0.000000      0.000248
      1.42195      4.07626      9.47251         0.000000     -0.000000      0.000248
      1.47612      9.49322      4.05555         0.000000      0.000000      0.000248
      1.47612      9.49322      9.47251         0.000000      0.000000      0.000248
      6.94725      4.13043      4.05555        -0.000000      0.000000      0.000248
      6.94725      4.13043      9.47251        -0.000000      0.000000      0.000248
      7.00142      9.54739      4.05555        -0.000000      0.000000      0.000248
      7.00142      9.54739      9.47251        -0.000000      0.000000      0.000248
      2.78973      2.73556      0.00717         0.000000     -0.000000     -0.000248
      2.78973      2.73556      5.42413         0.000000      0.000000     -0.000248
      2.84390      8.15253      0.00717         0.000000     -0.000000     -0.000248
      2.84390      8.15253      5.42413        -0.000000      0.000000     -0.000248
      8.31503      2.78973      0.00717        -0.000000     -0.000000     -0.000248
      8.31503      2.78973      5.42413        -0.000000     -0.000000     -0.000248
      8.36920      8.20669      0.00717        -0.000000     -0.000000     -0.000248
      8.36920      8.20669      5.42413        -0.000000     -0.000000     -0.000248
      1.39487      1.36778      1.34707         0.000000      0.000000      0.000248
      1.39487      1.36778      6.76403         0.000000      0.000000      0.000248
      1.44904      6.78474      1.34707         0.000000     -0.000000      0.000248
      1.44904      6.78474      6.76403         0.000000     -0.000000      0.000248
      6.92017      1.42195      1.34707        -0.000000      0.000000      0.000248
      6.92017      1.42195      6.76403        -0.000000      0.000000      0.000248
      6.97434      6.83891      1.34707        -0.000000      0.000000      0.000248
      6.97434      6.83891      6.76403        -0.000000     -0.000000      0.000248
 -----------------------------------------------------------------------------------
    total drift:                               -0.000000     -0.000000     -0.000000


--------------------------------------------------------------------------------------------------------



  FREE ENERGIE OF THE ION-ELECTRON SYSTEM (eV)
  ---------------------------------------------------
  free  energy   TOTEN  =      -367.38604788 eV

  energy  without entropy=     -367.40959575  energy(sigma->0) =     -367.39389717
 
 d Force = 0.2988140E-02[ 0.301E-04, 0.595E-02]  d Energy = 0.2984739E-02 0.340E-05
 d Force =-0.1414497E+00[-0.147E+00,-0.136E+00]  d Ewald  =-0.1414496E+00-0.102E-06


--------------------------------------------------------------------------------------------------------


    POTLOK:  cpu time      0.1504: real time      0.1511


--------------------------------------------------------------------------------------------------------




--------------------------------------------------------------------------------------------------------


  
 reached required accuracy - stopping structural energy minimisation
     LOOP+:  cpu time     13.2037: real time     13.3799
    4ORBIT:  cpu time      0.0000: real time      0.0000

 total amount of memory used by VASP MPI-rank0    82288. kBytes
=======================================================================

   base      :      30000. kBytes
   nonlr-proj:       4670. kBytes
   fftplans  :      19172. kBytes
   grid      :       7278. kBytes
   one-center:         18. kBytes
   wavefun   :      21150. kBytes
 
  
  
 General timing and accounting informations for this job:
 ========================================================
  
                  Total CPU time used (sec):       60.090
                            User time (sec):       56.756
                          System time (sec):        3.334
                         Elapsed time (sec):       63.769
  
                   Maximum memory used (kb):      416720.
                   Average memory used (kb):          N/A
  
                          Minor page faults:        96592
                          Major page faults:            0
                 Voluntary context switches:         9355
