Si64                                    
           1
    11.050600    0.108339    0.000000
     0.108339   10.833921    0.000000
     0.000000    0.000000   10.833921
   Si
    64
Direct configuration=     1
   0.00000000  0.00000000  0.00000000
   0.00000000  0.00000000  0.50000000
   0.00000000  0.50000000  0.00000000
   0.00000000  0.50000000  0.50000000
   0.50000000  0.00000000  0.00000000
   0.50000000  0.00000000  0.50000000
   0.50000000  0.50000000  0.00000000
   0.50000000  0.50000000  0.50000000
   0.37500000  0.37500000  0.12500000
   0.37500000  0.37500000  0.62500000
   0.37500000  0.87500000  0.12500000
   0.37500000  0.87500000  0.62500000
   0.87500000  0.37500000  0.12500000
   0.87500000  0.37500000  0.62500000
   0.87500000  0.87500000  0.12500000
   0.87500000  0.87500000  0.62500000
   0.00000000  0.25000000  0.25000000
   0.00000000  0.25000000  0.75000000
   0.00000000  0.75000000  0.25000000
   0.00000000  0.75000000  0.75000000
   0.50000000  0.25000000  0.25000000
   0.50000000  0.25000000  0.75000000
   0.50000000  0.75000000  0.25000000
   0.50000000  0.75000000  0.75000000
   0.37500000  0.12500000  0.37500000
   0.37500000  0.12500000  0.87500000
   0.37500000  0.62500000  0.37500000
   0.37500000  0.62500000  0.87500000
   0.87500000  0.12500000  0.37500000
   0.87500000  0.12500000  0.87500000
   0.87500000  0.62500000  0.37500000
   0.87500000  0.62500000  0.87500000
   0.25000000  0.00000000  0.25000000
   0.25000000  0.00000000  0.75000000
   0.25000000  0.50000000  0.25000000
   0.25000000  0.50000000  0.75000000
   0.75000000  0.00000000  0.25000000
   0.75000000  0.00000000  0.75000000
   0.75000000  0.50000000  0.25000000
   0.75000000  0.50000000  0.75000000
   0.12500000  0.37500000  0.37500000
   0.12500000  0.37500000  0.87500000
   0.12500000  0.87500000  0.37500000
   0.12500000  0.87500000  0.87500000
   0.62500000  0.37500000  0.37500000
   0.62500000  0.37500000  0.87500000
   0.62500000  0.87500000  0.37500000
   0.62500000  0.87500000  0.87500000
   0.25000000  0.25000000  0.00000000
   0.25000000  0.25000000  0.50000000
   0.25000000  0.75000000  0.00000000
   0.25000000  0.75000000  0.50000000
   0.75000000  0.25000000  0.00000000
   0.75000000  0.25000000  0.50000000
   0.75000000  0.75000000  0.00000000
   0.75000000  0.75000000  0.50000000
   0.12500000  0.12500000  0.12500000
   0.12500000  0.12500000  0.62500000
   0.12500000  0.62500000  0.12500000
   0.12500000  0.62500000  0.62500000
   0.62500000  0.12500000  0.12500000
   0.62500000  0.12500000  0.62500000
   0.62500000  0.62500000  0.12500000
   0.62500000  0.62500000  0.62500000
Direct configuration=     2
   0.00000000  1.00000000  0.00083683
   0.00000000  0.00000000  0.50083683
   0.00000000  0.50000000  0.00083683
   1.00000000  0.50000000  0.50083683
   0.50000000  1.00000000  0.00083683
   0.50000000  1.00000000  0.50083683
   0.50000000  0.50000000  0.00083683
   0.50000000  0.50000000  0.50083683
   0.37500000  0.37500000  0.12416317
   0.37500000  0.37500000  0.62416317
   0.37500000  0.87500000  0.12416317
   0.37500000  0.87500000  0.62416317
   0.87500000  0.37500000  0.12416317
   0.87500000  0.37500000  0.62416317
   0.87500000  0.87500000  0.12416317
   0.87500000  0.87500000  0.62416317
   0.00000000  0.25000000  0.25083683
   1.00000000  0.25000000  0.75083683
   1.00000000  0.75000000  0.25083683
   0.00000000  0.75000000  0.75083683
   0.50000000  0.25000000  0.25083683
   0.50000000  0.25000000  0.75083683
   0.50000000  0.75000000  0.25083683
   0.50000000  0.75000000  0.75083683
   0.37500000  0.12500000  0.37416317
   0.37500000  0.12500000  0.87416317
   0.37500000  0.62500000  0.37416317
   0.37500000  0.62500000  0.87416317
   0.87500000  0.12500000  0.37416317
   0.87500000  0.12500000  0.87416317
   0.87500000  0.62500000  0.37416317
   0.87500000  0.62500000  0.87416317
   0.25000000  0.00000000  0.25083683
   0.25000000  1.00000000  0.75083683
   0.25000000  0.50000000  0.25083683
   0.25000000  0.50000000  0.75083683
   0.75000000  1.00000000  0.25083683
   0.75000000  1.00000000  0.75083683
   0.75000000  0.50000000  0.25083683
   0.75000000  0.50000000  0.75083683
   0.12500000  0.37500000  0.37416317
   0.12500000  0.37500000  0.87416317
   0.12500000  0.87500000  0.37416317
   0.12500000  0.87500000  0.87416317
   0.62500000  0.37500000  0.37416317
   0.62500000  0.37500000  0.87416317
   0.62500000  0.87500000  0.37416317
   0.62500000  0.87500000  0.87416317
   0.25000000  0.25000000  0.00083683
   0.25000000  0.25000000  0.50083683
   0.25000000  0.75000000  0.00083683
   0.25000000  0.75000000  0.50083683
   0.75000000  0.25000000  0.00083683
   0.75000000  0.25000000  0.50083683
   0.75000000  0.75000000  0.00083683
   0.75000000  0.75000000  0.50083683
   0.12500000  0.12500000  0.12416317
   0.12500000  0.12500000  0.62416317
   0.12500000  0.62500000  0.12416317
   0.12500000  0.62500000  0.62416317
   0.62500000  0.12500000  0.12416317
   0.62500000  0.12500000  0.62416317
   0.62500000  0.62500000  0.12416317
   0.62500000  0.62500000  0.62416317
Direct configuration=     3
   0.00000000  0.00000000  0.00066192
   0.00000000  0.00000000  0.50066192
   0.00000000  0.50000000  0.00066192
   0.00000000  0.50000000  0.50066192
   0.50000000  0.00000000  0.00066192
   0.50000000  0.00000000  0.50066192
   0.50000000  0.50000000  0.00066192
   0.50000000  0.50000000  0.50066192
   0.37500000  0.37500000  0.12433808
   0.37500000  0.37500000  0.62433808
   0.37500000  0.87500000  0.12433808
   0.37500000  0.87500000  0.62433808
   0.87500000  0.37500000  0.12433808
   0.87500000  0.37500000  0.62433808
   0.87500000  0.87500000  0.12433808
   0.87500000  0.87500000  0.62433808
   0.00000000  0.25000000  0.25066192
   0.00000000  0.25000000  0.75066192
   0.00000000  0.75000000  0.25066192
   0.00000000  0.75000000  0.75066192
   0.50000000  0.25000000  0.25066192
   0.50000000  0.25000000  0.75066192
   0.50000000  0.75000000  0.25066192
   0.50000000  0.75000000  0.75066192
   0.37500000  0.12500000  0.37433808
   0.37500000  0.12500000  0.87433808
   0.37500000  0.62500000  0.37433808
   0.37500000  0.62500000  0.87433808
   0.87500000  0.12500000  0.37433808
   0.87500000  0.12500000  0.87433808
   0.87500000  0.62500000  0.37433808
   0.87500000  0.62500000  0.87433808
   0.25000000  0.00000000  0.25066192
   0.25000000  0.00000000  0.75066192
   0.25000000  0.50000000  0.25066192
   0.25000000  0.50000000  0.75066192
   0.75000000  0.00000000  0.25066192
   0.75000000  0.00000000  0.75066192
   0.75000000  0.50000000  0.25066192
   0.75000000  0.50000000  0.75066192
   0.12500000  0.37500000  0.37433808
   0.12500000  0.37500000  0.87433808
   0.12500000  0.87500000  0.37433808
   0.12500000  0.87500000  0.87433808
   0.62500000  0.37500000  0.37433808
   0.62500000  0.37500000  0.87433808
   0.62500000  0.87500000  0.37433808
   0.62500000  0.87500000  0.87433808
   0.25000000  0.25000000  0.00066192
   0.25000000  0.25000000  0.50066192
   0.25000000  0.75000000  0.00066192
   0.25000000  0.75000000  0.50066192
   0.75000000  0.25000000  0.00066192
   0.75000000  0.25000000  0.50066192
   0.75000000  0.75000000  0.00066192
   0.75000000  0.75000000  0.50066192
   0.12500000  0.12500000  0.12433808
   0.12500000  0.12500000  0.62433808
   0.12500000  0.62500000  0.12433808
   0.12500000  0.62500000  0.62433808
   0.62500000  0.12500000  0.12433808
   0.62500000  0.12500000  0.62433808
   0.62500000  0.62500000  0.12433808
   0.62500000  0.62500000  0.62433808
