  64  64   0   0
  0.2013400E+02  0.1088187E-08  0.1088187E-08  0.1088187E-08  0.5000000E-15
  1.000000000000000E-004
  CAR 
 Si64                                    
     12.12104322     -7.93796076  301      6.81829565      1.00000000
     -7.938  0.0000E+00  0.0000E+00
     -7.871  0.0000E+00  0.0000E+00
     -7.804  0.0000E+00  0.0000E+00
     -7.737  0.0000E+00  0.0000E+00
     -7.671  0.0000E+00  0.0000E+00
     -7.604 -0.1101E-30 -0.7362E-32
     -7.537 -0.2466E-28 -0.1656E-29
     -7.470 -0.4423E-26 -0.2974E-27
     -7.403 -0.6331E-24 -0.4263E-25
     -7.336 -0.7229E-22 -0.4876E-23
     -7.269 -0.6583E-20 -0.4450E-21
     -7.202 -0.4779E-18 -0.3240E-19
     -7.136 -0.2764E-16 -0.1881E-17
     -7.069 -0.1232E-14 -0.8426E-16
     -7.002 -0.4508E-13 -0.3098E-14
     -6.935 -0.1308E-11 -0.9057E-13
     -6.868 -0.3013E-10 -0.2105E-11
     -6.801 -0.5500E-09 -0.3888E-10
     -6.734 -0.7937E-08 -0.5696E-09
     -6.668 -0.9030E-07 -0.6607E-08
     -6.601 -0.8067E-06 -0.6055E-07
     -6.534 -0.5625E-05 -0.4367E-06
     -6.467 -0.3033E-04 -0.2465E-05
     -6.400 -0.1245E-03 -0.1079E-04
     -6.333 -0.3783E-03 -0.3609E-04
     -6.266 -0.7964E-03 -0.8934E-04
     -6.200 -0.9333E-03 -0.1517E-03
     -6.133  0.3164E-03 -0.1306E-03
     -6.066  0.3769E-02  0.1214E-03
     -5.999  0.8173E-02  0.6679E-03
     -5.932  0.1118E-01  0.1416E-02
     -5.865  0.1492E-01  0.2413E-02
     -5.798  0.2803E-01  0.4287E-02
     -5.731  0.5472E-01  0.7946E-02
     -5.665  0.8259E-01  0.1347E-01
     -5.598  0.9523E-01  0.1984E-01
     -5.531  0.1002E+00  0.2654E-01
     -5.464  0.1242E+00  0.3484E-01
     -5.397  0.1692E+00  0.4616E-01
     -5.330  0.1977E+00  0.5938E-01
     -5.263  0.1828E+00  0.7160E-01
     -5.197  0.1477E+00  0.8147E-01
     -5.130  0.1296E+00  0.9014E-01
     -5.063  0.1267E+00  0.9861E-01
     -4.996  0.1126E+00  0.1061E+00
     -4.929  0.8551E-01  0.1119E+00
     -4.862  0.6781E-01  0.1164E+00
     -4.795  0.6988E-01  0.1211E+00
     -4.729  0.9004E-01  0.1271E+00
     -4.662  0.1435E+00  0.1367E+00
     -4.595  0.2450E+00  0.1531E+00
     -4.528  0.3586E+00  0.1770E+00
     -4.461  0.4203E+00  0.2051E+00
     -4.394  0.4245E+00  0.2335E+00
     -4.327  0.4244E+00  0.2619E+00
     -4.260  0.4296E+00  0.2906E+00
     -4.194  0.3804E+00  0.3161E+00
     -4.127  0.2496E+00  0.3327E+00
     -4.060  0.9501E-01  0.3391E+00
     -3.993 -0.7054E-02  0.3386E+00
     -3.926 -0.2837E-01  0.3367E+00
     -3.859  0.2290E-01  0.3383E+00
     -3.792  0.1325E+00  0.3471E+00
     -3.726  0.2793E+00  0.3658E+00
     -3.659  0.4220E+00  0.3940E+00
     -3.592  0.5033E+00  0.4277E+00
     -3.525  0.4840E+00  0.4600E+00
     -3.458  0.3820E+00  0.4856E+00
     -3.391  0.2667E+00  0.5034E+00
     -3.324  0.2101E+00  0.5175E+00
     -3.258  0.2502E+00  0.5342E+00
     -3.191  0.3764E+00  0.5594E+00
     -3.124  0.5274E+00  0.5946E+00
     -3.057  0.6267E+00  0.6365E+00
     -2.990  0.6422E+00  0.6795E+00
     -2.923  0.6012E+00  0.7197E+00
     -2.856  0.5440E+00  0.7560E+00
     -2.789  0.4825E+00  0.7883E+00
     -2.723  0.4242E+00  0.8167E+00
     -2.656  0.3994E+00  0.8434E+00
     -2.589  0.4138E+00  0.8710E+00
     -2.522  0.4051E+00  0.8981E+00
     -2.455  0.3129E+00  0.9191E+00
     -2.388  0.1642E+00  0.9300E+00
     -2.321  0.3894E-01  0.9326E+00
     -2.255 -0.2142E-01  0.9312E+00
     -2.188 -0.3250E-01  0.9290E+00
     -2.121 -0.1806E-01  0.9278E+00
     -2.054  0.2196E-01  0.9293E+00
     -1.987  0.9294E-01  0.9355E+00
     -1.920  0.1703E+00  0.9469E+00
     -1.853  0.2021E+00  0.9604E+00
     -1.787  0.1593E+00  0.9710E+00
     -1.720  0.7329E-01  0.9759E+00
     -1.653  0.1537E-01  0.9770E+00
     -1.586  0.4789E-01  0.9802E+00
     -1.519  0.1903E+00  0.9929E+00
     -1.452  0.3986E+00  0.1020E+01
     -1.385  0.5704E+00  0.1058E+01
     -1.318  0.6044E+00  0.1098E+01
     -1.252  0.4805E+00  0.1130E+01
     -1.185  0.2749E+00  0.1149E+01
     -1.118  0.9741E-01  0.1155E+01
     -1.051  0.2131E-01  0.1157E+01
     -0.984  0.5616E-01  0.1160E+01
     -0.917  0.1525E+00  0.1171E+01
     -0.850  0.2288E+00  0.1186E+01
     -0.784  0.2313E+00  0.1201E+01
     -0.717  0.1916E+00  0.1214E+01
     -0.650  0.1974E+00  0.1227E+01
     -0.583  0.2822E+00  0.1246E+01
     -0.516  0.3647E+00  0.1271E+01
     -0.449  0.3390E+00  0.1293E+01
     -0.382  0.2229E+00  0.1308E+01
     -0.316  0.1745E+00  0.1320E+01
     -0.249  0.3397E+00  0.1342E+01
     -0.182  0.6866E+00  0.1388E+01
     -0.115  0.1003E+01  0.1455E+01
     -0.048  0.1069E+01  0.1527E+01
      0.019  0.8444E+00  0.1583E+01
      0.086  0.4765E+00  0.1615E+01
      0.153  0.1553E+00  0.1626E+01
      0.219 -0.1952E-01  0.1624E+01
      0.286 -0.4585E-01  0.1621E+01
      0.353  0.4515E-01  0.1624E+01
      0.420  0.2092E+00  0.1638E+01
      0.487  0.3639E+00  0.1663E+01
      0.554  0.4146E+00  0.1690E+01
      0.621  0.3397E+00  0.1713E+01
      0.687  0.2114E+00  0.1727E+01
      0.754  0.1192E+00  0.1735E+01
      0.821  0.1096E+00  0.1742E+01
      0.888  0.1935E+00  0.1755E+01
      0.955  0.3494E+00  0.1779E+01
      1.022  0.5014E+00  0.1812E+01
      1.089  0.5461E+00  0.1849E+01
      1.155  0.4400E+00  0.1878E+01
      1.222  0.2473E+00  0.1895E+01
      1.289  0.7787E-01  0.1900E+01
      1.356 -0.9160E-02  0.1899E+01
      1.423 -0.2934E-01  0.1897E+01
      1.490 -0.2595E-01  0.1896E+01
      1.557 -0.2584E-01  0.1894E+01
      1.623 -0.2670E-01  0.1892E+01
      1.690  0.7244E-03  0.1892E+01
      1.757  0.9684E-01  0.1899E+01
      1.824  0.2706E+00  0.1917E+01
      1.891  0.4572E+00  0.1947E+01
      1.958  0.5484E+00  0.1984E+01
      2.025  0.5010E+00  0.2018E+01
      2.092  0.4015E+00  0.2044E+01
      2.158  0.3747E+00  0.2069E+01
      2.225  0.4422E+00  0.2099E+01
      2.292  0.5209E+00  0.2134E+01
      2.359  0.5426E+00  0.2170E+01
      2.426  0.5063E+00  0.2204E+01
      2.493  0.4260E+00  0.2232E+01
      2.560  0.3179E+00  0.2254E+01
      2.626  0.2594E+00  0.2271E+01
      2.693  0.3818E+00  0.2297E+01
      2.760  0.7371E+00  0.2346E+01
      2.827  0.1181E+01  0.2425E+01
      2.894  0.1435E+01  0.2521E+01
      2.961  0.1318E+01  0.2609E+01
      3.028  0.9036E+00  0.2669E+01
      3.094  0.4435E+00  0.2699E+01
      3.161  0.1279E+00  0.2708E+01
      3.228 -0.2284E-01  0.2706E+01
      3.295 -0.7102E-01  0.2701E+01
      3.362 -0.4021E-01  0.2699E+01
      3.429  0.1058E+00  0.2706E+01
      3.496  0.3868E+00  0.2731E+01
      3.563  0.7280E+00  0.2780E+01
      3.629  0.9913E+00  0.2846E+01
      3.696  0.1099E+01  0.2920E+01
      3.763  0.1089E+01  0.2993E+01
      3.830  0.1038E+01  0.3062E+01
      3.897  0.9757E+00  0.3127E+01
      3.964  0.8809E+00  0.3186E+01
      4.031  0.7556E+00  0.3237E+01
      4.097  0.6766E+00  0.3282E+01
      4.164  0.7134E+00  0.3330E+01
      4.231  0.7896E+00  0.3383E+01
      4.298  0.7347E+00  0.3432E+01
      4.365  0.5097E+00  0.3466E+01
      4.432  0.2770E+00  0.3484E+01
      4.499  0.2108E+00  0.3498E+01
      4.565  0.3223E+00  0.3520E+01
      4.632  0.4924E+00  0.3553E+01
      4.699  0.6137E+00  0.3594E+01
      4.766  0.6647E+00  0.3638E+01
      4.833  0.6730E+00  0.3683E+01
      4.900  0.6559E+00  0.3727E+01
      4.967  0.6269E+00  0.3769E+01
      5.034  0.6230E+00  0.3811E+01
      5.100  0.6786E+00  0.3856E+01
      5.167  0.7773E+00  0.3908E+01
      5.234  0.8469E+00  0.3965E+01
      5.301  0.8008E+00  0.4018E+01
      5.368  0.6077E+00  0.4059E+01
      5.435  0.3357E+00  0.4081E+01
      5.502  0.1140E+00  0.4089E+01
      5.568  0.4327E-01  0.4092E+01
      5.635  0.1354E+00  0.4101E+01
      5.702  0.3098E+00  0.4122E+01
      5.769  0.4365E+00  0.4151E+01
      5.836  0.4226E+00  0.4179E+01
      5.903  0.2829E+00  0.4198E+01
      5.970  0.1147E+00  0.4206E+01
      6.036  0.5728E-02  0.4206E+01
      6.103 -0.1653E-01  0.4205E+01
      6.170  0.3295E-01  0.4207E+01
      6.237  0.1193E+00  0.4215E+01
      6.304  0.1902E+00  0.4228E+01
      6.371  0.1992E+00  0.4241E+01
      6.438  0.1482E+00  0.4251E+01
      6.505  0.8497E-01  0.4257E+01
      6.571  0.4849E-01  0.4260E+01
      6.638  0.3528E-01  0.4262E+01
      6.705  0.2478E-01  0.4264E+01
      6.772  0.1809E-01  0.4265E+01
      6.839  0.3867E-01  0.4268E+01
      6.906  0.9816E-01  0.4274E+01
      6.973  0.1689E+00  0.4286E+01
      7.039  0.1995E+00  0.4299E+01
      7.106  0.1639E+00  0.4310E+01
      7.173  0.8652E-01  0.4316E+01
      7.240  0.1447E-01  0.4317E+01
      7.307 -0.1906E-01  0.4315E+01
      7.374  0.2371E-02  0.4316E+01
      7.441  0.8448E-01  0.4321E+01
      7.507  0.2005E+00  0.4335E+01
      7.574  0.2803E+00  0.4353E+01
      7.641  0.2694E+00  0.4371E+01
      7.708  0.2088E+00  0.4385E+01
      7.775  0.2100E+00  0.4399E+01
      7.842  0.3237E+00  0.4421E+01
      7.909  0.4597E+00  0.4452E+01
      7.976  0.4743E+00  0.4483E+01
      8.042  0.3270E+00  0.4505E+01
      8.109  0.1194E+00  0.4513E+01
      8.176  0.1228E-02  0.4513E+01
      8.243  0.7649E-01  0.4519E+01
      8.310  0.3550E+00  0.4542E+01
      8.377  0.7110E+00  0.4590E+01
      8.444  0.9179E+00  0.4651E+01
      8.510  0.8265E+00  0.4706E+01
      8.577  0.5214E+00  0.4741E+01
      8.644  0.2481E+00  0.4758E+01
      8.711  0.1899E+00  0.4771E+01
      8.778  0.3489E+00  0.4794E+01
      8.845  0.6279E+00  0.4836E+01
      8.912  0.9586E+00  0.4900E+01
      8.978  0.1283E+01  0.4986E+01
      9.045  0.1456E+01  0.5083E+01
      9.112  0.1316E+01  0.5171E+01
      9.179  0.8953E+00  0.5231E+01
      9.246  0.4427E+00  0.5261E+01
      9.313  0.1836E+00  0.5273E+01
      9.380  0.1452E+00  0.5283E+01
      9.447  0.2228E+00  0.5297E+01
      9.513  0.3200E+00  0.5319E+01
      9.580  0.3793E+00  0.5344E+01
      9.647  0.3582E+00  0.5368E+01
      9.714  0.2529E+00  0.5385E+01
      9.781  0.1183E+00  0.5393E+01
      9.848  0.2146E-01  0.5394E+01
      9.915 -0.1458E-01  0.5393E+01
      9.981 -0.8454E-02  0.5393E+01
     10.048  0.1249E-01  0.5394E+01
     10.115  0.2934E-01  0.5396E+01
     10.182  0.3280E-01  0.5398E+01
     10.249  0.2371E-01  0.5399E+01
     10.316  0.1061E-01  0.5400E+01
     10.383  0.1537E-02  0.5400E+01
     10.449 -0.1668E-02  0.5400E+01
     10.516 -0.1559E-02  0.5400E+01
     10.583 -0.7522E-03  0.5400E+01
     10.650 -0.2486E-03  0.5400E+01
     10.717 -0.6063E-04  0.5400E+01
     10.784 -0.1125E-04  0.5400E+01
     10.851 -0.1613E-05  0.5400E+01
     10.918 -0.1806E-06  0.5400E+01
     10.984 -0.1587E-07  0.5400E+01
     11.051 -0.1100E-08  0.5400E+01
     11.118 -0.6027E-10  0.5400E+01
     11.185 -0.2616E-11  0.5400E+01
     11.252 -0.9016E-13  0.5400E+01
     11.319 -0.2463E-14  0.5400E+01
     11.386 -0.5535E-16  0.5400E+01
     11.452  0.0000E+00  0.5400E+01
     11.519  0.0000E+00  0.5400E+01
     11.586  0.0000E+00  0.5400E+01
     11.653  0.0000E+00  0.5400E+01
     11.720  0.0000E+00  0.5400E+01
     11.787  0.0000E+00  0.5400E+01
     11.854  0.0000E+00  0.5400E+01
     11.920  0.0000E+00  0.5400E+01
     11.987  0.0000E+00  0.5400E+01
     12.054  0.0000E+00  0.5400E+01
     12.121  0.0000E+00  0.5400E+01
