WARNING: $PATH does not agree with $PATH_modshare counter. The following directories' usage counters were adjusted to match. Note that this may mean that module unloading may not work correctly.
 /public1/home/sc80607/atat/bin/
 running   96 mpi-ranks, on    1 nodes
 distrk:  each k-point on   24 cores,    4 groups
 distr:  one band on   12 cores,    2 groups
 vasp.6.4.3 19Mar24 (build Oct 21 2024 22:36:34) complex                        
  
 POSCAR found type information on POSCAR Si
 POSCAR found :  1 types and      64 ions
 scaLAPACK will be used
 -----------------------------------------------------------------------------
|                                                                             |
|               ----> ADVICE to this user running VASP <----                  |
|                                                                             |
|     You enforced a specific xc type in the INCAR file but a different       |
|     type was found in the POTCAR file.                                      |
|     I HOPE YOU KNOW WHAT YOU ARE DOING!                                     |
|                                                                             |
 -----------------------------------------------------------------------------

 LDA part: xc-table for (Slater+PW92), standard interpolation
 POSCAR, INCAR and KPOINTS ok, starting setup
 FFT: planning ... GRIDC
 FFT: planning ... GRID_SOFT
 FFT: planning ... GRID
 WAVECAR not read
 entering main loop
       N       E                     dE             d eps       ncg     rms          rms(c)
DAV:   1     0.555804707810E+03    0.55580E+03   -0.83694E+04  1296   0.106E+03
DAV:   2    -0.309906729313E+03   -0.86571E+03   -0.82147E+03  1536   0.172E+02
DAV:   3    -0.372982226243E+03   -0.63075E+02   -0.61823E+02  1568   0.409E+01
DAV:   4    -0.374664277787E+03   -0.16821E+01   -0.16700E+01  1552   0.800E+00
DAV:   5    -0.374715560020E+03   -0.51282E-01   -0.51178E-01  1510   0.132E+00    0.279E+01
RMM:   6    -0.369822199438E+03    0.48934E+01   -0.24101E+00  1296   0.242E+00    0.168E+01
RMM:   7    -0.367570632286E+03    0.22516E+01   -0.62841E+00  1322   0.391E+00    0.931E-01
RMM:   8    -0.367608697552E+03   -0.38065E-01   -0.55290E-01  1310   0.148E+00    0.480E-01
RMM:   9    -0.367626680108E+03   -0.17983E-01   -0.16517E-01  1322   0.726E-01    0.564E-01
RMM:  10    -0.367629569675E+03   -0.28896E-02   -0.28950E-02  1354   0.344E-01    0.682E-01
RMM:  11    -0.367628071930E+03    0.14977E-02   -0.95577E-03  1296   0.203E-01    0.819E-01
RMM:  12    -0.367627955941E+03    0.11599E-03   -0.17209E-03  1304   0.978E-02    0.981E-01
RMM:  13    -0.367628101843E+03   -0.14590E-03   -0.33053E-04  1368   0.421E-02    0.956E-01
RMM:  14    -0.367626376641E+03    0.17252E-02   -0.67685E-04  1296   0.575E-02    0.151E+00
RMM:  15    -0.367626156066E+03    0.22057E-03   -0.16016E-04  1299   0.257E-02    0.166E+00
RMM:  16    -0.367626243714E+03   -0.87648E-04   -0.20131E-05  1338   0.954E-03    0.162E+00
RMM:  17    -0.367627310178E+03   -0.10665E-02   -0.16341E-04  1350   0.268E-02    0.104E+00
RMM:  18    -0.367628459247E+03   -0.11491E-02   -0.57836E-04  1747   0.535E-02    0.293E-01
RMM:  19    -0.367628593289E+03   -0.13404E-03   -0.17536E-04  1324   0.278E-02    0.366E-02
RMM:  20    -0.367628600874E+03   -0.75849E-05   -0.46774E-05  1300   0.130E-02    0.337E-03
RMM:  21    -0.367628601367E+03   -0.49257E-06   -0.66531E-06  1076   0.503E-03
   1 F= -.29524470E+03 E0= -.29525309E+03  d E =-.295245E+03
 curvature:   0.00 expect dE= 0.000E+00 dE for cont linesearch  0.000E+00
 trial: gam= 0.00000 g(F)=  0.246E-57 g(S)=  0.126E+02 ort = 0.000E+00 (trialstep = 0.100E+01)
 search vector abs. value=  0.126E+02
 bond charge predicted
       N       E                     dE             d eps       ncg     rms          rms(c)
DAV:   1    -0.360735755164E+03    0.68928E+01   -0.18552E+02  1368   0.247E+01    0.152E+01
RMM:   2    -0.357041268913E+03    0.36945E+01   -0.70664E+00  1296   0.500E+00    0.875E+00
RMM:   3    -0.355171859280E+03    0.18694E+01   -0.42315E+00  1296   0.368E+00    0.151E+00
RMM:   4    -0.355216054540E+03   -0.44195E-01   -0.41749E-01  1296   0.153E+00    0.170E+00
RMM:   5    -0.355225412308E+03   -0.93578E-02   -0.83063E-02  1320   0.624E-01    0.232E+00
RMM:   6    -0.355225396276E+03    0.16032E-04   -0.41845E-02  1296   0.403E-01    0.179E+00
RMM:   7    -0.355217206852E+03    0.81894E-02   -0.11020E-02  1296   0.234E-01    0.792E-01
RMM:   8    -0.355216675992E+03    0.53086E-03   -0.13301E-03  1298   0.986E-02    0.704E-01
RMM:   9    -0.355216175667E+03    0.50032E-03   -0.19278E-04  1297   0.347E-02    0.574E-01
RMM:  10    -0.355214962647E+03    0.12130E-02   -0.23252E-03  1518   0.770E-02    0.347E-02
RMM:  11    -0.355214961382E+03    0.12653E-05   -0.18427E-04  1325   0.237E-02    0.725E-02
RMM:  12    -0.355214965092E+03   -0.37106E-05   -0.22541E-05  1301   0.937E-03    0.611E-02
RMM:  13    -0.355214966660E+03   -0.15676E-05   -0.31314E-06   958   0.381E-03    0.439E-02
RMM:  14    -0.355214971669E+03   -0.50087E-05   -0.15494E-06   797   0.257E-03    0.822E-03
RMM:  15    -0.355214971963E+03   -0.29388E-06   -0.67121E-07   763   0.163E-03
   2 F= -.29435427E+03 E0= -.29435311E+03  d E =0.890436E+00
 trial-energy change:    0.890436  1 .order    1.584893  -12.552369   15.722155
 step:   0.4807(harm=  0.4439)  dis= 0.00000  next Energy=  -298.339029 (dE=-0.309E+01)
 bond charge predicted
       N       E                     dE             d eps       ncg     rms          rms(c)
DAV:   1    -0.366628787112E+03   -0.11414E+02   -0.46777E+01  1346   0.118E+01    0.743E+00
RMM:   2    -0.365626827130E+03    0.10020E+01   -0.13573E+00  1296   0.231E+00    0.447E+00
RMM:   3    -0.365104567558E+03    0.52226E+00   -0.12128E+00  1296   0.189E+00    0.813E-01
RMM:   4    -0.365115508549E+03   -0.10941E-01   -0.10277E-01  1296   0.764E-01    0.813E-01
RMM:   5    -0.365117658700E+03   -0.21502E-02   -0.20102E-02  1322   0.314E-01    0.814E-01
RMM:   6    -0.365117877953E+03   -0.21925E-03   -0.25067E-03  1322   0.129E-01    0.776E-01
RMM:   7    -0.365117171240E+03    0.70671E-03   -0.64548E-03  1298   0.146E-01    0.162E+00
RMM:   8    -0.365116307730E+03    0.86351E-03   -0.11947E-03  1296   0.663E-02    0.665E-01
RMM:   9    -0.365116029957E+03    0.27777E-03   -0.66651E-04  1296   0.447E-02    0.175E-01
RMM:  10    -0.365116014880E+03    0.15077E-04   -0.17766E-04  1296   0.247E-02    0.476E-02
RMM:  11    -0.365116018036E+03   -0.31554E-05   -0.29102E-05  1296   0.116E-02    0.394E-02
RMM:  12    -0.365116023123E+03   -0.50867E-05   -0.53579E-06  1029   0.445E-03    0.233E-02
RMM:  13    -0.365116029561E+03   -0.64389E-05   -0.53706E-06  1097   0.370E-03    0.217E-02
RMM:  14    -0.365116029392E+03    0.16978E-06   -0.86707E-07   755   0.197E-03
   3 F= -.29843794E+03 E0= -.29844884E+03  d E =-.319324E+01
 curvature:  -0.22 expect dE=-0.807E-03 dE for cont linesearch -0.807E-03
 ZBRENT: interpolating
 opt :   0.4877  next Energy=  -298.438691 (dE=-0.319E+01)
 bond charge predicted
       N       E                     dE             d eps       ncg     rms          rms(c)
DAV:   1    -0.365036563547E+03    0.79466E-01   -0.84504E-03  1390   0.160E-01    0.107E-01
RMM:   2    -0.365036377257E+03    0.18629E-03   -0.28545E-04  1296   0.323E-02    0.633E-02
RMM:   3    -0.365036297658E+03    0.79599E-04   -0.24020E-04  1296   0.267E-02    0.111E-02
RMM:   4    -0.365036301441E+03   -0.37826E-05   -0.21586E-05  1296   0.109E-02    0.118E-02
RMM:   5    -0.365036301899E+03   -0.45768E-06   -0.44880E-06   958   0.451E-03    0.146E-02
RMM:   6    -0.365036306765E+03   -0.48667E-05   -0.29567E-06   841   0.307E-03    0.192E-02
RMM:   7    -0.365036309024E+03   -0.22593E-05   -0.58789E-07   716   0.170E-03    0.134E-02
RMM:   8    -0.365036308779E+03    0.24596E-06   -0.95678E-08   611   0.784E-04
   4 F= -.29843873E+03 E0= -.29844959E+03  d E =-.319403E+01
 curvature:  -0.20 expect dE=-0.594E-06 dE for cont linesearch -0.594E-06
 trial: gam=-0.00048 g(F)=  0.389E-57 g(S)=  0.290E-05 ort = 0.604E-02 (trialstep = 0.898E+00)
 search vector abs. value=  0.101E-09
 reached required accuracy - stopping structural energy minimisation
