   8   8   0   0
  0.5813127E+01  0.3644196E-09  0.3572749E-09  0.3572570E-09  0.5000000E-15
  1.000000000000000E-004
  CAR 
 C8                                      
     23.27753338    -13.77290697  301      9.57658930      1.00000000
    -13.773  0.0000E+00  0.0000E+00
    -13.649  0.0000E+00  0.0000E+00
    -13.526  0.0000E+00  0.0000E+00
    -13.402  0.0000E+00  0.0000E+00
    -13.279  0.0000E+00  0.0000E+00
    -13.155  0.0000E+00  0.0000E+00
    -13.032  0.0000E+00  0.0000E+00
    -12.908  0.0000E+00  0.0000E+00
    -12.785  0.0000E+00  0.0000E+00
    -12.661  0.0000E+00  0.0000E+00
    -12.538  0.0000E+00  0.0000E+00
    -12.414  0.0000E+00  0.0000E+00
    -12.291  0.0000E+00  0.0000E+00
    -12.167  0.0000E+00  0.0000E+00
    -12.044  0.0000E+00  0.0000E+00
    -11.920  0.0000E+00  0.0000E+00
    -11.797  0.0000E+00  0.0000E+00
    -11.673  0.1534E+00  0.7360E-02
    -11.550  0.2068E+00  0.2890E-01
    -11.426  0.2643E+00  0.5850E-01
    -11.303  0.3116E+00  0.9393E-01
    -11.179  0.3508E+00  0.1352E+00
    -11.056  0.3877E+00  0.1806E+00
    -10.932  0.4226E+00  0.2309E+00
    -10.809  0.4514E+00  0.2848E+00
    -10.685  0.4833E+00  0.3425E+00
    -10.562  0.5112E+00  0.4041E+00
    -10.438  0.5359E+00  0.4687E+00
    -10.315  0.5634E+00  0.5365E+00
    -10.191  0.5896E+00  0.6078E+00
    -10.068  0.6113E+00  0.6820E+00
     -9.944  0.6348E+00  0.7589E+00
     -9.821  0.6749E+00  0.8389E+00
     -9.697  0.7811E+00  0.9292E+00
     -9.574  0.7443E+00  0.1022E+01
     -9.450  0.6922E+00  0.1110E+01
     -9.327  0.6591E+00  0.1194E+01
     -9.203  0.7847E+00  0.1279E+01
     -9.080  0.8177E+00  0.1375E+01
     -8.956  0.8126E+00  0.1474E+01
     -8.833  0.8279E+00  0.1575E+01
     -8.709  0.8502E+00  0.1678E+01
     -8.586  0.8685E+00  0.1785E+01
     -8.462  0.8895E+00  0.1893E+01
     -8.339  0.9094E+00  0.2004E+01
     -8.215  0.9295E+00  0.2118E+01
     -8.092  0.9503E+00  0.2234E+01
     -7.968  0.9754E+00  0.2353E+01
     -7.845  0.1017E+01  0.2476E+01
     -7.721  0.1036E+01  0.2603E+01
     -7.598  0.1055E+01  0.2731E+01
     -7.474  0.1075E+01  0.2863E+01
     -7.351  0.1121E+01  0.2999E+01
     -7.227  0.1127E+01  0.3138E+01
     -7.104  0.1084E+01  0.3273E+01
     -6.980  0.1107E+01  0.3407E+01
     -6.857  0.1180E+01  0.3549E+01
     -6.733  0.1235E+01  0.3698E+01
     -6.610  0.1246E+01  0.3850E+01
     -6.486  0.1284E+01  0.4007E+01
     -6.363  0.1357E+01  0.4170E+01
     -6.239  0.1471E+01  0.4343E+01
     -6.116  0.1554E+01  0.4534E+01
     -5.992  0.1586E+01  0.4726E+01
     -5.869  0.1517E+01  0.4916E+01
     -5.745  0.1512E+01  0.5104E+01
     -5.622  0.1439E+01  0.5286E+01
     -5.498  0.1416E+01  0.5463E+01
     -5.375  0.1409E+01  0.5637E+01
     -5.251  0.1325E+01  0.5806E+01
     -5.128  0.1294E+01  0.5967E+01
     -5.004  0.1261E+01  0.6125E+01
     -4.881  0.1233E+01  0.6278E+01
     -4.757  0.1216E+01  0.6430E+01
     -4.634  0.1147E+01  0.6575E+01
     -4.510  0.1107E+01  0.6714E+01
     -4.387  0.1061E+01  0.6848E+01
     -4.263  0.1025E+01  0.6977E+01
     -4.140  0.9902E+00  0.7101E+01
     -4.016  0.9659E+00  0.7222E+01
     -3.893  0.9315E+00  0.7339E+01
     -3.769  0.8829E+00  0.7451E+01
     -3.646  0.9785E+00  0.7562E+01
     -3.522  0.1040E+01  0.7684E+01
     -3.399  0.1079E+01  0.7818E+01
     -3.275  0.1027E+01  0.7947E+01
     -3.152  0.1005E+01  0.8071E+01
     -3.028  0.9200E+00  0.8191E+01
     -2.905  0.9437E+00  0.8306E+01
     -2.781  0.9965E+00  0.8425E+01
     -2.658  0.1021E+01  0.8548E+01
     -2.534  0.1181E+01  0.8683E+01
     -2.411  0.1388E+01  0.8842E+01
     -2.287  0.1631E+01  0.9028E+01
     -2.164  0.2048E+01  0.9253E+01
     -2.040  0.2467E+01  0.9530E+01
     -1.917  0.2759E+01  0.9858E+01
     -1.793  0.2486E+01  0.1018E+02
     -1.670  0.2135E+01  0.1047E+02
     -1.546  0.1902E+01  0.1072E+02
     -1.423  0.1763E+01  0.1094E+02
     -1.299  0.1660E+01  0.1115E+02
     -1.176  0.1574E+01  0.1135E+02
     -1.052  0.1452E+01  0.1154E+02
     -0.929  0.1377E+01  0.1171E+02
     -0.805  0.1330E+01  0.1188E+02
     -0.682  0.1276E+01  0.1204E+02
     -0.558  0.1229E+01  0.1219E+02
     -0.435  0.1174E+01  0.1234E+02
     -0.311  0.1136E+01  0.1249E+02
     -0.188  0.1088E+01  0.1262E+02
     -0.064  0.1054E+01  0.1275E+02
      0.059  0.1072E+01  0.1288E+02
      0.183  0.1073E+01  0.1302E+02
      0.306  0.1224E+01  0.1315E+02
      0.430  0.1517E+01  0.1333E+02
      0.553  0.1634E+01  0.1352E+02
      0.677  0.1747E+01  0.1373E+02
      0.800  0.1935E+01  0.1396E+02
      0.924  0.2223E+01  0.1421E+02
      1.047  0.2251E+01  0.1449E+02
      1.171  0.2356E+01  0.1477E+02
      1.294  0.2386E+01  0.1506E+02
      1.418  0.2167E+01  0.1535E+02
      1.541  0.1613E+01  0.1559E+02
      1.665  0.1477E+01  0.1577E+02
      1.788  0.1952E+01  0.1598E+02
      1.912  0.2357E+01  0.1624E+02
      2.035  0.2355E+01  0.1653E+02
      2.159  0.2237E+01  0.1682E+02
      2.282  0.2303E+01  0.1709E+02
      2.406  0.2361E+01  0.1738E+02
      2.529  0.2351E+01  0.1768E+02
      2.653  0.2436E+01  0.1797E+02
      2.776  0.2612E+01  0.1828E+02
      2.900  0.2860E+01  0.1862E+02
      3.023  0.2869E+01  0.1897E+02
      3.147  0.2920E+01  0.1933E+02
      3.270  0.2955E+01  0.1969E+02
      3.394  0.3003E+01  0.2005E+02
      3.517  0.3278E+01  0.2043E+02
      3.641  0.3362E+01  0.2085E+02
      3.764  0.3132E+01  0.2125E+02
      3.888  0.3235E+01  0.2164E+02
      4.011  0.3074E+01  0.2203E+02
      4.135  0.3117E+01  0.2240E+02
      4.258  0.3133E+01  0.2279E+02
      4.382  0.2885E+01  0.2316E+02
      4.505  0.2797E+01  0.2351E+02
      4.629  0.2832E+01  0.2386E+02
      4.752  0.3038E+01  0.2422E+02
      4.876  0.3063E+01  0.2460E+02
      4.999  0.2973E+01  0.2497E+02
      5.123  0.2950E+01  0.2533E+02
      5.246  0.2783E+01  0.2569E+02
      5.370  0.2745E+01  0.2603E+02
      5.493  0.2649E+01  0.2636E+02
      5.617  0.2702E+01  0.2669E+02
      5.740  0.2786E+01  0.2703E+02
      5.864  0.2773E+01  0.2737E+02
      5.987  0.2743E+01  0.2771E+02
      6.111  0.2702E+01  0.2805E+02
      6.234  0.2637E+01  0.2838E+02
      6.358  0.2875E+01  0.2872E+02
      6.481  0.2222E+01  0.2903E+02
      6.605  0.2131E+01  0.2927E+02
      6.728  0.2144E+01  0.2953E+02
      6.852  0.2085E+01  0.2978E+02
      6.975  0.2033E+01  0.3003E+02
      7.099  0.1695E+01  0.3025E+02
      7.222  0.1531E+01  0.3045E+02
      7.346  0.1323E+01  0.3062E+02
      7.469  0.1226E+01  0.3078E+02
      7.593  0.1131E+01  0.3092E+02
      7.716  0.1046E+01  0.3106E+02
      7.840  0.9659E+00  0.3118E+02
      7.963  0.8900E+00  0.3130E+02
      8.087  0.8149E+00  0.3140E+02
      8.210  0.7496E+00  0.3150E+02
      8.334  0.6846E+00  0.3159E+02
      8.457  0.6123E+00  0.3167E+02
      8.581  0.5487E+00  0.3174E+02
      8.704  0.4981E+00  0.3180E+02
      8.828  0.4094E+00  0.3186E+02
      8.951  0.3629E+00  0.3191E+02
      9.075  0.2633E+00  0.3195E+02
      9.198  0.1862E+00  0.3197E+02
      9.322  0.1007E+00  0.3199E+02
      9.445  0.1351E-01  0.3200E+02
      9.569  0.0000E+00  0.3200E+02
      9.692  0.0000E+00  0.3200E+02
      9.816  0.0000E+00  0.3200E+02
      9.939  0.0000E+00  0.3200E+02
     10.063  0.0000E+00  0.3200E+02
     10.186  0.0000E+00  0.3200E+02
     10.310  0.0000E+00  0.3200E+02
     10.433  0.0000E+00  0.3200E+02
     10.557  0.0000E+00  0.3200E+02
     10.680  0.0000E+00  0.3200E+02
     10.804  0.0000E+00  0.3200E+02
     10.927  0.0000E+00  0.3200E+02
     11.051  0.0000E+00  0.3200E+02
     11.174  0.0000E+00  0.3200E+02
     11.298  0.0000E+00  0.3200E+02
     11.421  0.0000E+00  0.3200E+02
     11.545  0.0000E+00  0.3200E+02
     11.668  0.0000E+00  0.3200E+02
     11.792  0.0000E+00  0.3200E+02
     11.915  0.0000E+00  0.3200E+02
     12.039  0.0000E+00  0.3200E+02
     12.162  0.0000E+00  0.3200E+02
     12.286  0.0000E+00  0.3200E+02
     12.409  0.0000E+00  0.3200E+02
     12.533  0.0000E+00  0.3200E+02
     12.656  0.0000E+00  0.3200E+02
     12.780  0.0000E+00  0.3200E+02
     12.903  0.0000E+00  0.3200E+02
     13.027  0.0000E+00  0.3200E+02
     13.150  0.0000E+00  0.3200E+02
     13.274  0.7349E-03  0.3200E+02
     13.397  0.1133E+00  0.3201E+02
     13.521  0.2578E+00  0.3203E+02
     13.644  0.3707E+00  0.3207E+02
     13.768  0.4359E+00  0.3211E+02
     13.891  0.5591E+00  0.3217E+02
     14.015  0.6935E+00  0.3225E+02
     14.138  0.7685E+00  0.3234E+02
     14.262  0.8793E+00  0.3244E+02
     14.385  0.1079E+01  0.3256E+02
     14.509  0.1272E+01  0.3270E+02
     14.632  0.1363E+01  0.3287E+02
     14.756  0.1449E+01  0.3304E+02
     14.879  0.1611E+01  0.3323E+02
     15.003  0.1731E+01  0.3343E+02
     15.126  0.1802E+01  0.3365E+02
     15.250  0.1888E+01  0.3388E+02
     15.373  0.1925E+01  0.3411E+02
     15.497  0.1956E+01  0.3435E+02
     15.620  0.2049E+01  0.3460E+02
     15.744  0.2122E+01  0.3486E+02
     15.867  0.2245E+01  0.3513E+02
     15.991  0.2362E+01  0.3541E+02
     16.114  0.2431E+01  0.3571E+02
     16.238  0.2464E+01  0.3601E+02
     16.361  0.2566E+01  0.3632E+02
     16.485  0.2723E+01  0.3665E+02
     16.608  0.2939E+01  0.3699E+02
     16.732  0.3035E+01  0.3736E+02
     16.855  0.3070E+01  0.3774E+02
     16.979  0.3346E+01  0.3813E+02
     17.102  0.3938E+01  0.3858E+02
     17.226  0.4479E+01  0.3910E+02
     17.349  0.4006E+01  0.3960E+02
     17.473  0.3962E+01  0.4009E+02
     17.596  0.4595E+01  0.4059E+02
     17.720  0.4268E+01  0.4110E+02
     17.843  0.3733E+01  0.4157E+02
     17.967  0.3465E+01  0.4201E+02
     18.090  0.3452E+01  0.4243E+02
     18.214  0.3831E+01  0.4288E+02
     18.337  0.3547E+01  0.4332E+02
     18.461  0.3305E+01  0.4374E+02
     18.584  0.3110E+01  0.4414E+02
     18.708  0.3012E+01  0.4452E+02
     18.831  0.2861E+01  0.4488E+02
     18.955  0.2747E+01  0.4522E+02
     19.078  0.2742E+01  0.4556E+02
     19.202  0.2680E+01  0.4589E+02
     19.325  0.2651E+01  0.4622E+02
     19.449  0.2440E+01  0.4653E+02
     19.572  0.2214E+01  0.4682E+02
     19.696  0.2023E+01  0.4708E+02
     19.819  0.1821E+01  0.4731E+02
     19.943  0.1513E+01  0.4752E+02
     20.066  0.1160E+01  0.4769E+02
     20.190  0.7767E+00  0.4780E+02
     20.313  0.4940E+00  0.4788E+02
     20.437  0.3320E+00  0.4793E+02
     20.561  0.2003E+00  0.4796E+02
     20.684  0.1100E+00  0.4798E+02
     20.808  0.6551E-01  0.4799E+02
     20.931  0.2927E-01  0.4800E+02
     21.055  0.1507E-01  0.4800E+02
     21.178  0.4738E-02  0.4800E+02
     21.302  0.0000E+00  0.4800E+02
     21.425  0.0000E+00  0.4800E+02
     21.549  0.0000E+00  0.4800E+02
     21.672  0.0000E+00  0.4800E+02
     21.796  0.0000E+00  0.4800E+02
     21.919  0.0000E+00  0.4800E+02
     22.043  0.0000E+00  0.4800E+02
     22.166  0.0000E+00  0.4800E+02
     22.290  0.0000E+00  0.4800E+02
     22.413  0.0000E+00  0.4800E+02
     22.537  0.0000E+00  0.4800E+02
     22.660  0.0000E+00  0.4800E+02
     22.784  0.0000E+00  0.4800E+02
     22.907  0.0000E+00  0.4800E+02
     23.031  0.0000E+00  0.4800E+02
     23.154  0.0000E+00  0.4800E+02
     23.278  0.0000E+00  0.4800E+02
