    8    8    1    1
  0.5813127E+01  0.3644196E-09  0.3572749E-09  0.3572570E-09  0.5000000E-15
  1.000000000000000E-004
  CAR 
 C8                                      
     32   1305     24
 
  0.0000000E+00  0.0000000E+00  0.0000000E+00  0.2035416E-03
      1        -11.772907   1.000000
      2         -3.411982   1.000000
      3         -3.411982   1.000000
      4         -3.231541   1.000000
      5         -3.113615   1.000000
      6         -3.113615   1.000000
      7         -3.000412   1.000000
      8          2.945357   1.000000
      9          3.137738   1.000000
     10          3.137738   1.000000
     11          3.329799   1.000000
     12          3.422671   1.000000
     13          3.422671   1.000000
     14          9.179662   1.000000
     15          9.470640   1.000000
     16          9.479736   1.000000
     17         13.565200   0.000000
     18         13.936424   0.000000
     19         13.936425   0.000000
     20         14.318840   0.000000
     21         14.389227   0.000000
     22         14.389228   0.000000
     23         14.627879   0.000000
     24         14.800280   0.000000
 
  0.5882353E-01 -0.8666236E-19  0.0000000E+00  0.4070832E-03
      1        -11.742287   1.000000
      2         -4.303408   1.000000
      3         -3.213693   1.000000
      4         -3.121324   1.000000
      5         -3.068228   1.000000
      6         -2.980547   1.000000
      7         -2.489827   1.000000
      8          2.883380   1.000000
      9          3.065863   1.000000
     10          3.077739   1.000000
     11          3.260175   1.000000
     12          3.452320   1.000000
     13          3.452638   1.000000
     14          9.099599   1.000000
     15          9.339692   1.000000
     16          9.348328   1.000000
     17         13.688179   0.000000
     18         14.057712   0.000000
     19         14.065621   0.000000
     20         14.143485   0.000000
     21         14.446213   0.000000
     22         14.704559   0.000000
     23         14.725764   0.000000
     24         14.959816   0.000000
 
  0.1176471E+00  0.2375964E-18  0.0000000E+00  0.4070832E-03
      1        -11.650479   1.000000
      2         -5.158814   1.000000
      3         -3.161580   1.000000
      4         -3.092593   1.000000
      5         -2.986200   1.000000
      6         -2.922328   1.000000
      7         -1.543210   1.000000
      8          2.708814   1.000000
      9          2.874186   1.000000
     10          2.897462   1.000000
     11          3.063418   1.000000
     12          3.541421   1.000000
     13          3.542041   1.000000
     14          8.864278   1.000000
     15          8.988493   1.000000
     16          8.996171   1.000000
     17         13.962586   0.000000
     18         14.045779   0.000000
     19         14.417978   0.000000
     20         14.433358   0.000000
     21         14.816052   0.000000
     22         14.851330   0.000000
     23         15.395899   0.000000
     24         15.540463   0.000000
 
  0.1764706E+00  0.7357227E-19  0.0000000E+00  0.4070832E-03
      1        -11.497608   1.000000
      2         -5.973683   1.000000
      3         -3.078720   1.000000
      4         -3.030813   1.000000
      5         -2.871525   1.000000
      6         -2.828925   1.000000
      7         -0.579023   1.000000
      8          2.451505   1.000000
      9          2.593582   1.000000
     10          2.627377   1.000000
     11          2.771023   1.000000
     12          3.689537   1.000000
     13          3.690496   1.000000
     14          8.485503   1.000000
     15          8.500347   1.000000
     16          8.508151   1.000000
     17         13.841791   0.000000
     18         14.608963   0.000000
     19         14.823605   0.000000
     20         14.987043   0.000000
     21         15.008991   0.000000
     22         15.396875   0.000000
     23         16.023851   0.000000
     24         16.082476   0.000000
 
  0.2352941E+00  0.4751927E-18  0.0000000E+00  0.4070832E-03
      1        -11.283989   1.000000
      2         -6.744055   1.000000
      3         -2.972096   1.000000
      4         -2.942327   1.000000
      5         -2.730873   1.000000
      6         -2.706888   1.000000
      7          0.394491   1.000000
      8          2.150226   1.000000
      9          2.264109   1.000000
     10          2.307042   1.000000
     11          2.423588   1.000000
     12          3.895884   1.000000
     13          3.897214   1.000000
     14          7.945779   1.000000
     15          7.948003   1.000000
     16          7.987985   1.000000
     17         13.776379   0.000000
     18         14.713440   0.000000
     19         15.340209   0.000000
     20         15.725882   0.000000
     21         15.753518   0.000000
     22         16.113093   0.000000
     23         16.148022   0.000000
     24         16.772551   0.000000
 
  0.2941176E+00  0.6326971E-19  0.0000000E+00  0.4070832E-03
      1        -11.009992   1.000000
      2         -7.466631   1.000000
      3         -2.852585   1.000000
      4         -2.837392   1.000000
      5         -2.575856   1.000000
      6         -2.566901   1.000000
      7          1.368653   1.000000
      8          1.845344   1.000000
      9          1.927677   1.000000
     10          1.977176   1.000000
     11          2.063202   1.000000
     12          4.159342   1.000000
     13          4.161087   1.000000
     14          7.358429   1.000000
     15          7.370205   1.000000
     16          7.393234   1.000000
     17         13.761509   0.000000
     18         14.568421   0.000000
     19         16.200982   0.000000
     20         16.593808   0.000000
     21         16.626459   0.000000
     22         16.745223   0.000000
     23         17.027289   0.000000
     24         17.614225   0.000000
 
  0.3529412E+00  0.6226778E-19  0.0000000E+00  0.4070832E-03
      1        -10.676111   1.000000
      2         -8.138756   1.000000
      3         -2.735455   1.000000
      4         -2.730356   1.000000
      5         -2.425045   1.000000
      6         -2.424151   1.000000
      7          1.575749   1.000000
      8          1.625866   1.000000
      9          1.676561   1.000000
     10          1.730940   1.000000
     11          2.334040   1.000000
     12          4.478346   1.000000
     13          4.480557   1.000000
     14          6.676269   1.000000
     15          6.801073   1.000000
     16          6.809166   1.000000
     17         13.792052   0.000000
     18         14.408981   0.000000
     19         17.153417   0.000000
     20         17.461146   0.000000
     21         17.549981   0.000000
     22         17.587237   0.000000
     23         17.994197   0.000000
     24         18.459675   0.000000
 
  0.4117647E+00  0.1461426E-18  0.0000000E+00  0.4070832E-03
      1        -10.283221   1.000000
      2         -8.758183   1.000000
      3         -2.640140   1.000000
      4         -2.640068   1.000000
      5         -2.304361   1.000000
      6         -2.299810   1.000000
      7          1.377454   1.000000
      8          1.399867   1.000000
      9          1.441331   1.000000
     10          1.467318   1.000000
     11          3.280868   1.000000
     12          4.850795   1.000000
     13          4.853541   1.000000
     14          5.908296   1.000000
     15          6.255289   1.000000
     16          6.260826   1.000000
     17         13.862505   0.000000
     18         14.248463   0.000000
     19         18.153343   0.000000
     20         18.251353   0.000000
     21         18.538424   0.000000
     22         18.586615   0.000000
     23         19.017283   0.000000
     24         19.315548   0.000000
 
  0.4705882E+00  0.9503854E-18  0.0000000E+00  0.4070832E-03
      1         -9.831770   1.000000
      2         -9.322960   1.000000
      3         -2.587193   1.000000
      4         -2.586581   1.000000
      5         -2.232105   1.000000
      6         -2.229761   1.000000
      7          1.280657   1.000000
      8          1.287031   1.000000
      9          1.302603   1.000000
     10          1.310444   1.000000
     11          4.199104   1.000000
     12          5.078496   1.000000
     13          5.273858   1.000000
     14          5.277272   1.000000
     15          5.743757   1.000000
     16          5.748036   1.000000
     17         13.966883   0.000000
     18         14.098138   0.000000
     19         19.095130   0.000000
     20         19.101065   0.000000
     21         19.364442   0.000000
     22         19.503672   0.000000
     23         19.748764   0.000000
     24         19.955875   0.000000
 
 -0.1575634E-18  0.5882353E-01  0.0000000E+00  0.4070832E-03
      1        -11.741040   1.000000
      2         -4.030343   1.000000
      3         -3.416684   1.000000
      4         -3.364875   1.000000
      5         -3.213541   1.000000
      6         -2.980220   1.000000
      7         -2.168062   1.000000
      8          2.878203   1.000000
      9          3.163682   1.000000
     10          3.173481   1.000000
     11          3.254800   1.000000
     12          3.345094   1.000000
     13          3.355017   1.000000
     14          9.054506   1.000000
     15          9.335296   1.000000
     16          9.400376   1.000000
     17         13.680029   0.000000
     18         13.695555   0.000000
     19         14.268385   0.000000
     20         14.453547   0.000000
     21         14.517482   0.000000
     22         14.524732   0.000000
     23         14.655659   0.000000
     24         14.949902   0.000000
 
  0.5882353E-01  0.5882353E-01  0.0000000E+00  0.4070832E-03
      1        -11.711768   1.000000
      2         -4.255696   1.000000
      3         -3.984203   1.000000
      4         -3.217799   1.000000
      5         -2.945120   1.000000
      6         -2.500550   1.000000
      7         -2.182874   1.000000
      8          2.644736   1.000000
      9          3.101261   1.000000
     10          3.114669   1.000000
     11          3.374743   1.000000
     12          3.379874   1.000000
     13          3.394877   1.000000
     14          8.912883   1.000000
     15          9.188813   1.000000
     16          9.343505   1.000000
     17         13.806195   0.000000
     18         14.007496   0.000000
     19         14.275784   0.000000
     20         14.367811   0.000000
     21         14.381470   0.000000
     22         14.824826   0.000000
     23         14.851789   0.000000
     24         15.106133   0.000000
 
  0.1176471E+00  0.5882353E-01  0.0000000E+00  0.4070832E-03
      1        -11.621331   1.000000
      2         -5.111184   1.000000
      3         -3.894956   1.000000
      4         -3.191258   1.000000
      5         -2.870582   1.000000
      6         -2.170319   1.000000
      7         -1.561636   1.000000
      8          2.328901   1.000000
      9          2.899448   1.000000
     10          2.956911   1.000000
     11          3.365685   1.000000
     12          3.464465   1.000000
     13          3.495907   1.000000
     14          8.549879   1.000000
     15          8.831545   1.000000
     16          9.152199   1.000000
     17         14.091109   0.000000
     18         14.175513   0.000000
     19         14.526790   0.000000
     20         14.535947   0.000000
     21         14.729101   0.000000
     22         15.104102   0.000000
     23         15.465748   0.000000
     24         15.513926   0.000000
 
  0.1764706E+00  0.5882353E-01  0.0000000E+00  0.4070832E-03
      1        -11.469890   1.000000
      2         -5.926404   1.000000
      3         -3.765031   1.000000
      4         -3.140592   1.000000
      5         -2.757817   1.000000
      6         -2.135563   1.000000
      7         -0.608072   1.000000
      8          1.969849   1.000000
      9          2.599401   1.000000
     10          2.720037   1.000000
     11          3.224176   1.000000
     12          3.613615   1.000000
     13          3.658467   1.000000
     14          8.056933   1.000000
     15          8.344023   1.000000
     16          8.814278   1.000000
     17         13.966159   0.000000
     18         14.756187   0.000000
     19         14.944354   0.000000
     20         15.054588   0.000000
     21         15.217535   0.000000
     22         15.282893   0.000000
     23         16.045465   0.000000
     24         16.108197   0.000000
 
  0.2352941E+00  0.5882353E-01  0.0000000E+00  0.4070832E-03
      1        -11.257700   1.000000
      2         -6.697370   1.000000
      3         -3.599110   1.000000
      4         -3.076772   1.000000
      5         -2.610489   1.000000
      6         -2.087817   1.000000
      7          0.351046   1.000000
      8          1.608633   1.000000
      9          2.240756   1.000000
     10          2.444014   1.000000
     11          2.986454   1.000000
     12          3.821292   1.000000
     13          3.882976   1.000000
     14          7.493146   1.000000
     15          7.793345   1.000000
     16          8.350045   1.000000
     17         13.896236   0.000000
     18         14.925432   0.000000
     19         15.507979   0.000000
     20         15.559750   0.000000
     21         16.004845   0.000000
     22         16.043277   0.000000
     23         16.222654   0.000000
     24         16.791044   0.000000
 
  0.2941176E+00  0.5882353E-01  0.0000000E+00  0.4070832E-03
      1        -10.985121   1.000000
      2         -7.420770   1.000000
      3         -3.404529   1.000000
      4         -3.015667   1.000000
      5         -2.435223   1.000000
      6         -2.040628   1.000000
      7          1.285254   1.000000
      8          1.304895   1.000000
      9          1.863202   1.000000
     10          2.171611   1.000000
     11          2.692574   1.000000
     12          4.086235   1.000000
     13          4.170149   1.000000
     14          6.892223   1.000000
     15          7.223022   1.000000
     16          7.788445   1.000000
     17         13.876513   0.000000
     18         14.770319   0.000000
     19         16.338993   0.000000
     20         16.390733   0.000000
     21         16.831983   0.000000
     22         16.853475   0.000000
     23         16.969770   0.000000
     24         17.615714   0.000000
 
  0.3529412E+00  0.5882353E-01  0.0000000E+00  0.4070832E-03
      1        -10.652908   1.000000
      2         -8.093694   1.000000
      3         -3.193286   1.000000
      4         -2.977468   1.000000
      5         -2.242277   1.000000
      6         -2.012103   1.000000
      7          1.037641   1.000000
      8          1.503776   1.000000
      9          1.943865   1.000000
     10          2.240956   1.000000
     11          2.383743   1.000000
     12          4.406787   1.000000
     13          4.521337   1.000000
     14          6.266839   1.000000
     15          6.659661   1.000000
     16          7.162672   1.000000
     17         13.902016   0.000000
     18         14.604147   0.000000
     19         17.235440   0.000000
     20         17.366730   0.000000
     21         17.538761   0.000000
     22         17.780625   0.000000
     23         17.963976   0.000000
     24         18.462787   0.000000
 
  0.4117647E+00  0.5882353E-01  0.0000000E+00  0.4070832E-03
      1        -10.261466   1.000000
      2         -8.714115   1.000000
      3         -2.983418   1.000000
      4         -2.982926   1.000000
      5         -2.047650   1.000000
      6         -2.021263   1.000000
      7          0.898098   1.000000
      8          1.198330   1.000000
      9          1.795962   1.000000
     10          2.099550   1.000000
     11          3.144852   1.000000
     12          4.780741   1.000000
     13          4.938768   1.000000
     14          5.609264   1.000000
     15          6.119842   1.000000
     16          6.513949   1.000000
     17         13.967098   0.000000
     18         14.438540   0.000000
     19         18.193223   0.000000
     20         18.320616   0.000000
     21         18.396820   0.000000
     22         18.694437   0.000000
     23         18.999796   0.000000
     24         19.317956   0.000000
 
  0.4705882E+00  0.5882353E-01  0.0000000E+00  0.4070832E-03
      1         -9.811658   1.000000
      2         -9.280085   1.000000
      3         -3.044705   1.000000
      4         -2.799515   1.000000
      5         -2.081381   1.000000
      6         -1.873406   1.000000
      7          0.885978   1.000000
      8          0.983229   1.000000
      9          1.750825   1.000000
     10          1.878258   1.000000
     11          4.000921   1.000000
     12          4.895198   1.000000
     13          5.205152   1.000000
     14          5.424919   1.000000
     15          5.614343   1.000000
     16          5.891763   1.000000
     17         14.065672   0.000000
     18         14.283354   0.000000
     19         19.098571   0.000000
     20         19.104184   0.000000
     21         19.154395   0.000000
     22         19.421822   0.000000
     23         19.963458   0.000000
     24         20.010845   0.000000
 
 -0.4705882E+00  0.5882353E-01  0.0000000E+00  0.4070832E-03
      1         -9.790008   1.000000
      2         -9.304626   1.000000
      3         -3.160099   1.000000
      4         -2.669714   1.000000
      5         -2.193446   1.000000
      6         -1.745546   1.000000
      7          0.892774   1.000000
      8          1.000988   1.000000
      9          1.755113   1.000000
     10          1.812736   1.000000
     11          4.105205   1.000000
     12          4.796033   1.000000
     13          5.150511   1.000000
     14          5.335421   1.000000
     15          5.676082   1.000000
     16          5.978465   1.000000
     17         14.147096   0.000000
     18         14.190821   0.000000
     19         18.390498   0.000000
     20         19.225008   0.000000
     21         19.399887   0.000000
     22         19.456629   0.000000
     23         19.838933   0.000000
     24         20.225182   0.000000
 
 -0.4117647E+00  0.5882353E-01  0.0000000E+00  0.4070832E-03
      1        -10.242464   1.000000
      2         -8.741560   1.000000
      3         -3.312989   1.000000
      4         -2.613655   1.000000
      5         -2.345139   1.000000
      6         -1.685322   1.000000
      7          0.948424   1.000000
      8          1.224897   1.000000
      9          1.754211   1.000000
     10          1.967009   1.000000
     11          3.244449   1.000000
     12          4.733558   1.000000
     13          4.856366   1.000000
     14          5.528075   1.000000
     15          6.188102   1.000000
     16          6.585111   1.000000
     17         14.037602   0.000000
     18         14.334554   0.000000
     19         17.412886   0.000000
     20         18.386185   0.000000
     21         18.399319   0.000000
     22         18.798050   0.000000
     23         19.179062   0.000000
     24         19.336494   0.000000
 
 -0.3529412E+00  0.5882353E-01  0.0000000E+00  0.4070832E-03
      1        -10.636634   1.000000
      2         -8.124205   1.000000
      3         -3.481880   1.000000
      4         -2.629583   1.000000
      5         -2.517555   1.000000
      6         -1.696482   1.000000
      7          1.146035   1.000000
      8          1.529852   1.000000
      9          1.876447   1.000000
     10          2.186318   1.000000
     11          2.332188   1.000000
     12          4.367295   1.000000
     13          4.449934   1.000000
     14          6.209685   1.000000
     15          6.733490   1.000000
     16          7.212586   1.000000
     17         13.961494   0.000000
     18         14.487024   0.000000
     19         16.446649   0.000000
     20         17.372624   0.000000
     21         17.599357   0.000000
     22         17.860554   0.000000
     23         18.340949   0.000000
     24         18.457653   0.000000
 
 -0.2941176E+00  0.5882353E-01  0.0000000E+00  0.4070832E-03
      1        -10.971721   1.000000
      2         -7.454263   1.000000
      3         -3.647035   1.000000
      4         -2.695716   1.000000
      5         -2.692079   1.000000
      6         -1.762854   1.000000
      7          1.387439   1.000000
      8          1.456665   1.000000
      9          1.884732   1.000000
     10          2.096691   1.000000
     11          2.436841   1.000000
     12          4.054599   1.000000
     13          4.110365   1.000000
     14          6.856632   1.000000
     15          7.300793   1.000000
     16          7.820041   1.000000
     17         13.924984   0.000000
     18         14.636121   0.000000
     19         15.558238   0.000000
     20         16.398068   0.000000
     21         16.885833   0.000000
     22         16.924885   0.000000
     23         17.518093   0.000000
     24         17.609023   0.000000
 
 -0.2352941E+00  0.5882353E-01  0.0000000E+00  0.4070832E-03
      1        -11.246952   1.000000
      2         -6.734072   1.000000
      3         -3.793332   1.000000
      4         -2.853811   1.000000
      5         -2.783626   1.000000
      6         -1.859042   1.000000
      7          0.425693   1.000000
      8          1.839920   1.000000
      9          2.256682   1.000000
     10          2.373890   1.000000
     11          2.681435   1.000000
     12          3.797652   1.000000
     13          3.834341   1.000000
     14          7.473429   1.000000
     15          7.872217   1.000000
     16          8.369402   1.000000
     17         13.933544   0.000000
     18         14.765523   0.000000
     19         14.791748   0.000000
     20         15.515747   0.000000
     21         16.066982   0.000000
     22         16.253288   0.000000
     23         16.739704   0.000000
     24         16.818420   0.000000
 
 -0.1764706E+00  0.5882353E-01  0.0000000E+00  0.4070832E-03
      1        -11.461818   1.000000
      2         -5.966480   1.000000
      3         -3.910788   1.000000
      4         -2.992333   1.000000
      5         -2.869924   1.000000
      6         -1.961663   1.000000
      7         -0.540335   1.000000
      8          2.253555   1.000000
      9          2.610025   1.000000
     10          2.662062   1.000000
     11          2.880672   1.000000
     12          3.598103   1.000000
     13          3.620317   1.000000
     14          8.047218   1.000000
     15          8.418946   1.000000
     16          8.827074   1.000000
     17         13.992246   0.000000
     18         14.188308   0.000000
     19         14.763272   0.000000
     20         14.847358   0.000000
     21         15.333121   0.000000
     22         15.703327   0.000000
     23         16.039265   0.000000
     24         16.134079   0.000000
 
 -0.1176471E+00  0.5882353E-01  0.0000000E+00  0.4070832E-03
      1        -11.615952   1.000000
      2         -5.155011   1.000000
      3         -3.992054   1.000000
      4         -3.100593   1.000000
      5         -2.937797   1.000000
      6         -2.053684   1.000000
      7         -1.500059   1.000000
      8          2.655398   1.000000
      9          2.905695   1.000000
     10          2.915694   1.000000
     11          2.996433   1.000000
     12          3.457210   1.000000
     13          3.467604   1.000000
     14          8.545017   1.000000
     15          8.893801   1.000000
     16          9.162175   1.000000
     17         13.787175   0.000000
     18         14.105898   0.000000
     19         14.180993   0.000000
     20         14.764706   0.000000
     21         14.826745   0.000000
     22         15.324295   0.000000
     23         15.464082   0.000000
     24         15.647474   0.000000
 
 -0.5882353E-01  0.5882353E-01  0.0000000E+00  0.4070832E-03
      1        -11.709077   1.000000
      2         -4.303474   1.000000
      3         -4.032761   1.000000
      4         -3.174830   1.000000
      5         -2.976672   1.000000
      6         -2.444277   1.000000
      7         -2.124498   1.000000
      8          2.999332   1.000000
      9          3.002771   1.000000
     10          3.093247   1.000000
     11          3.104078   1.000000
     12          3.375941   1.000000
     13          3.375952   1.000000
     14          8.909688   1.000000
     15          9.225731   1.000000
     16          9.350782   1.000000
     17         13.618775   0.000000
     18         13.809183   0.000000
     19         14.279404   0.000000
     20         14.400001   0.000000
     21         14.695034   0.000000
     22         14.782454   0.000000
     23         14.842623   0.000000
     24         15.078899   0.000000
 
  0.9099281E-19  0.1176471E+00  0.0000000E+00  0.4070832E-03
      1        -11.645480   1.000000
      2         -4.912200   1.000000
      3         -3.380099   1.000000
      4         -3.276602   1.000000
      5         -3.160966   1.000000
      6         -2.920907   1.000000
      7         -1.200903   1.000000
      8          2.689880   1.000000
      9          3.043651   1.000000
     10          3.135423   1.000000
     11          3.154881   1.000000
     12          3.251078   1.000000
     13          3.270826   1.000000
     14          8.715559   1.000000
     15          8.971697   1.000000
     16          9.167598   1.000000
     17         13.493963   0.000000
     18         14.073769   0.000000
     19         14.651895   0.000000
     20         14.680879   0.000000
     21         14.843847   0.000000
     22         14.896491   0.000000
     23         14.910530   0.000000
     24         15.362083   0.000000
 
  0.5882353E-01  0.1176471E+00  0.0000000E+00  0.4070832E-03
      1        -11.617596   1.000000
      2         -4.865930   1.000000
      3         -4.161103   1.000000
      4         -3.191054   1.000000
      5         -2.869378   1.000000
      6         -2.477632   1.000000
      7         -1.225044   1.000000
      8          2.316400   1.000000
      9          3.156381   1.000000
     10          3.198998   1.000000
     11          3.214484   1.000000
     12          3.215468   1.000000
     13          3.349751   1.000000
     14          8.505561   1.000000
     15          8.819170   1.000000
     16          9.212917   1.000000
     17         13.616609   0.000000
     18         14.546324   0.000000
     19         14.557755   0.000000
     20         14.662682   0.000000
     21         14.785652   0.000000
     22         14.879270   0.000000
     23         15.192074   0.000000
     24         15.489992   0.000000
 
  0.1176471E+00  0.1176471E+00  0.0000000E+00  0.4070832E-03
      1        -11.528603   1.000000
      2         -5.012472   1.000000
      3         -4.771914   1.000000
      4         -3.196984   1.000000
      5         -2.779394   1.000000
      6         -1.557542   1.000000
      7         -1.235389   1.000000
      8          1.899908   1.000000
      9          2.989683   1.000000
     10          3.086733   1.000000
     11          3.239547   1.000000
     12          3.340130   1.000000
     13          3.528967   1.000000
     14          8.065487   1.000000
     15          8.467547   1.000000
     16          9.181084   1.000000
     17         13.986315   0.000000
     18         14.477808   0.000000
     19         14.513895   0.000000
     20         15.119433   0.000000
     21         15.192370   0.000000
     22         15.346009   0.000000
     23         15.614643   0.000000
     24         15.809750   0.000000
 
  0.1764706E+00  0.1176471E+00  0.0000000E+00  0.4070832E-03
      1        -11.378670   1.000000
      2         -5.825010   1.000000
      3         -4.631791   1.000000
      4         -3.189767   1.000000
      5         -2.650341   1.000000
      6         -1.238969   1.000000
      7         -0.629882   1.000000
      8          1.481879   1.000000
      9          2.675092   1.000000
     10          2.894049   1.000000
     11          3.383621   1.000000
     12          3.534277   1.000000
     13          3.568943   1.000000
     14          7.529864   1.000000
     15          7.990934   1.000000
     16          8.979711   1.000000
     17         14.351498   0.000000
     18         14.569969   0.000000
     19         14.721409   0.000000
     20         15.496297   0.000000
     21         15.655997   0.000000
     22         15.979413   0.000000
     23         15.999549   0.000000
     24         16.271346   0.000000
 
  0.2352941E+00  0.1176471E+00  0.0000000E+00  0.4070832E-03
      1        -11.168068   1.000000
      2         -6.594304   1.000000
      3         -4.448628   1.000000
      4         -3.185444   1.000000
      5         -2.483733   1.000000
      6         -1.248004   1.000000
      7          0.293041   1.000000
      8          1.103160   1.000000
      9          2.295239   1.000000
     10          2.677887   1.000000
     11          3.481298   1.000000
     12          3.587213   1.000000
     13          3.800234   1.000000
     14          6.946952   1.000000
     15          7.452096   1.000000
     16          8.616007   1.000000
     17         14.279144   0.000000
     18         15.165111   0.000000
     19         15.326094   0.000000
     20         15.360949   0.000000
     21         16.357554   0.000000
     22         16.529959   0.000000
     23         16.757240   0.000000
     24         16.904888   0.000000
 
  0.2941176E+00  0.1176471E+00  0.0000000E+00  0.4070832E-03
      1        -10.897337   1.000000
      2         -7.316753   1.000000
      3         -4.227455   1.000000
      4         -3.204896   1.000000
      5         -2.283229   1.000000
      6         -1.278877   1.000000
      7          0.803034   1.000000