       N       E                     dE             d eps       ncg     rms          rms(c)
DAV:   1     0.670997567118E+02    0.67100E+02   -0.17820E+04 62640   0.130E+03
DAV:   2    -0.720350726856E+02   -0.13913E+03   -0.13661E+03 83244   0.229E+02
DAV:   3    -0.750119347749E+02   -0.29769E+01   -0.29730E+01 88392   0.364E+01
DAV:   4    -0.750317501009E+02   -0.19815E-01   -0.19808E-01 81432   0.302E+00
DAV:   5    -0.750320525258E+02   -0.30242E-03   -0.30236E-03 87588   0.346E-01    0.108E+01
RMM:   6    -0.732451646071E+02    0.17869E+01   -0.11145E+00 62780   0.608E+00    0.639E+00
RMM:   7    -0.726460576987E+02    0.59911E+00   -0.17952E+00 69310   0.819E+00    0.135E+00
RMM:   8    -0.726596615219E+02   -0.13604E-01   -0.10283E-01 67636   0.238E+00    0.231E-01
RMM:   9    -0.726606853920E+02   -0.10239E-02   -0.19498E-02 73876   0.934E-01    0.120E-01
RMM:  10    -0.726608356980E+02   -0.15031E-03   -0.28588E-03 73578   0.355E-01    0.354E-02
RMM:  11    -0.726609032818E+02   -0.67584E-04   -0.68194E-04 77682   0.152E-01    0.938E-03
RMM:  12    -0.726609137159E+02   -0.10434E-04   -0.10193E-04 78690   0.622E-02    0.147E-02
RMM:  13    -0.726609189120E+02   -0.51960E-05   -0.26438E-05 76332   0.256E-02    0.293E-03
RMM:  14    -0.726609186992E+02    0.21271E-06   -0.38791E-06 63310   0.110E-02
   1 F= -.72660919E+02 E0= -.72660919E+02  d E =0.000000E+00
