 vasp.6.4.3 19Mar24 (build Oct 21 2024 22:36:34) complex                        
  
 executed on             LinuxIFC date 2024.12.26  00:34:21
 running   96 mpi-ranks, on    1 nodes
 distrk:  each k-point on   12 cores,    8 groups
 distr:  one band on NCORE=   1 cores,   12 groups


--------------------------------------------------------------------------------------------------------


 INCAR:
   SYSTEM = C8
   ISTART = 0
   ICHARG = 2
   LREAL = Auto
   PREC = Normal
   LWAVE = .False.
   LCHARG = .False.
   ADDGRID = .True.
   ENCUT = 520
   ISMEAR = -5
   NELM = 60
   NELMIN = 8
   EDIFF = 1e-06
   NSW = 0
   IBRION = -1
   ISIF = 2
   KPAR = 8
   ALGO = Fast

 POTCAR:    PAW_PBE C 08Apr2002                   
 -----------------------------------------------------------------------------
|                                                                             |
|           W    W    AA    RRRRR   N    N  II  N    N   GGGG   !!!           |
|           W    W   A  A   R    R  NN   N  II  NN   N  G    G  !!!           |
|           W    W  A    A  R    R  N N  N  II  N N  N  G       !!!           |
|           W WW W  AAAAAA  RRRRR   N  N N  II  N  N N  G  GGG   !            |
|           WW  WW  A    A  R   R   N   NN  II  N   NN  G    G                |
|           W    W  A    A  R    R  N    N  II  N    N   GGGG   !!!           |
|                                                                             |
|     For optimal performance we recommend to set                             |
|       NCORE = 2 up to number-of-cores-per-socket                            |
|     NCORE specifies how many cores store one orbital (NPAR=cpu/NCORE).      |
|     This setting can greatly improve the performance of VASP for DFT.       |
|     The default, NCORE=1 might be grossly inefficient on modern             |
|     multi-core architectures or massively parallel machines. Do your        |
|     own testing! More info at https://www.vasp.at/wiki/index.php/NCORE      |
|     Unfortunately you need to use the default for GW and RPA                |
|     calculations (for HF NCORE is supported but not extensively tested      |
|     yet).                                                                   |
|                                                                             |
 -----------------------------------------------------------------------------

 POTCAR:    PAW_PBE C 08Apr2002                   
   VRHFIN =C: s2p2                                                                                  
   LEXCH  = PE                                                                                      
   EATOM  =   147.1560 eV,   10.8157 Ry                                                             
                                                                                                    
   TITEL  = PAW_PBE C 08Apr2002                                                                     
   LULTRA =        F    use ultrasoft PP ?                                                          
   IUNSCR =        1    unscreen: 0-lin 1-nonlin 2-no                                               
   RPACOR =    1.200    partial core radius                                                         
   POMASS =   12.011; ZVAL   =    4.000    mass and valenz                                          
   RCORE  =    1.500    outmost cutoff radius                                                       
   RWIGS  =    1.630; RWIGS  =    0.863    wigner-seitz radius (au A)                               
   ENMAX  =  400.000; ENMIN  =  300.000 eV                                                          
   ICORE  =        2    local potential                                                             
   LCOR   =        T    correct aug charges                                                         
   LPAW   =        T    paw PP                                                                      
   EAUG   =  644.873                                                                                
   DEXC   =    0.000                                                                                
   RMAX   =    1.529    core radius for proj-oper                                                   
   RAUG   =    1.300    factor for augmentation sphere                                              
   RDEP   =    1.501    radius for radial grids                                                     
   RDEPT  =    1.300    core radius for aug-charge                                                  
                                                                                                    
   Atomic configuration                                                                             
    4 entries                                                                                       
     n  l   j            E        occ.                                                              
     1  0  0.50      -273.3789   2.0000                                                             
     2  0  0.50       -13.7508   2.0000                                                             
     2  1  0.50        -5.2854   2.0000                                                             
     3  2  1.50        -5.4423   0.0000                                                             
   Description                                                                                      
     l       E           TYP  RCUT    TYP  RCUT                                                     
     0    -13.7508458     23  1.200                                                                 
     0     -8.2022199     23  1.200                                                                 
     1     -5.2854383     23  1.500                                                                 
     1     34.0145650     23  1.500                                                                 
     2     -5.4423304      7  1.500                                                                 
  local pseudopotential read in
  partial core-charges read in
  partial kinetic energy density read in
  atomic valenz-charges read in
  non local Contribution for L=           0  read in
    real space projection operators read in
  non local Contribution for L=           0  read in
    real space projection operators read in
  non local Contribution for L=           1  read in
    real space projection operators read in
  non local Contribution for L=           1  read in
    real space projection operators read in
    PAW grid and wavefunctions read in
 
   number of l-projection  operators is LMAX  =           4
   number of lm-projection operators is LMMAX =           8
 
 -----------------------------------------------------------------------------
|                                                                             |
|               ----> ADVICE to this user running VASP <----                  |
|                                                                             |
|     You have a (more or less) 'small supercell' and for smaller cells       |
|     it is recommended to use the reciprocal-space projection scheme!        |
|     The real-space optimization is not efficient for small cells and it     |
|     is also less accurate ...                                               |
|     Therefore, set LREAL=.FALSE. in the INCAR file.                         |
|                                                                             |
 -----------------------------------------------------------------------------

 Optimization of the real space projectors (new method)

 maximal supplied QI-value         = 25.13
 optimisation between [QCUT,QGAM] = [ 11.56, 23.12] = [ 37.43,149.72] Ry 
 Optimized for a Real-space Cutoff    1.04 Angstroem

   l    n(q)    QCUT    max X(q) W(low)/X(q) W(high)/X(q)  e(spline) 
   0      7    11.561   115.676    0.20E-03    0.60E-03    0.21E-06
   0      7    11.561    87.132    0.20E-03    0.59E-03    0.21E-06
   1      7    11.561     4.429    0.23E-03    0.35E-03    0.15E-06
   1      7    11.561     2.733    0.18E-03    0.25E-03    0.12E-06
  PAW_PBE C 08Apr2002                   :
 energy of atom  1       EATOM= -147.1560
 kinetic energy error for atom=    0.0071 (will be added to EATOM!!)
 
 
 POSCAR: C8
  positions in direct lattice
  velocities in cartesian coordinates


 exchange-correlation table for PE
   RHO(1)=    0.500       N(1)  =     2000
   RHO(2)=  100.500       N(2)  =     4000
 


--------------------------------------------------------------------------------------------------------


 ion  position               nearest neighbor table
   1  0.000  0.000  0.500-   4 1.55   6 1.55   2 1.57   8 1.57
   2  0.250  0.250  0.750-   3 1.55   5 1.55   1 1.57   7 1.57
   3  0.000  0.500  0.000-   2 1.55   8 1.55   6 1.57   4 1.57
   4  0.250  0.750  0.250-   1 1.55   7 1.55   5 1.57   3 1.57
   5  0.500  0.000  0.000-   2 1.55   8 1.55   6 1.57   4 1.57
   6  0.750  0.250  0.250-   1 1.55   7 1.55   5 1.57   3 1.57
   7  0.500  0.500  0.500-   4 1.55   6 1.55   2 1.57   8 1.57
   8  0.750  0.750  0.750-   3 1.55   5 1.55   1 1.57   7 1.57
 
  LATTYP: Found a simple monoclinic cell.
 ALAT       =     3.5727486383
 B/A-ratio  =     0.9999500029
 C/A-ratio  =     1.0199979078
 COS(beta)  =    -0.0198021471
  
  Lattice vectors:
  
 A1 = (   0.0357260001,   3.5725700112,   0.0000000000)
 A2 = (   0.0000000000,   0.0000000000,  -3.5725700112)
 A3 = (  -3.6440210115,  -0.0357260001,   0.0000000000)


Analysis of symmetry for initial positions (statically):
=====================================================================
 Subroutine PRICEL returns following result:
 
  LATTYP: Found a base centered monoclinic cell.
 ALAT       =     3.5727486383
 B/A-ratio  =     0.9999500029
 C/A-ratio  =     0.7071066812
 COS(beta)  =    -0.6928246312
  
  Lattice vectors:
  
 A1 = (   0.0178630001,   1.7862850056,  -1.7862850056)
 A2 = (   0.0178630001,   1.7862850056,   1.7862850056)
 A3 = (   1.8041475057,  -1.7684220056,   0.0000000000)
 
   4 primitive cells build up your supercell.
 

 Routine SETGRP: Setting up the symmetry group for a 
 simple monoclinic supercell.


 Subroutine GETGRP returns: Found  4 space group operations
 (whereof  2 operations were pure point group operations)
 out of a pool of  4 trial point group operations.


The static configuration has the point symmetry C_2 .
 The point group associated with its full space group is C_2h.


Analysis of symmetry for dynamics (positions and initial velocities):
=====================================================================
 Subroutine PRICEL returns following result:
 
  LATTYP: Found a base centered monoclinic cell.
 ALAT       =     3.5727486383
 B/A-ratio  =     0.9999500029
 C/A-ratio  =     0.7071066812
 COS(beta)  =    -0.6928246312
  
  Lattice vectors:
  
 A1 = (   0.0178630001,   1.7862850056,  -1.7862850056)
 A2 = (   0.0178630001,   1.7862850056,   1.7862850056)
 A3 = (   1.8041475057,  -1.7684220056,   0.0000000000)
 
   4 primitive cells build up your supercell.
 

 Routine SETGRP: Setting up the symmetry group for a 
 simple monoclinic supercell.


 Subroutine GETGRP returns: Found  4 space group operations
 (whereof  2 operations were pure point group operations)
 out of a pool of  4 trial point group operations.


The dynamic configuration has the point symmetry C_2 .
 The point group associated with its full space group is C_2h.


 Subroutine INISYM returns: Found  4 space group operations
 (whereof  2 operations are pure point group operations),
 and found     4 'primitive' translations


----------------------------------------------------------------------------------------

                                     Primitive cell                                     

  volume of cell :      11.6263

  direct lattice vectors                    reciprocal lattice vectors
     0.017863000  1.786285006 -1.786285006     0.271704522  0.277193472 -0.279910540
     0.017863000  1.786285006  1.786285006     0.271704522  0.277193472  0.279910540
     1.804147506 -1.768422006  0.000000000     0.548898070 -0.005489027  0.000000000

  length of vectors
     2.526251636  2.526251636  2.526314433     0.478549348  0.478549348  0.548925515

  position of ions in fractional coordinates (direct lattice)
     0.500000000  0.500000000  0.000000000
     0.750000000  0.250000000  0.500000000

  ion indices of the primitive-cell ions
   primitive index   ion index
                 1           1
                 2           2

----------------------------------------------------------------------------------------

 
 
 KPOINTS: Automatic mesh                          

Automatic generation of k-mesh.
 Grid dimensions read from file:
 generate k-points for:   17   17   17

 Generating k-lattice:

  Cartesian coordinates                     Fractional coordinates (reciprocal lattice)
     0.016144061 -0.000161442  0.000000000     0.058823529 -0.000000000  0.000000000
    -0.000161442  0.016466940  0.000000000     0.000000000  0.058823529  0.000000000
     0.000000000  0.000000000  0.016465326     0.000000000  0.000000000  0.058823529

  Length of vectors
     0.016144868  0.016467732  0.016465326

  Shift w.r.t. Gamma in fractional coordinates (k-lattice)
     0.000000000  0.000000000  0.000000000

 TETIRR: Found  14712 inequivalent tetrahedra from    29478
 
 Subroutine IBZKPT returns following result:
 ===========================================
 
 Found   1305 irreducible k-points:
 
 Following reciprocal coordinates:
            Coordinates               Weight
  0.000000  0.000000  0.000000      1.000000
  0.058824 -0.000000  0.000000      2.000000
  0.117647  0.000000  0.000000      2.000000
  0.176471  0.000000  0.000000      2.000000
  0.235294  0.000000  0.000000      2.000000
  0.294118  0.000000  0.000000      2.000000
  0.352941  0.000000  0.000000      2.000000
  0.411765  0.000000  0.000000      2.000000
  0.470588  0.000000  0.000000      2.000000
 -0.000000  0.058824  0.000000      2.000000
  0.058824  0.058824  0.000000      2.000000
  0.117647  0.058824  0.000000      2.000000
  0.176471  0.058824  0.000000      2.000000
  0.235294  0.058824  0.000000      2.000000
  0.294118  0.058824  0.000000      2.000000
  0.352941  0.058824  0.000000      2.000000
  0.411765  0.058824  0.000000      2.000000
  0.470588  0.058824  0.000000      2.000000
 -0.470588  0.058824  0.000000      2.000000
 -0.411765  0.058824  0.000000      2.000000
 -0.352941  0.058824  0.000000      2.000000
 -0.294118  0.058824  0.000000      2.000000
 -0.235294  0.058824  0.000000      2.000000
 -0.176471  0.058824  0.000000      2.000000
 -0.117647  0.058824  0.000000      2.000000
 -0.058824  0.058824  0.000000      2.000000
  0.000000  0.117647  0.000000      2.000000
  0.058824  0.117647  0.000000      2.000000
  0.117647  0.117647  0.000000      2.000000
  0.176471  0.117647  0.000000      2.000000
  0.235294  0.117647  0.000000      2.000000
  0.294118  0.117647  0.000000      2.000000
  0.352941  0.117647  0.000000      2.000000
  0.411765  0.117647  0.000000      2.000000
  0.470588  0.117647  0.000000      2.000000
 -0.470588  0.117647  0.000000      2.000000
 -0.411765  0.117647  0.000000      2.000000
 -0.352941  0.117647  0.000000      2.000000
 -0.294118  0.117647  0.000000      2.000000
 -0.235294  0.117647  0.000000      2.000000
 -0.176471  0.117647  0.000000      2.000000
 -0.117647  0.117647  0.000000      2.000000
 -0.058824  0.117647  0.000000      2.000000
 -0.000000  0.176471  0.000000      2.000000
  0.058824  0.176471  0.000000      2.000000
  0.117647  0.176471  0.000000      2.000000
  0.176471  0.176471  0.000000      2.000000
  0.235294  0.176471  0.000000      2.000000
  0.294118  0.176471  0.000000      2.000000
  0.352941  0.176471  0.000000      2.000000
  0.411765  0.176471  0.000000      2.000000
  0.470588  0.176471  0.000000      2.000000
 -0.470588  0.176471  0.000000      2.000000
 -0.411765  0.176471  0.000000      2.000000
 -0.352941  0.176471  0.000000      2.000000
 -0.294118  0.176471  0.000000      2.000000
 -0.235294  0.176471  0.000000      2.000000
 -0.176471  0.176471  0.000000      2.000000
 -0.117647  0.176471  0.000000      2.000000
 -0.058824  0.176471  0.000000      2.000000
  0.000000  0.235294  0.000000      2.000000
  0.058824  0.235294  0.000000      2.000000
  0.117647  0.235294  0.000000      2.000000
  0.176471  0.235294  0.000000      2.000000
  0.235294  0.235294  0.000000      2.000000
  0.294118  0.235294  0.000000      2.000000
  0.352941  0.235294  0.000000      2.000000
  0.411765  0.235294  0.000000      2.000000
  0.470588  0.235294  0.000000      2.000000
 -0.470588  0.235294  0.000000      2.000000
 -0.411765  0.235294  0.000000      2.000000
 -0.352941  0.235294  0.000000      2.000000
 -0.294118  0.235294  0.000000      2.000000
 -0.235294  0.235294  0.000000      2.000000
 -0.176471  0.235294  0.000000      2.000000
 -0.117647  0.235294  0.000000      2.000000
 -0.058824  0.235294  0.000000      2.000000
 -0.000000  0.294118  0.000000      2.000000
  0.058824  0.294118  0.000000      2.000000
  0.117647  0.294118  0.000000      2.000000
  0.176471  0.294118  0.000000      2.000000
  0.235294  0.294118  0.000000      2.000000
  0.294118  0.294118  0.000000      2.000000
  0.352941  0.294118  0.000000      2.000000
  0.411765  0.294118  0.000000      2.000000
  0.470588  0.294118  0.000000      2.000000
 -0.470588  0.294118  0.000000      2.000000
 -0.411765  0.294118  0.000000      2.000000
 -0.352941  0.294118  0.000000      2.000000
 -0.294118  0.294118  0.000000      2.000000
 -0.235294  0.294118  0.000000      2.000000
 -0.176471  0.294118  0.000000      2.000000
 -0.117647  0.294118  0.000000      2.000000
 -0.058824  0.294118  0.000000      2.000000
  0.000000  0.352941  0.000000      2.000000
  0.058824  0.352941  0.000000      2.000000
  0.117647  0.352941  0.000000      2.000000
  0.176471  0.352941  0.000000      2.000000
  0.235294  0.352941  0.000000      2.000000
  0.294118  0.352941  0.000000      2.000000
  0.352941  0.352941  0.000000      2.000000
  0.411765  0.352941  0.000000      2.000000
  0.470588  0.352941  0.000000      2.000000
 -0.470588  0.352941  0.000000      2.000000
 -0.411765  0.352941  0.000000      2.000000
 -0.352941  0.352941  0.000000      2.000000
 -0.294118  0.352941  0.000000      2.000000
 -0.235294  0.352941  0.000000      2.000000
 -0.176471  0.352941  0.000000      2.000000
 -0.117647  0.352941  0.000000      2.000000
 -0.058824  0.352941  0.000000      2.000000
 -0.000000  0.411765  0.000000      2.000000
  0.058824  0.411765  0.000000      2.000000
  0.117647  0.411765  0.000000      2.000000
  0.176471  0.411765  0.000000      2.000000
  0.235294  0.411765  0.000000      2.000000
  0.294118  0.411765  0.000000      2.000000
  0.352941  0.411765  0.000000      2.000000
  0.411765  0.411765  0.000000      2.000000
  0.470588  0.411765  0.000000      2.000000
 -0.470588  0.411765  0.000000      2.000000
 -0.411765  0.411765  0.000000      2.000000
 -0.352941  0.411765  0.000000      2.000000
 -0.294118  0.411765  0.000000      2.000000
 -0.235294  0.411765  0.000000      2.000000
 -0.176471  0.411765  0.000000      2.000000
 -0.117647  0.411765  0.000000      2.000000
 -0.058824  0.411765  0.000000      2.000000
  0.000000  0.470588  0.000000      2.000000
  0.058824  0.470588  0.000000      2.000000
  0.117647  0.470588  0.000000      2.000000
  0.176471  0.470588  0.000000      2.000000
  0.235294  0.470588  0.000000      2.000000
  0.294118  0.470588  0.000000      2.000000
  0.352941  0.470588  0.000000      2.000000
  0.411765  0.470588  0.000000      2.000000
  0.470588  0.470588  0.000000      2.000000
 -0.470588  0.470588  0.000000      2.000000
 -0.411765  0.470588  0.000000      2.000000
 -0.352941  0.470588  0.000000      2.000000
 -0.294118  0.470588  0.000000      2.000000
 -0.235294  0.470588  0.000000      2.000000
 -0.176471  0.470588  0.000000      2.000000
 -0.117647  0.470588  0.000000      2.000000
 -0.058824  0.470588  0.000000      2.000000
  0.000000  0.000000  0.058824      2.000000
  0.058824 -0.000000  0.058824      4.000000
  0.117647  0.000000  0.058824      4.000000
  0.176471  0.000000  0.058824      4.000000
  0.235294  0.000000  0.058824      4.000000
  0.294118  0.000000  0.058824      4.000000
  0.352941  0.000000  0.058824      4.000000
  0.411765  0.000000  0.058824      4.000000
  0.470588  0.000000  0.058824      4.000000
 -0.000000  0.058824  0.058824      4.000000
  0.058824  0.058824  0.058824      4.000000
  0.117647  0.058824  0.058824      4.000000
  0.176471  0.058824  0.058824      4.000000
  0.235294  0.058824  0.058824      4.000000
  0.294118  0.058824  0.058824      4.000000
  0.352941  0.058824  0.058824      4.000000
  0.411765  0.058824  0.058824      4.000000
  0.470588  0.058824  0.058824      4.000000
 -0.470588  0.058824  0.058824      4.000000
 -0.411765  0.058824  0.058824      4.000000
 -0.352941  0.058824  0.058824      4.000000
 -0.294118  0.058824  0.058824      4.000000
 -0.235294  0.058824  0.058824      4.000000
 -0.176471  0.058824  0.058824      4.000000
 -0.117647  0.058824  0.058824      4.000000
 -0.058824  0.058824  0.058824      4.000000
  0.000000  0.117647  0.058824      4.000000
  0.058824  0.117647  0.058824      4.000000
  0.117647  0.117647  0.058824      4.000000
  0.176471  0.117647  0.058824      4.000000
  0.235294  0.117647  0.058824      4.000000
  0.294118  0.117647  0.058824      4.000000
  0.352941  0.117647  0.058824      4.000000
  0.411765  0.117647  0.058824      4.000000
  0.470588  0.117647  0.058824      4.000000
 -0.470588  0.117647  0.058824      4.000000
 -0.411765  0.117647  0.058824      4.000000
 -0.352941  0.117647  0.058824      4.000000
 -0.294118  0.117647  0.058824      4.000000
 -0.235294  0.117647  0.058824      4.000000
 -0.176471  0.117647  0.058824      4.000000
 -0.117647  0.117647  0.058824      4.000000
 -0.058824  0.117647  0.058824      4.000000
 -0.000000  0.176471  0.058824      4.000000
  0.058824  0.176471  0.058824      4.000000
  0.117647  0.176471  0.058824      4.000000
  0.176471  0.176471  0.058824      4.000000
  0.235294  0.176471  0.058824      4.000000
  0.294118  0.176471  0.058824      4.000000
  0.352941  0.176471  0.058824      4.000000
  0.411765  0.176471  0.058824      4.000000
  0.470588  0.176471  0.058824      4.000000
 -0.470588  0.176471  0.058824      4.000000
 -0.411765  0.176471  0.058824      4.000000
 -0.352941  0.176471  0.058824      4.000000
 -0.294118  0.176471  0.058824      4.000000
 -0.235294  0.176471  0.058824      4.000000
 -0.176471  0.176471  0.058824      4.000000
 -0.117647  0.176471  0.058824      4.000000
 -0.058824  0.176471  0.058824      4.000000
  0.000000  0.235294  0.058824      4.000000
  0.058824  0.235294  0.058824      4.000000
  0.117647  0.235294  0.058824      4.000000
  0.176471  0.235294  0.058824      4.000000
  0.235294  0.235294  0.058824      4.000000
  0.294118  0.235294  0.058824      4.000000
  0.352941  0.235294  0.058824      4.000000
  0.411765  0.235294  0.058824      4.000000
  0.470588  0.235294  0.058824      4.000000
 -0.470588  0.235294  0.058824      4.000000
 -0.411765  0.235294  0.058824      4.000000
 -0.352941  0.235294  0.058824      4.000000
 -0.294118  0.235294  0.058824      4.000000
 -0.235294  0.235294  0.058824      4.000000
 -0.176471  0.235294  0.058824      4.000000
 -0.117647  0.235294  0.058824      4.000000
 -0.058824  0.235294  0.058824      4.000000
 -0.000000  0.294118  0.058824      4.000000
  0.058824  0.294118  0.058824      4.000000
  0.117647  0.294118  0.058824      4.000000
  0.176471  0.294118  0.058824      4.000000
  0.235294  0.294118  0.058824      4.000000
  0.294118  0.294118  0.058824      4.000000
  0.352941  0.294118  0.058824      4.000000
  0.411765  0.294118  0.058824      4.000000
  0.470588  0.294118  0.058824      4.000000
 -0.470588  0.294118  0.058824      4.000000
 -0.411765  0.294118  0.058824      4.000000
 -0.352941  0.294118  0.058824      4.000000
 -0.294118  0.294118  0.058824      4.000000
 -0.235294  0.294118  0.058824      4.000000
 -0.176471  0.294118  0.058824      4.000000
 -0.117647  0.294118  0.058824      4.000000
 -0.058824  0.294118  0.058824      4.000000
  0.000000  0.352941  0.058824      4.000000
  0.058824  0.352941  0.058824      4.000000
  0.117647  0.352941  0.058824      4.000000
  0.176471  0.352941  0.058824      4.000000
  0.235294  0.352941  0.058824      4.000000
  0.294118  0.352941  0.058824      4.000000
  0.352941  0.352941  0.058824      4.000000
  0.411765  0.352941  0.058824      4.000000
  0.470588  0.352941  0.058824      4.000000
 -0.470588  0.352941  0.058824      4.000000
 -0.411765  0.352941  0.058824      4.000000
 -0.352941  0.352941  0.058824      4.000000
 -0.294118  0.352941  0.058824      4.000000
 -0.235294  0.352941  0.058824      4.000000
 -0.176471  0.352941  0.058824      4.000000
 -0.117647  0.352941  0.058824      4.000000
 -0.058824  0.352941  0.058824      4.000000
 -0.000000  0.411765  0.058824      4.000000
  0.058824  0.411765  0.058824      4.000000
  0.117647  0.411765  0.058824      4.000000
  0.176471  0.411765  0.058824      4.000000
  0.235294  0.411765  0.058824      4.000000
  0.294118  0.411765  0.058824      4.000000
  0.352941  0.411765  0.058824      4.000000
  0.411765  0.411765  0.058824      4.000000
  0.470588  0.411765  0.058824      4.000000
 -0.470588  0.411765  0.058824      4.000000
 -0.411765  0.411765  0.058824      4.000000
 -0.352941  0.411765  0.058824      4.000000
 -0.294118  0.411765  0.058824      4.000000
 -0.235294  0.411765  0.058824      4.000000
 -0.176471  0.411765  0.058824      4.000000
 -0.117647  0.411765  0.058824      4.000000
 -0.058824  0.411765  0.058824      4.000000
  0.000000  0.470588  0.058824      4.000000
  0.058824  0.470588  0.058824      4.000000
  0.117647  0.470588  0.058824      4.000000
  0.176471  0.470588  0.058824      4.000000
  0.235294  0.470588  0.058824      4.000000
  0.294118  0.470588  0.058824      4.000000
  0.352941  0.470588  0.058824      4.000000
  0.411765  0.470588  0.058824      4.000000
  0.470588  0.470588  0.058824      4.000000
 -0.470588  0.470588  0.058824      4.000000
 -0.411765  0.470588  0.058824      4.000000
 -0.352941  0.470588  0.058824      4.000000
 -0.294118  0.470588  0.058824      4.000000
 -0.235294  0.470588  0.058824      4.000000
 -0.176471  0.470588  0.058824      4.000000
 -0.117647  0.470588  0.058824      4.000000
 -0.058824  0.470588  0.058824      4.000000
  0.000000  0.000000  0.117647      2.000000
  0.058824 -0.000000  0.117647      4.000000
  0.117647  0.000000  0.117647      4.000000
  0.176471  0.000000  0.117647      4.000000
  0.235294  0.000000  0.117647      4.000000
  0.294118  0.000000  0.117647      4.000000
  0.352941  0.000000  0.117647      4.000000
  0.411765  0.000000  0.117647      4.000000
  0.470588  0.000000  0.117647      4.000000
 -0.000000  0.058824  0.117647      4.000000
  0.058824  0.058824  0.117647      4.000000
  0.117647  0.058824  0.117647      4.000000
  0.176471  0.058824  0.117647      4.000000
  0.235294  0.058824  0.117647      4.000000
  0.294118  0.058824  0.117647      4.000000
  0.352941  0.058824  0.117647      4.000000
  0.411765  0.058824  0.117647      4.000000
  0.470588  0.058824  0.117647      4.000000
 -0.470588  0.058824  0.117647      4.000000
 -0.411765  0.058824  0.117647      4.000000
 -0.352941  0.058824  0.117647      4.000000
 -0.294118  0.058824  0.117647      4.000000
 -0.235294  0.058824  0.117647      4.000000
 -0.176471  0.058824  0.117647      4.000000
 -0.117647  0.058824  0.117647      4.000000
 -0.058824  0.058824  0.117647      4.000000
  0.000000  0.117647  0.117647      4.000000
  0.058824  0.117647  0.117647      4.000000
  0.117647  0.117647  0.117647      4.000000
  0.176471  0.117647  0.117647      4.000000
  0.235294  0.117647  0.117647      4.000000
  0.294118  0.117647  0.117647      4.000000
  0.352941  0.117647  0.117647      4.000000
  0.411765  0.117647  0.117647      4.000000
  0.470588  0.117647  0.117647      4.000000
 -0.470588  0.117647  0.117647      4.000000
 -0.411765  0.117647  0.117647      4.000000
 -0.352941  0.117647  0.117647      4.000000
 -0.294118  0.117647  0.117647      4.000000
 -0.235294  0.117647  0.117647      4.000000
 -0.176471  0.117647  0.117647      4.000000
 -0.117647  0.117647  0.117647      4.000000
 -0.058824  0.117647  0.117647      4.000000
 -0.000000  0.176471  0.117647      4.000000
  0.058824  0.176471  0.117647      4.000000
  0.117647  0.176471  0.117647      4.000000
  0.176471  0.176471  0.117647      4.000000
  0.235294  0.176471  0.117647      4.000000
  0.294118  0.176471  0.117647      4.000000
  0.352941  0.176471  0.117647      4.000000
  0.411765  0.176471  0.117647      4.000000
  0.470588  0.176471  0.117647      4.000000
 -0.470588  0.176471  0.117647      4.000000
 -0.411765  0.176471  0.117647      4.000000
 -0.352941  0.176471  0.117647      4.000000
 -0.294118  0.176471  0.117647      4.000000
 -0.235294  0.176471  0.117647      4.000000
 -0.176471  0.176471  0.117647      4.000000
 -0.117647  0.176471  0.117647      4.000000
 -0.058824  0.176471  0.117647      4.000000
  0.000000  0.235294  0.117647      4.000000
  0.058824  0.235294  0.117647      4.000000
  0.117647  0.235294  0.117647      4.000000
  0.176471  0.235294  0.117647      4.000000
  0.235294  0.235294  0.117647      4.000000
  0.294118  0.235294  0.117647      4.000000
  0.352941  0.235294  0.117647      4.000000
  0.411765  0.235294  0.117647      4.000000
  0.470588  0.235294  0.117647      4.000000
 -0.470588  0.235294  0.117647      4.000000
 -0.411765  0.235294  0.117647      4.000000
 -0.352941  0.235294  0.117647      4.000000
 -0.294118  0.235294  0.117647      4.000000
 -0.235294  0.235294  0.117647      4.000000
 -0.176471  0.235294  0.117647      4.000000
 -0.117647  0.235294  0.117647      4.000000
 -0.058824  0.235294  0.117647      4.000000
 -0.000000  0.294118  0.117647      4.000000
  0.058824  0.294118  0.117647      4.000000
  0.117647  0.294118  0.117647      4.000000
  0.176471  0.294118  0.117647      4.000000
  0.235294  0.294118  0.117647      4.000000
  0.294118  0.294118  0.117647      4.000000
  0.352941  0.294118  0.117647      4.000000
  0.411765  0.294118  0.117647      4.000000
  0.470588  0.294118  0.117647      4.000000
 -0.470588  0.294118  0.117647      4.000000
 -0.411765  0.294118  0.117647      4.000000
 -0.352941  0.294118  0.117647      4.000000
 -0.294118  0.294118  0.117647      4.000000
 -0.235294  0.294118  0.117647      4.000000
 -0.176471  0.294118  0.117647      4.000000
 -0.117647  0.294118  0.117647      4.000000
 -0.058824  0.294118  0.117647      4.000000
  0.000000  0.352941  0.117647      4.000000
  0.058824  0.352941  0.117647      4.000000
  0.117647  0.352941  0.117647      4.000000
  0.176471  0.352941  0.117647      4.000000
  0.235294  0.352941  0.117647      4.000000
  0.294118  0.352941  0.117647      4.000000
  0.352941  0.352941  0.117647      4.000000
  0.411765  0.352941  0.117647      4.000000
  0.470588  0.352941  0.117647      4.000000
 -0.470588  0.352941  0.117647      4.000000
 -0.411765  0.352941  0.117647      4.000000
 -0.352941  0.352941  0.117647      4.000000
 -0.294118  0.352941  0.117647      4.000000
 -0.235294  0.352941  0.117647      4.000000
 -0.176471  0.352941  0.117647      4.000000
 -0.117647  0.352941  0.117647      4.000000
 -0.058824  0.352941  0.117647      4.000000
 -0.000000  0.411765  0.117647      4.000000
  0.058824  0.411765  0.117647      4.000000
  0.117647  0.411765  0.117647      4.000000
  0.176471  0.411765  0.117647      4.000000
  0.235294  0.411765  0.117647      4.000000
  0.294118  0.411765  0.117647      4.000000
  0.352941  0.411765  0.117647      4.000000
  0.411765  0.411765  0.117647      4.000000
  0.470588  0.411765  0.117647      4.000000
 -0.470588  0.411765  0.117647      4.000000
 -0.411765  0.411765  0.117647      4.000000
 -0.352941  0.411765  0.117647      4.000000
 -0.294118  0.411765  0.117647      4.000000
 -0.235294  0.411765  0.117647      4.000000
 -0.176471  0.411765  0.117647      4.000000
 -0.117647  0.411765  0.117647      4.000000
 -0.058824  0.411765  0.117647      4.000000
  0.000000  0.470588  0.117647      4.000000
  0.058824  0.470588  0.117647      4.000000
  0.117647  0.470588  0.117647      4.000000
  0.176471  0.470588  0.117647      4.000000
  0.235294  0.470588  0.117647      4.000000
  0.294118  0.470588  0.117647      4.000000
  0.352941  0.470588  0.117647      4.000000
  0.411765  0.470588  0.117647      4.000000
  0.470588  0.470588  0.117647      4.000000
 -0.470588  0.470588  0.117647      4.000000
 -0.411765  0.470588  0.117647      4.000000
 -0.352941  0.470588  0.117647      4.000000
 -0.294118  0.470588  0.117647      4.000000
 -0.235294  0.470588  0.117647      4.000000
 -0.176471  0.470588  0.117647      4.000000
 -0.117647  0.470588  0.117647      4.000000
 -0.058824  0.470588  0.117647      4.000000
  0.000000  0.000000  0.176471      2.000000
  0.058824 -0.000000  0.176471      4.000000
  0.117647  0.000000  0.176471      4.000000
  0.176471  0.000000  0.176471      4.000000
  0.235294  0.000000  0.176471      4.000000
  0.294118  0.000000  0.176471      4.000000
  0.352941  0.000000  0.176471      4.000000
  0.411765  0.000000  0.176471      4.000000
  0.470588  0.000000  0.176471      4.000000
 -0.000000  0.058824  0.176471      4.000000
  0.058824  0.058824  0.176471      4.000000
  0.117647  0.058824  0.176471      4.000000
  0.176471  0.058824  0.176471      4.000000
  0.235294  0.058824  0.176471      4.000000
  0.294118  0.058824  0.176471      4.000000
  0.352941  0.058824  0.176471      4.000000
  0.411765  0.058824  0.176471      4.000000
  0.470588  0.058824  0.176471      4.000000
 -0.470588  0.058824  0.176471      4.000000
 -0.411765  0.058824  0.176471      4.000000
 -0.352941  0.058824  0.176471      4.000000
 -0.294118  0.058824  0.176471      4.000000
 -0.235294  0.058824  0.176471      4.000000
 -0.176471  0.058824  0.176471      4.000000
 -0.117647  0.058824  0.176471      4.000000
 -0.058824  0.058824  0.176471      4.000000
  0.000000  0.117647  0.176471      4.000000
  0.058824  0.117647  0.176471      4.000000
  0.117647  0.117647  0.176471      4.000000
  0.176471  0.117647  0.176471      4.000000
  0.235294  0.117647  0.176471      4.000000
  0.294118  0.117647  0.176471      4.000000
  0.352941  0.117647  0.176471      4.000000
  0.411765  0.117647  0.176471      4.000000
  0.470588  0.117647  0.176471      4.000000
 -0.470588  0.117647  0.176471      4.000000
 -0.411765  0.117647  0.176471      4.000000
 -0.352941  0.117647  0.176471      4.000000
 -0.294118  0.117647  0.176471      4.000000
 -0.235294  0.117647  0.176471      4.000000
 -0.176471  0.117647  0.176471      4.000000
 -0.117647  0.117647  0.176471      4.000000
 -0.058824  0.117647  0.176471      4.000000
 -0.000000  0.176471  0.176471      4.000000
  0.058824  0.176471  0.176471      4.000000
  0.117647  0.176471  0.176471      4.000000
  0.176471  0.176471  0.176471      4.000000
  0.235294  0.176471  0.176471      4.000000
  0.294118  0.176471  0.176471      4.000000
  0.352941  0.176471  0.176471      4.000000
  0.411765  0.176471  0.176471      4.000000
  0.470588  0.176471  0.176471      4.000000
 -0.470588  0.176471  0.176471      4.000000
 -0.411765  0.176471  0.176471      4.000000
 -0.352941  0.176471  0.176471      4.000000
 -0.294118  0.176471  0.176471      4.000000
 -0.235294  0.176471  0.176471      4.000000
 -0.176471  0.176471  0.176471      4.000000
 -0.117647  0.176471  0.176471      4.000000
 -0.058824  0.176471  0.176471      4.000000
  0.000000  0.235294  0.176471      4.000000
  0.058824  0.235294  0.176471      4.000000
  0.117647  0.235294  0.176471      4.000000
  0.176471  0.235294  0.176471      4.000000
  0.235294  0.235294  0.176471      4.000000
  0.294118  0.235294  0.176471      4.000000
  0.352941  0.235294  0.176471      4.000000
  0.411765  0.235294  0.176471      4.000000
  0.470588  0.235294  0.176471      4.000000
 -0.470588  0.235294  0.176471      4.000000
 -0.411765  0.235294  0.176471      4.000000
 -0.352941  0.235294  0.176471      4.000000
 -0.294118  0.235294  0.176471      4.000000
 -0.235294  0.235294  0.176471      4.000000
 -0.176471  0.235294  0.176471      4.000000
 -0.117647  0.235294  0.176471      4.000000
 -0.058824  0.235294  0.176471      4.000000
 -0.000000  0.294118  0.176471      4.000000
  0.058824  0.294118  0.176471      4.000000
  0.117647  0.294118  0.176471      4.000000
  0.176471  0.294118  0.176471      4.000000
  0.235294  0.294118  0.176471      4.000000
  0.294118  0.294118  0.176471      4.000000
  0.352941  0.294118  0.176471      4.000000
  0.411765  0.294118  0.176471      4.000000
  0.470588  0.294118  0.176471      4.000000
 -0.470588  0.294118  0.176471      4.000000
 -0.411765  0.294118  0.176471      4.000000
 -0.352941  0.294118  0.176471      4.000000
 -0.294118  0.294118  0.176471      4.000000
 -0.235294  0.294118  0.176471      4.000000
 -0.176471  0.294118  0.176471      4.000000
 -0.117647  0.294118  0.176471      4.000000
 -0.058824  0.294118  0.176471      4.000000
  0.000000  0.352941  0.176471      4.000000
  0.058824  0.352941  0.176471      4.000000
  0.117647  0.352941  0.176471      4.000000
  0.176471  0.352941  0.176471      4.000000
  0.235294  0.352941  0.176471      4.000000
  0.294118  0.352941  0.176471      4.000000
  0.352941  0.352941  0.176471      4.000000
  0.411765  0.352941  0.176471      4.000000
  0.470588  0.352941  0.176471      4.000000
 -0.470588  0.352941  0.176471      4.000000
 -0.411765  0.352941  0.176471      4.000000
 -0.352941  0.352941  0.176471      4.000000
 -0.294118  0.352941  0.176471      4.000000
 -0.235294  0.352941  0.176471      4.000000
 -0.176471  0.352941  0.176471      4.000000
 -0.117647  0.352941  0.176471      4.000000
 -0.058824  0.352941  0.176471      4.000000
 -0.000000  0.411765  0.176471      4.000000
  0.058824  0.411765  0.176471      4.000000
  0.117647  0.411765  0.176471      4.000000
  0.176471  0.411765  0.176471      4.000000
  0.235294  0.411765  0.176471      4.000000
  0.294118  0.411765  0.176471      4.000000
  0.352941  0.411765  0.176471      4.000000
  0.411765  0.411765  0.176471      4.000000
  0.470588  0.411765  0.176471      4.000000
 -0.470588  0.411765  0.176471      4.000000
 -0.411765  0.411765  0.176471      4.000000
 -0.352941  0.411765  0.176471      4.000000
 -0.294118  0.411765  0.176471      4.000000
 -0.235294  0.411765  0.176471      4.000000
 -0.176471  0.411765  0.176471      4.000000
 -0.117647  0.411765  0.176471      4.000000
 -0.058824  0.411765  0.176471      4.000000
  0.000000  0.470588  0.176471      4.000000
  0.058824  0.470588  0.176471      4.000000
  0.117647  0.470588  0.176471      4.000000
  0.176471  0.470588  0.176471      4.000000
  0.235294  0.470588  0.176471      4.000000
  0.294118  0.470588  0.176471      4.000000
  0.352941  0.470588  0.176471      4.000000
  0.411765  0.470588  0.176471      4.000000
  0.470588  0.470588  0.176471      4.000000
 -0.470588  0.470588  0.176471      4.000000
 -0.411765  0.470588  0.176471      4.000000
 -0.352941  0.470588  0.176471      4.000000
 -0.294118  0.470588  0.176471      4.000000
 -0.235294  0.470588  0.176471      4.000000
 -0.176471  0.470588  0.176471      4.000000
 -0.117647  0.470588  0.176471      4.000000
 -0.058824  0.470588  0.176471      4.000000
  0.000000  0.000000  0.235294      2.000000
  0.058824 -0.000000  0.235294      4.000000
  0.117647  0.000000  0.235294      4.000000
  0.176471  0.000000  0.235294      4.000000
  0.235294  0.000000  0.235294      4.000000
  0.294118  0.000000  0.235294      4.000000
  0.352941  0.000000  0.235294      4.000000
  0.411765  0.000000  0.235294      4.000000
  0.470588  0.000000  0.235294      4.000000
 -0.000000  0.058824  0.235294      4.000000
  0.058824  0.058824  0.235294      4.000000
  0.117647  0.058824  0.235294      4.000000
  0.176471  0.058824  0.235294      4.000000
  0.235294  0.058824  0.235294      4.000000
  0.294118  0.058824  0.235294      4.000000
  0.352941  0.058824  0.235294      4.000000
  0.411765  0.058824  0.235294      4.000000
  0.470588  0.058824  0.235294      4.000000
 -0.470588  0.058824  0.235294      4.000000
 -0.411765  0.058824  0.235294      4.000000
 -0.352941  0.058824  0.235294      4.000000
 -0.294118  0.058824  0.235294      4.000000
 -0.235294  0.058824  0.235294      4.000000
 -0.176471  0.058824  0.235294      4.000000
 -0.117647  0.058824  0.235294      4.000000
 -0.058824  0.058824  0.235294      4.000000
  0.000000  0.117647  0.235294      4.000000
  0.058824  0.117647  0.235294      4.000000
  0.117647  0.117647  0.235294      4.000000
  0.176471  0.117647  0.235294      4.000000
  0.235294  0.117647  0.235294      4.000000
  0.294118  0.117647  0.235294      4.000000
  0.352941  0.117647  0.235294      4.000000
  0.411765  0.117647  0.235294      4.000000
  0.470588  0.117647  0.235294      4.000000
 -0.470588  0.117647  0.235294      4.000000
 -0.411765  0.117647  0.235294      4.000000
 -0.352941  0.117647  0.235294      4.000000
 -0.294118  0.117647  0.235294      4.000000
 -0.235294  0.117647  0.235294      4.000000
 -0.176471  0.117647  0.235294      4.000000
 -0.117647  0.117647  0.235294      4.000000
 -0.058824  0.117647  0.235294      4.000000
 -0.000000  0.176471  0.235294      4.000000
  0.058824  0.176471  0.235294      4.000000
  0.117647  0.176471  0.235294      4.000000
  0.176471  0.176471  0.235294      4.000000
  0.235294  0.176471  0.235294      4.000000
  0.294118  0.176471  0.235294      4.000000
  0.352941  0.176471  0.235294      4.000000
  0.411765  0.176471  0.235294      4.000000
  0.470588  0.176471  0.235294      4.000000
 -0.470588  0.176471  0.235294      4.000000
 -0.411765  0.176471  0.235294      4.000000
 -0.352941  0.176471  0.235294      4.000000
 -0.294118  0.176471  0.235294      4.000000
 -0.235294  0.176471  0.235294      4.000000
 -0.176471  0.176471  0.235294      4.000000
 -0.117647  0.176471  0.235294      4.000000
 -0.058824  0.176471  0.235294      4.000000
  0.000000  0.235294  0.235294      4.000000
  0.058824  0.235294  0.235294      4.000000
  0.117647  0.235294  0.235294      4.000000
  0.176471  0.235294  0.235294      4.000000
  0.235294  0.235294  0.235294      4.000000
  0.294118  0.235294  0.235294      4.000000
  0.352941  0.235294  0.235294      4.000000
  0.411765  0.235294  0.235294      4.000000
  0.470588  0.235294  0.235294      4.000000
 -0.470588  0.235294  0.235294      4.000000
 -0.411765  0.235294  0.235294      4.000000
 -0.352941  0.235294  0.235294      4.000000
 -0.294118  0.235294  0.235294      4.000000
 -0.235294  0.235294  0.235294      4.000000
 -0.176471  0.235294  0.235294      4.000000
 -0.117647  0.235294  0.235294      4.000000
 -0.058824  0.235294  0.235294      4.000000
 -0.000000  0.294118  0.235294      4.000000
  0.058824  0.294118  0.235294      4.000000
  0.117647  0.294118  0.235294      4.000000
  0.176471  0.294118  0.235294      4.000000
  0.235294  0.294118  0.235294      4.000000
  0.294118  0.294118  0.235294      4.000000
  0.352941  0.294118  0.235294      4.000000
  0.411765  0.294118  0.235294      4.000000
  0.470588  0.294118  0.235294      4.000000
 -0.470588  0.294118  0.235294      4.000000
 -0.411765  0.294118  0.235294      4.000000
 -0.352941  0.294118  0.235294      4.000000
 -0.294118  0.294118  0.235294      4.000000
 -0.235294  0.294118  0.235294      4.000000
 -0.176471  0.294118  0.235294      4.000000
 -0.117647  0.294118  0.235294      4.000000
 -0.058824  0.294118  0.235294      4.000000
  0.000000  0.352941  0.235294      4.000000
  0.058824  0.352941  0.235294      4.000000
  0.117647  0.352941  0.235294      4.000000
  0.176471  0.352941  0.235294      4.000000
  0.235294  0.352941  0.235294      4.000000
  0.294118  0.352941  0.235294      4.000000
  0.352941  0.352941  0.235294      4.000000
  0.411765  0.352941  0.235294      4.000000
  0.470588  0.352941  0.235294      4.000000
 -0.470588  0.352941  0.235294      4.000000
 -0.411765  0.352941  0.235294      4.000000
 -0.352941  0.352941  0.235294      4.000000
 -0.294118  0.352941  0.235294      4.000000
 -0.235294  0.352941  0.235294      4.000000
 -0.176471  0.352941  0.235294      4.000000
 -0.117647  0.352941  0.235294      4.000000
 -0.058824  0.352941  0.235294      4.000000
 -0.000000  0.411765  0.235294      4.000000
  0.058824  0.411765  0.235294      4.000000
  0.117647  0.411765  0.235294      4.000000
  0.176471  0.411765  0.235294      4.000000
  0.235294  0.411765  0.235294      4.000000
  0.294118  0.411765  0.235294      4.000000
  0.352941  0.411765  0.235294      4.000000
  0.411765  0.411765  0.235294      4.000000
  0.470588  0.411765  0.235294      4.000000
 -0.470588  0.411765  0.235294      4.000000
 -0.411765  0.411765  0.235294      4.000000
 -0.352941  0.411765  0.235294      4.000000
 -0.294118  0.411765  0.235294      4.000000
 -0.235294  0.411765  0.235294      4.000000
 -0.176471  0.411765  0.235294      4.000000
 -0.117647  0.411765  0.235294      4.000000
 -0.058824  0.411765  0.235294      4.000000
  0.000000  0.470588  0.235294      4.000000
  0.058824  0.470588  0.235294      4.000000
  0.117647  0.470588  0.235294      4.000000
  0.176471  0.470588  0.235294      4.000000
  0.235294  0.470588  0.235294      4.000000
  0.294118  0.470588  0.235294      4.000000
  0.352941  0.470588  0.235294      4.000000
  0.411765  0.470588  0.235294      4.000000
  0.470588  0.470588  0.235294      4.000000
 -0.470588  0.470588  0.235294      4.000000
 -0.411765  0.470588  0.235294      4.000000
 -0.352941  0.470588  0.235294      4.000000
 -0.294118  0.470588  0.235294      4.000000
 -0.235294  0.470588  0.235294      4.000000
 -0.176471  0.470588  0.235294      4.000000
 -0.117647  0.470588  0.235294      4.000000
 -0.058824  0.470588  0.235294      4.000000
  0.000000  0.000000  0.294118      2.000000
  0.058824 -0.000000  0.294118      4.000000
  0.117647  0.000000  0.294118      4.000000
  0.176471  0.000000  0.294118      4.000000
  0.235294  0.000000  0.294118      4.000000
  0.294118  0.000000  0.294118      4.000000
  0.352941  0.000000  0.294118      4.000000
  0.411765  0.000000  0.294118      4.000000
  0.470588  0.000000  0.294118      4.000000
 -0.000000  0.058824  0.294118      4.000000
  0.058824  0.058824  0.294118      4.000000
  0.117647  0.058824  0.294118      4.000000
  0.176471  0.058824  0.294118      4.000000
  0.235294  0.058824  0.294118      4.000000
  0.294118  0.058824  0.294118      4.000000
  0.352941  0.058824  0.294118      4.000000
  0.411765  0.058824  0.294118      4.000000
  0.470588  0.058824  0.294118      4.000000
 -0.470588  0.058824  0.294118      4.000000
 -0.411765  0.058824  0.294118      4.000000
 -0.352941  0.058824  0.294118      4.000000
 -0.294118  0.058824  0.294118      4.000000
 -0.235294  0.058824  0.294118      4.000000
 -0.176471  0.058824  0.294118      4.000000
 -0.117647  0.058824  0.294118      4.000000
 -0.058824  0.058824  0.294118      4.000000
  0.000000  0.117647  0.294118      4.000000
  0.058824  0.117647  0.294118      4.000000
  0.117647  0.117647  0.294118      4.000000
  0.176471  0.117647  0.294118      4.000000
  0.235294  0.117647  0.294118      4.000000
  0.294118  0.117647  0.294118      4.000000
  0.352941  0.117647  0.294118      4.000000
  0.411765  0.117647  0.294118      4.000000
  0.470588  0.117647  0.294118      4.000000
 -0.470588  0.117647  0.294118      4.000000
 -0.411765  0.117647  0.294118      4.000000
 -0.352941  0.117647  0.294118      4.000000
 -0.294118  0.117647  0.294118      4.000000
 -0.235294  0.117647  0.294118      4.000000
 -0.176471  0.117647  0.294118      4.000000
 -0.117647  0.117647  0.294118      4.000000
 -0.058824  0.117647  0.294118      4.000000
 -0.000000  0.176471  0.294118      4.000000
  0.058824  0.176471  0.294118      4.000000
  0.117647  0.176471  0.294118      4.000000
  0.176471  0.176471  0.294118      4.000000
  0.235294  0.176471  0.294118      4.000000
  0.294118  0.176471  0.294118      4.000000
  0.352941  0.176471  0.294118      4.000000
  0.411765  0.176471  0.294118      4.000000
  0.470588  0.176471  0.294118      4.000000
 -0.470588  0.176471  0.294118      4.000000
 -0.411765  0.176471  0.294118      4.000000
 -0.352941  0.176471  0.294118      4.000000
 -0.294118  0.176471  0.294118      4.000000
 -0.235294  0.176471  0.294118      4.000000
 -0.176471  0.176471  0.294118      4.000000
 -0.117647  0.176471  0.294118      4.000000
 -0.058824  0.176471  0.294118      4.000000
  0.000000  0.235294  0.294118      4.000000
  0.058824  0.235294  0.294118      4.000000
  0.117647  0.235294  0.294118      4.000000
  0.176471  0.235294  0.294118      4.000000
  0.235294  0.235294  0.294118      4.000000
  0.294118  0.235294  0.294118      4.000000
  0.352941  0.235294  0.294118      4.000000
  0.411765  0.235294  0.294118      4.000000
  0.470588  0.235294  0.294118      4.000000
 -0.470588  0.235294  0.294118      4.000000
 -0.411765  0.235294  0.294118      4.000000
 -0.352941  0.235294  0.294118      4.000000
 -0.294118  0.235294  0.294118      4.000000
 -0.235294  0.235294  0.294118      4.000000
 -0.176471  0.235294  0.294118      4.000000
 -0.117647  0.235294  0.294118      4.000000
 -0.058824  0.235294  0.294118      4.000000
 -0.000000  0.294118  0.294118      4.000000
  0.058824  0.294118  0.294118      4.000000
  0.117647  0.294118  0.294118      4.000000
  0.176471  0.294118  0.294118      4.000000
  0.235294  0.294118  0.294118      4.000000
  0.294118  0.294118  0.294118      4.000000
  0.352941  0.294118  0.294118      4.000000
  0.411765  0.294118  0.294118      4.000000
  0.470588  0.294118  0.294118      4.000000
 -0.470588  0.294118  0.294118      4.000000
 -0.411765  0.294118  0.294118      4.000000
 -0.352941  0.294118  0.294118      4.000000
 -0.294118  0.294118  0.294118      4.000000
 -0.235294  0.294118  0.294118      4.000000
 -0.176471  0.294118  0.294118      4.000000
 -0.117647  0.294118  0.294118      4.000000
 -0.058824  0.294118  0.294118      4.000000
  0.000000  0.352941  0.294118      4.000000
  0.058824  0.352941  0.294118      4.000000
  0.117647  0.352941  0.294118      4.000000
  0.176471  0.352941  0.294118      4.000000
  0.235294  0.352941  0.294118      4.000000
  0.294118  0.352941  0.294118      4.000000
  0.352941  0.352941  0.294118      4.000000
  0.411765  0.352941  0.294118      4.000000
  0.470588  0.352941  0.294118      4.000000
 -0.470588  0.352941  0.294118      4.000000
 -0.411765  0.352941  0.294118      4.000000
 -0.352941  0.352941  0.294118      4.000000
 -0.294118  0.352941  0.294118      4.000000
 -0.235294  0.352941  0.294118      4.000000
 -0.176471  0.352941  0.294118      4.000000
 -0.117647  0.352941  0.294118      4.000000
 -0.058824  0.352941  0.294118      4.000000
 -0.000000  0.411765  0.294118      4.000000
  0.058824  0.411765  0.294118      4.000000
  0.117647  0.411765  0.294118      4.000000
  0.176471  0.411765  0.294118      4.000000
  0.235294  0.411765  0.294118      4.000000
  0.294118  0.411765  0.294118      4.000000
  0.352941  0.411765  0.294118      4.000000
  0.411765  0.411765  0.294118      4.000000
  0.470588  0.411765  0.294118      4.000000
 -0.470588  0.411765  0.294118      4.000000
 -0.411765  0.411765  0.294118      4.000000
 -0.352941  0.411765  0.294118      4.000000
 -0.294118  0.411765  0.294118      4.000000
 -0.235294  0.411765  0.294118      4.000000
 -0.176471  0.411765  0.294118      4.000000
 -0.117647  0.411765  0.294118      4.000000
 -0.058824  0.411765  0.294118      4.000000
  0.000000  0.470588  0.294118      4.000000
  0.058824  0.470588  0.294118      4.000000
  0.117647  0.470588  0.294118      4.000000
  0.176471  0.470588  0.294118      4.000000
  0.235294  0.470588  0.294118      4.000000
  0.294118  0.470588  0.294118      4.000000
  0.352941  0.470588  0.294118      4.000000
  0.411765  0.470588  0.294118      4.000000
  0.470588  0.470588  0.294118      4.000000
 -0.470588  0.470588  0.294118      4.000000
 -0.411765  0.470588  0.294118      4.000000
 -0.352941  0.470588  0.294118      4.000000
 -0.294118  0.470588  0.294118      4.000000
 -0.235294  0.470588  0.294118      4.000000
 -0.176471  0.470588  0.294118      4.000000
 -0.117647  0.470588  0.294118      4.000000
 -0.058824  0.470588  0.294118      4.000000
  0.000000  0.000000  0.352941      2.000000
  0.058824 -0.000000  0.352941      4.000000
  0.117647  0.000000  0.352941      4.000000
  0.176471  0.000000  0.352941      4.000000
  0.235294  0.000000  0.352941      4.000000
  0.294118  0.000000  0.352941      4.000000
  0.352941  0.000000  0.352941      4.000000
  0.411765  0.000000  0.352941      4.000000
  0.470588  0.000000  0.352941      4.000000
 -0.000000  0.058824  0.352941      4.000000
  0.058824  0.058824  0.352941      4.000000
  0.117647  0.058824  0.352941      4.000000
  0.176471  0.058824  0.352941      4.000000
  0.235294  0.058824  0.352941      4.000000
  0.294118  0.058824  0.352941      4.000000
  0.352941  0.058824  0.352941      4.000000
  0.411765  0.058824  0.352941      4.000000
  0.470588  0.058824  0.352941      4.000000
 -0.470588  0.058824  0.352941      4.000000
 -0.411765  0.058824  0.352941      4.000000
 -0.352941  0.058824  0.352941      4.000000
 -0.294118  0.058824  0.352941      4.000000
 -0.235294  0.058824  0.352941      4.000000
 -0.176471  0.058824  0.352941      4.000000
 -0.117647  0.058824  0.352941      4.000000
 -0.058824  0.058824  0.352941      4.000000
  0.000000  0.117647  0.352941      4.000000
  0.058824  0.117647  0.352941      4.000000
  0.117647  0.117647  0.352941      4.000000
  0.176471  0.117647  0.352941      4.000000
  0.235294  0.117647  0.352941      4.000000
  0.294118  0.117647  0.352941      4.000000
  0.352941  0.117647  0.352941      4.000000
  0.411765  0.117647  0.352941      4.000000
  0.470588  0.117647  0.352941      4.000000
 -0.470588  0.117647  0.352941      4.000000
 -0.411765  0.117647  0.352941      4.000000
 -0.352941  0.117647  0.352941      4.000000
 -0.294118  0.117647  0.352941      4.000000
 -0.235294  0.117647  0.352941      4.000000
 -0.176471  0.117647  0.352941      4.000000
 -0.117647  0.117647  0.352941      4.000000
 -0.058824  0.117647  0.352941      4.000000
 -0.000000  0.176471  0.352941      4.000000
  0.058824  0.176471  0.352941      4.000000
  0.117647  0.176471  0.352941      4.000000
  0.176471  0.176471  0.352941      4.000000
  0.235294  0.176471  0.352941      4.000000
  0.294118  0.176471  0.352941      4.000000
  0.352941  0.176471  0.352941      4.000000
  0.411765  0.176471  0.352941      4.000000
  0.470588  0.176471  0.352941      4.000000
 -0.470588  0.176471  0.352941      4.000000
 -0.411765  0.176471  0.352941      4.000000
 -0.352941  0.176471  0.352941      4.000000
 -0.294118  0.176471  0.352941      4.000000
 -0.235294  0.176471  0.352941      4.000000
 -0.176471  0.176471  0.352941      4.000000
 -0.117647  0.176471  0.352941      4.000000
 -0.058824  0.176471  0.352941      4.000000
  0.000000  0.235294  0.352941      4.000000
  0.058824  0.235294  0.352941      4.000000
  0.117647  0.235294  0.352941      4.000000
  0.176471  0.235294  0.352941      4.000000
  0.235294  0.235294  0.352941      4.000000
  0.294118  0.235294  0.352941      4.000000
  0.352941  0.235294  0.352941      4.000000
  0.411765  0.235294  0.352941      4.000000
  0.470588  0.235294  0.352941      4.000000
 -0.470588  0.235294  0.352941      4.000000
 -0.411765  0.235294  0.352941      4.000000
 -0.352941  0.235294  0.352941      4.000000
 -0.294118  0.235294  0.352941      4.000000
 -0.235294  0.235294  0.352941      4.000000
 -0.176471  0.235294  0.352941      4.000000
 -0.117647  0.235294  0.352941      4.000000
 -0.058824  0.235294  0.352941      4.000000
 -0.000000  0.294118  0.352941      4.000000
  0.058824  0.294118  0.352941      4.000000
  0.117647  0.294118  0.352941      4.000000
  0.176471  0.294118  0.352941      4.000000
  0.235294  0.294118  0.352941      4.000000
  0.294118  0.294118  0.352941      4.000000
  0.352941  0.294118  0.352941      4.000000
  0.411765  0.294118  0.352941      4.000000
  0.470588  0.294118  0.352941      4.000000
 -0.470588  0.294118  0.352941      4.000000
 -0.411765  0.294118  0.352941      4.000000
 -0.352941  0.294118  0.352941      4.000000
 -0.294118  0.294118  0.352941      4.000000
 -0.235294  0.294118  0.352941      4.000000
 -0.176471  0.294118  0.352941      4.000000
 -0.117647  0.294118  0.352941      4.000000
 -0.058824  0.294118  0.352941      4.000000
  0.000000  0.352941  0.352941      4.000000
  0.058824  0.352941  0.352941      4.000000
  0.117647  0.352941  0.352941      4.000000
  0.176471  0.352941  0.352941      4.000000
  0.235294  0.352941  0.352941      4.000000
  0.294118  0.352941  0.352941      4.000000
  0.352941  0.352941  0.352941      4.000000
  0.411765  0.352941  0.352941      4.000000
  0.470588  0.352941  0.352941      4.000000
 -0.470588  0.352941  0.352941      4.000000
 -0.411765  0.352941  0.352941      4.000000
 -0.352941  0.352941  0.352941      4.000000
 -0.294118  0.352941  0.352941      4.000000
 -0.235294  0.352941  0.352941      4.000000
 -0.176471  0.352941  0.352941      4.000000
 -0.117647  0.352941  0.352941      4.000000
 -0.058824  0.352941  0.352941      4.000000
 -0.000000  0.411765  0.352941      4.000000
  0.058824  0.411765  0.352941      4.000000
  0.117647  0.411765  0.352941      4.000000
  0.176471  0.411765  0.352941      4.000000
  0.235294  0.411765  0.352941      4.000000
  0.294118  0.411765  0.352941      4.000000
  0.352941  0.411765  0.352941      4.000000
  0.411765  0.411765  0.352941      4.000000
  0.470588  0.411765  0.352941      4.000000
 -0.470588  0.411765  0.352941      4.000000
 -0.411765  0.411765  0.352941      4.000000
 -0.352941  0.411765  0.352941      4.000000
 -0.294118  0.411765  0.352941      4.000000
 -0.235294  0.411765  0.352941      4.000000
 -0.176471  0.411765  0.352941      4.000000
 -0.117647  0.411765  0.352941      4.000000
 -0.058824  0.411765  0.352941      4.000000
  0.000000  0.470588  0.352941      4.000000
  0.058824  0.470588  0.352941      4.000000
  0.117647  0.470588  0.352941      4.000000
  0.176471  0.470588  0.352941      4.000000
  0.235294  0.470588  0.352941      4.000000
  0.294118  0.470588  0.352941      4.000000
  0.352941  0.470588  0.352941      4.000000
  0.411765  0.470588  0.352941      4.000000
  0.470588  0.470588  0.352941      4.000000
 -0.470588  0.470588  0.352941      4.000000
 -0.411765  0.470588  0.352941      4.000000
 -0.352941  0.470588  0.352941      4.000000
 -0.294118  0.470588  0.352941      4.000000
 -0.235294  0.470588  0.352941      4.000000
 -0.176471  0.470588  0.352941      4.000000
 -0.117647  0.470588  0.352941      4.000000
 -0.058824  0.470588  0.352941      4.000000
  0.000000  0.000000  0.411765      2.000000
  0.058824 -0.000000  0.411765      4.000000
  0.117647  0.000000  0.411765      4.000000
  0.176471  0.000000  0.411765      4.000000
  0.235294  0.000000  0.411765      4.000000
  0.294118  0.000000  0.411765      4.000000
  0.352941  0.000000  0.411765      4.000000
  0.411765  0.000000  0.411765      4.000000
  0.470588  0.000000  0.411765      4.000000
 -0.000000  0.058824  0.411765      4.000000
  0.058824  0.058824  0.411765      4.000000
  0.117647  0.058824  0.411765      4.000000
  0.176471  0.058824  0.411765      4.000000
  0.235294  0.058824  0.411765      4.000000
  0.294118  0.058824  0.411765      4.000000
  0.352941  0.058824  0.411765      4.000000
  0.411765  0.058824  0.411765      4.000000
  0.470588  0.058824  0.411765      4.000000
 -0.470588  0.058824  0.411765      4.000000
 -0.411765  0.058824  0.411765      4.000000
 -0.352941  0.058824  0.411765      4.000000
 -0.294118  0.058824  0.411765      4.000000
 -0.235294  0.058824  0.411765      4.000000
 -0.176471  0.058824  0.411765      4.000000
 -0.117647  0.058824  0.411765      4.000000
 -0.058824  0.058824  0.411765      4.000000
  0.000000  0.117647  0.411765      4.000000
  0.058824  0.117647  0.411765      4.000000
  0.117647  0.117647  0.411765      4.000000
  0.176471  0.117647  0.411765      4.000000
  0.235294  0.117647  0.411765      4.000000
  0.294118  0.117647  0.411765      4.000000
  0.352941  0.117647  0.411765      4.000000
  0.411765  0.117647  0.411765      4.000000
  0.470588  0.117647  0.411765      4.000000
 -0.470588  0.117647  0.411765      4.000000
 -0.411765  0.117647  0.411765      4.000000
 -0.352941  0.117647  0.411765      4.000000
 -0.294118  0.117647  0.411765      4.000000
 -0.235294  0.117647  0.411765      4.000000
 -0.176471  0.117647  0.411765      4.000000
 -0.117647  0.117647  0.411765      4.000000
 -0.058824  0.117647  0.411765      4.000000
 -0.000000  0.176471  0.411765      4.000000
  0.058824  0.176471  0.411765      4.000000
  0.117647  0.176471  0.411765      4.000000
  0.176471  0.176471  0.411765      4.000000
  0.235294  0.176471  0.411765      4.000000
  0.294118  0.176471  0.411765      4.000000
  0.352941  0.176471  0.411765      4.000000
  0.411765  0.176471  0.411765      4.000000
  0.470588  0.176471  0.411765      4.000000
 -0.470588  0.176471  0.411765      4.000000
 -0.411765  0.176471  0.411765      4.000000
 -0.352941  0.176471  0.411765      4.000000
 -0.294118  0.176471  0.411765      4.000000
 -0.235294  0.176471  0.411765      4.000000
 -0.176471  0.176471  0.411765      4.000000
 -0.117647  0.176471  0.411765      4.000000
 -0.058824  0.176471  0.411765      4.000000
  0.000000  0.235294  0.411765      4.000000
  0.058824  0.235294  0.411765      4.000000
  0.117647  0.235294  0.411765      4.000000
  0.176471  0.235294  0.411765      4.000000
  0.235294  0.235294  0.411765      4.000000
  0.294118  0.235294  0.411765      4.000000
  0.352941  0.235294  0.411765      4.000000
  0.411765  0.235294  0.411765      4.000000
  0.470588  0.235294  0.411765      4.000000
 -0.470588  0.235294  0.411765      4.000000
 -0.411765  0.235294  0.411765      4.000000
 -0.352941  0.235294  0.411765      4.000000
 -0.294118  0.235294  0.411765      4.000000
 -0.235294  0.235294  0.411765      4.000000
 -0.176471  0.235294  0.411765      4.000000
 -0.117647  0.235294  0.411765      4.000000
 -0.058824  0.235294  0.411765      4.000000
 -0.000000  0.294118  0.411765      4.000000
  0.058824  0.294118  0.411765      4.000000
  0.117647  0.294118  0.411765      4.000000
  0.176471  0.294118  0.411765      4.000000
  0.235294  0.294118  0.411765      4.000000
  0.294118  0.294118  0.411765      4.000000
  0.352941  0.294118  0.411765      4.000000
  0.411765  0.294118  0.411765      4.000000
  0.470588  0.294118  0.411765      4.000000
 -0.470588  0.294118  0.411765      4.000000
 -0.411765  0.294118  0.411765      4.000000
 -0.352941  0.294118  0.411765      4.000000
 -0.294118  0.294118  0.411765      4.000000
 -0.235294  0.294118  0.411765      4.000000
 -0.176471  0.294118  0.411765      4.000000
 -0.117647  0.294118  0.411765      4.000000
 -0.058824  0.294118  0.411765      4.000000
  0.000000  0.352941  0.411765      4.000000
  0.058824  0.352941  0.411765      4.000000
  0.117647  0.352941  0.411765      4.000000
  0.176471  0.352941  0.411765      4.000000
  0.235294  0.352941  0.411765      4.000000
  0.294118  0.352941  0.411765      4.000000
  0.352941  0.352941  0.411765      4.000000
  0.411765  0.352941  0.411765      4.000000
  0.470588  0.352941  0.411765      4.000000
 -0.470588  0.352941  0.411765      4.000000
 -0.411765  0.352941  0.411765      4.000000
 -0.352941  0.352941  0.411765      4.000000
 -0.294118  0.352941  0.411765      4.000000
 -0.235294  0.352941  0.411765      4.000000
 -0.176471  0.352941  0.411765      4.000000
 -0.117647  0.352941  0.411765      4.000000
 -0.058824  0.352941  0.411765      4.000000
 -0.000000  0.411765  0.411765      4.000000
  0.058824  0.411765  0.411765      4.000000
  0.117647  0.411765  0.411765      4.000000
  0.176471  0.411765  0.411765      4.000000
  0.235294  0.411765  0.411765      4.000000
  0.294118  0.411765  0.411765      4.000000
  0.352941  0.411765  0.411765      4.000000
  0.411765  0.411765  0.411765      4.000000
  0.470588  0.411765  0.411765      4.000000
 -0.470588  0.411765  0.411765      4.000000
 -0.411765  0.411765  0.411765      4.000000
 -0.352941  0.411765  0.411765      4.000000
 -0.294118  0.411765  0.411765      4.000000
 -0.235294  0.411765  0.411765      4.000000
 -0.176471  0.411765  0.411765      4.000000
 -0.117647  0.411765  0.411765      4.000000
 -0.058824  0.411765  0.411765      4.000000
  0.000000  0.470588  0.411765      4.000000
  0.058824  0.470588  0.411765      4.000000
  0.117647  0.470588  0.411765      4.000000
  0.176471  0.470588  0.411765      4.000000
  0.235294  0.470588  0.411765      4.000000
  0.294118  0.470588  0.411765      4.000000
  0.352941  0.470588  0.411765      4.000000
  0.411765  0.470588  0.411765      4.000000
  0.470588  0.470588  0.411765      4.000000
 -0.470588  0.470588  0.411765      4.000000
 -0.411765  0.470588  0.411765      4.000000
 -0.352941  0.470588  0.411765      4.000000
 -0.294118  0.470588  0.411765      4.000000
 -0.235294  0.470588  0.411765      4.000000
 -0.176471  0.470588  0.411765      4.000000
 -0.117647  0.470588  0.411765      4.000000
 -0.058824  0.470588  0.411765      4.000000
  0.000000  0.000000  0.470588      2.000000
  0.058824 -0.000000  0.470588      4.000000
  0.117647  0.000000  0.470588      4.000000
  0.176471  0.000000  0.470588      4.000000
  0.235294  0.000000  0.470588      4.000000
  0.294118  0.000000  0.470588      4.000000
  0.352941  0.000000  0.470588      4.000000
  0.411765  0.000000  0.470588      4.000000
  0.470588  0.000000  0.470588      4.000000
 -0.000000  0.058824  0.470588      4.000000
  0.058824  0.058824  0.470588      4.000000
  0.117647  0.058824  0.470588      4.000000
  0.176471  0.058824  0.470588      4.000000
  0.235294  0.058824  0.470588      4.000000
  0.294118  0.058824  0.470588      4.000000
  0.352941  0.058824  0.470588      4.000000
  0.411765  0.058824  0.470588      4.000000
  0.470588  0.058824  0.470588      4.000000
 -0.470588  0.058824  0.470588      4.000000
 -0.411765  0.058824  0.470588      4.000000
 -0.352941  0.058824  0.470588      4.000000
 -0.294118  0.058824  0.470588      4.000000
 -0.235294  0.058824  0.470588      4.000000
 -0.176471  0.058824  0.470588      4.000000
 -0.117647  0.058824  0.470588      4.000000
 -0.058824  0.058824  0.470588      4.000000
  0.000000  0.117647  0.470588      4.000000
  0.058824  0.117647  0.470588      4.000000
  0.117647  0.117647  0.470588      4.000000
  0.176471  0.117647  0.470588      4.000000
  0.235294  0.117647  0.470588      4.000000
  0.294118  0.117647  0.470588      4.000000
  0.352941  0.117647  0.470588      4.000000
  0.411765  0.117647  0.470588      4.000000
  0.470588  0.117647  0.470588      4.000000
 -0.470588  0.117647  0.470588      4.000000
 -0.411765  0.117647  0.470588      4.000000
 -0.352941  0.117647  0.470588      4.000000
 -0.294118  0.117647  0.470588      4.000000
 -0.235294  0.117647  0.470588      4.000000
 -0.176471  0.117647  0.470588      4.000000
 -0.117647  0.117647  0.470588      4.000000
 -0.058824  0.117647  0.470588      4.000000
 -0.000000  0.176471  0.470588      4.000000
  0.058824  0.176471  0.470588      4.000000
  0.117647  0.176471  0.470588      4.000000
  0.176471  0.176471  0.470588      4.000000
  0.235294  0.176471  0.470588      4.000000
  0.294118  0.176471  0.470588      4.000000
  0.352941  0.176471  0.470588      4.000000
  0.411765  0.176471  0.470588      4.000000
  0.470588  0.176471  0.470588      4.000000
 -0.470588  0.176471  0.470588      4.000000
 -0.411765  0.176471  0.470588      4.000000
 -0.352941  0.176471  0.470588      4.000000
 -0.294118  0.176471  0.470588      4.000000
 -0.235294  0.176471  0.470588      4.000000
 -0.176471  0.176471  0.470588      4.000000
 -0.117647  0.176471  0.470588      4.000000
 -0.058824  0.176471  0.470588      4.000000
  0.000000  0.235294  0.470588      4.000000
  0.058824  0.235294  0.470588      4.000000
  0.117647  0.235294  0.470588      4.000000
  0.176471  0.235294  0.470588      4.000000
  0.235294  0.235294  0.470588      4.000000
  0.294118  0.235294  0.470588      4.000000
  0.352941  0.235294  0.470588      4.000000
  0.411765  0.235294  0.470588      4.000000
  0.470588  0.235294  0.470588      4.000000
 -0.470588  0.235294  0.470588      4.000000
 -0.411765  0.235294  0.470588      4.000000
 -0.352941  0.235294  0.470588      4.000000
 -0.294118  0.235294  0.470588      4.000000
 -0.235294  0.235294  0.470588      4.000000
 -0.176471  0.235294  0.470588      4.000000
 -0.117647  0.235294  0.470588      4.000000
 -0.058824  0.235294  0.470588      4.000000
 -0.000000  0.294118  0.470588      4.000000
  0.058824  0.294118  0.470588      4.000000
  0.117647  0.294118  0.470588      4.000000
  0.176471  0.294118  0.470588      4.000000
  0.235294  0.294118  0.470588      4.000000
  0.294118  0.294118  0.470588      4.000000
  0.352941  0.294118  0.470588      4.000000
  0.411765  0.294118  0.470588      4.000000
  0.470588  0.294118  0.470588      4.000000
 -0.470588  0.294118  0.470588      4.000000
 -0.411765  0.294118  0.470588      4.000000
 -0.352941  0.294118  0.470588      4.000000
 -0.294118  0.294118  0.470588      4.000000
 -0.235294  0.294118  0.470588      4.000000
 -0.176471  0.294118  0.470588      4.000000
 -0.117647  0.294118  0.470588      4.000000
 -0.058824  0.294118  0.470588      4.000000
  0.000000  0.352941  0.470588      4.000000
  0.058824  0.352941  0.470588      4.000000
  0.117647  0.352941  0.470588      4.000000
  0.176471  0.352941  0.470588      4.000000
  0.235294  0.352941  0.470588      4.000000
  0.294118  0.352941  0.470588      4.000000
  0.352941  0.352941  0.470588      4.000000
  0.411765  0.352941  0.470588      4.000000
  0.470588  0.352941  0.470588      4.000000
 -0.470588  0.352941  0.470588      4.000000
 -0.411765  0.352941  0.470588      4.000000
 -0.352941  0.352941  0.470588      4.000000
 -0.294118  0.352941  0.470588      4.000000
 -0.235294  0.352941  0.470588      4.000000
 -0.176471  0.352941  0.470588      4.000000
 -0.117647  0.352941  0.470588      4.000000
 -0.058824  0.352941  0.470588      4.000000
 -0.000000  0.411765  0.470588      4.000000
  0.058824  0.411765  0.470588      4.000000
  0.117647  0.411765  0.470588      4.000000
  0.176471  0.411765  0.470588      4.000000
  0.235294  0.411765  0.470588      4.000000
  0.294118  0.411765  0.470588      4.000000
  0.352941  0.411765  0.470588      4.000000
  0.411765  0.411765  0.470588      4.000000
  0.470588  0.411765  0.470588      4.000000
 -0.470588  0.411765  0.470588      4.000000
 -0.411765  0.411765  0.470588      4.000000
 -0.352941  0.411765  0.470588      4.000000
 -0.294118  0.411765  0.470588      4.000000
 -0.235294  0.411765  0.470588      4.000000
 -0.176471  0.411765  0.470588      4.000000
 -0.117647  0.411765  0.470588      4.000000
 -0.058824  0.411765  0.470588      4.000000
  0.000000  0.470588  0.470588      4.000000
  0.058824  0.470588  0.470588      4.000000
  0.117647  0.470588  0.470588      4.000000
  0.176471  0.470588  0.470588      4.000000
  0.235294  0.470588  0.470588      4.000000
  0.294118  0.470588  0.470588      4.000000
  0.352941  0.470588  0.470588      4.000000
  0.411765  0.470588  0.470588      4.000000
  0.470588  0.470588  0.470588      4.000000
 -0.470588  0.470588  0.470588      4.000000
 -0.411765  0.470588  0.470588      4.000000
 -0.352941  0.470588  0.470588      4.000000
 -0.294118  0.470588  0.470588      4.000000
 -0.235294  0.470588  0.470588      4.000000
 -0.176471  0.470588  0.470588      4.000000
 -0.117647  0.470588  0.470588      4.000000
 -0.058824  0.470588  0.470588      4.000000
 
 Following cartesian coordinates:
            Coordinates               Weight
  0.000000  0.000000  0.000000      1.000000
  0.016144 -0.000161  0.000000      2.000000
  0.032288 -0.000323  0.000000      2.000000
  0.048432 -0.000484  0.000000      2.000000
  0.064576 -0.000646  0.000000      2.000000
  0.080720 -0.000807  0.000000      2.000000
  0.096864 -0.000969  0.000000      2.000000
  0.113008 -0.001130  0.000000      2.000000
  0.129152 -0.001292  0.000000      2.000000
 -0.000161  0.016467  0.000000      2.000000
  0.015983  0.016305  0.000000      2.000000
  0.032127  0.016144  0.000000      2.000000
  0.048271  0.015983  0.000000      2.000000
  0.064415  0.015821  0.000000      2.000000
  0.080559  0.015660  0.000000      2.000000
  0.096703  0.015498  0.000000      2.000000
  0.112847  0.015337  0.000000      2.000000
  0.128991  0.015175  0.000000      2.000000
 -0.129314  0.017758  0.000000      2.000000
 -0.113170  0.017597  0.000000      2.000000
 -0.097026  0.017436  0.000000      2.000000
 -0.080882  0.017274  0.000000      2.000000
 -0.064738  0.017113  0.000000      2.000000
 -0.048594  0.016951  0.000000      2.000000
 -0.032450  0.016790  0.000000      2.000000
 -0.016306  0.016628  0.000000      2.000000
 -0.000323  0.032934  0.000000      2.000000
  0.015821  0.032772  0.000000      2.000000
  0.031965  0.032611  0.000000      2.000000
  0.048109  0.032450  0.000000      2.000000
  0.064253  0.032288  0.000000      2.000000
  0.080397  0.032127  0.000000      2.000000
  0.096541  0.031965  0.000000      2.000000
  0.112686  0.031804  0.000000      2.000000
  0.128830  0.031642  0.000000      2.000000
 -0.129475  0.034225  0.000000      2.000000
 -0.113331  0.034064  0.000000      2.000000
 -0.097187  0.033903  0.000000      2.000000
 -0.081043  0.033741  0.000000      2.000000
 -0.064899  0.033580  0.000000      2.000000
 -0.048755  0.033418  0.000000      2.000000
 -0.032611  0.033257  0.000000      2.000000
 -0.016467  0.033095  0.000000      2.000000
 -0.000484  0.049401  0.000000      2.000000
  0.015660  0.049239  0.000000      2.000000
  0.031804  0.049078  0.000000      2.000000
  0.047948  0.048916  0.000000      2.000000
  0.064092  0.048755  0.000000      2.000000
  0.080236  0.048594  0.000000      2.000000
  0.096380  0.048432  0.000000      2.000000
  0.112524  0.048271  0.000000      2.000000
  0.128668  0.048109  0.000000      2.000000
 -0.129637  0.050692  0.000000      2.000000
 -0.113493  0.050531  0.000000      2.000000
 -0.097349  0.050369  0.000000      2.000000
 -0.081205  0.050208  0.000000      2.000000
 -0.065061  0.050047  0.000000      2.000000
 -0.048917  0.049885  0.000000      2.000000
 -0.032772  0.049724  0.000000      2.000000
 -0.016628  0.049562  0.000000      2.000000
 -0.000646  0.065868  0.000000      2.000000
  0.015498  0.065706  0.000000      2.000000
  0.031642  0.065545  0.000000      2.000000
  0.047786  0.065383  0.000000      2.000000
  0.063930  0.065222  0.000000      2.000000
  0.080075  0.065061  0.000000      2.000000
  0.096219  0.064899  0.000000      2.000000
  0.112363  0.064738  0.000000      2.000000
  0.128507  0.064576  0.000000      2.000000
 -0.129798  0.067159  0.000000      2.000000
 -0.113654  0.066998  0.000000      2.000000
 -0.097510  0.066836  0.000000      2.000000
 -0.081366  0.066675  0.000000      2.000000
 -0.065222  0.066514  0.000000      2.000000
 -0.049078  0.066352  0.000000      2.000000
 -0.032934  0.066191  0.000000      2.000000
 -0.016790  0.066029  0.000000      2.000000
 -0.000807  0.082335  0.000000      2.000000
  0.015337  0.082173  0.000000      2.000000
  0.031481  0.082012  0.000000      2.000000
  0.047625  0.081850  0.000000      2.000000
  0.063769  0.081689  0.000000      2.000000
  0.079913  0.081527  0.000000      2.000000
  0.096057  0.081366  0.000000      2.000000
  0.112201  0.081205  0.000000      2.000000
  0.128345  0.081043  0.000000      2.000000
 -0.129960  0.083626  0.000000      2.000000
 -0.113816  0.083465  0.000000      2.000000
 -0.097672  0.083303  0.000000      2.000000
 -0.081528  0.083142  0.000000      2.000000
 -0.065383  0.082980  0.000000      2.000000
 -0.049239  0.082819  0.000000      2.000000
 -0.033095  0.082658  0.000000      2.000000
 -0.016951  0.082496  0.000000      2.000000
 -0.000969  0.098802  0.000000      2.000000
  0.015175  0.098640  0.000000      2.000000
  0.031319  0.098479  0.000000      2.000000
  0.047464  0.098317  0.000000      2.000000
  0.063608  0.098156  0.000000      2.000000
  0.079752  0.097994  0.000000      2.000000
  0.095896  0.097833  0.000000      2.000000
  0.112040  0.097672  0.000000      2.000000
  0.128184  0.097510  0.000000      2.000000
 -0.130121  0.100093  0.000000      2.000000
 -0.113977  0.099932  0.000000      2.000000
 -0.097833  0.099770  0.000000      2.000000
 -0.081689  0.099609  0.000000      2.000000
 -0.065545  0.099447  0.000000      2.000000
 -0.049401  0.099286  0.000000      2.000000
 -0.033257  0.099125  0.000000      2.000000
 -0.017113  0.098963  0.000000      2.000000
 -0.001130  0.115269  0.000000      2.000000
  0.015014  0.115107  0.000000      2.000000
  0.031158  0.114946  0.000000      2.000000
  0.047302  0.114784  0.000000      2.000000
  0.063446  0.114623  0.000000      2.000000
  0.079590  0.114461  0.000000      2.000000
  0.095734  0.114300  0.000000      2.000000
  0.111878  0.114138  0.000000      2.000000
  0.128022  0.113977  0.000000      2.000000
 -0.130283  0.116560  0.000000      2.000000
 -0.114139  0.116399  0.000000      2.000000
 -0.097994  0.116237  0.000000      2.000000
 -0.081850  0.116076  0.000000      2.000000
 -0.065706  0.115914  0.000000      2.000000
 -0.049562  0.115753  0.000000      2.000000
 -0.033418  0.115591  0.000000      2.000000
 -0.017274  0.115430  0.000000      2.000000
 -0.001292  0.131736  0.000000      2.000000
  0.014853  0.131574  0.000000      2.000000
  0.030997  0.131413  0.000000      2.000000
  0.047141  0.131251  0.000000      2.000000
  0.063285  0.131090  0.000000      2.000000
  0.079429  0.130928  0.000000      2.000000
  0.095573  0.130767  0.000000      2.000000
  0.111717  0.130605  0.000000      2.000000
  0.127861  0.130444  0.000000      2.000000
 -0.130444  0.133027  0.000000      2.000000
 -0.114300  0.132866  0.000000      2.000000
 -0.098156  0.132704  0.000000      2.000000
 -0.082012  0.132543  0.000000      2.000000
 -0.065868  0.132381  0.000000      2.000000
 -0.049724  0.132220  0.000000      2.000000
 -0.033580  0.132058  0.000000      2.000000
 -0.017436  0.131897  0.000000      2.000000
  0.000000  0.000000  0.016465      2.000000
  0.016144 -0.000161  0.016465      4.000000
  0.032288 -0.000323  0.016465      4.000000
  0.048432 -0.000484  0.016465      4.000000
  0.064576 -0.000646  0.016465      4.000000
  0.080720 -0.000807  0.016465      4.000000
  0.096864 -0.000969  0.016465      4.000000
  0.113008 -0.001130  0.016465      4.000000
  0.129152 -0.001292  0.016465      4.000000
 -0.000161  0.016467  0.016465      4.000000
  0.015983  0.016305  0.016465      4.000000
  0.032127  0.016144  0.016465      4.000000
  0.048271  0.015983  0.016465      4.000000
  0.064415  0.015821  0.016465      4.000000
  0.080559  0.015660  0.016465      4.000000
  0.096703  0.015498  0.016465      4.000000
  0.112847  0.015337  0.016465      4.000000
  0.128991  0.015175  0.016465      4.000000
 -0.129314  0.017758  0.016465      4.000000
 -0.113170  0.017597  0.016465      4.000000
 -0.097026  0.017436  0.016465      4.000000
[...]
      1      -7.4427      2.00000
      2      -6.9760      2.00000
      3      -6.8560      2.00000
      4      -6.4051      2.00000
      5      -2.2312      2.00000
      6      -1.9097      2.00000
      7      -1.7963      2.00000
      8      -1.4567      2.00000
      9       4.0945      2.00000
     10       4.4366      2.00000
     11       4.6273      2.00000
     12       4.9785      2.00000
     13       6.4207      2.00000
     14       6.5740      2.00000
     15       6.7006      2.00000
     16       7.0024      2.00000
     17      17.4246      0.00000
     18      17.6113      0.00000
     19      17.6932      0.00000
     20      17.8195      0.00000
     21      18.2147      0.00000
     22      18.4874      0.00000
     23      18.5266      0.00000
     24      18.8334      0.00000

 k-point  1294 :       0.2941    0.4706    0.4706
  band No.  band energies     occupation 
      1      -7.2287      2.00000
      2      -6.7872      2.00000
      3      -6.6315      2.00000
      4      -6.2171      2.00000
      5      -2.8363      2.00000
      6      -2.5179      2.00000
      7      -2.4332      2.00000
      8      -2.0871      2.00000
      9       4.8305      2.00000
     10       5.1216      2.00000
     11       5.3040      2.00000
     12       5.6084      2.00000
     13       6.4799      2.00000
     14       6.5962      2.00000
     15       6.7484      2.00000
     16       7.0068      2.00000
     17      17.5003      0.00000
     18      17.5590      0.00000
     19      17.6774      0.00000
     20      17.7896      0.00000
     21      18.0833      0.00000
     22      18.3456      0.00000
     23      18.4264      0.00000
     24      18.5057      0.00000

 k-point  1295 :       0.3529    0.4706    0.4706
  band No.  band energies     occupation 
      1      -6.9803      2.00000
      2      -6.5822      2.00000
      3      -6.3865      2.00000
      4      -6.0433      2.00000
      5      -3.3274      2.00000
      6      -3.0410      2.00000
      7      -2.9913      2.00000
      8      -2.6509      2.00000
      9       5.4737      2.00000
     10       5.6973      2.00000
     11       5.8686      2.00000
     12       6.1100      2.00000
     13       6.5459      2.00000
     14       6.6177      2.00000
     15       6.7905      2.00000
     16       6.9979      2.00000
     17      17.4321      0.00000
     18      17.5237      0.00000
     19      17.6227      0.00000
     20      17.7172      0.00000
     21      17.9279      0.00000
     22      18.0943      0.00000
     23      18.1256      0.00000
     24      18.3085      0.00000

 k-point  1296 :       0.4118    0.4706    0.4706
  band No.  band energies     occupation 
      1      -6.7149      2.00000
      2      -6.3937      2.00000
      3      -6.1556      2.00000
      4      -5.9488      2.00000
      5      -3.6360      2.00000
      6      -3.4428      2.00000
      7      -3.4325      2.00000
      8      -3.1270      2.00000
      9       5.9793      2.00000
     10       6.1180      2.00000
     11       6.2787      2.00000
     12       6.4392      2.00000
     13       6.6137      2.00000
     14       6.6342      2.00000
     15       6.8212      2.00000
     16       6.9727      2.00000
     17      17.2732      0.00000
     18      17.3976      0.00000
     19      17.5813      0.00000
     20      17.6590      0.00000
     21      17.7554      0.00000
     22      17.8483      0.00000
     23      17.8532      0.00000
     24      18.0434      0.00000

 k-point  1297 :       0.4706    0.4706    0.4706
  band No.  band energies     occupation 
      1      -6.4642      2.00000
      2      -6.2743      2.00000
      3      -6.0083      2.00000
      4      -6.0038      2.00000
      5      -3.6891      2.00000
      6      -3.6850      2.00000
      7      -3.6687      2.00000
      8      -3.4816      2.00000
      9       6.3012      2.00000
     10       6.3395      2.00000
     11       6.4944      2.00000
     12       6.5598      2.00000
     13       6.6439      2.00000
     14       6.6787      2.00000
     15       6.8376      2.00000
     16       6.9297      2.00000
     17      17.1617      0.00000
     18      17.2041      0.00000
     19      17.6068      0.00000
     20      17.6298      0.00000
     21      17.7073      0.00000
     22      17.7248      0.00000
     23      17.7488      0.00000
     24      17.7903      0.00000

 k-point  1298 :      -0.4706    0.4706    0.4706
  band No.  band energies     occupation 
      1      -6.2800      2.00000
      2      -6.2759      2.00000
      3      -6.2204      2.00000
      4      -6.0059      2.00000
      5      -3.6856      2.00000
      6      -3.6655      2.00000
      7      -3.6618      2.00000
      8      -3.4749      2.00000
      9       6.3309      2.00000
     10       6.4038      2.00000
     11       6.4562      2.00000
     12       6.4867      2.00000
     13       6.6493      2.00000
     14       6.7363      2.00000
     15       6.8426      2.00000
     16       6.8694      2.00000
     17      17.1314      0.00000
     18      17.1583      0.00000
     19      17.6554      0.00000
     20      17.6573      0.00000
     21      17.7050      0.00000
     22      17.7161      0.00000
     23      17.7227      0.00000
     24      17.7982      0.00000

 k-point  1299 :      -0.4118    0.4706    0.4706
  band No.  band energies     occupation 
      1      -6.5097      2.00000
      2      -6.3977      2.00000
      3      -6.2152      2.00000
      4      -6.1606      2.00000
      5      -3.6145      2.00000
      6      -3.4344      2.00000
      7      -3.4230      2.00000
      8      -3.0812      2.00000
      9       6.0984      2.00000
     10       6.1394      2.00000
     11       6.2601      2.00000
     12       6.2756      2.00000
     13       6.6449      2.00000
     14       6.7838      2.00000
     15       6.7950      2.00000
     16       6.8321      2.00000
     17      17.2328      0.00000
     18      17.2717      0.00000
     19      17.6489      0.00000
     20      17.7003      0.00000
     21      17.7035      0.00000
     22      17.8014      0.00000
     23      17.8672      0.00000
     24      17.9993      0.00000

 k-point  1300 :      -0.3529    0.4706    0.4706
  band No.  band energies     occupation 
      1      -6.8121      2.00000
      2      -6.5870      2.00000
      3      -6.3924      2.00000
      4      -6.2721      2.00000
      5      -3.3383      2.00000
      6      -3.0287      2.00000
      7      -2.9781      2.00000
      8      -2.5691      2.00000
      9       5.6422      2.00000
     10       5.6724      2.00000
     11       5.8438      2.00000
     12       5.9339      2.00000
     13       6.6294      2.00000
     14       6.7115      2.00000
     15       6.8037      2.00000
     16       6.8210      2.00000
     17      17.4689      0.00000
     18      17.4868      0.00000
     19      17.6822      0.00000
     20      17.7414      0.00000
     21      17.7518      0.00000
     22      17.8728      0.00000
     23      17.9323      0.00000
     24      18.2298      0.00000

 k-point  1301 :      -0.2941    0.4706    0.4706
  band No.  band energies     occupation 
      1      -7.0937      2.00000
      2      -6.7919      2.00000
      3      -6.6371      2.00000
      4      -6.3993      2.00000
      5      -2.8866      2.00000
      6      -2.5028      2.00000
      7      -2.4171      2.00000
      8      -1.9750      2.00000
      9       5.0071      2.00000
     10       5.0940      2.00000
     11       5.2759      2.00000
     12       5.4190      2.00000
     13       6.6075      2.00000
     14       6.6248      2.00000
     15       6.7623      2.00000
     16       6.8488      2.00000
     17      17.6041      0.00000
     18      17.6790      0.00000
     19      17.7213      0.00000
     20      17.8614      0.00000
     21      17.9067      0.00000
     22      17.9250      0.00000
     23      17.9654      0.00000
     24      18.3268      0.00000

 k-point  1302 :      -0.2353    0.4706    0.4706
  band No.  band energies     occupation 
      1      -7.3376      2.00000
      2      -6.9801      2.00000
      3      -6.8609      2.00000
      4      -6.5441      2.00000
      5      -2.3158      2.00000
      6      -1.8923      2.00000
      7      -1.7780      2.00000
      8      -1.3197      2.00000
      9       4.2765      2.00000
     10       4.4080      2.00000
     11       4.5979      2.00000
     12       4.7786      2.00000
     13       6.5408      2.00000
     14       6.5840      2.00000
     15       6.7141      2.00000
     16       6.8691      2.00000
     17      17.5013      0.00000
     18      17.7211      0.00000
     19      17.7618      0.00000
     20      17.8068      0.00000
     21      18.1028      0.00000
     22      18.1934      0.00000
     23      18.1943      0.00000
     24      18.6589      0.00000

 k-point  1303 :      -0.1765    0.4706    0.4706
  band No.  band energies     occupation 
      1      -7.5355      2.00000
      2      -7.1342      2.00000
      3      -7.0473      2.00000
      4      -6.6736      2.00000
      5      -1.6648      2.00000
      6      -1.2206      2.00000
      7      -1.0843      2.00000
      8      -0.6184      2.00000
      9       3.4881      2.00000
     10       3.6561      2.00000
     11       3.8492      2.00000
     12       4.0583      2.00000
     13       6.4652      2.00000
     14       6.5636      2.00000
     15       6.6649      2.00000
     16       6.8848      2.00000
     17      17.4003      0.00000
     18      17.6724      0.00000
     19      17.7280      0.00000
     20      17.7481      0.00000
     21      18.3898      0.00000
     22      18.3930      0.00000
     23      18.4661      0.00000
     24      19.1517      0.00000

 k-point  1304 :      -0.1176    0.4706    0.4706
  band No.  band energies     occupation 
      1      -7.6828      2.00000
      2      -7.2450      2.00000
      3      -7.1881      2.00000
      4      -6.7701      2.00000
      5      -0.9633      2.00000
      6      -0.5093      2.00000
      7      -0.3585      2.00000
      8       0.1103      2.00000
      9       2.6779      2.00000
     10       2.8791      2.00000
     11       3.0677      2.00000
     12       3.3015      2.00000
     13       6.4030      2.00000
     14       6.5503      2.00000
     15       6.6200      2.00000
     16       6.8988      2.00000
     17      17.3166      0.00000
     18      17.6232      0.00000
     19      17.6579      0.00000
     20      17.7232      0.00000
     21      18.5538      0.00000
     22      18.6712      0.00000
     23      18.7240      0.00000
     24      19.4045      0.00000

 k-point  1305 :      -0.0588    0.4706    0.4706
  band No.  band energies     occupation 
      1      -7.7769      2.00000
      2      -7.3073      2.00000
      3      -7.2793      2.00000
      4      -6.8247      2.00000
      5      -0.2569      2.00000
      6       0.2015      2.00000
      7       0.3454      2.00000
      8       0.8169      2.00000
      9       1.8983      2.00000
     10       2.1439      2.00000
     11       2.3063      2.00000
     12       2.5750      2.00000
     13       6.3578      2.00000
     14       6.5471      2.00000
     15       6.5835      2.00000
     16       6.9135      2.00000
     17      17.2594      0.00000
     18      17.5913      0.00000
     19      17.6069      0.00000
     20      17.7061      0.00000
     21      18.6681      0.00000
     22      18.8877      0.00000
     23      18.9222      0.00000
     24      19.5665      0.00000


--------------------------------------------------------------------------------------------------------


 soft charge-density along one line, spin component           1
         0         1         2         3         4         5         6         7         8         9
 total charge-density along one line
 
 pseudopotential strength for first ion, spin component:           1
  9.453  12.554   0.000  -0.000   0.000  -0.000   0.000  -0.000
 12.554  16.670   0.000  -0.000   0.000  -0.000   0.000  -0.000
  0.000   0.000  -3.681  -0.000  -0.000   7.211   0.000   0.000
 -0.000  -0.000  -0.000  -3.681  -0.000   0.000   7.211   0.000
  0.000   0.000  -0.000  -0.000  -3.681   0.000   0.000   7.212
 -0.000  -0.000   7.211   0.000   0.000 -16.223  -0.000  -0.001
  0.000   0.000   0.000   7.211   0.000  -0.000 -16.224  -0.000
 -0.000  -0.000   0.000   0.000   7.212  -0.001  -0.000 -16.225
 total augmentation occupancy for first ion, spin component:           1
  7.204  -3.147   0.000  -0.044   0.000   0.000  -0.007   0.000
 -3.147   1.460   0.000   0.025  -0.000   0.000   0.004  -0.000
  0.000  -0.000   1.539  -0.000  -0.019   0.125   0.000  -0.001
 -0.044   0.025   0.000   1.539   0.000   0.000   0.125  -0.000
  0.000   0.000  -0.019   0.000   1.539  -0.001   0.000   0.127
 -0.000  -0.000   0.125   0.000  -0.001   0.012   0.000  -0.000
 -0.007   0.004   0.000   0.125  -0.000   0.000   0.012  -0.000
  0.000   0.000  -0.001  -0.000   0.127  -0.000   0.000   0.012


------------------------ aborting loop because EDIFF is reached ----------------------------------------


    CHARGE:  cpu time      0.0329: real time      0.0329
    FORLOC:  cpu time      0.0002: real time      0.0002
    FORNL :  cpu time      0.2954: real time      0.2961
    STRESS:  cpu time      1.0151: real time      1.0177
    FORCOR:  cpu time      0.0038: real time      0.0042
    FORHAR:  cpu time      0.0010: real time      0.0010
    MIXING:  cpu time      0.0024: real time      0.0024
    OFIELD:  cpu time      0.0008: real time      0.0009

  FORCE on cell =-STRESS in cart. coord.  units (eV):
  Direction    XX          YY          ZZ          XY          YZ          ZX
  --------------------------------------------------------------------------------------
  Alpha Z   113.04995   113.04995   113.04995
  Ewald    -451.80849  -464.33716  -464.32891   -10.23060     0.00000     0.00000
  Hartree    37.47976    34.79437    34.74997    -2.61909    -0.00000    -0.00000
  E(xc)    -121.01266  -121.10409  -121.10415    -0.00479    -0.00000    -0.00000
  Local     -55.22993   -40.98483   -40.91564    11.86189    -0.00000    -0.00000
  n-local   -27.56358   -28.15165   -28.08775     0.43264     0.67081     0.05076
  augment    -2.80851    -2.79981    -2.80009     0.00135     0.00000     0.00000
  Kinetic   501.96286   508.90904   508.80306    -2.49725    -5.07575    -0.23471
  Fock        0.00000     0.00000     0.00000     0.00000     0.00000     0.00000
  -------------------------------------------------------------------------------------
  Total      -5.93058    -0.62418    -0.63356    -3.05586     0.00000     0.00000
  in kB    -204.31878   -21.50411   -21.82715  -105.27947     0.00000     0.00000
  external pressure =      -82.55 kB  Pullay stress =        0.00 kB


 VOLUME and BASIS-vectors are now :
 -----------------------------------------------------------------------------
  energy-cutoff  :      520.00
  volume of cell :       46.51
      direct lattice vectors                 reciprocal lattice vectors
     3.644021011  0.035726000  0.000000000     0.274449035 -0.002744513  0.000000000
     0.035726000  3.572570011  0.000000000    -0.002744513  0.279937985  0.000000000
     0.000000000  0.000000000  3.572570011     0.000000000  0.000000000  0.279910540

  length of vectors
     3.644196136  3.572748638  3.572570011     0.274462757  0.279951438  0.279910540


 FORCES acting on ions
    electron-ion (+dipol)            ewald-force                    non-local-force                 convergence-correction
 -----------------------------------------------------------------------------------------------
   0.651E-10 0.301E-10 -.348E+01   0.000E+00 -.284E-13 0.355E+01   0.566E-16 0.366E-17 -.262E-01   0.178E-13 0.154E-13 -.300E-04
   -.651E-10 -.303E-10 0.348E+01   -.809E-14 -.220E-13 -.355E+01   0.267E-16 0.417E-17 0.262E-01   -.164E-13 -.140E-13 0.300E-04
   0.651E-10 0.301E-10 -.348E+01   0.000E+00 -.213E-13 0.355E+01   -.416E-16 -.666E-18 -.262E-01   0.184E-13 0.176E-13 -.300E-04
   -.651E-10 -.303E-10 0.348E+01   -.532E-14 -.143E-13 -.355E+01   -.133E-16 0.829E-18 0.262E-01   -.171E-13 -.163E-13 0.300E-04
   0.651E-10 0.301E-10 -.348E+01   -.711E-14 0.142E-13 0.355E+01   -.223E-16 -.199E-17 -.262E-01   0.446E-13 0.133E-13 -.300E-04
   -.651E-10 -.296E-10 0.348E+01   -.854E-16 0.211E-13 -.355E+01   -.513E-16 -.354E-17 0.262E-01   -.417E-13 -.150E-13 0.300E-04
   0.652E-10 0.305E-10 -.348E+01   0.000E+00 0.213E-13 0.355E+01   -.250E-17 -.352E-19 -.262E-01   0.433E-13 0.146E-13 -.300E-04
   -.651E-10 -.299E-10 0.348E+01   0.701E-14 0.284E-13 -.355E+01   0.233E-16 0.499E-17 0.262E-01   -.418E-13 -.160E-13 0.300E-04
 -----------------------------------------------------------------------------------------------
   0.109E-12 0.848E-12 -.686E-12   -.136E-13 -.104E-14 -.888E-15   -.244E-16 0.742E-17 0.312E-16   0.716E-14 -.294E-15 -.239E-13
 
 
 POSITION                                       TOTAL-FORCE (eV/Angst)
 -----------------------------------------------------------------------------------
      0.00000      0.00000      1.78629         0.000000      0.000000      0.039900
      0.91994      0.90207      2.67943        -0.000000     -0.000000     -0.039900
      0.01786      1.78629      0.00000        -0.000000     -0.000000      0.039900
      0.93780      2.68836      0.89314        -0.000000      0.000000     -0.039900
      1.82201      0.01786      0.00000        -0.000000      0.000000      0.039900
      2.74195      0.91994      0.89314        -0.000000     -0.000000     -0.039900
      1.83987      1.80415      1.78629        -0.000000     -0.000000      0.039900
      2.75981      2.70622      2.67943         0.000000      0.000000     -0.039900
 -----------------------------------------------------------------------------------
    total drift:                                0.000000      0.000000     -0.000000


--------------------------------------------------------------------------------------------------------



  FREE ENERGIE OF THE ION-ELECTRON SYSTEM (eV)
  ---------------------------------------------------
  free  energy   TOTEN  =       -72.66091870 eV

  energy  without entropy=      -72.66091870  energy(sigma->0) =      -72.66091870
 


--------------------------------------------------------------------------------------------------------


    POTLOK:  cpu time      0.0072: real time      0.0072


--------------------------------------------------------------------------------------------------------


     LOOP+:  cpu time     18.5527: real time     19.0062
    4ORBIT:  cpu time      0.0000: real time      0.0000
 BZINTS: Fermi energy:    9.576589;   32.000000 electrons
         Band energy: 0.177623E+02;  BLOECHL correction:    0.000000

 total amount of memory used by VASP MPI-rank0    88711. kBytes
=======================================================================

   base      :      30000. kBytes
   nonlr-proj:        547. kBytes
   fftplans  :        871. kBytes
   grid      :        643. kBytes
   one-center:         24. kBytes
   wavefun   :      56626. kBytes
 
  
  
 General timing and accounting informations for this job:
 ========================================================
  
                  Total CPU time used (sec):       37.520
                            User time (sec):       25.168
                          System time (sec):       12.352
                         Elapsed time (sec):       38.952
  
                   Maximum memory used (kb):      250248.
                   Average memory used (kb):          N/A
  
                          Minor page faults:        46167
                          Major page faults:            0
                 Voluntary context switches:         5885
