<?xml version="1.0" encoding="ISO-8859-1"?>
<modeling>
 <generator>
  <i name="program" type="string">vasp </i>
  <i name="version" type="string">6.4.3  </i>
  <i name="subversion" type="string">19Mar24 (build Oct 21 2024 22:36:34) complex                          parallel </i>
  <i name="platform" type="string">LinuxIFC </i>
  <i name="date" type="string">2024 12 26 </i>
  <i name="time" type="string">00:34:21 </i>
 </generator>
 <incar>
  <i type="string" name="SYSTEM">C8</i>
  <i type="int" name="ISTART">     0</i>
  <i type="string" name="PREC">Normal</i>
  <i type="string" name="ALGO">Fast</i>
  <i type="logical" name="ADDGRID"> T  </i>
  <i type="int" name="ICHARG">     2</i>
  <i type="int" name="NELM">    60</i>
  <i type="int" name="NELMIN">     8</i>
  <i type="int" name="IBRION">    -1</i>
  <i name="EDIFF">      0.00000100</i>
  <i type="int" name="NSW">     0</i>
  <i type="int" name="ISIF">     2</i>
  <i name="ENCUT">    520.00000000</i>
  <i type="string" name="LREAL">Auto</i>
  <i type="int" name="ISMEAR">    -5</i>
  <i type="logical" name="LWAVE"> F  </i>
  <i type="logical" name="LCHARG"> F  </i>
 </incar>
 <primitive_cell>
  <structure name="primitive_cell" >
   <crystal>
    <varray name="basis" >
     <v>       0.01786300       1.78628501      -1.78628501 </v>
     <v>       0.01786300       1.78628501       1.78628501 </v>
     <v>       1.80414751      -1.76842201       0.00000000 </v>
    </varray>
    <i name="volume">     11.62625374 </i>
    <varray name="rec_basis" >
     <v>       0.27170452       0.27719347      -0.27991054 </v>
     <v>       0.27170452       0.27719347       0.27991054 </v>
     <v>       0.54889807      -0.00548903       0.00000000 </v>
    </varray>
   </crystal>
   <varray name="positions" >
    <v>       0.50000000       0.50000000       0.00000000 </v>
    <v>       0.75000000       0.25000000       0.50000000 </v>
   </varray>
  </structure>
  <varray name="primitive_index" >
   <v type="int" >        1 </v>
   <v type="int" >        2 </v>
  </varray>
 </primitive_cell>
 <kpoints>
  <generation param="Gamma">
   <v type="int" name="divisions">      17       17       17 </v>
   <v name="usershift">      0.00000000       0.00000000       0.00000000 </v>
   <v name="genvec1">      0.05882353      -0.00000000       0.00000000 </v>
   <v name="genvec2">      0.00000000       0.05882353       0.00000000 </v>
   <v name="genvec3">      0.00000000       0.00000000       0.05882353 </v>
   <v name="shift">      0.00000000       0.00000000       0.00000000 </v>
  </generation>
  <varray name="kpointlist" >
   <v>       0.00000000       0.00000000       0.00000000 </v>
   <v>       0.05882353      -0.00000000       0.00000000 </v>
   <v>       0.11764706       0.00000000       0.00000000 </v>
   <v>       0.17647059       0.00000000       0.00000000 </v>
   <v>       0.23529412       0.00000000       0.00000000 </v>
   <v>       0.29411765       0.00000000       0.00000000 </v>
   <v>       0.35294118       0.00000000       0.00000000 </v>
   <v>       0.41176471       0.00000000       0.00000000 </v>
   <v>       0.47058824       0.00000000       0.00000000 </v>
   <v>      -0.00000000       0.05882353       0.00000000 </v>
   <v>       0.05882353       0.05882353       0.00000000 </v>
   <v>       0.11764706       0.05882353       0.00000000 </v>
   <v>       0.17647059       0.05882353       0.00000000 </v>
   <v>       0.23529412       0.05882353       0.00000000 </v>
   <v>       0.29411765       0.05882353       0.00000000 </v>
   <v>       0.35294118       0.05882353       0.00000000 </v>
   <v>       0.41176471       0.05882353       0.00000000 </v>
   <v>       0.47058824       0.05882353       0.00000000 </v>
   <v>      -0.47058824       0.05882353       0.00000000 </v>
   <v>      -0.41176471       0.05882353       0.00000000 </v>
   <v>      -0.35294118       0.05882353       0.00000000 </v>
   <v>      -0.29411765       0.05882353       0.00000000 </v>
   <v>      -0.23529412       0.05882353       0.00000000 </v>
   <v>      -0.17647059       0.05882353       0.00000000 </v>
   <v>      -0.11764706       0.05882353       0.00000000 </v>
   <v>      -0.05882353       0.05882353       0.00000000 </v>
   <v>       0.00000000       0.11764706       0.00000000 </v>
   <v>       0.05882353       0.11764706       0.00000000 </v>
   <v>       0.11764706       0.11764706       0.00000000 </v>
   <v>       0.17647059       0.11764706       0.00000000 </v>
   <v>       0.23529412       0.11764706       0.00000000 </v>
   <v>       0.29411765       0.11764706       0.00000000 </v>
   <v>       0.35294118       0.11764706       0.00000000 </v>
   <v>       0.41176471       0.11764706       0.00000000 </v>
   <v>       0.47058824       0.11764706       0.00000000 </v>
   <v>      -0.47058824       0.11764706       0.00000000 </v>
   <v>      -0.41176471       0.11764706       0.00000000 </v>
   <v>      -0.35294118       0.11764706       0.00000000 </v>
   <v>      -0.29411765       0.11764706       0.00000000 </v>
   <v>      -0.23529412       0.11764706       0.00000000 </v>
   <v>      -0.17647059       0.11764706       0.00000000 </v>
   <v>      -0.11764706       0.11764706       0.00000000 </v>
   <v>      -0.05882353       0.11764706       0.00000000 </v>
   <v>      -0.00000000       0.17647059       0.00000000 </v>
   <v>       0.05882353       0.17647059       0.00000000 </v>
   <v>       0.11764706       0.17647059       0.00000000 </v>
   <v>       0.17647059       0.17647059       0.00000000 </v>
   <v>       0.23529412       0.17647059       0.00000000 </v>
   <v>       0.29411765       0.17647059       0.00000000 </v>
   <v>       0.35294118       0.17647059       0.00000000 </v>
   <v>       0.41176471       0.17647059       0.00000000 </v>
   <v>       0.47058824       0.17647059       0.00000000 </v>
   <v>      -0.47058824       0.17647059       0.00000000 </v>
   <v>      -0.41176471       0.17647059       0.00000000 </v>
   <v>      -0.35294118       0.17647059       0.00000000 </v>
   <v>      -0.29411765       0.17647059       0.00000000 </v>
   <v>      -0.23529412       0.17647059       0.00000000 </v>
   <v>      -0.17647059       0.17647059       0.00000000 </v>
   <v>      -0.11764706       0.17647059       0.00000000 </v>
   <v>      -0.05882353       0.17647059       0.00000000 </v>
   <v>       0.00000000       0.23529412       0.00000000 </v>
   <v>       0.05882353       0.23529412       0.00000000 </v>
   <v>       0.11764706       0.23529412       0.00000000 </v>
   <v>       0.17647059       0.23529412       0.00000000 </v>
   <v>       0.23529412       0.23529412       0.00000000 </v>
   <v>       0.29411765       0.23529412       0.00000000 </v>
   <v>       0.35294118       0.23529412       0.00000000 </v>
   <v>       0.41176471       0.23529412       0.00000000 </v>
   <v>       0.47058824       0.23529412       0.00000000 </v>
   <v>      -0.47058824       0.23529412       0.00000000 </v>
   <v>      -0.41176471       0.23529412       0.00000000 </v>
   <v>      -0.35294118       0.23529412       0.00000000 </v>
   <v>      -0.29411765       0.23529412       0.00000000 </v>
   <v>      -0.23529412       0.23529412       0.00000000 </v>
   <v>      -0.17647059       0.23529412       0.00000000 </v>
   <v>      -0.11764706       0.23529412       0.00000000 </v>
   <v>      -0.05882353       0.23529412       0.00000000 </v>
   <v>      -0.00000000       0.29411765       0.00000000 </v>
   <v>       0.05882353       0.29411765       0.00000000 </v>
   <v>       0.11764706       0.29411765       0.00000000 </v>
   <v>       0.17647059       0.29411765       0.00000000 </v>
   <v>       0.23529412       0.29411765       0.00000000 </v>
   <v>       0.29411765       0.29411765       0.00000000 </v>
   <v>       0.35294118       0.29411765       0.00000000 </v>
   <v>       0.41176471       0.29411765       0.00000000 </v>
   <v>       0.47058824       0.29411765       0.00000000 </v>
   <v>      -0.47058824       0.29411765       0.00000000 </v>
   <v>      -0.41176471       0.29411765       0.00000000 </v>
   <v>      -0.35294118       0.29411765       0.00000000 </v>
   <v>      -0.29411765       0.29411765       0.00000000 </v>
   <v>      -0.23529412       0.29411765       0.00000000 </v>
   <v>      -0.17647059       0.29411765       0.00000000 </v>
   <v>      -0.11764706       0.29411765       0.00000000 </v>
   <v>      -0.05882353       0.29411765       0.00000000 </v>
   <v>       0.00000000       0.35294118       0.00000000 </v>
   <v>       0.05882353       0.35294118       0.00000000 </v>
   <v>       0.11764706       0.35294118       0.00000000 </v>
   <v>       0.17647059       0.35294118       0.00000000 </v>
   <v>       0.23529412       0.35294118       0.00000000 </v>
   <v>       0.29411765       0.35294118       0.00000000 </v>
   <v>       0.35294118       0.35294118       0.00000000 </v>
   <v>       0.41176471       0.35294118       0.00000000 </v>
   <v>       0.47058824       0.35294118       0.00000000 </v>
   <v>      -0.47058824       0.35294118       0.00000000 </v>
   <v>      -0.41176471       0.35294118       0.00000000 </v>
   <v>      -0.35294118       0.35294118       0.00000000 </v>
   <v>      -0.29411765       0.35294118       0.00000000 </v>
   <v>      -0.23529412       0.35294118       0.00000000 </v>
   <v>      -0.17647059       0.35294118       0.00000000 </v>
   <v>      -0.11764706       0.35294118       0.00000000 </v>
   <v>      -0.05882353       0.35294118       0.00000000 </v>
   <v>      -0.00000000       0.41176471       0.00000000 </v>
   <v>       0.05882353       0.41176471       0.00000000 </v>
   <v>       0.11764706       0.41176471       0.00000000 </v>
   <v>       0.17647059       0.41176471       0.00000000 </v>
   <v>       0.23529412       0.41176471       0.00000000 </v>
   <v>       0.29411765       0.41176471       0.00000000 </v>
   <v>       0.35294118       0.41176471       0.00000000 </v>
   <v>       0.41176471       0.41176471       0.00000000 </v>
   <v>       0.47058824       0.41176471       0.00000000 </v>
   <v>      -0.47058824       0.41176471       0.00000000 </v>
   <v>      -0.41176471       0.41176471       0.00000000 </v>
   <v>      -0.35294118       0.41176471       0.00000000 </v>
   <v>      -0.29411765       0.41176471       0.00000000 </v>
   <v>      -0.23529412       0.41176471       0.00000000 </v>
   <v>      -0.17647059       0.41176471       0.00000000 </v>
   <v>      -0.11764706       0.41176471       0.00000000 </v>
   <v>      -0.05882353       0.41176471       0.00000000 </v>
   <v>       0.00000000       0.47058824       0.00000000 </v>
   <v>       0.05882353       0.47058824       0.00000000 </v>
   <v>       0.11764706       0.47058824       0.00000000 </v>
   <v>       0.17647059       0.47058824       0.00000000 </v>
   <v>       0.23529412       0.47058824       0.00000000 </v>
   <v>       0.29411765       0.47058824       0.00000000 </v>
   <v>       0.35294118       0.47058824       0.00000000 </v>
   <v>       0.41176471       0.47058824       0.00000000 </v>
   <v>       0.47058824       0.47058824       0.00000000 </v>
   <v>      -0.47058824       0.47058824       0.00000000 </v>
   <v>      -0.41176471       0.47058824       0.00000000 </v>
   <v>      -0.35294118       0.47058824       0.00000000 </v>
   <v>      -0.29411765       0.47058824       0.00000000 </v>
   <v>      -0.23529412       0.47058824       0.00000000 </v>
   <v>      -0.17647059       0.47058824       0.00000000 </v>
   <v>      -0.11764706       0.47058824       0.00000000 </v>
   <v>      -0.05882353       0.47058824       0.00000000 </v>
   <v>       0.00000000       0.00000000       0.05882353 </v>
   <v>       0.05882353      -0.00000000       0.05882353 </v>
   <v>       0.11764706       0.00000000       0.05882353 </v>
   <v>       0.17647059       0.00000000       0.05882353 </v>
   <v>       0.23529412       0.00000000       0.05882353 </v>
   <v>       0.29411765       0.00000000       0.05882353 </v>
   <v>       0.35294118       0.00000000       0.05882353 </v>
   <v>       0.41176471       0.00000000       0.05882353 </v>
   <v>       0.47058824       0.00000000       0.05882353 </v>
   <v>      -0.00000000       0.05882353       0.05882353 </v>
   <v>       0.05882353       0.05882353       0.05882353 </v>
   <v>       0.11764706       0.05882353       0.05882353 </v>
   <v>       0.17647059       0.05882353       0.05882353 </v>
   <v>       0.23529412       0.05882353       0.05882353 </v>
   <v>       0.29411765       0.05882353       0.05882353 </v>
   <v>       0.35294118       0.05882353       0.05882353 </v>
   <v>       0.41176471       0.05882353       0.05882353 </v>
   <v>       0.47058824       0.05882353       0.05882353 </v>
   <v>      -0.47058824       0.05882353       0.05882353 </v>
   <v>      -0.41176471       0.05882353       0.05882353 </v>
   <v>      -0.35294118       0.05882353       0.05882353 </v>
   <v>      -0.29411765       0.05882353       0.05882353 </v>
   <v>      -0.23529412       0.05882353       0.05882353 </v>
   <v>      -0.17647059       0.05882353       0.05882353 </v>
   <v>      -0.11764706       0.05882353       0.05882353 </v>
   <v>      -0.05882353       0.05882353       0.05882353 </v>
   <v>       0.00000000       0.11764706       0.05882353 </v>
   <v>       0.05882353       0.11764706       0.05882353 </v>
   <v>       0.11764706       0.11764706       0.05882353 </v>
   <v>       0.17647059       0.11764706       0.05882353 </v>
   <v>       0.23529412       0.11764706       0.05882353 </v>
   <v>       0.29411765       0.11764706       0.05882353 </v>
   <v>       0.35294118       0.11764706       0.05882353 </v>
   <v>       0.41176471       0.11764706       0.05882353 </v>
   <v>       0.47058824       0.11764706       0.05882353 </v>
   <v>      -0.47058824       0.11764706       0.05882353 </v>
   <v>      -0.41176471       0.11764706       0.05882353 </v>
   <v>      -0.35294118       0.11764706       0.05882353 </v>
   <v>      -0.29411765       0.11764706       0.05882353 </v>
   <v>      -0.23529412       0.11764706       0.05882353 </v>
   <v>      -0.17647059       0.11764706       0.05882353 </v>
   <v>      -0.11764706       0.11764706       0.05882353 </v>
   <v>      -0.05882353       0.11764706       0.05882353 </v>
   <v>      -0.00000000       0.17647059       0.05882353 </v>
   <v>       0.05882353       0.17647059       0.05882353 </v>
   <v>       0.11764706       0.17647059       0.05882353 </v>
   <v>       0.17647059       0.17647059       0.05882353 </v>
   <v>       0.23529412       0.17647059       0.05882353 </v>
   <v>       0.29411765       0.17647059       0.05882353 </v>
   <v>       0.35294118       0.17647059       0.05882353 </v>
   <v>       0.41176471       0.17647059       0.05882353 </v>
   <v>       0.47058824       0.17647059       0.05882353 </v>
   <v>      -0.47058824       0.17647059       0.05882353 </v>
   <v>      -0.41176471       0.17647059       0.05882353 </v>
   <v>      -0.35294118       0.17647059       0.05882353 </v>
   <v>      -0.29411765       0.17647059       0.05882353 </v>
   <v>      -0.23529412       0.17647059       0.05882353 </v>
   <v>      -0.17647059       0.17647059       0.05882353 </v>
   <v>      -0.11764706       0.17647059       0.05882353 </v>
   <v>      -0.05882353       0.17647059       0.05882353 </v>
   <v>       0.00000000       0.23529412       0.05882353 </v>
   <v>       0.05882353       0.23529412       0.05882353 </v>
   <v>       0.11764706       0.23529412       0.05882353 </v>
   <v>       0.17647059       0.23529412       0.05882353 </v>
   <v>       0.23529412       0.23529412       0.05882353 </v>
   <v>       0.29411765       0.23529412       0.05882353 </v>
   <v>       0.35294118       0.23529412       0.05882353 </v>
   <v>       0.41176471       0.23529412       0.05882353 </v>
   <v>       0.47058824       0.23529412       0.05882353 </v>
   <v>      -0.47058824       0.23529412       0.05882353 </v>
   <v>      -0.41176471       0.23529412       0.05882353 </v>
   <v>      -0.35294118       0.23529412       0.05882353 </v>
   <v>      -0.29411765       0.23529412       0.05882353 </v>
   <v>      -0.23529412       0.23529412       0.05882353 </v>
   <v>      -0.17647059       0.23529412       0.05882353 </v>
   <v>      -0.11764706       0.23529412       0.05882353 </v>
   <v>      -0.05882353       0.23529412       0.05882353 </v>
   <v>      -0.00000000       0.29411765       0.05882353 </v>
   <v>       0.05882353       0.29411765       0.05882353 </v>
   <v>       0.11764706       0.29411765       0.05882353 </v>
   <v>       0.17647059       0.29411765       0.05882353 </v>
   <v>       0.23529412       0.29411765       0.05882353 </v>
   <v>       0.29411765       0.29411765       0.05882353 </v>
   <v>       0.35294118       0.29411765       0.05882353 </v>
   <v>       0.41176471       0.29411765       0.05882353 </v>
   <v>       0.47058824       0.29411765       0.05882353 </v>
   <v>      -0.47058824       0.29411765       0.05882353 </v>
   <v>      -0.41176471       0.29411765       0.05882353 </v>
   <v>      -0.35294118       0.29411765       0.05882353 </v>
   <v>      -0.29411765       0.29411765       0.05882353 </v>
   <v>      -0.23529412       0.29411765       0.05882353 </v>
   <v>      -0.17647059       0.29411765       0.05882353 </v>
   <v>      -0.11764706       0.29411765       0.05882353 </v>
   <v>      -0.05882353       0.29411765       0.05882353 </v>
   <v>       0.00000000       0.35294118       0.05882353 </v>
   <v>       0.05882353       0.35294118       0.05882353 </v>
   <v>       0.11764706       0.35294118       0.05882353 </v>
   <v>       0.17647059       0.35294118       0.05882353 </v>
   <v>       0.23529412       0.35294118       0.05882353 </v>
   <v>       0.29411765       0.35294118       0.05882353 </v>
   <v>       0.35294118       0.35294118       0.05882353 </v>
   <v>       0.41176471       0.35294118       0.05882353 </v>
   <v>       0.47058824       0.35294118       0.05882353 </v>
   <v>      -0.47058824       0.35294118       0.05882353 </v>
   <v>      -0.41176471       0.35294118       0.05882353 </v>
   <v>      -0.35294118       0.35294118       0.05882353 </v>
   <v>      -0.29411765       0.35294118       0.05882353 </v>
   <v>      -0.23529412       0.35294118       0.05882353 </v>
   <v>      -0.17647059       0.35294118       0.05882353 </v>
   <v>      -0.11764706       0.35294118       0.05882353 </v>
   <v>      -0.05882353       0.35294118       0.05882353 </v>
   <v>      -0.00000000       0.41176471       0.05882353 </v>
   <v>       0.05882353       0.41176471       0.05882353 </v>
   <v>       0.11764706       0.41176471       0.05882353 </v>
   <v>       0.17647059       0.41176471       0.05882353 </v>
   <v>       0.23529412       0.41176471       0.05882353 </v>
   <v>       0.29411765       0.41176471       0.05882353 </v>
   <v>       0.35294118       0.41176471       0.05882353 </v>
   <v>       0.41176471       0.41176471       0.05882353 </v>
   <v>       0.47058824       0.41176471       0.05882353 </v>
   <v>      -0.47058824       0.41176471       0.05882353 </v>
   <v>      -0.41176471       0.41176471       0.05882353 </v>
   <v>      -0.35294118       0.41176471       0.05882353 </v>
   <v>      -0.29411765       0.41176471       0.05882353 </v>
   <v>      -0.23529412       0.41176471       0.05882353 </v>
   <v>      -0.17647059       0.41176471       0.05882353 </v>
   <v>      -0.11764706       0.41176471       0.05882353 </v>
   <v>      -0.05882353       0.41176471       0.05882353 </v>
   <v>       0.00000000       0.47058824       0.05882353 </v>
   <v>       0.05882353       0.47058824       0.05882353 </v>
   <v>       0.11764706       0.47058824       0.05882353 </v>
   <v>       0.17647059       0.47058824       0.05882353 </v>
   <v>       0.23529412       0.47058824       0.05882353 </v>
   <v>       0.29411765       0.47058824       0.05882353 </v>
   <v>       0.35294118       0.47058824       0.05882353 </v>
   <v>       0.41176471       0.47058824       0.05882353 </v>
   <v>       0.47058824       0.47058824       0.05882353 </v>
   <v>      -0.47058824       0.47058824       0.05882353 </v>
   <v>      -0.41176471       0.47058824       0.05882353 </v>
   <v>      -0.35294118       0.47058824       0.05882353 </v>
   <v>      -0.29411765       0.47058824       0.05882353 </v>
   <v>      -0.23529412       0.47058824       0.05882353 </v>
   <v>      -0.17647059       0.47058824       0.05882353 </v>
   <v>      -0.11764706       0.47058824       0.05882353 </v>
   <v>      -0.05882353       0.47058824       0.05882353 </v>
   <v>       0.00000000       0.00000000       0.11764706 </v>
   <v>       0.05882353      -0.00000000       0.11764706 </v>
   <v>       0.11764706       0.00000000       0.11764706 </v>
   <v>       0.17647059       0.00000000       0.11764706 </v>
   <v>       0.23529412       0.00000000       0.11764706 </v>
   <v>       0.29411765       0.00000000       0.11764706 </v>
   <v>       0.35294118       0.00000000       0.11764706 </v>
   <v>       0.41176471       0.00000000       0.11764706 </v>
   <v>       0.47058824       0.00000000       0.11764706 </v>
   <v>      -0.00000000       0.05882353       0.11764706 </v>
   <v>       0.05882353       0.05882353       0.11764706 </v>
   <v>       0.11764706       0.05882353       0.11764706 </v>
   <v>       0.17647059       0.05882353       0.11764706 </v>
   <v>       0.23529412       0.05882353       0.11764706 </v>
   <v>       0.29411765       0.05882353       0.11764706 </v>
   <v>       0.35294118       0.05882353       0.11764706 </v>
   <v>       0.41176471       0.05882353       0.11764706 </v>
   <v>       0.47058824       0.05882353       0.11764706 </v>
   <v>      -0.47058824       0.05882353       0.11764706 </v>
   <v>      -0.41176471       0.05882353       0.11764706 </v>
   <v>      -0.35294118       0.05882353       0.11764706 </v>
   <v>      -0.29411765       0.05882353       0.11764706 </v>
   <v>      -0.23529412       0.05882353       0.11764706 </v>
   <v>      -0.17647059       0.05882353       0.11764706 </v>
   <v>      -0.11764706       0.05882353       0.11764706 </v>
   <v>      -0.05882353       0.05882353       0.11764706 </v>
   <v>       0.00000000       0.11764706       0.11764706 </v>
   <v>       0.05882353       0.11764706       0.11764706 </v>
   <v>       0.11764706       0.11764706       0.11764706 </v>
   <v>       0.17647059       0.11764706       0.11764706 </v>
   <v>       0.23529412       0.11764706       0.11764706 </v>
   <v>       0.29411765       0.11764706       0.11764706 </v>
   <v>       0.35294118       0.11764706       0.11764706 </v>
   <v>       0.41176471       0.11764706       0.11764706 </v>
   <v>       0.47058824       0.11764706       0.11764706 </v>
   <v>      -0.47058824       0.11764706       0.11764706 </v>
   <v>      -0.41176471       0.11764706       0.11764706 </v>
   <v>      -0.35294118       0.11764706       0.11764706 </v>
   <v>      -0.29411765       0.11764706       0.11764706 </v>
   <v>      -0.23529412       0.11764706       0.11764706 </v>
   <v>      -0.17647059       0.11764706       0.11764706 </v>
   <v>      -0.11764706       0.11764706       0.11764706 </v>
   <v>      -0.05882353       0.11764706       0.11764706 </v>
   <v>      -0.00000000       0.17647059       0.11764706 </v>
   <v>       0.05882353       0.17647059       0.11764706 </v>
   <v>       0.11764706       0.17647059       0.11764706 </v>
   <v>       0.17647059       0.17647059       0.11764706 </v>
   <v>       0.23529412       0.17647059       0.11764706 </v>
   <v>       0.29411765       0.17647059       0.11764706 </v>
   <v>       0.35294118       0.17647059       0.11764706 </v>
   <v>       0.41176471       0.17647059       0.11764706 </v>
   <v>       0.47058824       0.17647059       0.11764706 </v>
   <v>      -0.47058824       0.17647059       0.11764706 </v>
   <v>      -0.41176471       0.17647059       0.11764706 </v>
   <v>      -0.35294118       0.17647059       0.11764706 </v>
   <v>      -0.29411765       0.17647059       0.11764706 </v>
   <v>      -0.23529412       0.17647059       0.11764706 </v>
   <v>      -0.17647059       0.17647059       0.11764706 </v>
   <v>      -0.11764706       0.17647059       0.11764706 </v>
   <v>      -0.05882353       0.17647059       0.11764706 </v>
   <v>       0.00000000       0.23529412       0.11764706 </v>
   <v>       0.05882353       0.23529412       0.11764706 </v>
   <v>       0.11764706       0.23529412       0.11764706 </v>
   <v>       0.17647059       0.23529412       0.11764706 </v>
   <v>       0.23529412       0.23529412       0.11764706 </v>
   <v>       0.29411765       0.23529412       0.11764706 </v>
   <v>       0.35294118       0.23529412       0.11764706 </v>
   <v>       0.41176471       0.23529412       0.11764706 </v>
   <v>       0.47058824       0.23529412       0.11764706 </v>
   <v>      -0.47058824       0.23529412       0.11764706 </v>
   <v>      -0.41176471       0.23529412       0.11764706 </v>
   <v>      -0.35294118       0.23529412       0.11764706 </v>
   <v>      -0.29411765       0.23529412       0.11764706 </v>
   <v>      -0.23529412       0.23529412       0.11764706 </v>
   <v>      -0.17647059       0.23529412       0.11764706 </v>
   <v>      -0.11764706       0.23529412       0.11764706 </v>
   <v>      -0.05882353       0.23529412       0.11764706 </v>
   <v>      -0.00000000       0.29411765       0.11764706 </v>
   <v>       0.05882353       0.29411765       0.11764706 </v>
   <v>       0.11764706       0.29411765       0.11764706 </v>
   <v>       0.17647059       0.29411765       0.11764706 </v>
   <v>       0.23529412       0.29411765       0.11764706 </v>
   <v>       0.29411765       0.29411765       0.11764706 </v>
   <v>       0.35294118       0.29411765       0.11764706 </v>
   <v>       0.41176471       0.29411765       0.11764706 </v>
   <v>       0.47058824       0.29411765       0.11764706 </v>
   <v>      -0.47058824       0.29411765       0.11764706 </v>
   <v>      -0.41176471       0.29411765       0.11764706 </v>
   <v>      -0.35294118       0.29411765       0.11764706 </v>
   <v>      -0.29411765       0.29411765       0.11764706 </v>
   <v>      -0.23529412       0.29411765       0.11764706 </v>
   <v>      -0.17647059       0.29411765       0.11764706 </v>
   <v>      -0.11764706       0.29411765       0.11764706 </v>
   <v>      -0.05882353       0.29411765       0.11764706 </v>
   <v>       0.00000000       0.35294118       0.11764706 </v>
   <v>       0.05882353       0.35294118       0.11764706 </v>
   <v>       0.11764706       0.35294118       0.11764706 </v>
   <v>       0.17647059       0.35294118       0.11764706 </v>
   <v>       0.23529412       0.35294118       0.11764706 </v>
   <v>       0.29411765       0.35294118       0.11764706 </v>
   <v>       0.35294118       0.35294118       0.11764706 </v>
   <v>       0.41176471       0.35294118       0.11764706 </v>
   <v>       0.47058824       0.35294118       0.11764706 </v>
   <v>      -0.47058824       0.35294118       0.11764706 </v>
   <v>      -0.41176471       0.35294118       0.11764706 </v>
   <v>      -0.35294118       0.35294118       0.11764706 </v>
   <v>      -0.29411765       0.35294118       0.11764706 </v>
   <v>      -0.23529412       0.35294118       0.11764706 </v>
   <v>      -0.17647059       0.35294118       0.11764706 </v>
   <v>      -0.11764706       0.35294118       0.11764706 </v>
   <v>      -0.05882353       0.35294118       0.11764706 </v>
   <v>      -0.00000000       0.41176471       0.11764706 </v>
   <v>       0.05882353       0.41176471       0.11764706 </v>
   <v>       0.11764706       0.41176471       0.11764706 </v>
   <v>       0.17647059       0.41176471       0.11764706 </v>
   <v>       0.23529412       0.41176471       0.11764706 </v>
   <v>       0.29411765       0.41176471       0.11764706 </v>
   <v>       0.35294118       0.41176471       0.11764706 </v>
   <v>       0.41176471       0.41176471       0.11764706 </v>
   <v>       0.47058824       0.41176471       0.11764706 </v>
   <v>      -0.47058824       0.41176471       0.11764706 </v>
   <v>      -0.41176471       0.41176471       0.11764706 </v>
   <v>      -0.35294118       0.41176471       0.11764706 </v>
   <v>      -0.29411765       0.41176471       0.11764706 </v>
   <v>      -0.23529412       0.41176471       0.11764706 </v>
   <v>      -0.17647059       0.41176471       0.11764706 </v>
   <v>      -0.11764706       0.41176471       0.11764706 </v>
   <v>      -0.05882353       0.41176471       0.11764706 </v>
   <v>       0.00000000       0.47058824       0.11764706 </v>
   <v>       0.05882353       0.47058824       0.11764706 </v>
   <v>       0.11764706       0.47058824       0.11764706 </v>
   <v>       0.17647059       0.47058824       0.11764706 </v>
   <v>       0.23529412       0.47058824       0.11764706 </v>
   <v>       0.29411765       0.47058824       0.11764706 </v>
   <v>       0.35294118       0.47058824       0.11764706 </v>
   <v>       0.41176471       0.47058824       0.11764706 </v>
   <v>       0.47058824       0.47058824       0.11764706 </v>
   <v>      -0.47058824       0.47058824       0.11764706 </v>
   <v>      -0.41176471       0.47058824       0.11764706 </v>
   <v>      -0.35294118       0.47058824       0.11764706 </v>
   <v>      -0.29411765       0.47058824       0.11764706 </v>
   <v>      -0.23529412       0.47058824       0.11764706 </v>
   <v>      -0.17647059       0.47058824       0.11764706 </v>
   <v>      -0.11764706       0.47058824       0.11764706 </v>
   <v>      -0.05882353       0.47058824       0.11764706 </v>
   <v>       0.00000000       0.00000000       0.17647059 </v>
   <v>       0.05882353      -0.00000000       0.17647059 </v>
   <v>       0.11764706       0.00000000       0.17647059 </v>
   <v>       0.17647059       0.00000000       0.17647059 </v>
   <v>       0.23529412       0.00000000       0.17647059 </v>
   <v>       0.29411765       0.00000000       0.17647059 </v>
   <v>       0.35294118       0.00000000       0.17647059 </v>
   <v>       0.41176471       0.00000000       0.17647059 </v>
   <v>       0.47058824       0.00000000       0.17647059 </v>
   <v>      -0.00000000       0.05882353       0.17647059 </v>
   <v>       0.05882353       0.05882353       0.17647059 </v>
   <v>       0.11764706       0.05882353       0.17647059 </v>
   <v>       0.17647059       0.05882353       0.17647059 </v>
   <v>       0.23529412       0.05882353       0.17647059 </v>
   <v>       0.29411765       0.05882353       0.17647059 </v>
   <v>       0.35294118       0.05882353       0.17647059 </v>
   <v>       0.41176471       0.05882353       0.17647059 </v>
   <v>       0.47058824       0.05882353       0.17647059 </v>
   <v>      -0.47058824       0.05882353       0.17647059 </v>
   <v>      -0.41176471       0.05882353       0.17647059 </v>
   <v>      -0.35294118       0.05882353       0.17647059 </v>
   <v>      -0.29411765       0.05882353       0.17647059 </v>
   <v>      -0.23529412       0.05882353       0.17647059 </v>
   <v>      -0.17647059       0.05882353       0.17647059 </v>
   <v>      -0.11764706       0.05882353       0.17647059 </v>
   <v>      -0.05882353       0.05882353       0.17647059 </v>
   <v>       0.00000000       0.11764706       0.17647059 </v>
   <v>       0.05882353       0.11764706       0.17647059 </v>
   <v>       0.11764706       0.11764706       0.17647059 </v>
   <v>       0.17647059       0.11764706       0.17647059 </v>
   <v>       0.23529412       0.11764706       0.17647059 </v>
   <v>       0.29411765       0.11764706       0.17647059 </v>
   <v>       0.35294118       0.11764706       0.17647059 </v>
   <v>       0.41176471       0.11764706       0.17647059 </v>
   <v>       0.47058824       0.11764706       0.17647059 </v>
   <v>      -0.47058824       0.11764706       0.17647059 </v>
   <v>      -0.41176471       0.11764706       0.17647059 </v>
   <v>      -0.35294118       0.11764706       0.17647059 </v>
   <v>      -0.29411765       0.11764706       0.17647059 </v>
   <v>      -0.23529412       0.11764706       0.17647059 </v>
   <v>      -0.17647059       0.11764706       0.17647059 </v>
   <v>      -0.11764706       0.11764706       0.17647059 </v>
   <v>      -0.05882353       0.11764706       0.17647059 </v>
   <v>      -0.00000000       0.17647059       0.17647059 </v>
   <v>       0.05882353       0.17647059       0.17647059 </v>
   <v>       0.11764706       0.17647059       0.17647059 </v>
   <v>       0.17647059       0.17647059       0.17647059 </v>
   <v>       0.23529412       0.17647059       0.17647059 </v>
   <v>       0.29411765       0.17647059       0.17647059 </v>
   <v>       0.35294118       0.17647059       0.17647059 </v>
   <v>       0.41176471       0.17647059       0.17647059 </v>
   <v>       0.47058824       0.17647059       0.17647059 </v>
   <v>      -0.47058824       0.17647059       0.17647059 </v>
   <v>      -0.41176471       0.17647059       0.17647059 </v>
   <v>      -0.35294118       0.17647059       0.17647059 </v>
   <v>      -0.29411765       0.17647059       0.17647059 </v>
   <v>      -0.23529412       0.17647059       0.17647059 </v>
   <v>      -0.17647059       0.17647059       0.17647059 </v>
   <v>      -0.11764706       0.17647059       0.17647059 </v>
   <v>      -0.05882353       0.17647059       0.17647059 </v>
   <v>       0.00000000       0.23529412       0.17647059 </v>
   <v>       0.05882353       0.23529412       0.17647059 </v>
   <v>       0.11764706       0.23529412       0.17647059 </v>
   <v>       0.17647059       0.23529412       0.17647059 </v>
   <v>       0.23529412       0.23529412       0.17647059 </v>
   <v>       0.29411765       0.23529412       0.17647059 </v>
   <v>       0.35294118       0.23529412       0.17647059 </v>
   <v>       0.41176471       0.23529412       0.17647059 </v>
   <v>       0.47058824       0.23529412       0.17647059 </v>
   <v>      -0.47058824       0.23529412       0.17647059 </v>
   <v>      -0.41176471       0.23529412       0.17647059 </v>
   <v>      -0.35294118       0.23529412       0.17647059 </v>
   <v>      -0.29411765       0.23529412       0.17647059 </v>
   <v>      -0.23529412       0.23529412       0.17647059 </v>
   <v>      -0.17647059       0.23529412       0.17647059 </v>
   <v>      -0.11764706       0.23529412       0.17647059 </v>
   <v>      -0.05882353       0.23529412       0.17647059 </v>
   <v>      -0.00000000       0.29411765       0.17647059 </v>
   <v>       0.05882353       0.29411765       0.17647059 </v>
   <v>       0.11764706       0.29411765       0.17647059 </v>
   <v>       0.17647059       0.29411765       0.17647059 </v>
   <v>       0.23529412       0.29411765       0.17647059 </v>
   <v>       0.29411765       0.29411765       0.17647059 </v>
   <v>       0.35294118       0.29411765       0.17647059 </v>
   <v>       0.41176471       0.29411765       0.17647059 </v>
   <v>       0.47058824       0.29411765       0.17647059 </v>
   <v>      -0.47058824       0.29411765       0.17647059 </v>
   <v>      -0.41176471       0.29411765       0.17647059 </v>
   <v>      -0.35294118       0.29411765       0.17647059 </v>
   <v>      -0.29411765       0.29411765       0.17647059 </v>
   <v>      -0.23529412       0.29411765       0.17647059 </v>
   <v>      -0.17647059       0.29411765       0.17647059 </v>
   <v>      -0.11764706       0.29411765       0.17647059 </v>
   <v>      -0.05882353       0.29411765       0.17647059 </v>
   <v>       0.00000000       0.35294118       0.17647059 </v>
   <v>       0.05882353       0.35294118       0.17647059 </v>
   <v>       0.11764706       0.35294118       0.17647059 </v>
   <v>       0.17647059       0.35294118       0.17647059 </v>
   <v>       0.23529412       0.35294118       0.17647059 </v>
   <v>       0.29411765       0.35294118       0.17647059 </v>
   <v>       0.35294118       0.35294118       0.17647059 </v>
   <v>       0.41176471       0.35294118       0.17647059 </v>
   <v>       0.47058824       0.35294118       0.17647059 </v>
   <v>      -0.47058824       0.35294118       0.17647059 </v>
   <v>      -0.41176471       0.35294118       0.17647059 </v>
   <v>      -0.35294118       0.35294118       0.17647059 </v>
   <v>      -0.29411765       0.35294118       0.17647059 </v>
   <v>      -0.23529412       0.35294118       0.17647059 </v>
   <v>      -0.17647059       0.35294118       0.17647059 </v>
   <v>      -0.11764706       0.35294118       0.17647059 </v>
   <v>      -0.05882353       0.35294118       0.17647059 </v>
   <v>      -0.00000000       0.41176471       0.17647059 </v>
   <v>       0.05882353       0.41176471       0.17647059 </v>
   <v>       0.11764706       0.41176471       0.17647059 </v>
   <v>       0.17647059       0.41176471       0.17647059 </v>
   <v>       0.23529412       0.41176471       0.17647059 </v>
   <v>       0.29411765       0.41176471       0.17647059 </v>
   <v>       0.35294118       0.41176471       0.17647059 </v>
   <v>       0.41176471       0.41176471       0.17647059 </v>
   <v>       0.47058824       0.41176471       0.17647059 </v>
   <v>      -0.47058824       0.41176471       0.17647059 </v>
   <v>      -0.41176471       0.41176471       0.17647059 </v>
   <v>      -0.35294118       0.41176471       0.17647059 </v>
   <v>      -0.29411765       0.41176471       0.17647059 </v>
   <v>      -0.23529412       0.41176471       0.17647059 </v>
   <v>      -0.17647059       0.41176471       0.17647059 </v>
   <v>      -0.11764706       0.41176471       0.17647059 </v>
   <v>      -0.05882353       0.41176471       0.17647059 </v>
   <v>       0.00000000       0.47058824       0.17647059 </v>
   <v>       0.05882353       0.47058824       0.17647059 </v>
   <v>       0.11764706       0.47058824       0.17647059 </v>
   <v>       0.17647059       0.47058824       0.17647059 </v>
   <v>       0.23529412       0.47058824       0.17647059 </v>
   <v>       0.29411765       0.47058824       0.17647059 </v>
   <v>       0.35294118       0.47058824       0.17647059 </v>
   <v>       0.41176471       0.47058824       0.17647059 </v>
   <v>       0.47058824       0.47058824       0.17647059 </v>
   <v>      -0.47058824       0.47058824       0.17647059 </v>
   <v>      -0.41176471       0.47058824       0.17647059 </v>
   <v>      -0.35294118       0.47058824       0.17647059 </v>
   <v>      -0.29411765       0.47058824       0.17647059 </v>
   <v>      -0.23529412       0.47058824       0.17647059 </v>
   <v>      -0.17647059       0.47058824       0.17647059 </v>
   <v>      -0.11764706       0.47058824       0.17647059 </v>
   <v>      -0.05882353       0.47058824       0.17647059 </v>
   <v>       0.00000000       0.00000000       0.23529412 </v>
   <v>       0.05882353      -0.00000000       0.23529412 </v>
   <v>       0.11764706       0.00000000       0.23529412 </v>
   <v>       0.17647059       0.00000000       0.23529412 </v>
   <v>       0.23529412       0.00000000       0.23529412 </v>
   <v>       0.29411765       0.00000000       0.23529412 </v>
   <v>       0.35294118       0.00000000       0.23529412 </v>
   <v>       0.41176471       0.00000000       0.23529412 </v>
   <v>       0.47058824       0.00000000       0.23529412 </v>
   <v>      -0.00000000       0.05882353       0.23529412 </v>
   <v>       0.05882353       0.05882353       0.23529412 </v>
   <v>       0.11764706       0.05882353       0.23529412 </v>
   <v>       0.17647059       0.05882353       0.23529412 </v>
   <v>       0.23529412       0.05882353       0.23529412 </v>
   <v>       0.29411765       0.05882353       0.23529412 </v>
   <v>       0.35294118       0.05882353       0.23529412 </v>
   <v>       0.41176471       0.05882353       0.23529412 </v>
   <v>       0.47058824       0.05882353       0.23529412 </v>
   <v>      -0.47058824       0.05882353       0.23529412 </v>
   <v>      -0.41176471       0.05882353       0.23529412 </v>
   <v>      -0.35294118       0.05882353       0.23529412 </v>
   <v>      -0.29411765       0.05882353       0.23529412 </v>
   <v>      -0.23529412       0.05882353       0.23529412 </v>
   <v>      -0.17647059       0.05882353       0.23529412 </v>
   <v>      -0.11764706       0.05882353       0.23529412 </v>
   <v>      -0.05882353       0.05882353       0.23529412 </v>
   <v>       0.00000000       0.11764706       0.23529412 </v>
   <v>       0.05882353       0.11764706       0.23529412 </v>
   <v>       0.11764706       0.11764706       0.23529412 </v>
   <v>       0.17647059       0.11764706       0.23529412 </v>
   <v>       0.23529412       0.11764706       0.23529412 </v>
   <v>       0.29411765       0.11764706       0.23529412 </v>
   <v>       0.35294118       0.11764706       0.23529412 </v>
   <v>       0.41176471       0.11764706       0.23529412 </v>
   <v>       0.47058824       0.11764706       0.23529412 </v>
   <v>      -0.47058824       0.11764706       0.23529412 </v>
   <v>      -0.41176471       0.11764706       0.23529412 </v>
   <v>      -0.35294118       0.11764706       0.23529412 </v>
   <v>      -0.29411765       0.11764706       0.23529412 </v>
   <v>      -0.23529412       0.11764706       0.23529412 </v>
   <v>      -0.17647059       0.11764706       0.23529412 </v>
   <v>      -0.11764706       0.11764706       0.23529412 </v>
   <v>      -0.05882353       0.11764706       0.23529412 </v>
   <v>      -0.00000000       0.17647059       0.23529412 </v>
   <v>       0.05882353       0.17647059       0.23529412 </v>
   <v>       0.11764706       0.17647059       0.23529412 </v>
   <v>       0.17647059       0.17647059       0.23529412 </v>
   <v>       0.23529412       0.17647059       0.23529412 </v>
   <v>       0.29411765       0.17647059       0.23529412 </v>
   <v>       0.35294118       0.17647059       0.23529412 </v>
   <v>       0.41176471       0.17647059       0.23529412 </v>
   <v>       0.47058824       0.17647059       0.23529412 </v>
   <v>      -0.47058824       0.17647059       0.23529412 </v>
   <v>      -0.41176471       0.17647059       0.23529412 </v>
   <v>      -0.35294118       0.17647059       0.23529412 </v>
   <v>      -0.29411765       0.17647059       0.23529412 </v>
   <v>      -0.23529412       0.17647059       0.23529412 </v>
   <v>      -0.17647059       0.17647059       0.23529412 </v>
   <v>      -0.11764706       0.17647059       0.23529412 </v>
   <v>      -0.05882353       0.17647059       0.23529412 </v>
   <v>       0.00000000       0.23529412       0.23529412 </v>
   <v>       0.05882353       0.23529412       0.23529412 </v>
   <v>       0.11764706       0.23529412       0.23529412 </v>
   <v>       0.17647059       0.23529412       0.23529412 </v>
   <v>       0.23529412       0.23529412       0.23529412 </v>
   <v>       0.29411765       0.23529412       0.23529412 </v>
   <v>       0.35294118       0.23529412       0.23529412 </v>
   <v>       0.41176471       0.23529412       0.23529412 </v>
   <v>       0.47058824       0.23529412       0.23529412 </v>
   <v>      -0.47058824       0.23529412       0.23529412 </v>
   <v>      -0.41176471       0.23529412       0.23529412 </v>
   <v>      -0.35294118       0.23529412       0.23529412 </v>
   <v>      -0.29411765       0.23529412       0.23529412 </v>
   <v>      -0.23529412       0.23529412       0.23529412 </v>
   <v>      -0.17647059       0.23529412       0.23529412 </v>
   <v>      -0.11764706       0.23529412       0.23529412 </v>
   <v>      -0.05882353       0.23529412       0.23529412 </v>
   <v>      -0.00000000       0.29411765       0.23529412 </v>
   <v>       0.05882353       0.29411765       0.23529412 </v>
   <v>       0.11764706       0.29411765       0.23529412 </v>
   <v>       0.17647059       0.29411765       0.23529412 </v>
   <v>       0.23529412       0.29411765       0.23529412 </v>
   <v>       0.29411765       0.29411765       0.23529412 </v>
   <v>       0.35294118       0.29411765       0.23529412 </v>
   <v>       0.41176471       0.29411765       0.23529412 </v>
   <v>       0.47058824       0.29411765       0.23529412 </v>
   <v>      -0.47058824       0.29411765       0.23529412 </v>
   <v>      -0.41176471       0.29411765       0.23529412 </v>
   <v>      -0.35294118       0.29411765       0.23529412 </v>
   <v>      -0.29411765       0.29411765       0.23529412 </v>
   <v>      -0.23529412       0.29411765       0.23529412 </v>
   <v>      -0.17647059       0.29411765       0.23529412 </v>
   <v>      -0.11764706       0.29411765       0.23529412 </v>
   <v>      -0.05882353       0.29411765       0.23529412 </v>
   <v>       0.00000000       0.35294118       0.23529412 </v>
   <v>       0.05882353       0.35294118       0.23529412 </v>
   <v>       0.11764706       0.35294118       0.23529412 </v>
   <v>       0.17647059       0.35294118       0.23529412 </v>
   <v>       0.23529412       0.35294118       0.23529412 </v>
   <v>       0.29411765       0.35294118       0.23529412 </v>
   <v>       0.35294118       0.35294118       0.23529412 </v>
   <v>       0.41176471       0.35294118       0.23529412 </v>
   <v>       0.47058824       0.35294118       0.23529412 </v>
   <v>      -0.47058824       0.35294118       0.23529412 </v>
   <v>      -0.41176471       0.35294118       0.23529412 </v>
   <v>      -0.35294118       0.35294118       0.23529412 </v>
   <v>      -0.29411765       0.35294118       0.23529412 </v>
   <v>      -0.23529412       0.35294118       0.23529412 </v>
   <v>      -0.17647059       0.35294118       0.23529412 </v>
   <v>      -0.11764706       0.35294118       0.23529412 </v>
   <v>      -0.05882353       0.35294118       0.23529412 </v>
   <v>      -0.00000000       0.41176471       0.23529412 </v>
   <v>       0.05882353       0.41176471       0.23529412 </v>
   <v>       0.11764706       0.41176471       0.23529412 </v>
   <v>       0.17647059       0.41176471       0.23529412 </v>
   <v>       0.23529412       0.41176471       0.23529412 </v>
   <v>       0.29411765       0.41176471       0.23529412 </v>
   <v>       0.35294118       0.41176471       0.23529412 </v>
   <v>       0.41176471       0.41176471       0.23529412 </v>
   <v>       0.47058824       0.41176471       0.23529412 </v>
   <v>      -0.47058824       0.41176471       0.23529412 </v>
   <v>      -0.41176471       0.41176471       0.23529412 </v>
   <v>      -0.35294118       0.41176471       0.23529412 </v>
   <v>      -0.29411765       0.41176471       0.23529412 </v>
   <v>      -0.23529412       0.41176471       0.23529412 </v>
   <v>      -0.17647059       0.41176471       0.23529412 </v>
   <v>      -0.11764706       0.41176471       0.23529412 </v>
   <v>      -0.05882353       0.41176471       0.23529412 </v>
   <v>       0.00000000       0.47058824       0.23529412 </v>
   <v>       0.05882353       0.47058824       0.23529412 </v>
   <v>       0.11764706       0.47058824       0.23529412 </v>
   <v>       0.17647059       0.47058824       0.23529412 </v>
   <v>       0.23529412       0.47058824       0.23529412 </v>
   <v>       0.29411765       0.47058824       0.23529412 </v>
   <v>       0.35294118       0.47058824       0.23529412 </v>
   <v>       0.41176471       0.47058824       0.23529412 </v>
   <v>       0.47058824       0.47058824       0.23529412 </v>
   <v>      -0.47058824       0.47058824       0.23529412 </v>
   <v>      -0.41176471       0.47058824       0.23529412 </v>
   <v>      -0.35294118       0.47058824       0.23529412 </v>
   <v>      -0.29411765       0.47058824       0.23529412 </v>
   <v>      -0.23529412       0.47058824       0.23529412 </v>
   <v>      -0.17647059       0.47058824       0.23529412 </v>
   <v>      -0.11764706       0.47058824       0.23529412 </v>
   <v>      -0.05882353       0.47058824       0.23529412 </v>
   <v>       0.00000000       0.00000000       0.29411765 </v>
   <v>       0.05882353      -0.00000000       0.29411765 </v>
   <v>       0.11764706       0.00000000       0.29411765 </v>
   <v>       0.17647059       0.00000000       0.29411765 </v>
   <v>       0.23529412       0.00000000       0.29411765 </v>
   <v>       0.29411765       0.00000000       0.29411765 </v>
   <v>       0.35294118       0.00000000       0.29411765 </v>
   <v>       0.41176471       0.00000000       0.29411765 </v>
   <v>       0.47058824       0.00000000       0.29411765 </v>
   <v>      -0.00000000       0.05882353       0.29411765 </v>
   <v>       0.05882353       0.05882353       0.29411765 </v>
   <v>       0.11764706       0.05882353       0.29411765 </v>
   <v>       0.17647059       0.05882353       0.29411765 </v>
   <v>       0.23529412       0.05882353       0.29411765 </v>
   <v>       0.29411765       0.05882353       0.29411765 </v>
   <v>       0.35294118       0.05882353       0.29411765 </v>
   <v>       0.41176471       0.05882353       0.29411765 </v>
   <v>       0.47058824       0.05882353       0.29411765 </v>
   <v>      -0.47058824       0.05882353       0.29411765 </v>
   <v>      -0.41176471       0.05882353       0.29411765 </v>
   <v>      -0.35294118       0.05882353       0.29411765 </v>
   <v>      -0.29411765       0.05882353       0.29411765 </v>
   <v>      -0.23529412       0.05882353       0.29411765 </v>
   <v>      -0.17647059       0.05882353       0.29411765 </v>
   <v>      -0.11764706       0.05882353       0.29411765 </v>
   <v>      -0.05882353       0.05882353       0.29411765 </v>
   <v>       0.00000000       0.11764706       0.29411765 </v>
   <v>       0.05882353       0.11764706       0.29411765 </v>
   <v>       0.11764706       0.11764706       0.29411765 </v>
   <v>       0.17647059       0.11764706       0.29411765 </v>
   <v>       0.23529412       0.11764706       0.29411765 </v>
   <v>       0.29411765       0.11764706       0.29411765 </v>
   <v>       0.35294118       0.11764706       0.29411765 </v>
   <v>       0.41176471       0.11764706       0.29411765 </v>
   <v>       0.47058824       0.11764706       0.29411765 </v>
   <v>      -0.47058824       0.11764706       0.29411765 </v>
   <v>      -0.41176471       0.11764706       0.29411765 </v>
   <v>      -0.35294118       0.11764706       0.29411765 </v>
   <v>      -0.29411765       0.11764706       0.29411765 </v>
   <v>      -0.23529412       0.11764706       0.29411765 </v>
   <v>      -0.17647059       0.11764706       0.29411765 </v>
   <v>      -0.11764706       0.11764706       0.29411765 </v>
   <v>      -0.05882353       0.11764706       0.29411765 </v>
   <v>      -0.00000000       0.17647059       0.29411765 </v>
   <v>       0.05882353       0.17647059       0.29411765 </v>
   <v>       0.11764706       0.17647059       0.29411765 </v>
   <v>       0.17647059       0.17647059       0.29411765 </v>
   <v>       0.23529412       0.17647059       0.29411765 </v>
   <v>       0.29411765       0.17647059       0.29411765 </v>
   <v>       0.35294118       0.17647059       0.29411765 </v>
   <v>       0.41176471       0.17647059       0.29411765 </v>
   <v>       0.47058824       0.17647059       0.29411765 </v>
   <v>      -0.47058824       0.17647059       0.29411765 </v>
   <v>      -0.41176471       0.17647059       0.29411765 </v>
   <v>      -0.35294118       0.17647059       0.29411765 </v>
   <v>      -0.29411765       0.17647059       0.29411765 </v>
   <v>      -0.23529412       0.17647059       0.29411765 </v>
   <v>      -0.17647059       0.17647059       0.29411765 </v>
   <v>      -0.11764706       0.17647059       0.29411765 </v>
   <v>      -0.05882353       0.17647059       0.29411765 </v>
   <v>       0.00000000       0.23529412       0.29411765 </v>
   <v>       0.05882353       0.23529412       0.29411765 </v>
   <v>       0.11764706       0.23529412       0.29411765 </v>
   <v>       0.17647059       0.23529412       0.29411765 </v>
   <v>       0.23529412       0.23529412       0.29411765 </v>
   <v>       0.29411765       0.23529412       0.29411765 </v>
   <v>       0.35294118       0.23529412       0.29411765 </v>
   <v>       0.41176471       0.23529412       0.29411765 </v>
   <v>       0.47058824       0.23529412       0.29411765 </v>
   <v>      -0.47058824       0.23529412       0.29411765 </v>
   <v>      -0.41176471       0.23529412       0.29411765 </v>
   <v>      -0.35294118       0.23529412       0.29411765 </v>
   <v>      -0.29411765       0.23529412       0.29411765 </v>
   <v>      -0.23529412       0.23529412       0.29411765 </v>
   <v>      -0.17647059       0.23529412       0.29411765 </v>
   <v>      -0.11764706       0.23529412       0.29411765 </v>
   <v>      -0.05882353       0.23529412       0.29411765 </v>
   <v>      -0.00000000       0.29411765       0.29411765 </v>
   <v>       0.05882353       0.29411765       0.29411765 </v>
   <v>       0.11764706       0.29411765       0.29411765 </v>
   <v>       0.17647059       0.29411765       0.29411765 </v>
   <v>       0.23529412       0.29411765       0.29411765 </v>
   <v>       0.29411765       0.29411765       0.29411765 </v>
   <v>       0.35294118       0.29411765       0.29411765 </v>
   <v>       0.41176471       0.29411765       0.29411765 </v>
   <v>       0.47058824       0.29411765       0.29411765 </v>
   <v>      -0.47058824       0.29411765       0.29411765 </v>
   <v>      -0.41176471       0.29411765       0.29411765 </v>
   <v>      -0.35294118       0.29411765       0.29411765 </v>
   <v>      -0.29411765       0.29411765       0.29411765 </v>
   <v>      -0.23529412       0.29411765       0.29411765 </v>
   <v>      -0.17647059       0.29411765       0.29411765 </v>
   <v>      -0.11764706       0.29411765       0.29411765 </v>
   <v>      -0.05882353       0.29411765       0.29411765 </v>
   <v>       0.00000000       0.35294118       0.29411765 </v>
   <v>       0.05882353       0.35294118       0.29411765 </v>
   <v>       0.11764706       0.35294118       0.29411765 </v>
   <v>       0.17647059       0.35294118       0.29411765 </v>
   <v>       0.23529412       0.35294118       0.29411765 </v>
   <v>       0.29411765       0.35294118       0.29411765 </v>
   <v>       0.35294118       0.35294118       0.29411765 </v>
   <v>       0.41176471       0.35294118       0.29411765 </v>
   <v>       0.47058824       0.35294118       0.29411765 </v>
   <v>      -0.47058824       0.35294118       0.29411765 </v>
   <v>      -0.41176471       0.35294118       0.29411765 </v>
   <v>      -0.35294118       0.35294118       0.29411765 </v>
   <v>      -0.29411765       0.35294118       0.29411765 </v>
   <v>      -0.23529412       0.35294118       0.29411765 </v>
   <v>      -0.17647059       0.35294118       0.29411765 </v>
   <v>      -0.11764706       0.35294118       0.29411765 </v>
   <v>      -0.05882353       0.35294118       0.29411765 </v>
   <v>      -0.00000000       0.41176471       0.29411765 </v>
   <v>       0.05882353       0.41176471       0.29411765 </v>
   <v>       0.11764706       0.41176471       0.29411765 </v>
   <v>       0.17647059       0.41176471       0.29411765 </v>
   <v>       0.23529412       0.41176471       0.29411765 </v>
   <v>       0.29411765       0.41176471       0.29411765 </v>
   <v>       0.35294118       0.41176471       0.29411765 </v>
   <v>       0.41176471       0.41176471       0.29411765 </v>
   <v>       0.47058824       0.41176471       0.29411765 </v>
   <v>      -0.47058824       0.41176471       0.29411765 </v>
   <v>      -0.41176471       0.41176471       0.29411765 </v>
   <v>      -0.35294118       0.41176471       0.29411765 </v>
   <v>      -0.29411765       0.41176471       0.29411765 </v>
   <v>      -0.23529412       0.41176471       0.29411765 </v>
   <v>      -0.17647059       0.41176471       0.29411765 </v>
   <v>      -0.11764706       0.41176471       0.29411765 </v>
   <v>      -0.05882353       0.41176471       0.29411765 </v>
   <v>       0.00000000       0.47058824       0.29411765 </v>
   <v>       0.05882353       0.47058824       0.29411765 </v>
   <v>       0.11764706       0.47058824       0.29411765 </v>
   <v>       0.17647059       0.47058824       0.29411765 </v>
   <v>       0.23529412       0.47058824       0.29411765 </v>
   <v>       0.29411765       0.47058824       0.29411765 </v>
   <v>       0.35294118       0.47058824       0.29411765 </v>
   <v>       0.41176471       0.47058824       0.29411765 </v>
   <v>       0.47058824       0.47058824       0.29411765 </v>
   <v>      -0.47058824       0.47058824       0.29411765 </v>
   <v>      -0.41176471       0.47058824       0.29411765 </v>
   <v>      -0.35294118       0.47058824       0.29411765 </v>
   <v>      -0.29411765       0.47058824       0.29411765 </v>
   <v>      -0.23529412       0.47058824       0.29411765 </v>
   <v>      -0.17647059       0.47058824       0.29411765 </v>
   <v>      -0.11764706       0.47058824       0.29411765 </v>
   <v>      -0.05882353       0.47058824       0.29411765 </v>
   <v>       0.00000000       0.00000000       0.35294118 </v>
   <v>       0.05882353      -0.00000000       0.35294118 </v>
   <v>       0.11764706       0.00000000       0.35294118 </v>
   <v>       0.17647059       0.00000000       0.35294118 </v>
   <v>       0.23529412       0.00000000       0.35294118 </v>
   <v>       0.29411765       0.00000000       0.35294118 </v>
   <v>       0.35294118       0.00000000       0.35294118 </v>
   <v>       0.41176471       0.00000000       0.35294118 </v>
   <v>       0.47058824       0.00000000       0.35294118 </v>
   <v>      -0.00000000       0.05882353       0.35294118 </v>
   <v>       0.05882353       0.05882353       0.35294118 </v>
   <v>       0.11764706       0.05882353       0.35294118 </v>
   <v>       0.17647059       0.05882353       0.35294118 </v>
   <v>       0.23529412       0.05882353       0.35294118 </v>
   <v>       0.29411765       0.05882353       0.35294118 </v>
   <v>       0.35294118       0.05882353       0.35294118 </v>
   <v>       0.41176471       0.05882353       0.35294118 </v>
   <v>       0.47058824       0.05882353       0.35294118 </v>
   <v>      -0.47058824       0.05882353       0.35294118 </v>
   <v>      -0.41176471       0.05882353       0.35294118 </v>
   <v>      -0.35294118       0.05882353       0.35294118 </v>
   <v>      -0.29411765       0.05882353       0.35294118 </v>
   <v>      -0.23529412       0.05882353       0.35294118 </v>
   <v>      -0.17647059       0.05882353       0.35294118 </v>
   <v>      -0.11764706       0.05882353       0.35294118 </v>
   <v>      -0.05882353       0.05882353       0.35294118 </v>
   <v>       0.00000000       0.11764706       0.35294118 </v>
   <v>       0.05882353       0.11764706       0.35294118 </v>
   <v>       0.11764706       0.11764706       0.35294118 </v>
   <v>       0.17647059       0.11764706       0.35294118 </v>
   <v>       0.23529412       0.11764706       0.35294118 </v>
   <v>       0.29411765       0.11764706       0.35294118 </v>
   <v>       0.35294118       0.11764706       0.35294118 </v>
   <v>       0.41176471       0.11764706       0.35294118 </v>
   <v>       0.47058824       0.11764706       0.35294118 </v>
   <v>      -0.47058824       0.11764706       0.35294118 </v>
   <v>      -0.41176471       0.11764706       0.35294118 </v>
   <v>      -0.35294118       0.11764706       0.35294118 </v>
   <v>      -0.29411765       0.11764706       0.35294118 </v>
   <v>      -0.23529412       0.11764706       0.35294118 </v>
   <v>      -0.17647059       0.11764706       0.35294118 </v>
   <v>      -0.11764706       0.11764706       0.35294118 </v>
   <v>      -0.05882353       0.11764706       0.35294118 </v>
   <v>      -0.00000000       0.17647059       0.35294118 </v>
   <v>       0.05882353       0.17647059       0.35294118 </v>
   <v>       0.11764706       0.17647059       0.35294118 </v>
   <v>       0.17647059       0.17647059       0.35294118 </v>
   <v>       0.23529412       0.17647059       0.35294118 </v>
   <v>       0.29411765       0.17647059       0.35294118 </v>
   <v>       0.35294118       0.17647059       0.35294118 </v>
   <v>       0.41176471       0.17647059       0.35294118 </v>
   <v>       0.47058824       0.17647059       0.35294118 </v>
   <v>      -0.47058824       0.17647059       0.35294118 </v>
   <v>      -0.41176471       0.17647059       0.35294118 </v>
   <v>      -0.35294118       0.17647059       0.35294118 </v>
   <v>      -0.29411765       0.17647059       0.35294118 </v>
   <v>      -0.23529412       0.17647059       0.35294118 </v>
   <v>      -0.17647059       0.17647059       0.35294118 </v>
   <v>      -0.11764706       0.17647059       0.35294118 </v>
   <v>      -0.05882353       0.17647059       0.35294118 </v>
   <v>       0.00000000       0.23529412       0.35294118 </v>
   <v>       0.05882353       0.23529412       0.35294118 </v>
   <v>       0.11764706       0.23529412       0.35294118 </v>
   <v>       0.17647059       0.23529412       0.35294118 </v>
   <v>       0.23529412       0.23529412       0.35294118 </v>
   <v>       0.29411765       0.23529412       0.35294118 </v>
   <v>       0.35294118       0.23529412       0.35294118 </v>
   <v>       0.41176471       0.23529412       0.35294118 </v>
   <v>       0.47058824       0.23529412       0.35294118 </v>
   <v>      -0.47058824       0.23529412       0.35294118 </v>
   <v>      -0.41176471       0.23529412       0.35294118 </v>
   <v>      -0.35294118       0.23529412       0.35294118 </v>
   <v>      -0.29411765       0.23529412       0.35294118 </v>
   <v>      -0.23529412       0.23529412       0.35294118 </v>
   <v>      -0.17647059       0.23529412       0.35294118 </v>
   <v>      -0.11764706       0.23529412       0.35294118 </v>
   <v>      -0.05882353       0.23529412       0.35294118 </v>
   <v>      -0.00000000       0.29411765       0.35294118 </v>
   <v>       0.05882353       0.29411765       0.35294118 </v>
   <v>       0.11764706       0.29411765       0.35294118 </v>
   <v>       0.17647059       0.29411765       0.35294118 </v>
   <v>       0.23529412       0.29411765       0.35294118 </v>
   <v>       0.29411765       0.29411765       0.35294118 </v>
   <v>       0.35294118       0.29411765       0.35294118 </v>
   <v>       0.41176471       0.29411765       0.35294118 </v>
   <v>       0.47058824       0.29411765       0.35294118 </v>
   <v>      -0.47058824       0.29411765       0.35294118 </v>
   <v>      -0.41176471       0.29411765       0.35294118 </v>
   <v>      -0.35294118       0.29411765       0.35294118 </v>
   <v>      -0.29411765       0.29411765       0.35294118 </v>
   <v>      -0.23529412       0.29411765       0.35294118 </v>
   <v>      -0.17647059       0.29411765       0.35294118 </v>
   <v>      -0.11764706       0.29411765       0.35294118 </v>
   <v>      -0.05882353       0.29411765       0.35294118 </v>
   <v>       0.00000000       0.35294118       0.35294118 </v>
   <v>       0.05882353       0.35294118       0.35294118 </v>
   <v>       0.11764706       0.35294118       0.35294118 </v>
   <v>       0.17647059       0.35294118       0.35294118 </v>
   <v>       0.23529412       0.35294118       0.35294118 </v>
   <v>       0.29411765       0.35294118       0.35294118 </v>
   <v>       0.35294118       0.35294118       0.35294118 </v>
   <v>       0.41176471       0.35294118       0.35294118 </v>
   <v>       0.47058824       0.35294118       0.35294118 </v>
   <v>      -0.47058824       0.35294118       0.35294118 </v>
   <v>      -0.41176471       0.35294118       0.35294118 </v>
   <v>      -0.35294118       0.35294118       0.35294118 </v>
   <v>      -0.29411765       0.35294118       0.35294118 </v>
   <v>      -0.23529412       0.35294118       0.35294118 </v>
   <v>      -0.17647059       0.35294118       0.35294118 </v>
   <v>      -0.11764706       0.35294118       0.35294118 </v>
   <v>      -0.05882353       0.35294118       0.35294118 </v>
   <v>      -0.00000000       0.41176471       0.35294118 </v>
   <v>       0.05882353       0.41176471       0.35294118 </v>
   <v>       0.11764706       0.41176471       0.35294118 </v>
   <v>       0.17647059       0.41176471       0.35294118 </v>
   <v>       0.23529412       0.41176471       0.35294118 </v>
   <v>       0.29411765       0.41176471       0.35294118 </v>
   <v>       0.35294118       0.41176471       0.35294118 </v>
   <v>       0.41176471       0.41176471       0.35294118 </v>
   <v>       0.47058824       0.41176471       0.35294118 </v>
   <v>      -0.47058824       0.41176471       0.35294118 </v>
   <v>      -0.41176471       0.41176471       0.35294118 </v>
   <v>      -0.35294118       0.41176471       0.35294118 </v>
   <v>      -0.29411765       0.41176471       0.35294118 </v>
   <v>      -0.23529412       0.41176471       0.35294118 </v>
   <v>      -0.17647059       0.41176471       0.35294118 </v>
   <v>      -0.11764706       0.41176471       0.35294118 </v>
   <v>      -0.05882353       0.41176471       0.35294118 </v>
   <v>       0.00000000       0.47058824       0.35294118 </v>
   <v>       0.05882353       0.47058824       0.35294118 </v>
   <v>       0.11764706       0.47058824       0.35294118 </v>
   <v>       0.17647059       0.47058824       0.35294118 </v>
   <v>       0.23529412       0.47058824       0.35294118 </v>
   <v>       0.29411765       0.47058824       0.35294118 </v>
   <v>       0.35294118       0.47058824       0.35294118 </v>
   <v>       0.41176471       0.47058824       0.35294118 </v>
   <v>       0.47058824       0.47058824       0.35294118 </v>
   <v>      -0.47058824       0.47058824       0.35294118 </v>
   <v>      -0.41176471       0.47058824       0.35294118 </v>
   <v>      -0.35294118       0.47058824       0.35294118 </v>
   <v>      -0.29411765       0.47058824       0.35294118 </v>
   <v>      -0.23529412       0.47058824       0.35294118 </v>
   <v>      -0.17647059       0.47058824       0.35294118 </v>
   <v>      -0.11764706       0.47058824       0.35294118 </v>
   <v>      -0.05882353       0.47058824       0.35294118 </v>
   <v>       0.00000000       0.00000000       0.41176471 </v>
   <v>       0.05882353      -0.00000000       0.41176471 </v>
   <v>       0.11764706       0.00000000       0.41176471 </v>
   <v>       0.17647059       0.00000000       0.41176471 </v>
   <v>       0.23529412       0.00000000       0.41176471 </v>
   <v>       0.29411765       0.00000000       0.41176471 </v>
   <v>       0.35294118       0.00000000       0.41176471 </v>
   <v>       0.41176471       0.00000000       0.41176471 </v>
   <v>       0.47058824       0.00000000       0.41176471 </v>
   <v>      -0.00000000       0.05882353       0.41176471 </v>
   <v>       0.05882353       0.05882353       0.41176471 </v>
   <v>       0.11764706       0.05882353       0.41176471 </v>
   <v>       0.17647059       0.05882353       0.41176471 </v>
   <v>       0.23529412       0.05882353       0.41176471 </v>
   <v>       0.29411765       0.05882353       0.41176471 </v>
   <v>       0.35294118       0.05882353       0.41176471 </v>
   <v>       0.41176471       0.05882353       0.41176471 </v>
   <v>       0.47058824       0.05882353       0.41176471 </v>
   <v>      -0.47058824       0.05882353       0.41176471 </v>
   <v>      -0.41176471       0.05882353       0.41176471 </v>
   <v>      -0.35294118       0.05882353       0.41176471 </v>
   <v>      -0.29411765       0.05882353       0.41176471 </v>
   <v>      -0.23529412       0.05882353       0.41176471 </v>
   <v>      -0.17647059       0.05882353       0.41176471 </v>
   <v>      -0.11764706       0.05882353       0.41176471 </v>
   <v>      -0.05882353       0.05882353       0.41176471 </v>
   <v>       0.00000000       0.11764706       0.41176471 </v>
   <v>       0.05882353       0.11764706       0.41176471 </v>
   <v>       0.11764706       0.11764706       0.41176471 </v>
   <v>       0.17647059       0.11764706       0.41176471 </v>
   <v>       0.23529412       0.11764706       0.41176471 </v>
   <v>       0.29411765       0.11764706       0.41176471 </v>
   <v>       0.35294118       0.11764706       0.41176471 </v>
   <v>       0.41176471       0.11764706       0.41176471 </v>
   <v>       0.47058824       0.11764706       0.41176471 </v>
   <v>      -0.47058824       0.11764706       0.41176471 </v>
   <v>      -0.41176471       0.11764706       0.41176471 </v>
   <v>      -0.35294118       0.11764706       0.41176471 </v>
   <v>      -0.29411765       0.11764706       0.41176471 </v>
   <v>      -0.23529412       0.11764706       0.41176471 </v>
   <v>      -0.17647059       0.11764706       0.41176471 </v>
   <v>      -0.11764706       0.11764706       0.41176471 </v>
   <v>      -0.05882353       0.11764706       0.41176471 </v>
   <v>      -0.00000000       0.17647059       0.41176471 </v>
   <v>       0.05882353       0.17647059       0.41176471 </v>
   <v>       0.11764706       0.17647059       0.41176471 </v>
   <v>       0.17647059       0.17647059       0.41176471 </v>
   <v>       0.23529412       0.17647059       0.41176471 </v>
   <v>       0.29411765       0.17647059       0.41176471 </v>
   <v>       0.35294118       0.17647059       0.41176471 </v>
   <v>       0.41176471       0.17647059       0.41176471 </v>
   <v>       0.47058824       0.17647059       0.41176471 </v>
   <v>      -0.47058824       0.17647059       0.41176471 </v>
   <v>      -0.41176471       0.17647059       0.41176471 </v>
   <v>      -0.35294118       0.17647059       0.41176471 </v>
   <v>      -0.29411765       0.17647059       0.41176471 </v>
   <v>      -0.23529412       0.17647059       0.41176471 </v>
   <v>      -0.17647059       0.17647059       0.41176471 </v>
   <v>      -0.11764706       0.17647059       0.41176471 </v>
   <v>      -0.05882353       0.17647059       0.41176471 </v>
   <v>       0.00000000       0.23529412       0.41176471 </v>
   <v>       0.05882353       0.23529412       0.41176471 </v>
   <v>       0.11764706       0.23529412       0.41176471 </v>
   <v>       0.17647059       0.23529412       0.41176471 </v>
   <v>       0.23529412       0.23529412       0.41176471 </v>
   <v>       0.29411765       0.23529412       0.41176471 </v>
   <v>       0.35294118       0.23529412       0.41176471 </v>
   <v>       0.41176471       0.23529412       0.41176471 </v>
   <v>       0.47058824       0.23529412       0.41176471 </v>
   <v>      -0.47058824       0.23529412       0.41176471 </v>
   <v>      -0.41176471       0.23529412       0.41176471 </v>
   <v>      -0.35294118       0.23529412       0.41176471 </v>
   <v>      -0.29411765       0.23529412       0.41176471 </v>
   <v>      -0.23529412       0.23529412       0.41176471 </v>
   <v>      -0.17647059       0.23529412       0.41176471 </v>
   <v>      -0.11764706       0.23529412       0.41176471 </v>
   <v>      -0.05882353       0.23529412       0.41176471 </v>
   <v>      -0.00000000       0.29411765       0.41176471 </v>
   <v>       0.05882353       0.29411765       0.41176471 </v>
   <v>       0.11764706       0.29411765       0.41176471 </v>
   <v>       0.17647059       0.29411765       0.41176471 </v>
   <v>       0.23529412       0.29411765       0.41176471 </v>
   <v>       0.29411765       0.29411765       0.41176471 </v>
   <v>       0.35294118       0.29411765       0.41176471 </v>
   <v>       0.41176471       0.29411765       0.41176471 </v>
   <v>       0.47058824       0.29411765       0.41176471 </v>
   <v>      -0.47058824       0.29411765       0.41176471 </v>
   <v>      -0.41176471       0.29411765       0.41176471 </v>
   <v>      -0.35294118       0.29411765       0.41176471 </v>
   <v>      -0.29411765       0.29411765       0.41176471 </v>
   <v>      -0.23529412       0.29411765       0.41176471 </v>
   <v>      -0.17647059       0.29411765       0.41176471 </v>
   <v>      -0.11764706       0.29411765       0.41176471 </v>
   <v>      -0.05882353       0.29411765       0.41176471 </v>
   <v>       0.00000000       0.35294118       0.41176471 </v>
   <v>       0.05882353       0.35294118       0.41176471 </v>
   <v>       0.11764706       0.35294118       0.41176471 </v>
   <v>       0.17647059       0.35294118       0.41176471 </v>
   <v>       0.23529412       0.35294118       0.41176471 </v>
   <v>       0.29411765       0.35294118       0.41176471 </v>
   <v>       0.35294118       0.35294118       0.41176471 </v>
   <v>       0.41176471       0.35294118       0.41176471 </v>
   <v>       0.47058824       0.35294118       0.41176471 </v>
   <v>      -0.47058824       0.35294118       0.41176471 </v>
   <v>      -0.41176471       0.35294118       0.41176471 </v>
   <v>      -0.35294118       0.35294118       0.41176471 </v>
   <v>      -0.29411765       0.35294118       0.41176471 </v>
   <v>      -0.23529412       0.35294118       0.41176471 </v>
   <v>      -0.17647059       0.35294118       0.41176471 </v>
   <v>      -0.11764706       0.35294118       0.41176471 </v>
   <v>      -0.05882353       0.35294118       0.41176471 </v>
   <v>      -0.00000000       0.41176471       0.41176471 </v>
   <v>       0.05882353       0.41176471       0.41176471 </v>
   <v>       0.11764706       0.41176471       0.41176471 </v>
   <v>       0.17647059       0.41176471       0.41176471 </v>
   <v>       0.23529412       0.41176471       0.41176471 </v>
   <v>       0.29411765       0.41176471       0.41176471 </v>
   <v>       0.35294118       0.41176471       0.41176471 </v>
   <v>       0.41176471       0.41176471       0.41176471 </v>
   <v>       0.47058824       0.41176471       0.41176471 </v>
   <v>      -0.47058824       0.41176471       0.41176471 </v>
   <v>      -0.41176471       0.41176471       0.41176471 </v>
   <v>      -0.35294118       0.41176471       0.41176471 </v>
   <v>      -0.29411765       0.41176471       0.41176471 </v>
   <v>      -0.23529412       0.41176471       0.41176471 </v>
   <v>      -0.17647059       0.41176471       0.41176471 </v>
   <v>      -0.11764706       0.41176471       0.41176471 </v>
   <v>      -0.05882353       0.41176471       0.41176471 </v>
   <v>       0.00000000       0.47058824       0.41176471 </v>
   <v>       0.05882353       0.47058824       0.41176471 </v>
   <v>       0.11764706       0.47058824       0.41176471 </v>
   <v>       0.17647059       0.47058824       0.41176471 </v>
   <v>       0.23529412       0.47058824       0.41176471 </v>
   <v>       0.29411765       0.47058824       0.41176471 </v>
   <v>       0.35294118       0.47058824       0.41176471 </v>
   <v>       0.41176471       0.47058824       0.41176471 </v>
   <v>       0.47058824       0.47058824       0.41176471 </v>
   <v>      -0.47058824       0.47058824       0.41176471 </v>
   <v>      -0.41176471       0.47058824       0.41176471 </v>
   <v>      -0.35294118       0.47058824       0.41176471 </v>
   <v>      -0.29411765       0.47058824       0.41176471 </v>
   <v>      -0.23529412       0.47058824       0.41176471 </v>
   <v>      -0.17647059       0.47058824       0.41176471 </v>
   <v>      -0.11764706       0.47058824       0.41176471 </v>
   <v>      -0.05882353       0.47058824       0.41176471 </v>
   <v>       0.00000000       0.00000000       0.47058824 </v>
   <v>       0.05882353      -0.00000000       0.47058824 </v>
   <v>       0.11764706       0.00000000       0.47058824 </v>
   <v>       0.17647059       0.00000000       0.47058824 </v>
   <v>       0.23529412       0.00000000       0.47058824 </v>
   <v>       0.29411765       0.00000000       0.47058824 </v>
   <v>       0.35294118       0.00000000       0.47058824 </v>
   <v>       0.41176471       0.00000000       0.47058824 </v>
   <v>       0.47058824       0.00000000       0.47058824 </v>
   <v>      -0.00000000       0.05882353       0.47058824 </v>
   <v>       0.05882353       0.05882353       0.47058824 </v>
   <v>       0.11764706       0.05882353       0.47058824 </v>
   <v>       0.17647059       0.05882353       0.47058824 </v>
   <v>       0.23529412       0.05882353       0.47058824 </v>
   <v>       0.29411765       0.05882353       0.47058824 </v>
   <v>       0.35294118       0.05882353       0.47058824 </v>
   <v>       0.41176471       0.05882353       0.47058824 </v>
   <v>       0.47058824       0.05882353       0.47058824 </v>
   <v>      -0.47058824       0.05882353       0.47058824 </v>
   <v>      -0.41176471       0.05882353       0.47058824 </v>
   <v>      -0.35294118       0.05882353       0.47058824 </v>
   <v>      -0.29411765       0.05882353       0.47058824 </v>
   <v>      -0.23529412       0.05882353       0.47058824 </v>
   <v>      -0.17647059       0.05882353       0.47058824 </v>
   <v>      -0.11764706       0.05882353       0.47058824 </v>
   <v>      -0.05882353       0.05882353       0.47058824 </v>
   <v>       0.00000000       0.11764706       0.47058824 </v>
   <v>       0.05882353       0.11764706       0.47058824 </v>
   <v>       0.11764706       0.11764706       0.47058824 </v>
   <v>       0.17647059       0.11764706       0.47058824 </v>
   <v>       0.23529412       0.11764706       0.47058824 </v>
   <v>       0.29411765       0.11764706       0.47058824 </v>
   <v>       0.35294118       0.11764706       0.47058824 </v>
   <v>       0.41176471       0.11764706       0.47058824 </v>
   <v>       0.47058824       0.11764706       0.47058824 </v>
   <v>      -0.47058824       0.11764706       0.47058824 </v>
   <v>      -0.41176471       0.11764706       0.47058824 </v>
   <v>      -0.35294118       0.11764706       0.47058824 </v>
   <v>      -0.29411765       0.11764706       0.47058824 </v>
   <v>      -0.23529412       0.11764706       0.47058824 </v>
   <v>      -0.17647059       0.11764706       0.47058824 </v>
   <v>      -0.11764706       0.11764706       0.47058824 </v>
   <v>      -0.05882353       0.11764706       0.47058824 </v>
   <v>      -0.00000000       0.17647059       0.47058824 </v>
   <v>       0.05882353       0.17647059       0.47058824 </v>
   <v>       0.11764706       0.17647059       0.47058824 </v>
   <v>       0.17647059       0.17647059       0.47058824 </v>
   <v>       0.23529412       0.17647059       0.47058824 </v>
   <v>       0.29411765       0.17647059       0.47058824 </v>
   <v>       0.35294118       0.17647059       0.47058824 </v>
   <v>       0.41176471       0.17647059       0.47058824 </v>
   <v>       0.47058824       0.17647059       0.47058824 </v>
   <v>      -0.47058824       0.17647059       0.47058824 </v>
   <v>      -0.41176471       0.17647059       0.47058824 </v>
   <v>      -0.35294118       0.17647059       0.47058824 </v>
   <v>      -0.29411765       0.17647059       0.47058824 </v>
   <v>      -0.23529412       0.17647059       0.47058824 </v>
   <v>      -0.17647059       0.17647059       0.47058824 </v>
   <v>      -0.11764706       0.17647059       0.47058824 </v>
   <v>      -0.05882353       0.17647059       0.47058824 </v>
   <v>       0.00000000       0.23529412       0.47058824 </v>
   <v>       0.05882353       0.23529412       0.47058824 </v>
   <v>       0.11764706       0.23529412       0.47058824 </v>
   <v>       0.17647059       0.23529412       0.47058824 </v>
   <v>       0.23529412       0.23529412       0.47058824 </v>
   <v>       0.29411765       0.23529412       0.47058824 </v>
   <v>       0.35294118       0.23529412       0.47058824 </v>
   <v>       0.41176471       0.23529412       0.47058824 </v>
[...]
       <r>   -6.8609    1.0000 </r>
       <r>   -6.5441    1.0000 </r>
       <r>   -2.3158    1.0000 </r>
       <r>   -1.8923    1.0000 </r>
       <r>   -1.7780    1.0000 </r>
       <r>   -1.3197    1.0000 </r>
       <r>    4.2765    1.0000 </r>
       <r>    4.4080    1.0000 </r>
       <r>    4.5979    1.0000 </r>
       <r>    4.7786    1.0000 </r>
       <r>    6.5408    1.0000 </r>
       <r>    6.5840    1.0000 </r>
       <r>    6.7141    1.0000 </r>
       <r>    6.8691    1.0000 </r>
       <r>   17.5013    0.0000 </r>
       <r>   17.7211    0.0000 </r>
       <r>   17.7618    0.0000 </r>
       <r>   17.8068    0.0000 </r>
       <r>   18.1028    0.0000 </r>
       <r>   18.1934    0.0000 </r>
       <r>   18.1943    0.0000 </r>
       <r>   18.6589    0.0000 </r>
      </set>
      <set comment="kpoint 1303">
       <r>   -7.5355    1.0000 </r>
       <r>   -7.1342    1.0000 </r>
       <r>   -7.0473    1.0000 </r>
       <r>   -6.6736    1.0000 </r>
       <r>   -1.6648    1.0000 </r>
       <r>   -1.2206    1.0000 </r>
       <r>   -1.0843    1.0000 </r>
       <r>   -0.6184    1.0000 </r>
       <r>    3.4881    1.0000 </r>
       <r>    3.6561    1.0000 </r>
       <r>    3.8492    1.0000 </r>
       <r>    4.0583    1.0000 </r>
       <r>    6.4652    1.0000 </r>
       <r>    6.5636    1.0000 </r>
       <r>    6.6649    1.0000 </r>
       <r>    6.8848    1.0000 </r>
       <r>   17.4003    0.0000 </r>
       <r>   17.6724    0.0000 </r>
       <r>   17.7280    0.0000 </r>
       <r>   17.7481    0.0000 </r>
       <r>   18.3898    0.0000 </r>
       <r>   18.3930    0.0000 </r>
       <r>   18.4661    0.0000 </r>
       <r>   19.1517    0.0000 </r>
      </set>
      <set comment="kpoint 1304">
       <r>   -7.6828    1.0000 </r>
       <r>   -7.2450    1.0000 </r>
       <r>   -7.1881    1.0000 </r>
       <r>   -6.7701    1.0000 </r>
       <r>   -0.9633    1.0000 </r>
       <r>   -0.5093    1.0000 </r>
       <r>   -0.3585    1.0000 </r>
       <r>    0.1103    1.0000 </r>
       <r>    2.6779    1.0000 </r>
       <r>    2.8791    1.0000 </r>
       <r>    3.0677    1.0000 </r>
       <r>    3.3015    1.0000 </r>
       <r>    6.4030    1.0000 </r>
       <r>    6.5503    1.0000 </r>
       <r>    6.6200    1.0000 </r>
       <r>    6.8988    1.0000 </r>
       <r>   17.3166    0.0000 </r>
       <r>   17.6232    0.0000 </r>
       <r>   17.6579    0.0000 </r>
       <r>   17.7232    0.0000 </r>
       <r>   18.5538    0.0000 </r>
       <r>   18.6712    0.0000 </r>
       <r>   18.7240    0.0000 </r>
       <r>   19.4045    0.0000 </r>
      </set>
      <set comment="kpoint 1305">
       <r>   -7.7769    1.0000 </r>
       <r>   -7.3073    1.0000 </r>
       <r>   -7.2793    1.0000 </r>
       <r>   -6.8247    1.0000 </r>
       <r>   -0.2569    1.0000 </r>
       <r>    0.2015    1.0000 </r>
       <r>    0.3454    1.0000 </r>
       <r>    0.8169    1.0000 </r>
       <r>    1.8983    1.0000 </r>
       <r>    2.1439    1.0000 </r>
       <r>    2.3063    1.0000 </r>
       <r>    2.5750    1.0000 </r>
       <r>    6.3578    1.0000 </r>
       <r>    6.5471    1.0000 </r>
       <r>    6.5835    1.0000 </r>
       <r>    6.9135    1.0000 </r>
       <r>   17.2594    0.0000 </r>
       <r>   17.5913    0.0000 </r>
       <r>   17.6069    0.0000 </r>
       <r>   17.7061    0.0000 </r>
       <r>   18.6681    0.0000 </r>
       <r>   18.8877    0.0000 </r>
       <r>   18.9222    0.0000 </r>
       <r>   19.5665    0.0000 </r>
      </set>
     </set>
    </set>
   </array>
  </eigenvalues>
  <separator name="orbital magnetization" >
   <v name="MAGDIPOLOUT">      0.00000000      0.00000000      0.00000000</v>
  </separator>
  <dos>
   <i name="efermi">      9.57658930 </i>
   <total>
    <array>
     <dimension dim="1">gridpoints</dimension>
     <dimension dim="2">spin</dimension>
     <field>energy</field>
     <field>total</field>
     <field>integrated</field>
     <set>
      <set comment="spin 1">
       <r>   -13.7729     0.0000     0.0000 </r>
       <r>   -13.6494     0.0000     0.0000 </r>
       <r>   -13.5259     0.0000     0.0000 </r>
       <r>   -13.4024     0.0000     0.0000 </r>
       <r>   -13.2789     0.0000     0.0000 </r>
       <r>   -13.1554     0.0000     0.0000 </r>
       <r>   -13.0319     0.0000     0.0000 </r>
       <r>   -12.9084     0.0000     0.0000 </r>
       <r>   -12.7849     0.0000     0.0000 </r>
       <r>   -12.6614     0.0000     0.0000 </r>
       <r>   -12.5379     0.0000     0.0000 </r>
       <r>   -12.4144     0.0000     0.0000 </r>
       <r>   -12.2909     0.0000     0.0000 </r>
       <r>   -12.1674     0.0000     0.0000 </r>
       <r>   -12.0439     0.0000     0.0000 </r>
       <r>   -11.9204     0.0000     0.0000 </r>
       <r>   -11.7969     0.0000     0.0000 </r>
       <r>   -11.6734     0.1534     0.0074 </r>
       <r>   -11.5499     0.2068     0.0289 </r>
       <r>   -11.4264     0.2643     0.0585 </r>
       <r>   -11.3029     0.3116     0.0939 </r>
       <r>   -11.1794     0.3508     0.1352 </r>
       <r>   -11.0559     0.3877     0.1806 </r>
       <r>   -10.9324     0.4226     0.2309 </r>
       <r>   -10.8089     0.4514     0.2848 </r>
       <r>   -10.6854     0.4833     0.3425 </r>
       <r>   -10.5619     0.5112     0.4041 </r>
       <r>   -10.4384     0.5359     0.4687 </r>
       <r>   -10.3149     0.5634     0.5365 </r>
       <r>   -10.1914     0.5896     0.6078 </r>
       <r>   -10.0679     0.6113     0.6820 </r>
       <r>    -9.9444     0.6348     0.7589 </r>
       <r>    -9.8209     0.6749     0.8389 </r>
       <r>    -9.6974     0.7811     0.9292 </r>
       <r>    -9.5739     0.7443     1.0220 </r>
       <r>    -9.4504     0.6922     1.1102 </r>
       <r>    -9.3269     0.6591     1.1936 </r>
       <r>    -9.2034     0.7847     1.2792 </r>
       <r>    -9.0799     0.8177     1.3753 </r>
       <r>    -8.9563     0.8126     1.4739 </r>
       <r>    -8.8328     0.8279     1.5746 </r>
       <r>    -8.7093     0.8502     1.6784 </r>
       <r>    -8.5858     0.8685     1.7845 </r>
       <r>    -8.4623     0.8895     1.8931 </r>
       <r>    -8.3388     0.9094     2.0041 </r>
       <r>    -8.2153     0.9295     2.1177 </r>
       <r>    -8.0918     0.9503     2.2338 </r>
       <r>    -7.9683     0.9754     2.3526 </r>
       <r>    -7.8448     1.0166     2.4762 </r>
       <r>    -7.7213     1.0363     2.6027 </r>
       <r>    -7.5978     1.0553     2.7314 </r>
       <r>    -7.4743     1.0745     2.8631 </r>
       <r>    -7.3508     1.1215     2.9987 </r>
       <r>    -7.2273     1.1274     3.1380 </r>
       <r>    -7.1038     1.0836     3.2730 </r>
       <r>    -6.9803     1.1066     3.4075 </r>
       <r>    -6.8568     1.1802     3.5486 </r>
       <r>    -6.7333     1.2345     3.6983 </r>
       <r>    -6.6098     1.2460     3.8504 </r>
       <r>    -6.4863     1.2842     4.0066 </r>
       <r>    -6.3628     1.3573     4.1696 </r>
       <r>    -6.2393     1.4709     4.3431 </r>
       <r>    -6.1158     1.5537     4.5338 </r>
       <r>    -5.9923     1.5860     4.7255 </r>
       <r>    -5.8688     1.5170     4.9158 </r>
       <r>    -5.7453     1.5125     5.1040 </r>
       <r>    -5.6218     1.4385     5.2862 </r>
       <r>    -5.4983     1.4157     5.4631 </r>
       <r>    -5.3748     1.4091     5.6367 </r>
       <r>    -5.2513     1.3255     5.8057 </r>
       <r>    -5.1278     1.2942     5.9671 </r>
       <r>    -5.0043     1.2607     6.1250 </r>
       <r>    -4.8808     1.2328     6.2782 </r>
       <r>    -4.7573     1.2164     6.4296 </r>
       <r>    -4.6338     1.1466     6.5749 </r>
       <r>    -4.5103     1.1075     6.7142 </r>
       <r>    -4.3868     1.0613     6.8482 </r>
       <r>    -4.2633     1.0253     6.9769 </r>
       <r>    -4.1398     0.9902     7.1014 </r>
       <r>    -4.0163     0.9659     7.2219 </r>
       <r>    -3.8928     0.9315     7.3389 </r>
       <r>    -3.7693     0.8829     7.4506 </r>
       <r>    -3.6458     0.9785     7.5621 </r>
       <r>    -3.5223     1.0398     7.6845 </r>
       <r>    -3.3988     1.0791     7.8176 </r>
       <r>    -3.2753     1.0267     7.9466 </r>
       <r>    -3.1518     1.0049     8.0708 </r>
       <r>    -3.0283     0.9200     8.1910 </r>
       <r>    -2.9048     0.9437     8.3059 </r>
       <r>    -2.7813     0.9965     8.4250 </r>
       <r>    -2.6578     1.0206     8.5484 </r>
       <r>    -2.5343     1.1808     8.6833 </r>
       <r>    -2.4108     1.3878     8.8416 </r>
       <r>    -2.2873     1.6313     9.0276 </r>
       <r>    -2.1638     2.0476     9.2531 </r>
       <r>    -2.0403     2.4674     9.5298 </r>
       <r>    -1.9168     2.7586     9.8581 </r>
       <r>    -1.7933     2.4863    10.1823 </r>
       <r>    -1.6698     2.1351    10.4677 </r>
       <r>    -1.5463     1.9022    10.7154 </r>
       <r>    -1.4228     1.7633    10.9409 </r>
       <r>    -1.2993     1.6603    11.1527 </r>
       <r>    -1.1758     1.5745    11.3528 </r>
       <r>    -1.0523     1.4517    11.5387 </r>
       <r>    -0.9288     1.3767    11.7123 </r>
       <r>    -0.8053     1.3296    11.8792 </r>
       <r>    -0.6818     1.2761    12.0405 </r>
       <r>    -0.5582     1.2292    12.1947 </r>
       <r>    -0.4347     1.1736    12.3424 </r>
       <r>    -0.3112     1.1362    12.4853 </r>
       <r>    -0.1877     1.0882    12.6228 </r>
       <r>    -0.0642     1.0536    12.7544 </r>
       <r>     0.0593     1.0716    12.8847 </r>
       <r>     0.1828     1.0725    13.0157 </r>
       <r>     0.3063     1.2236    13.1544 </r>
       <r>     0.4298     1.5166    13.3255 </r>
       <r>     0.5533     1.6338    13.5216 </r>
       <r>     0.6768     1.7468    13.7286 </r>
       <r>     0.8003     1.9352    13.9574 </r>
       <r>     0.9238     2.2227    14.2131 </r>
       <r>     1.0473     2.2510    14.4893 </r>
       <r>     1.1708     2.3562    14.7724 </r>
       <r>     1.2943     2.3858    15.0649 </r>
       <r>     1.4178     2.1666    15.3531 </r>
       <r>     1.5413     1.6125    15.5859 </r>
       <r>     1.6648     1.4774    15.7676 </r>
       <r>     1.7883     1.9517    15.9760 </r>
       <r>     1.9118     2.3574    16.2377 </r>
       <r>     2.0353     2.3553    16.5318 </r>
       <r>     2.1588     2.2371    16.8154 </r>
       <r>     2.2823     2.3026    17.0937 </r>
       <r>     2.4058     2.3613    17.3834 </r>
       <r>     2.5293     2.3511    17.6752 </r>
       <r>     2.6528     2.4361    17.9702 </r>
       <r>     2.7763     2.6116    18.2812 </r>
       <r>     2.8998     2.8601    18.6184 </r>
       <r>     3.0233     2.8687    18.9740 </r>
       <r>     3.1468     2.9199    19.3328 </r>
       <r>     3.2703     2.9554    19.6859 </r>
       <r>     3.3938     3.0029    20.0470 </r>
       <r>     3.5173     3.2782    20.4325 </r>
       <r>     3.6408     3.3624    20.8475 </r>
       <r>     3.7643     3.1316    21.2455 </r>
       <r>     3.8878     3.2345    21.6383 </r>
       <r>     4.0113     3.0741    22.0296 </r>
       <r>     4.1348     3.1166    22.4020 </r>
       <r>     4.2583     3.1328    22.7912 </r>
       <r>     4.3818     2.8849    23.1631 </r>
       <r>     4.5053     2.7973    23.5109 </r>
       <r>     4.6288     2.8316    23.8576 </r>
       <r>     4.7523     3.0381    24.2159 </r>
       <r>     4.8758     3.0634    24.5972 </r>
       <r>     4.9993     2.9729    24.9686 </r>
       <r>     5.1228     2.9496    25.3348 </r>
       <r>     5.2463     2.7832    25.6919 </r>
       <r>     5.3698     2.7449    26.0328 </r>
       <r>     5.4933     2.6495    26.3630 </r>
       <r>     5.6168     2.7018    26.6909 </r>
       <r>     5.7403     2.7862    27.0270 </r>
       <r>     5.8638     2.7734    27.3716 </r>
       <r>     5.9873     2.7427    27.7142 </r>
       <r>     6.1108     2.7017    28.0497 </r>
       <r>     6.2343     2.6369    28.3766 </r>
       <r>     6.3578     2.8752    28.7215 </r>
       <r>     6.4813     2.2224    29.0265 </r>
       <r>     6.6048     2.1308    29.2728 </r>
       <r>     6.7283     2.1444    29.5321 </r>
       <r>     6.8518     2.0853    29.7809 </r>
       <r>     6.9753     2.0328    30.0310 </r>
       <r>     7.0988     1.6946    30.2477 </r>
       <r>     7.2223     1.5306    30.4504 </r>
       <r>     7.3458     1.3232    30.6213 </r>
       <r>     7.4693     1.2264    30.7787 </r>
       <r>     7.5928     1.1312    30.9243 </r>
       <r>     7.7163     1.0463    31.0586 </r>
       <r>     7.8398     0.9659    31.1827 </r>
       <r>     7.9634     0.8900    31.2975 </r>
       <r>     8.0869     0.8149    31.4028 </r>
       <r>     8.2104     0.7496    31.4992 </r>
       <r>     8.3339     0.6846    31.5878 </r>
       <r>     8.4574     0.6123    31.6677 </r>
       <r>     8.5809     0.5487    31.7395 </r>
       <r>     8.7044     0.4981    31.8039 </r>
       <r>     8.8279     0.4094    31.8595 </r>
       <r>     8.9514     0.3629    31.9073 </r>
       <r>     9.0749     0.2633    31.9461 </r>
       <r>     9.1984     0.1862    31.9742 </r>
       <r>     9.3219     0.1007    31.9927 </r>
       <r>     9.4454     0.0135    31.9999 </r>
       <r>     9.5689     0.0000    32.0000 </r>
       <r>     9.6924     0.0000    32.0000 </r>
       <r>     9.8159     0.0000    32.0000 </r>
       <r>     9.9394     0.0000    32.0000 </r>
       <r>    10.0629     0.0000    32.0000 </r>
       <r>    10.1864     0.0000    32.0000 </r>
       <r>    10.3099     0.0000    32.0000 </r>
       <r>    10.4334     0.0000    32.0000 </r>
       <r>    10.5569     0.0000    32.0000 </r>
       <r>    10.6804     0.0000    32.0000 </r>
       <r>    10.8039     0.0000    32.0000 </r>
       <r>    10.9274     0.0000    32.0000 </r>
       <r>    11.0509     0.0000    32.0000 </r>
       <r>    11.1744     0.0000    32.0000 </r>
       <r>    11.2979     0.0000    32.0000 </r>
       <r>    11.4214     0.0000    32.0000 </r>
       <r>    11.5449     0.0000    32.0000 </r>
       <r>    11.6684     0.0000    32.0000 </r>
       <r>    11.7919     0.0000    32.0000 </r>
       <r>    11.9154     0.0000    32.0000 </r>
       <r>    12.0389     0.0000    32.0000 </r>
       <r>    12.1624     0.0000    32.0000 </r>
       <r>    12.2859     0.0000    32.0000 </r>
       <r>    12.4094     0.0000    32.0000 </r>
       <r>    12.5329     0.0000    32.0000 </r>
       <r>    12.6564     0.0000    32.0000 </r>
       <r>    12.7799     0.0000    32.0000 </r>
       <r>    12.9034     0.0000    32.0000 </r>
       <r>    13.0269     0.0000    32.0000 </r>
       <r>    13.1504     0.0000    32.0000 </r>
       <r>    13.2739     0.0007    32.0000 </r>
       <r>    13.3974     0.1133    32.0052 </r>
       <r>    13.5209     0.2578    32.0294 </r>
       <r>    13.6444     0.3707    32.0668 </r>
       <r>    13.7679     0.4359    32.1128 </r>
       <r>    13.8914     0.5591    32.1717 </r>
       <r>    14.0149     0.6935    32.2501 </r>
       <r>    14.1384     0.7685    32.3401 </r>
       <r>    14.2619     0.8793    32.4404 </r>
       <r>    14.3854     1.0787    32.5595 </r>
       <r>    14.5089     1.2721    32.7034 </r>
       <r>    14.6324     1.3633    32.8653 </r>
       <r>    14.7559     1.4494    33.0367 </r>
       <r>    14.8794     1.6108    33.2260 </r>
       <r>    15.0029     1.7315    33.4326 </r>
       <r>    15.1264     1.8017    33.6501 </r>
       <r>    15.2499     1.8877    33.8782 </r>
       <r>    15.3734     1.9250    34.1116 </r>
       <r>    15.4969     1.9556    34.3519 </r>
       <r>    15.6204     2.0486    34.5991 </r>
       <r>    15.7439     2.1224    34.8574 </r>
       <r>    15.8674     2.2452    35.1271 </r>
       <r>    15.9909     2.3620    35.4106 </r>
       <r>    16.1144     2.4314    35.7084 </r>
       <r>    16.2379     2.4644    36.0105 </r>
       <r>    16.3615     2.5662    36.3203 </r>
       <r>    16.4850     2.7235    36.6475 </r>
       <r>    16.6085     2.9385    36.9947 </r>
       <r>    16.7320     3.0353    37.3624 </r>
       <r>    16.8555     3.0700    37.7371 </r>
       <r>    16.9790     3.3457    38.1297 </r>
       <r>    17.1025     3.9380    38.5750 </r>
       <r>    17.2260     4.4787    39.0964 </r>
       <r>    17.3495     4.0062    39.6046 </r>
       <r>    17.4730     3.9618    40.0873 </r>
       <r>    17.5965     4.5949    40.5883 </r>
       <r>    17.7200     4.2678    41.0996 </r>
       <r>    17.8435     3.7332    41.5742 </r>
       <r>    17.9670     3.4654    42.0062 </r>
       <r>    18.0905     3.4519    42.4256 </r>
       <r>    18.2140     3.8312    42.8772 </r>
       <r>    18.3375     3.5468    43.3239 </r>
       <r>    18.4610     3.3051    43.7442 </r>
       <r>    18.5845     3.1095    44.1401 </r>
       <r>    18.7080     3.0125    44.5156 </r>
       <r>    18.8315     2.8609    44.8763 </r>
       <r>    18.9550     2.7471    45.2205 </r>
       <r>    19.0785     2.7417    45.5590 </r>
       <r>    19.2020     2.6796    45.8936 </r>
       <r>    19.3255     2.6515    46.2218 </r>
       <r>    19.4490     2.4400    46.5332 </r>
       <r>    19.5725     2.2141    46.8182 </r>
       <r>    19.6960     2.0229    47.0789 </r>
       <r>    19.8195     1.8212    47.3142 </r>
       <r>    19.9430     1.5134    47.5217 </r>
       <r>    20.0665     1.1602    47.6884 </r>
       <r>    20.1900     0.7767    47.8039 </r>
       <r>    20.3135     0.4940    47.8786 </r>
       <r>    20.4370     0.3320    47.9293 </r>
       <r>    20.5605     0.2003    47.9618 </r>
       <r>    20.6840     0.1100    47.9793 </r>
       <r>    20.8075     0.0655    47.9904 </r>
       <r>    20.9310     0.0293    47.9960 </r>
       <r>    21.0545     0.0151    47.9986 </r>
       <r>    21.1780     0.0047    47.9998 </r>
       <r>    21.3015     0.0000    48.0000 </r>
       <r>    21.4250     0.0000    48.0000 </r>
       <r>    21.5485     0.0000    48.0000 </r>
       <r>    21.6720     0.0000    48.0000 </r>
       <r>    21.7955     0.0000    48.0000 </r>
       <r>    21.9190     0.0000    48.0000 </r>
       <r>    22.0425     0.0000    48.0000 </r>
       <r>    22.1660     0.0000    48.0000 </r>
       <r>    22.2895     0.0000    48.0000 </r>
       <r>    22.4130     0.0000    48.0000 </r>
       <r>    22.5365     0.0000    48.0000 </r>
       <r>    22.6600     0.0000    48.0000 </r>
       <r>    22.7835     0.0000    48.0000 </r>
       <r>    22.9070     0.0000    48.0000 </r>
       <r>    23.0305     0.0000    48.0000 </r>
       <r>    23.1540     0.0000    48.0000 </r>
       <r>    23.2775     0.0000    48.0000 </r>
      </set>
     </set>
    </array>
   </total>
  </dos>
 </calculation>
 <structure name="finalpos" >
  <crystal>
   <varray name="basis" >
    <v>       3.64402101       0.03572600       0.00000000 </v>
    <v>       0.03572600       3.57257001       0.00000000 </v>
    <v>       0.00000000       0.00000000       3.57257001 </v>
   </varray>
   <i name="volume">     46.50501497 </i>
   <varray name="rec_basis" >
    <v>       0.27444904      -0.00274451       0.00000000 </v>
    <v>      -0.00274451       0.27993799       0.00000000 </v>
    <v>       0.00000000       0.00000000       0.27991054 </v>
   </varray>
  </crystal>
  <varray name="positions" >
   <v>       0.00000000       0.00000000       0.50000000 </v>
   <v>       0.25000000       0.25000000       0.75000000 </v>
   <v>       0.00000000       0.50000000       0.00000000 </v>
   <v>       0.25000000       0.75000000       0.25000000 </v>
   <v>       0.50000000       0.00000000       0.00000000 </v>
   <v>       0.75000000       0.25000000       0.25000000 </v>
   <v>       0.50000000       0.50000000       0.50000000 </v>
   <v>       0.75000000       0.75000000       0.75000000 </v>
  </varray>
 </structure>
</modeling>
