  64  64   0   0
  0.1872094E+02  0.1058571E-08  0.1063891E-08  0.1063888E-08  0.5000000E-15
  1.000000000000000E-004
  CAR 
 Si64                                    
     11.99363595     -7.97439860  301      6.71845292      1.00000000
     -7.974  0.0000E+00  0.0000E+00
     -7.908  0.0000E+00  0.0000E+00
     -7.841  0.0000E+00  0.0000E+00
     -7.775  0.0000E+00  0.0000E+00
     -7.708  0.0000E+00  0.0000E+00
     -7.642  0.0000E+00  0.0000E+00
     -7.575 -0.2154E-28 -0.1433E-29
     -7.508 -0.3781E-26 -0.2531E-27
     -7.442 -0.5332E-24 -0.3574E-25
     -7.375 -0.6010E-22 -0.4036E-23
     -7.309 -0.5414E-20 -0.3644E-21
     -7.242 -0.3896E-18 -0.2630E-19
     -7.176 -0.2239E-16 -0.1517E-17
     -7.109 -0.9956E-15 -0.6778E-16
     -7.043 -0.3626E-13 -0.2482E-14
     -6.976 -0.1052E-11 -0.7251E-13
     -6.909 -0.2428E-10 -0.1689E-11
     -6.843 -0.4450E-09 -0.3131E-10
     -6.776 -0.6463E-08 -0.4615E-09
     -6.710 -0.7418E-07 -0.5399E-08
     -6.643 -0.6703E-06 -0.5001E-07
     -6.577 -0.4741E-05 -0.3656E-06
     -6.510 -0.2602E-04 -0.2097E-05
     -6.444 -0.1092E-03 -0.9366E-05
     -6.377 -0.3415E-03 -0.3209E-04
     -6.310 -0.7506E-03 -0.8206E-04
     -6.244 -0.9693E-03 -0.1466E-03
     -6.177  0.3046E-04 -0.1445E-03
     -6.111  0.3176E-02  0.6687E-04
     -6.044  0.7550E-02  0.5694E-03
     -5.978  0.1083E-01  0.1290E-02
     -5.911  0.1436E-01  0.2246E-02
     -5.844  0.2613E-01  0.3986E-02
     -5.778  0.5143E-01  0.7408E-02
     -5.711  0.7997E-01  0.1273E-01
     -5.645  0.9500E-01  0.1906E-01
     -5.578  0.1007E+00  0.2576E-01
     -5.512  0.1223E+00  0.3390E-01
     -5.445  0.1658E+00  0.4494E-01
     -5.379  0.1972E+00  0.5806E-01
     -5.312  0.1869E+00  0.7050E-01
     -5.245  0.1528E+00  0.8067E-01
     -5.179  0.1322E+00  0.8947E-01
     -5.112  0.1278E+00  0.9798E-01
     -5.046  0.1146E+00  0.1056E+00
     -4.979  0.8816E-01  0.1115E+00
     -4.913  0.6916E-01  0.1161E+00
     -4.846  0.6978E-01  0.1207E+00
     -4.780  0.8963E-01  0.1267E+00
     -4.713  0.1424E+00  0.1362E+00
     -4.646  0.2424E+00  0.1523E+00
     -4.580  0.3562E+00  0.1760E+00
     -4.513  0.4219E+00  0.2041E+00
     -4.447  0.4305E+00  0.2327E+00
     -4.380  0.4307E+00  0.2614E+00
     -4.314  0.4329E+00  0.2902E+00
     -4.247  0.3822E+00  0.3157E+00
     -4.180  0.2519E+00  0.3324E+00
     -4.114  0.9763E-01  0.3389E+00
     -4.047 -0.5376E-02  0.3386E+00
     -3.981 -0.2703E-01  0.3368E+00
     -3.914  0.2606E-01  0.3385E+00
     -3.848  0.1393E+00  0.3478E+00
     -3.781  0.2895E+00  0.3671E+00
     -3.715  0.4321E+00  0.3958E+00
     -3.648  0.5083E+00  0.4296E+00
     -3.581  0.4822E+00  0.4617E+00
     -3.515  0.3766E+00  0.4868E+00
     -3.448  0.2627E+00  0.5043E+00
     -3.382  0.2115E+00  0.5184E+00
     -3.315  0.2585E+00  0.5356E+00
     -3.249  0.3897E+00  0.5615E+00
     -3.182  0.5414E+00  0.5975E+00
     -3.116  0.6386E+00  0.6401E+00
     -3.049  0.6526E+00  0.6835E+00
     -2.982  0.6107E+00  0.7241E+00
     -2.916  0.5492E+00  0.7607E+00
     -2.849  0.4809E+00  0.7927E+00
     -2.783  0.4208E+00  0.8207E+00
     -2.716  0.4009E+00  0.8474E+00
     -2.650  0.4154E+00  0.8750E+00
     -2.583  0.3964E+00  0.9014E+00
     -2.516  0.2937E+00  0.9210E+00
     -2.450  0.1451E+00  0.9306E+00
     -2.383  0.2810E-01  0.9325E+00
     -2.317 -0.2483E-01  0.9309E+00
     -2.250 -0.3168E-01  0.9287E+00
     -2.184 -0.1227E-01  0.9279E+00
     -2.117  0.3535E-01  0.9303E+00
     -2.051  0.1110E+00  0.9377E+00
     -1.984  0.1821E+00  0.9498E+00
     -1.917  0.1982E+00  0.9630E+00
     -1.851  0.1423E+00  0.9725E+00
     -1.784  0.5710E-01  0.9763E+00
     -1.718  0.1452E-01  0.9772E+00
     -1.651  0.6986E-01  0.9819E+00
     -1.585  0.2310E+00  0.9972E+00
     -1.518  0.4408E+00  0.1027E+01
     -1.452  0.5914E+00  0.1066E+01
     -1.385  0.5927E+00  0.1105E+01
     -1.318  0.4448E+00  0.1135E+01
     -1.252  0.2364E+00  0.1151E+01
     -1.185  0.7472E-01  0.1156E+01
     -1.119  0.2009E-01  0.1157E+01
     -1.052  0.6839E-01  0.1162E+01
     -0.986  0.1629E+00  0.1172E+01
     -0.919  0.2267E+00  0.1188E+01
     -0.852  0.2195E+00  0.1202E+01
     -0.786  0.1806E+00  0.1214E+01
     -0.719  0.1929E+00  0.1227E+01
     -0.653  0.2811E+00  0.1246E+01
     -0.586  0.3631E+00  0.1270E+01
     -0.520  0.3404E+00  0.1293E+01
     -0.453  0.2370E+00  0.1308E+01
     -0.387  0.2078E+00  0.1322E+01
     -0.320  0.3844E+00  0.1348E+01
     -0.253  0.7215E+00  0.1396E+01
     -0.187  0.1010E+01  0.1463E+01
     -0.120  0.1050E+01  0.1533E+01
     -0.054  0.8125E+00  0.1587E+01
      0.013  0.4454E+00  0.1617E+01
      0.079  0.1337E+00  0.1626E+01
      0.146 -0.2522E-01  0.1624E+01
      0.212 -0.2836E-01  0.1622E+01
      0.279  0.8752E-01  0.1628E+01
      0.346  0.2597E+00  0.1645E+01
      0.412  0.3917E+00  0.1671E+01
      0.479  0.4034E+00  0.1698E+01
      0.545  0.3046E+00  0.1718E+01
      0.612  0.1798E+00  0.1730E+01
      0.678  0.1062E+00  0.1737E+01
      0.745  0.1156E+00  0.1745E+01
      0.812  0.2111E+00  0.1759E+01
      0.878  0.3649E+00  0.1783E+01
      0.945  0.5014E+00  0.1817E+01
      1.011  0.5289E+00  0.1852E+01
      1.078  0.4170E+00  0.1880E+01
      1.144  0.2309E+00  0.1895E+01
      1.211  0.7161E-01  0.1900E+01
      1.277 -0.9145E-02  0.1899E+01
      1.344 -0.2729E-01  0.1897E+01
      1.411 -0.2324E-01  0.1896E+01
      1.477 -0.2288E-01  0.1894E+01
      1.544 -0.2712E-01  0.1893E+01
      1.610 -0.1248E-01  0.1892E+01
      1.677  0.6060E-01  0.1896E+01
      1.743  0.2141E+00  0.1910E+01
      1.810  0.4070E+00  0.1937E+01
      1.876  0.5434E+00  0.1973E+01
      1.943  0.5618E+00  0.2011E+01
      2.010  0.5050E+00  0.2044E+01
      2.076  0.4632E+00  0.2075E+01
      2.143  0.4656E+00  0.2106E+01
      2.209  0.4779E+00  0.2138E+01
      2.276  0.4779E+00  0.2170E+01
      2.342  0.4663E+00  0.2201E+01
      2.409  0.4231E+00  0.2229E+01
      2.476  0.3343E+00  0.2251E+01
      2.542  0.2694E+00  0.2269E+01
      2.609  0.3666E+00  0.2293E+01
      2.675  0.6958E+00  0.2340E+01
      2.742  0.1137E+01  0.2415E+01
      2.808  0.1426E+01  0.2510E+01
      2.875  0.1362E+01  0.2601E+01
      2.941  0.9790E+00  0.2666E+01
      3.008  0.5050E+00  0.2700E+01
      3.075  0.1501E+00  0.2710E+01
      3.141 -0.2968E-01  0.2708E+01
      3.208 -0.8460E-01  0.2702E+01
      3.274 -0.5300E-01  0.2699E+01
      3.341  0.8571E-01  0.2704E+01
      3.407  0.3545E+00  0.2728E+01
      3.474  0.6963E+00  0.2774E+01
      3.541  0.9829E+00  0.2840E+01
      3.607  0.1125E+01  0.2915E+01
      3.674  0.1141E+01  0.2991E+01
      3.740  0.1093E+01  0.3063E+01
      3.807  0.1010E+01  0.3131E+01
      3.873  0.8833E+00  0.3189E+01
      3.940  0.7384E+00  0.3238E+01
      4.006  0.6580E+00  0.3282E+01
      4.073  0.6984E+00  0.3329E+01
      4.140  0.7764E+00  0.3380E+01
      4.206  0.7299E+00  0.3429E+01
      4.273  0.5220E+00  0.3464E+01
      4.339  0.3036E+00  0.3484E+01
      4.406  0.2413E+00  0.3500E+01
      4.472  0.3476E+00  0.3523E+01
      4.539  0.5062E+00  0.3557E+01
      4.605  0.6126E+00  0.3598E+01
      4.672  0.6519E+00  0.3641E+01
      4.739  0.6577E+00  0.3685E+01
      4.805  0.6488E+00  0.3728E+01
      4.872  0.6359E+00  0.3770E+01
      4.938  0.6491E+00  0.3814E+01
      5.005  0.7136E+00  0.3861E+01
      5.071  0.8076E+00  0.3915E+01
      5.138  0.8582E+00  0.3972E+01
      5.205  0.7862E+00  0.4024E+01
      5.271  0.5746E+00  0.4062E+01
      5.338  0.3033E+00  0.4083E+01
      5.404  0.1000E+00  0.4089E+01
      5.471  0.5219E-01  0.4093E+01
      5.537  0.1568E+00  0.4103E+01
      5.604  0.3255E+00  0.4125E+01
      5.670  0.4339E+00  0.4154E+01
      5.737  0.4049E+00  0.4181E+01
      5.804  0.2641E+00  0.4198E+01
      5.870  0.1051E+00  0.4205E+01
      5.937  0.6859E-02  0.4206E+01
      6.003 -0.6618E-02  0.4205E+01
      6.070  0.4857E-01  0.4209E+01
      6.136  0.1333E+00  0.4217E+01
      6.203  0.1937E+00  0.4230E+01
      6.269  0.1912E+00  0.4243E+01
      6.336  0.1372E+00  0.4252E+01
      6.403  0.7878E-01  0.4257E+01
      6.469  0.4679E-01  0.4261E+01
      6.536  0.3407E-01  0.4263E+01
      6.602  0.2262E-01  0.4264E+01
      6.669  0.1512E-01  0.4265E+01
      6.735  0.3289E-01  0.4267E+01
      6.802  0.8728E-01  0.4273E+01
      6.869  0.1560E+00  0.4284E+01
      6.935  0.1930E+00  0.4297E+01
      7.002  0.1695E+00  0.4308E+01
      7.068  0.1005E+00  0.4314E+01
      7.135  0.2832E-01  0.4316E+01
      7.201 -0.1117E-01  0.4316E+01
      7.268  0.2305E-02  0.4316E+01
      7.334  0.7527E-01  0.4321E+01
      7.401  0.1842E+00  0.4333E+01
      7.468  0.2664E+00  0.4351E+01
      7.534  0.2680E+00  0.4369E+01
      7.601  0.2161E+00  0.4383E+01
      7.667  0.2094E+00  0.4397E+01
      7.734  0.3064E+00  0.4417E+01
      7.800  0.4387E+00  0.4447E+01
      7.867  0.4719E+00  0.4478E+01
      7.933  0.3513E+00  0.4501E+01
      8.000  0.1610E+00  0.4512E+01
      8.067  0.4660E-01  0.4515E+01
      8.133  0.1112E+00  0.4523E+01
      8.200  0.3583E+00  0.4546E+01
      8.266  0.6718E+00  0.4591E+01
      8.333  0.8601E+00  0.4648E+01
      8.399  0.7964E+00  0.4701E+01
      8.466  0.5440E+00  0.4738E+01
      8.533  0.3101E+00  0.4758E+01
      8.599  0.2606E+00  0.4776E+01
      8.666  0.4050E+00  0.4803E+01
      8.732  0.6605E+00  0.4846E+01
      8.799  0.9635E+00  0.4911E+01
      8.865  0.1253E+01  0.4994E+01
      8.932  0.1394E+01  0.5087E+01
      8.998  0.1255E+01  0.5170E+01
      9.065  0.8768E+00  0.5229E+01
      9.132  0.4712E+00  0.5260E+01
      9.198  0.2258E+00  0.5275E+01
      9.265  0.1658E+00  0.5286E+01
      9.331  0.2125E+00  0.5300E+01
      9.398  0.2923E+00  0.5320E+01
      9.464  0.3527E+00  0.5343E+01
      9.531  0.3449E+00  0.5366E+01
      9.597  0.2552E+00  0.5383E+01
      9.664  0.1299E+00  0.5392E+01
      9.731  0.3341E-01  0.5394E+01
      9.797 -0.7030E-02  0.5394E+01
      9.864 -0.4635E-02  0.5393E+01
      9.930  0.1447E-01  0.5394E+01
      9.997  0.2973E-01  0.5396E+01
     10.063  0.3132E-01  0.5398E+01
     10.130  0.2123E-01  0.5400E+01
     10.197  0.8591E-02  0.5400E+01
     10.263  0.6309E-03  0.5400E+01
     10.330 -0.1789E-02  0.5400E+01
     10.396 -0.1434E-02  0.5400E+01
     10.463 -0.6489E-03  0.5400E+01
     10.529 -0.2054E-03  0.5400E+01
     10.596 -0.4839E-04  0.5400E+01
     10.662 -0.8722E-05  0.5400E+01
     10.729 -0.1220E-05  0.5400E+01
     10.796 -0.1337E-06  0.5400E+01
     10.862 -0.1153E-07  0.5400E+01
     10.929 -0.7863E-09  0.5400E+01
     10.995 -0.4250E-10  0.5400E+01
     11.062 -0.1825E-11  0.5400E+01
     11.128 -0.6231E-13  0.5400E+01
     11.195 -0.1710E-14  0.5400E+01
     11.261 -0.4170E-16  0.5400E+01
     11.328  0.0000E+00  0.5400E+01
     11.395  0.0000E+00  0.5400E+01
     11.461  0.0000E+00  0.5400E+01
     11.528  0.0000E+00  0.5400E+01
     11.594  0.0000E+00  0.5400E+01
     11.661  0.0000E+00  0.5400E+01
     11.727  0.0000E+00  0.5400E+01
     11.794  0.0000E+00  0.5400E+01
     11.861  0.0000E+00  0.5400E+01
     11.927  0.0000E+00  0.5400E+01
     11.994  0.0000E+00  0.5400E+01
