       N       E                     dE             d eps       ncg     rms          rms(c)
DAV:   1     0.573858856257E+03    0.57386E+03   -0.85001E+04  2592   0.107E+03
DAV:   2    -0.309322397485E+03   -0.88318E+03   -0.83789E+03  3096   0.175E+02
DAV:   3    -0.372664122829E+03   -0.63342E+02   -0.62144E+02  3168   0.414E+01
DAV:   4    -0.374225328662E+03   -0.15612E+01   -0.15498E+01  3120   0.790E+00
DAV:   5    -0.374272632612E+03   -0.47304E-01   -0.47219E-01  3100   0.129E+00    0.307E+01
RMM:   6    -0.368235628441E+03    0.60370E+01   -0.31673E+00  2592   0.280E+00    0.185E+01
RMM:   7    -0.365598908998E+03    0.26367E+01   -0.80123E+00  2654   0.444E+00    0.117E+00
RMM:   8    -0.365632795854E+03   -0.33887E-01   -0.72836E-01  2610   0.168E+00    0.538E-01
RMM:   9    -0.365656483251E+03   -0.23687E-01   -0.22720E-01  2677   0.825E-01    0.611E-01
RMM:  10    -0.365660663818E+03   -0.41806E-02   -0.38616E-02  2727   0.387E-01    0.799E-01
RMM:  11    -0.365656152526E+03    0.45113E-02   -0.13556E-02  2592   0.234E-01    0.693E-01
RMM:  12    -0.365656290143E+03   -0.13762E-03   -0.19202E-03  2604   0.103E-01    0.699E-01
RMM:  13    -0.365656351508E+03   -0.61364E-04   -0.37678E-04  2756   0.422E-02    0.760E-01
RMM:  14    -0.365656305952E+03    0.45555E-04   -0.10704E-04  2601   0.255E-02    0.389E-01
RMM:  15    -0.365656436076E+03   -0.13012E-03   -0.53908E-05  2623   0.149E-02    0.359E-01
RMM:  16    -0.365656529278E+03   -0.93202E-04   -0.39178E-05  2592   0.144E-02    0.276E-01
RMM:  17    -0.365656553695E+03   -0.24417E-04   -0.13547E-05  2592   0.957E-03    0.105E-01
RMM:  18    -0.365656560425E+03   -0.67299E-05   -0.52296E-06  2193   0.578E-03    0.187E-02
RMM:  19    -0.365656561844E+03   -0.14187E-05   -0.13248E-06  1576   0.279E-03    0.128E-02
RMM:  20    -0.365656562426E+03   -0.58221E-06   -0.29761E-07  1556   0.114E-03
   1 F= -.36565656E+03 E0= -.36566762E+03  d E =-.365657E+03
       N       E                     dE             d eps       ncg     rms          rms(c)
DAV:   1    -0.365659096170E+03   -0.25343E-02   -0.17992E-01  2968   0.817E-01    0.196E-01
RMM:   2    -0.365659971278E+03   -0.87511E-03   -0.90613E-03  2594   0.202E-01    0.788E-02
RMM:   3    -0.365660081498E+03   -0.11022E-03   -0.13931E-03  2640   0.893E-02    0.328E-02
RMM:   4    -0.365660077260E+03    0.42380E-05   -0.18694E-04  2631   0.369E-02    0.118E-02
RMM:   5    -0.365660078953E+03   -0.16929E-05   -0.35188E-05  2674   0.147E-02    0.279E-03
RMM:   6    -0.365660079730E+03   -0.77712E-06   -0.76072E-06  2154   0.635E-03    0.669E-04
RMM:   7    -0.365660079834E+03   -0.10380E-06   -0.11387E-06  1599   0.241E-03    0.422E-04
RMM:   8    -0.365660079852E+03   -0.17999E-07   -0.24270E-07  1332   0.110E-03
   2 F= -.36566008E+03 E0= -.36567061E+03  d E =-.351743E-02
       N       E                     dE             d eps       ncg     rms          rms(c)
DAV:   1    -0.365661013493E+03   -0.93366E-03   -0.18710E-02  2950   0.263E-01    0.630E-02
RMM:   2    -0.365661102294E+03   -0.88801E-04   -0.91586E-04  2592   0.649E-02    0.255E-02
RMM:   3    -0.365661113458E+03   -0.11164E-04   -0.13954E-04  2639   0.286E-02    0.104E-02
RMM:   4    -0.365661113126E+03    0.33195E-06   -0.18484E-05  2619   0.118E-02    0.379E-03
RMM:   5    -0.365661113288E+03   -0.16232E-06   -0.35312E-06  1860   0.470E-03    0.858E-04
RMM:   6    -0.365661113348E+03   -0.60068E-07   -0.70002E-07  1530   0.201E-03    0.189E-04
RMM:   7    -0.365661113365E+03   -0.16625E-07   -0.16404E-07  1136   0.947E-04    0.197E-04
RMM:   8    -0.365661113371E+03   -0.65857E-08   -0.35139E-08   731   0.579E-04
   3 F= -.36566111E+03 E0= -.36567188E+03  d E =-.455095E-02
