<?xml version="1.0" encoding="ISO-8859-1"?>
<modeling>
 <generator>
  <i name="program" type="string">vasp </i>
  <i name="version" type="string">6.4.3  </i>
  <i name="subversion" type="string">19Mar24 (build Oct 21 2024 22:36:34) complex                          parallel </i>
  <i name="platform" type="string">LinuxIFC </i>
  <i name="date" type="string">2024 11 01 </i>
  <i name="time" type="string">22:55:29 </i>
 </generator>
 <incar>
  <i type="string" name="SYSTEM">Si64</i>
  <i type="int" name="ISTART">     0</i>
  <i type="string" name="PREC">Accurate</i>
  <i type="string" name="ALGO">Fast</i>
  <i type="logical" name="ADDGRID"> T  </i>
  <i type="int" name="ICHARG">     2</i>
  <i type="int" name="NELM">    60</i>
  <i type="int" name="NELMIN">     8</i>
  <i type="int" name="IBRION">     2</i>
  <i name="EDIFF">      0.00000100</i>
  <i name="EDIFFG">     -0.01000000</i>
  <i type="int" name="NSW">    60</i>
  <i type="int" name="ISIF">     2</i>
  <i name="ENCUT">    400.00000000</i>
  <i type="string" name="LREAL">Auto</i>
  <i type="int" name="ISMEAR">     1</i>
  <i name="SIGMA">      0.20000000</i>
  <i type="logical" name="LWAVE"> F  </i>
  <i type="logical" name="LCHARG"> F  </i>
  <i type="logical" name="GGA_COMPAT"> F  </i>
  <i type="string" name="GGA">PS</i>
 </incar>
 <primitive_cell>
  <structure name="primitive_cell" >
   <crystal>
    <varray name="basis" >
     <v>      -2.64642014       0.00664925      -2.65971889 </v>
     <v>      -2.64642014       0.00664925       2.65971889 </v>
     <v>       2.63977089       2.65306964       0.00000000 </v>
    </varray>
    <i name="volume">     37.44187054 </i>
    <varray name="rec_basis" >
     <v>      -0.18846333       0.18751864      -0.18798979 </v>
     <v>      -0.18846333       0.18751864       0.18798979 </v>
     <v>       0.00094467       0.37598194      -0.00000000 </v>
    </varray>
   </crystal>
   <varray name="positions" >
    <v>       0.00000000       0.00000000       0.00000000 </v>
    <v>       0.75000000       0.25000000       0.50000000 </v>
   </varray>
  </structure>
  <varray name="primitive_index" >
   <v type="int" >        1 </v>
   <v type="int" >       15 </v>
  </varray>
 </primitive_cell>
 <kpoints>
  <generation param="Gamma">
   <v type="int" name="divisions">       2        2        2 </v>
   <v name="usershift">      0.00000000       0.00000000       0.00000000 </v>
   <v name="genvec1">      0.50000000      -0.00000000       0.00000000 </v>
   <v name="genvec2">     -0.00000000       0.50000000       0.00000000 </v>
   <v name="genvec3">      0.00000000       0.00000000       0.50000000 </v>
   <v name="shift">      0.00000000       0.00000000       0.00000000 </v>
  </generation>
  <varray name="kpointlist" >
   <v>       0.00000000       0.00000000       0.00000000 </v>
   <v>       0.50000000       0.00000000       0.00000000 </v>
   <v>       0.00000000       0.50000000       0.00000000 </v>
   <v>       0.50000000       0.50000000       0.00000000 </v>
   <v>       0.00000000       0.00000000       0.50000000 </v>
   <v>       0.50000000       0.00000000       0.50000000 </v>
   <v>       0.00000000       0.50000000       0.50000000 </v>
   <v>       0.50000000       0.50000000       0.50000000 </v>
  </varray>
  <varray name="weights" >
   <v>       0.12500000 </v>
   <v>       0.12500000 </v>
   <v>       0.12500000 </v>
   <v>       0.12500000 </v>
   <v>       0.12500000 </v>
   <v>       0.12500000 </v>
   <v>       0.12500000 </v>
   <v>       0.12500000 </v>
  </varray>
 </kpoints>
 <parameters>
  <separator name="general" >
   <i type="string" name="SYSTEM">Si64</i>
   <i type="logical" name="LCOMPAT"> F  </i>
  </separator>
  <separator name="electronic" >
   <i type="string" name="PREC">accura</i>
   <i name="ENMAX">    400.00000000</i>
   <i name="ENAUG">    322.06900000</i>
   <i name="EDIFF">      0.00000100</i>
   <i type="int" name="IALGO">    68</i>
   <i type="int" name="IWAVPR">    11</i>
   <i type="int" name="NBANDS">   162</i>
   <i type="int" name="NBANDSLOW">    -1</i>
   <i type="int" name="NBANDSHIGH">    -1</i>
   <i name="NELECT">    256.00000000</i>
   <i type="int" name="TURBO">     0</i>
   <i type="int" name="IRESTART">     0</i>
   <i type="int" name="NREBOOT">     0</i>
   <i type="int" name="NMIN">     0</i>
   <i name="EREF">      0.00000000</i>
   <separator name="electronic smearing" >
    <i type="int" name="ISMEAR">     1</i>
    <i name="SIGMA">      0.20000000</i>
    <i name="KSPACING">      0.50000000</i>
    <i type="logical" name="KGAMMA"> T  </i>
    <i type="logical" name="KBLOWUP"> T  </i>
   </separator>
   <separator name="electronic projectors" >
    <i type="logical" name="LREAL"> T  </i>
    <v name="ROPT">     -0.00025000</v>
    <i type="int" name="LMAXPAW">  -100</i>
    <i type="int" name="LMAXMIX">     2</i>
    <i type="logical" name="NLSPLINE"> F  </i>
   </separator>
   <separator name="electronic startup" >
    <i type="int" name="ISTART">     0</i>
    <i type="int" name="ICHARG">     2</i>
    <i type="int" name="INIWAV">     1</i>
   </separator>
   <separator name="electronic spin" >
    <i type="int" name="ISPIN">     1</i>
    <i type="logical" name="LNONCOLLINEAR"> F  </i>
    <v name="MAGMOM">      1.00000000      1.00000000      1.00000000      1.00000000      1.00000000      1.00000000      1.00000000      1.00000000      1.00000000      1.00000000      1.00000000      1.00000000      1.00000000      1.00000000      1.00000000      1.00000000      1.00000000      1.00000000      1.00000000      1.00000000
      1.00000000      1.00000000      1.00000000      1.00000000      1.00000000      1.00000000      1.00000000      1.00000000      1.00000000      1.00000000      1.00000000      1.00000000      1.00000000      1.00000000      1.00000000      1.00000000      1.00000000      1.00000000      1.00000000      1.00000000
      1.00000000      1.00000000      1.00000000      1.00000000      1.00000000      1.00000000      1.00000000      1.00000000      1.00000000      1.00000000      1.00000000      1.00000000      1.00000000      1.00000000      1.00000000      1.00000000      1.00000000      1.00000000      1.00000000      1.00000000
      1.00000000      1.00000000      1.00000000      1.00000000</v>
    <i name="NUPDOWN">     -1.00000000</i>
    <i type="logical" name="LSORBIT"> F  </i>
    <v name="SAXIS">      0.00000000      0.00000000      1.00000000</v>
    <i type="logical" name="LSPIRAL"> F  </i>
    <v name="QSPIRAL">      0.00000000      0.00000000      0.00000000</v>
    <i type="logical" name="LZEROZ"> F  </i>
   </separator>
   <separator name="electronic exchange-correlation" >
    <i type="logical" name="LASPH"> F  </i>
   </separator>
   <separator name="electronic convergence" >
    <i type="int" name="NELM">    60</i>
    <i type="int" name="NELMDL">    -5</i>
    <i type="int" name="NELMIN">     8</i>
    <i name="ENINI">    400.00000000</i>
    <separator name="electronic convergence detail" >
     <i type="logical" name="LDIAG"> T  </i>
     <i type="logical" name="LSUBROT"> F  </i>
     <i name="WEIMIN">      0.00100000</i>
     <i name="EBREAK">      0.00000000</i>
     <i name="DEPER">      0.30000000</i>
     <i type="int" name="NRMM">     4</i>
     <i name="TIME">      0.40000000</i>
    </separator>
   </separator>
   <separator name="electronic mixer" >
    <i name="AMIX">      0.40000000</i>
    <i name="BMIX">      1.00000000</i>
    <i name="AMIN">      0.10000000</i>
    <i name="AMIX_MAG">      1.60000000</i>
    <i name="BMIX_MAG">      1.00000000</i>
    <separator name="electronic mixer details" >
     <i type="int" name="IMIX">     4</i>
     <i type="logical" name="MIXFIRST"> F  </i>
     <i type="int" name="MAXMIX">   -45</i>
     <i name="WC">    100.00000000</i>
     <i type="int" name="INIMIX">     1</i>
     <i type="int" name="MIXPRE">     1</i>
     <i type="int" name="MREMOVE">     5</i>
    </separator>
   </separator>
   <separator name="electronic dipolcorrection" >
    <i type="logical" name="LDIPOL"> F  </i>
    <i type="logical" name="LMONO"> F  </i>
    <i type="int" name="IDIPOL">     0</i>
    <i name="EPSILON">      1.00000000</i>
    <v name="DIPOL">   -100.00000000   -100.00000000   -100.00000000</v>
    <i name="EFIELD">      0.00000000</i>
    <i type="logical" name="LVACPOTAV"> F  </i>
   </separator>
  </separator>
  <separator name="grids" >
   <i type="int" name="NGX">    70</i>
   <i type="int" name="NGY">    70</i>
   <i type="int" name="NGZ">    70</i>
   <i type="int" name="NGXF">   140</i>
   <i type="int" name="NGYF">   140</i>
   <i type="int" name="NGZF">   140</i>
   <i type="logical" name="ADDGRID"> T  </i>
  </separator>
  <separator name="ionic" >
   <i type="int" name="NSW">    60</i>
   <i type="int" name="IBRION">     2</i>
   <i type="int" name="MDALGO">     0</i>
   <i type="int" name="ISIF">     2</i>
   <i name="PSTRESS">      0.00000000</i>
   <i name="EDIFFG">     -0.01000000</i>
   <i type="int" name="NFREE">     1</i>
   <i name="POTIM">      0.50000000</i>
   <i name="SMASS">     -3.00000000</i>
   <i name="SCALEE">      1.00000000</i>
  </separator>
  <separator name="ionic md" >
   <i name="TEBEG">      0.00010000</i>
   <i name="TEEND">      0.00010000</i>
   <i type="int" name="NBLOCK">     1</i>
   <i type="int" name="KBLOCK">    60</i>
   <i type="int" name="NPACO">   256</i>
   <i name="APACO">     10.00000000</i>
  </separator>
  <separator name="symmetry" >
   <i type="int" name="ISYM">     2</i>
   <i name="SYMPREC">      0.00001000</i>
  </separator>
  <separator name="dos" >
   <i type="int" name="LORBIT">     0</i>
   <v name="RWIGS">     -1.00000000</v>
   <i type="int" name="NEDOS">   301</i>
   <i name="EMIN">     10.00000000</i>
   <i name="EMAX">    -10.00000000</i>
   <i name="EFERMI">      0.00000000</i>
  </separator>
  <separator name="writing" >
   <i type="int" name="NWRITE">     2</i>
   <i type="logical" name="LWAVE"> F  </i>
   <i type="logical" name="LDOWNSAMPLE"> F  </i>
   <i type="logical" name="LCHARG"> F  </i>
   <i type="logical" name="LPARD"> F  </i>
   <i type="logical" name="LVTOT"> F  </i>
   <i type="logical" name="LVHAR"> F  </i>
   <i type="logical" name="LELF"> F  </i>
   <i type="logical" name="LOPTICS"> F  </i>
   <v name="STM">      0.00000000      0.00000000      0.00000000      0.00000000      0.00000000      0.00000000      0.00000000</v>
  </separator>
  <separator name="performance" >
   <i type="int" name="NPAR">     2</i>
   <i type="int" name="NSIM">     4</i>
   <i type="int" name="NBLK">    -1</i>
   <i type="logical" name="LPLANE"> T  </i>
   <i type="logical" name="LSCALAPACK"> T  </i>
   <i type="logical" name="LSCAAWARE"> F  </i>
   <i type="logical" name="LSCALU"> F  </i>
   <i type="logical" name="LASYNC"> F  </i>
   <i type="logical" name="LORBITALREAL"> F  </i>
  </separator>
  <separator name="miscellaneous" >
   <i type="int" name="IDIOT">     3</i>
   <i type="int" name="PHON_NSTRUCT">    -1</i>
   <i type="logical" name="LMUSIC"> F  </i>
   <v name="POMASS">     28.08500000</v>
   <v name="DARWINR">      0.00000000</v>
   <v name="DARWINV">      1.00000000</v>
   <i type="logical" name="LCORR"> T  </i>
  </separator>
  <i type="logical" name="GGA_COMPAT"> F  </i>
  <i type="logical" name="LBERRY"> F  </i>
  <i type="int" name="ICORELEVEL">     0</i>
  <i type="logical" name="LDAU"> F  </i>
  <i type="int" name="I_CONSTRAINED_M">     0</i>
  <separator name="electronic exchange-correlation" >
   <i type="string" name="GGA    ">PS</i>
   <i type="string" name="XC_C">1</i>
   <i type="int" name="VOSKOWN">     0</i>
   <i type="logical" name="LHFCALC"> F  </i>
   <i type="string" name="PRECFOCK"></i>
   <i type="logical" name="LSYMGRAD"> F  </i>
   <i type="logical" name="LHFONE"> F  </i>
   <i type="logical" name="LRHFCALC"> F  </i>
   <i type="logical" name="LTHOMAS"> F  </i>
   <i type="logical" name="LMODELHF"> F  </i>
   <i type="logical" name="LFOCKACE"> F  </i>
   <i name="ENCUT4O">     -1.00000000</i>
   <i type="int" name="EXXOEP">     0</i>
   <i type="int" name="FOURORBIT">     0</i>
   <i name="AEXX">      0.00000000</i>
   <i name="HFALPHA">      0.00000000</i>
   <i name="MCALPHA">      0.00000000</i>
   <i name="ALDAX">      1.00000000</i>
   <i name="AGGAX">      1.00000000</i>
   <i name="AMGGAX">      1.00000000</i>
   <i name="ALDAC">      1.00000000</i>
   <i name="AGGAC">      1.00000000</i>
   <i name="AMGGAC">      1.00000000</i>
   <i type="int" name="NKREDX">     1</i>
   <i type="int" name="NKREDY">     1</i>
   <i type="int" name="NKREDZ">     1</i>
   <i type="logical" name="SHIFTRED"> F  </i>
   <i type="logical" name="ODDONLY"> F  </i>
   <i type="logical" name="EVENONLY"> F  </i>
   <i type="int" name="LMAXFOCK">     0</i>
   <i type="int" name="NMAXFOCKAE">     0</i>
   <i type="logical" name="LFOCKAEDFT"> F  </i>
   <i name="HFSCREEN">      0.00000000</i>
   <i name="HFSCREENC">      0.00000000</i>
   <i type="int" name="NBANDSGWLOW">     0</i>
  </separator>
  <separator name="vdW DFT" >
   <i type="logical" name="LUSE_VDW"> F  </i>
   <i type="int" name="IVDW_NL">    -1</i>
   <i type="logical" name="LSPIN_VDW"> F  </i>
   <i name="ZAB_VDW">     -0.84910000</i>
   <i name="GAMMA_VDW">      1.39626340</i>
   <i name="ALPHA_VDW">      0.00000000</i>
   <i name="PARAM1">      0.12340000</i>
   <i name="PARAM2">      1.00000000</i>
   <i name="BPARAM">      6.30000000</i>
   <i name="CPARAM">      0.00930000</i>
  </separator>
  <separator name="model GW" >
   <i type="int" name="MODEL_GW">     0</i>
   <i name="MODEL_EPS0">     11.23256116</i>
   <i name="MODEL_ALPHA">      1.00000000</i>
  </separator>
  <separator name="linear response parameters" >
   <i type="logical" name="LEPSILON"> F  </i>
   <i type="logical" name="LRPA"> F  </i>
   <i type="logical" name="LNABLA"> F  </i>
   <i type="logical" name="LVEL"> F  </i>
   <i name="CSHIFT">      0.10000000</i>
   <i name="OMEGAMAX">     -1.00000000</i>
   <i name="DEG_THRESHOLD">      0.00200000</i>
   <i name="RTIME">     -0.10000000</i>
   <i name="WPLASMAI">      0.00000000</i>
   <v name="DFIELD">      0.00000000      0.00000000      0.00000000</v>
   <v name="WPLASMA">      0.00000000      0.00000000      0.00000000      0.00000000      0.00000000      0.00000000      0.00000000      0.00000000      0.00000000</v>
  </separator>
  <separator name="orbital magnetization" >
   <i type="logical" name="NUCIND"> F  </i>
   <v name="MAGPOS">      0.00000000      0.00000000      0.00000000</v>
   <i type="logical" name="LNICSALL"> T  </i>
   <i type="logical" name="ORBITALMAG"> F  </i>
   <i type="logical" name="LMAGBLOCH"> F  </i>
   <i type="logical" name="LCHIMAG"> F  </i>
   <i type="logical" name="LGAUGE"> T  </i>
   <i type="int" name="MAGATOM">     0</i>
   <v name="MAGDIPOL">      0.00000000      0.00000000      0.00000000</v>
   <v name="AVECCONST">      0.00000000      0.00000000      0.00000000</v>
  </separator>
  <separator name="response functions" >
   <i type="logical" name="LALL_IN_ONE"> F  </i>
   <i type="int" name="IALL_IN_ONE">    -1</i>
   <i type="int" name="NBANDS_WAVE">    -1</i>
   <i type="logical" name="LFINITE_TEMPERATURE"> F  </i>
   <i type="logical" name="LADDER"> F  </i>
   <i type="logical" name="LRPAFORCE"> F  </i>
   <i type="logical" name="LFXC"> F  </i>
   <i type="logical" name="LHARTREE"> T  </i>
   <i type="int" name="IBSE">     0</i>
   <v type="int" name="KPOINT">    -1     0     0     0</v>
   <i type="logical" name="LTCTC"> F  </i>
   <i type="logical" name="LTCTE"> F  </i>
   <i type="logical" name="LTETE"> F  </i>
   <i type="logical" name="LTRIPLET"> F  </i>
   <i type="logical" name="LFXCEPS"> F  </i>
   <i type="logical" name="LFXHEG"> F  </i>
   <i type="int" name="NATURALO">     2</i>
   <i type="logical" name="LHOLEGF"> F  </i>
   <i type="logical" name="L2ORDER"> F  </i>
   <i type="logical" name="LDMP1"> F  </i>
   <i type="logical" name="LMP2LT"> F  </i>
   <i type="logical" name="LSMP2LT"> F  </i>
   <i type="logical" name="LGWLF"> F  </i>
   <i name="ENCUTGW">     -1.60000002</i>
   <i name="ENCUTGWSOFT">     -1.60000002</i>
   <i name="ENCUTLF">     -1.00000000</i>
   <i type="logical" name="ESF_SPLINES"> F  </i>
   <i name="ESF_CONV">      0.01000000</i>
   <i type="int" name="ESF_NINTER">    15</i>
   <i type="int" name="LMAXMP2">    -1</i>
   <i name="SCISSOR">      0.00000000</i>
   <i type="int" name="NOMEGA">     0</i>
   <i type="int" name="NOMEGAR">     0</i>
   <i type="int" name="NBANDSGW">    -1</i>
   <i type="int" name="NBANDSO">    -1</i>
   <i type="int" name="NBANDSV">    -1</i>
   <i type="int" name="NELMGW">     1</i>
   <i type="int" name="NELMHF">     1</i>
   <i type="int" name="DIM">     3</i>
   <i type="int" name="IESPILON">     4</i>
   <i type="int" name="ANTIRES">     0</i>
   <i name="OMEGAMAX">    -30.00000000</i>
   <i name="OMEGAMIN">    -30.00000000</i>
   <i name="OMEGATL">   -200.00000000</i>
   <i type="int" name="OMEGAGRID">     0</i>
   <i name="CSHIFT">     -0.10000000</i>
   <i type="logical" name="LSELFENERGY"> F  </i>
   <i type="logical" name="LSPECTRAL"> F  </i>
   <i type="logical" name="LSPECTRALGW"> F  </i>
   <i type="logical" name="LSINGLES"> F  </i>
   <i type="logical" name="LFERMIGW"> F  </i>
   <i type="logical" name="ODDONLYGW"> F  </i>
   <i type="logical" name="EVENONLYGW"> F  </i>
   <i type="int" name="NKREDLFX">     1</i>
   <i type="int" name="NKREDLFY">     1</i>
   <i type="int" name="NKREDLFZ">     1</i>
   <i type="int" name="MAXMEM">  2800</i>
   <i type="int" name="TELESCOPE">     0</i>
   <i type="int" name="NTAUPAR">    -1</i>
   <i type="int" name="NOMEGAPAR">    -1</i>
   <i name="DAMP_NEWTON">      0.80000001</i>
   <i name="LAMBDA">      1.00000000</i>
  </separator>
  <separator name="External order field" >
   <i name="OFIELD_KAPPA">      0.00000000</i>
   <v name="OFIELD_K">      0.00000000      0.00000000      0.00000000</v>
   <i name="OFIELD_Q6_NEAR">      0.00000000</i>
   <i name="OFIELD_Q6_FAR">      0.00000000</i>
   <i name="OFIELD_A">      0.00000000</i>
  </separator>
  <separator name="optional k-points parameters" >
   <i type="int" name="KPOINTS_OPT_MODE">     1</i>
   <i type="logical" name="LKPOINTS_OPT"> F  </i>
  </separator>
 </parameters>
 <atominfo>
  <atoms>      64 </atoms>
  <types>       1 </types>
  <array name="atoms" >
   <dimension dim="1">ion</dimension>
   <field type="string">element</field>
   <field type="int">atomtype</field>
   <set>
    <rc><c>Si</c><c>   1</c></rc>
    <rc><c>Si</c><c>   1</c></rc>
    <rc><c>Si</c><c>   1</c></rc>
    <rc><c>Si</c><c>   1</c></rc>
    <rc><c>Si</c><c>   1</c></rc>
    <rc><c>Si</c><c>   1</c></rc>
    <rc><c>Si</c><c>   1</c></rc>
    <rc><c>Si</c><c>   1</c></rc>
    <rc><c>Si</c><c>   1</c></rc>
    <rc><c>Si</c><c>   1</c></rc>
    <rc><c>Si</c><c>   1</c></rc>
    <rc><c>Si</c><c>   1</c></rc>
    <rc><c>Si</c><c>   1</c></rc>
    <rc><c>Si</c><c>   1</c></rc>
    <rc><c>Si</c><c>   1</c></rc>
    <rc><c>Si</c><c>   1</c></rc>
    <rc><c>Si</c><c>   1</c></rc>
    <rc><c>Si</c><c>   1</c></rc>
    <rc><c>Si</c><c>   1</c></rc>
    <rc><c>Si</c><c>   1</c></rc>
    <rc><c>Si</c><c>   1</c></rc>
    <rc><c>Si</c><c>   1</c></rc>
    <rc><c>Si</c><c>   1</c></rc>
    <rc><c>Si</c><c>   1</c></rc>
    <rc><c>Si</c><c>   1</c></rc>
    <rc><c>Si</c><c>   1</c></rc>
    <rc><c>Si</c><c>   1</c></rc>
    <rc><c>Si</c><c>   1</c></rc>
    <rc><c>Si</c><c>   1</c></rc>
    <rc><c>Si</c><c>   1</c></rc>
    <rc><c>Si</c><c>   1</c></rc>
    <rc><c>Si</c><c>   1</c></rc>
    <rc><c>Si</c><c>   1</c></rc>
    <rc><c>Si</c><c>   1</c></rc>
    <rc><c>Si</c><c>   1</c></rc>
    <rc><c>Si</c><c>   1</c></rc>
    <rc><c>Si</c><c>   1</c></rc>
    <rc><c>Si</c><c>   1</c></rc>
    <rc><c>Si</c><c>   1</c></rc>
    <rc><c>Si</c><c>   1</c></rc>
    <rc><c>Si</c><c>   1</c></rc>
    <rc><c>Si</c><c>   1</c></rc>
    <rc><c>Si</c><c>   1</c></rc>
    <rc><c>Si</c><c>   1</c></rc>
    <rc><c>Si</c><c>   1</c></rc>
    <rc><c>Si</c><c>   1</c></rc>
    <rc><c>Si</c><c>   1</c></rc>
    <rc><c>Si</c><c>   1</c></rc>
    <rc><c>Si</c><c>   1</c></rc>
    <rc><c>Si</c><c>   1</c></rc>
    <rc><c>Si</c><c>   1</c></rc>
    <rc><c>Si</c><c>   1</c></rc>
    <rc><c>Si</c><c>   1</c></rc>
    <rc><c>Si</c><c>   1</c></rc>
    <rc><c>Si</c><c>   1</c></rc>
    <rc><c>Si</c><c>   1</c></rc>
    <rc><c>Si</c><c>   1</c></rc>
    <rc><c>Si</c><c>   1</c></rc>
    <rc><c>Si</c><c>   1</c></rc>
    <rc><c>Si</c><c>   1</c></rc>
    <rc><c>Si</c><c>   1</c></rc>
    <rc><c>Si</c><c>   1</c></rc>
    <rc><c>Si</c><c>   1</c></rc>
    <rc><c>Si</c><c>   1</c></rc>
   </set>
  </array>
  <array name="atomtypes" >
   <dimension dim="1">type</dimension>
   <field type="int">atomspertype</field>
   <field type="string">element</field>
   <field>mass</field>
   <field>valence</field>
   <field type="string">pseudopotential</field>
   <set>
    <rc><c>  64</c><c>Si</c><c>     28.08500000</c><c>      4.00000000</c><c>  PAW_PBE Si 05Jan2001                  </c></rc>
   </set>
  </array>
 </atominfo>
 <structure name="initialpos" >
  <crystal>
   <varray name="basis" >
    <v>      10.58568056      -0.02659700       0.00000000 </v>
    <v>      -0.02659700      10.63887557       0.00000000 </v>
    <v>       0.00000000       0.00000000      10.63887557 </v>
   </varray>
   <i name="volume">   1198.13985720 </i>
   <varray name="rec_basis" >
    <v>       0.09446783       0.00023617       0.00000000 </v>
    <v>       0.00023617       0.09399549       0.00000000 </v>
    <v>       0.00000000       0.00000000       0.09399490 </v>
   </varray>
  </crystal>
  <varray name="positions" >
   <v>       0.00000000       0.00000000       0.00000000 </v>
   <v>       0.00000000       0.00000000       0.50000000 </v>
   <v>       0.00000000       0.50000000       0.00000000 </v>
   <v>       0.00000000       0.50000000       0.50000000 </v>
   <v>       0.50000000       0.00000000       0.00000000 </v>
   <v>       0.50000000       0.00000000       0.50000000 </v>
   <v>       0.50000000       0.50000000       0.00000000 </v>
   <v>       0.50000000       0.50000000       0.50000000 </v>
   <v>       0.37500000       0.37500000       0.12500000 </v>
   <v>       0.37500000       0.37500000       0.62500000 </v>
   <v>       0.37500000       0.87500000       0.12500000 </v>
   <v>       0.37500000       0.87500000       0.62500000 </v>
   <v>       0.87500000       0.37500000       0.12500000 </v>
   <v>       0.87500000       0.37500000       0.62500000 </v>
   <v>       0.87500000       0.87500000       0.12500000 </v>
   <v>       0.87500000       0.87500000       0.62500000 </v>
   <v>       0.00000000       0.25000000       0.25000000 </v>
   <v>       0.00000000       0.25000000       0.75000000 </v>
   <v>       0.00000000       0.75000000       0.25000000 </v>
   <v>       0.00000000       0.75000000       0.75000000 </v>
   <v>       0.50000000       0.25000000       0.25000000 </v>
   <v>       0.50000000       0.25000000       0.75000000 </v>
   <v>       0.50000000       0.75000000       0.25000000 </v>
   <v>       0.50000000       0.75000000       0.75000000 </v>
   <v>       0.37500000       0.12500000       0.37500000 </v>
   <v>       0.37500000       0.12500000       0.87500000 </v>
   <v>       0.37500000       0.62500000       0.37500000 </v>
   <v>       0.37500000       0.62500000       0.87500000 </v>
   <v>       0.87500000       0.12500000       0.37500000 </v>
   <v>       0.87500000       0.12500000       0.87500000 </v>
   <v>       0.87500000       0.62500000       0.37500000 </v>
   <v>       0.87500000       0.62500000       0.87500000 </v>
   <v>       0.25000000       0.00000000       0.25000000 </v>
   <v>       0.25000000       0.00000000       0.75000000 </v>
   <v>       0.25000000       0.50000000       0.25000000 </v>
   <v>       0.25000000       0.50000000       0.75000000 </v>
   <v>       0.75000000       0.00000000       0.25000000 </v>
   <v>       0.75000000       0.00000000       0.75000000 </v>
   <v>       0.75000000       0.50000000       0.25000000 </v>
   <v>       0.75000000       0.50000000       0.75000000 </v>
   <v>       0.12500000       0.37500000       0.37500000 </v>
   <v>       0.12500000       0.37500000       0.87500000 </v>
   <v>       0.12500000       0.87500000       0.37500000 </v>
   <v>       0.12500000       0.87500000       0.87500000 </v>
   <v>       0.62500000       0.37500000       0.37500000 </v>
   <v>       0.62500000       0.37500000       0.87500000 </v>
   <v>       0.62500000       0.87500000       0.37500000 </v>
   <v>       0.62500000       0.87500000       0.87500000 </v>
   <v>       0.25000000       0.25000000       0.00000000 </v>
   <v>       0.25000000       0.25000000       0.50000000 </v>
   <v>       0.25000000       0.75000000       0.00000000 </v>
   <v>       0.25000000       0.75000000       0.50000000 </v>
   <v>       0.75000000       0.25000000       0.00000000 </v>
   <v>       0.75000000       0.25000000       0.50000000 </v>
   <v>       0.75000000       0.75000000       0.00000000 </v>
   <v>       0.75000000       0.75000000       0.50000000 </v>
   <v>       0.12500000       0.12500000       0.12500000 </v>
   <v>       0.12500000       0.12500000       0.62500000 </v>
   <v>       0.12500000       0.62500000       0.12500000 </v>
   <v>       0.12500000       0.62500000       0.62500000 </v>
   <v>       0.62500000       0.12500000       0.12500000 </v>
   <v>       0.62500000       0.12500000       0.62500000 </v>
   <v>       0.62500000       0.62500000       0.12500000 </v>
   <v>       0.62500000       0.62500000       0.62500000 </v>
  </varray>
 </structure>
 <calculation>
  <scstep>
   <time name="dav">    1.27    1.33</time>
   <time name="total">    1.45    1.53</time>
   <energy>
    <i name="alphaZ">    115.08187707 </i>
    <i name="ewald">  -7478.54735728 </i>
    <i name="hartreedc">   -320.72867064 </i>
    <i name="XCdc">   -550.60166140 </i>
    <i name="pawpsdc">   5598.62625415 </i>
    <i name="pawaedc">  -4492.17844134 </i>
    <i name="eentropy">     -0.01489008 </i>
    <i name="bandstr">   1137.42588478 </i>
    <i name="atom">   6564.79586099 </i>
    <i name="e_fr_energy">    573.85885626 </i>
    <i name="e_wo_entrp">    573.87374633 </i>
    <i name="e_0_energy">    573.86381962 </i>
   </energy>
  </scstep>
  <scstep>
   <time name="dav">    1.35    1.35</time>
   <time name="total">    1.35    1.35</time>
   <energy>
    <i name="e_fr_energy">   -309.32239749 </i>
    <i name="e_wo_entrp">   -309.34327106 </i>
    <i name="e_0_energy">   -309.32935534 </i>
   </energy>
  </scstep>
  <scstep>
   <time name="dav">    1.38    1.40</time>
   <time name="total">    1.38    1.40</time>
   <energy>
    <i name="e_fr_energy">   -372.66412283 </i>
    <i name="e_wo_entrp">   -372.67152886 </i>
    <i name="e_0_energy">   -372.66659151 </i>
   </energy>
  </scstep>
  <scstep>
   <time name="dav">    1.32    1.35</time>
   <time name="total">    1.32    1.35</time>
   <energy>
    <i name="e_fr_energy">   -374.22532866 </i>
    <i name="e_wo_entrp">   -374.23337944 </i>
    <i name="e_0_energy">   -374.22801226 </i>
   </energy>
  </scstep>
  <scstep>
   <time name="dav">    1.34    1.36</time>
   <time name="total">    1.61    1.63</time>
   <energy>
    <i name="e_fr_energy">   -374.27263261 </i>
    <i name="e_wo_entrp">   -374.28068701 </i>
    <i name="e_0_energy">   -374.27531741 </i>
   </energy>
  </scstep>
  <scstep>
   <time name="diag">    0.14    0.14</time>
   <time name="diis">    0.70    0.70</time>
   <time name="orth">    0.02    0.02</time>
   <time name="total">    1.26    1.28</time>
   <energy>
    <i name="e_fr_energy">   -368.23562844 </i>
    <i name="e_wo_entrp">   -368.24903155 </i>
    <i name="e_0_energy">   -368.24009614 </i>
   </energy>
  </scstep>
  <scstep>
   <time name="diag">    0.14    0.14</time>
   <time name="diis">    0.70    0.71</time>
   <time name="orth">    0.02    0.02</time>
   <time name="total">    1.26    1.28</time>
   <energy>
    <i name="e_fr_energy">   -365.59890900 </i>
    <i name="e_wo_entrp">   -365.62875680 </i>
    <i name="e_0_energy">   -365.60885827 </i>
   </energy>
  </scstep>
  <scstep>
   <time name="diag">    0.14    0.14</time>
   <time name="diis">    0.70    0.70</time>
   <time name="orth">    0.02    0.02</time>
   <time name="total">    1.27    1.28</time>
   <energy>
    <i name="e_fr_energy">   -365.63279585 </i>
    <i name="e_wo_entrp">   -365.66588419 </i>
    <i name="e_0_energy">   -365.64382530 </i>
   </energy>
  </scstep>
  <scstep>
   <time name="diag">    0.13    0.14</time>
   <time name="diis">    0.71    0.72</time>
   <time name="orth">    0.02    0.02</time>
   <time name="total">    1.27    1.29</time>
   <energy>
    <i name="e_fr_energy">   -365.65648325 </i>
    <i name="e_wo_entrp">   -365.68904274 </i>
    <i name="e_0_energy">   -365.66733641 </i>
   </energy>
  </scstep>
  <scstep>
   <time name="diag">    0.13    0.13</time>
   <time name="diis">    0.72    0.72</time>
   <time name="orth">    0.02    0.02</time>
   <time name="total">    1.27    1.29</time>
   <energy>
    <i name="e_fr_energy">   -365.66066382 </i>
    <i name="e_wo_entrp">   -365.69319275 </i>
    <i name="e_0_energy">   -365.67150680 </i>
   </energy>
  </scstep>
  <scstep>
   <time name="diag">    0.13    0.13</time>
   <time name="diis">    0.69    0.70</time>
   <time name="orth">    0.02    0.02</time>
   <time name="total">    1.25    1.26</time>
   <energy>
    <i name="e_fr_energy">   -365.65615253 </i>
    <i name="e_wo_entrp">   -365.68928538 </i>
    <i name="e_0_energy">   -365.66719681 </i>
   </energy>
  </scstep>
  <scstep>
   <time name="diag">    0.13    0.13</time>
   <time name="diis">    0.69    0.69</time>
   <time name="orth">    0.02    0.02</time>
   <time name="total">    1.24    1.26</time>
   <energy>
    <i name="e_fr_energy">   -365.65629014 </i>
    <i name="e_wo_entrp">   -365.68943732 </i>
    <i name="e_0_energy">   -365.66733920 </i>
   </energy>
  </scstep>
  <scstep>
   <time name="diag">    0.13    0.13</time>
   <time name="diis">    0.74    0.74</time>
   <time name="orth">    0.02    0.02</time>
   <time name="total">    1.29    1.31</time>
   <energy>
    <i name="e_fr_energy">   -365.65635151 </i>
    <i name="e_wo_entrp">   -365.68949856 </i>
    <i name="e_0_energy">   -365.66740053 </i>
   </energy>
  </scstep>
  <scstep>
   <time name="diag">    0.13    0.13</time>
   <time name="diis">    0.69    0.69</time>
   <time name="orth">    0.02    0.02</time>
   <time name="total">    1.25    1.26</time>
   <energy>
    <i name="e_fr_energy">   -365.65630595 </i>
    <i name="e_wo_entrp">   -365.68946742 </i>
    <i name="e_0_energy">   -365.66735977 </i>
   </energy>
  </scstep>
  <scstep>
   <time name="diag">    0.13    0.13</time>
   <time name="diis">    0.71    0.71</time>
   <time name="orth">    0.02    0.02</time>
   <time name="total">    1.26    1.28</time>
   <energy>
    <i name="e_fr_energy">   -365.65643608 </i>
    <i name="e_wo_entrp">   -365.68961453 </i>
    <i name="e_0_energy">   -365.66749556 </i>
   </energy>
  </scstep>
  <scstep>
   <time name="diag">    0.14    0.14</time>
   <time name="diis">    0.71    0.71</time>
   <time name="orth">    0.02    0.02</time>
   <time name="total">    1.28    1.30</time>
   <energy>
    <i name="e_fr_energy">   -365.65652928 </i>
    <i name="e_wo_entrp">   -365.68970364 </i>
    <i name="e_0_energy">   -365.66758740 </i>
   </energy>
  </scstep>
  <scstep>
   <time name="diag">    0.13    0.13</time>
   <time name="diis">    0.69    0.69</time>
   <time name="orth">    0.02    0.02</time>
   <time name="total">    1.24    1.26</time>
   <energy>
    <i name="e_fr_energy">   -365.65655369 </i>
    <i name="e_wo_entrp">   -365.68973252 </i>
    <i name="e_0_energy">   -365.66761330 </i>
   </energy>
  </scstep>
  <scstep>
   <time name="diag">    0.13    0.13</time>
   <time name="diis">    0.60    0.60</time>
   <time name="orth">    0.02    0.02</time>
   <time name="total">    1.17    1.17</time>
   <energy>
    <i name="e_fr_energy">   -365.65656042 </i>
    <i name="e_wo_entrp">   -365.68974265 </i>
    <i name="e_0_energy">   -365.66762117 </i>
   </energy>
  </scstep>
  <scstep>
   <time name="diag">    0.13    0.13</time>
   <time name="diis">    0.46    0.46</time>
   <time name="orth">    0.02    0.02</time>
   <time name="total">    1.01    1.03</time>
   <energy>
    <i name="e_fr_energy">   -365.65656184 </i>
    <i name="e_wo_entrp">   -365.68974484 </i>
    <i name="e_0_energy">   -365.66762284 </i>
   </energy>
  </scstep>
  <scstep>
   <time name="diag">    0.13    0.13</time>
   <time name="diis">    0.45    0.45</time>
   <time name="orth">    0.02    0.02</time>
   <time name="total">    0.75    0.77</time>
   <energy>
    <i name="alphaZ">    115.08187707 </i>
    <i name="ewald">  -7478.54735728 </i>
    <i name="hartreedc">   -443.48135276 </i>
    <i name="XCdc">   -529.76342166 </i>
    <i name="pawpsdc">  32152.51056471 </i>
    <i name="pawaedc"> -31054.70432885 </i>
    <i name="eentropy">      0.03318289 </i>
    <i name="bandstr">    308.41841246 </i>
    <i name="atom">   6564.79586099 </i>
    <i name="e_fr_energy">   -365.65656243 </i>
    <i name="e_wo_entrp">   -365.68974532 </i>
    <i name="e_0_energy">   -365.66762339 </i>
   </energy>
  </scstep>
  <structure>
   <crystal>
    <varray name="basis" >
     <v>      10.58568056      -0.02659700       0.00000000 </v>
     <v>      -0.02659700      10.63887557       0.00000000 </v>
     <v>       0.00000000       0.00000000      10.63887557 </v>
    </varray>
    <i name="volume">   1198.13985720 </i>
    <varray name="rec_basis" >
     <v>       0.09446783       0.00023617       0.00000000 </v>
     <v>       0.00023617       0.09399549       0.00000000 </v>
     <v>       0.00000000       0.00000000       0.09399490 </v>
    </varray>
   </crystal>
   <varray name="positions" >
    <v>       0.00000000       0.00000000       0.00000000 </v>
    <v>       0.00000000       0.00000000       0.50000000 </v>
    <v>       0.00000000       0.50000000       0.00000000 </v>
    <v>       0.00000000       0.50000000       0.50000000 </v>
    <v>       0.50000000       0.00000000       0.00000000 </v>
    <v>       0.50000000       0.00000000       0.50000000 </v>
    <v>       0.50000000       0.50000000       0.00000000 </v>
    <v>       0.50000000       0.50000000       0.50000000 </v>
    <v>       0.37500000       0.37500000       0.12500000 </v>
    <v>       0.37500000       0.37500000       0.62500000 </v>
    <v>       0.37500000       0.87500000       0.12500000 </v>
    <v>       0.37500000       0.87500000       0.62500000 </v>
    <v>       0.87500000       0.37500000       0.12500000 </v>
    <v>       0.87500000       0.37500000       0.62500000 </v>
    <v>       0.87500000       0.87500000       0.12500000 </v>
    <v>       0.87500000       0.87500000       0.62500000 </v>
    <v>       0.00000000       0.25000000       0.25000000 </v>
    <v>       0.00000000       0.25000000       0.75000000 </v>
    <v>       0.00000000       0.75000000       0.25000000 </v>
    <v>       0.00000000       0.75000000       0.75000000 </v>
    <v>       0.50000000       0.25000000       0.25000000 </v>
    <v>       0.50000000       0.25000000       0.75000000 </v>
    <v>       0.50000000       0.75000000       0.25000000 </v>
    <v>       0.50000000       0.75000000       0.75000000 </v>
    <v>       0.37500000       0.12500000       0.37500000 </v>
    <v>       0.37500000       0.12500000       0.87500000 </v>
    <v>       0.37500000       0.62500000       0.37500000 </v>
    <v>       0.37500000       0.62500000       0.87500000 </v>
    <v>       0.87500000       0.12500000       0.37500000 </v>
    <v>       0.87500000       0.12500000       0.87500000 </v>
    <v>       0.87500000       0.62500000       0.37500000 </v>
    <v>       0.87500000       0.62500000       0.87500000 </v>
    <v>       0.25000000       0.00000000       0.25000000 </v>
    <v>       0.25000000       0.00000000       0.75000000 </v>
    <v>       0.25000000       0.50000000       0.25000000 </v>
    <v>       0.25000000       0.50000000       0.75000000 </v>
    <v>       0.75000000       0.00000000       0.25000000 </v>
    <v>       0.75000000       0.00000000       0.75000000 </v>
    <v>       0.75000000       0.50000000       0.25000000 </v>
    <v>       0.75000000       0.50000000       0.75000000 </v>
    <v>       0.12500000       0.37500000       0.37500000 </v>
    <v>       0.12500000       0.37500000       0.87500000 </v>
    <v>       0.12500000       0.87500000       0.37500000 </v>
    <v>       0.12500000       0.87500000       0.87500000 </v>
    <v>       0.62500000       0.37500000       0.37500000 </v>
    <v>       0.62500000       0.37500000       0.87500000 </v>
    <v>       0.62500000       0.87500000       0.37500000 </v>
    <v>       0.62500000       0.87500000       0.87500000 </v>
    <v>       0.25000000       0.25000000       0.00000000 </v>
    <v>       0.25000000       0.25000000       0.50000000 </v>
    <v>       0.25000000       0.75000000       0.00000000 </v>
    <v>       0.25000000       0.75000000       0.50000000 </v>
    <v>       0.75000000       0.25000000       0.00000000 </v>
    <v>       0.75000000       0.25000000       0.50000000 </v>
    <v>       0.75000000       0.75000000       0.00000000 </v>
    <v>       0.75000000       0.75000000       0.50000000 </v>
    <v>       0.12500000       0.12500000       0.12500000 </v>
    <v>       0.12500000       0.12500000       0.62500000 </v>
    <v>       0.12500000       0.62500000       0.12500000 </v>
    <v>       0.12500000       0.62500000       0.62500000 </v>
    <v>       0.62500000       0.12500000       0.12500000 </v>
    <v>       0.62500000       0.12500000       0.62500000 </v>
    <v>       0.62500000       0.62500000       0.12500000 </v>
    <v>       0.62500000       0.62500000       0.62500000 </v>
   </varray>
  </structure>
  <varray name="forces" >
   <v>       0.00000000      -0.00000000      -0.06600921 </v>
   <v>       0.00000000      -0.00000000      -0.06600921 </v>
   <v>      -0.00000000       0.00000000      -0.06600921 </v>
   <v>      -0.00000000       0.00000000      -0.06600921 </v>
   <v>       0.00000000      -0.00000000      -0.06600921 </v>
   <v>       0.00000000      -0.00000000      -0.06600921 </v>
   <v>      -0.00000000       0.00000000      -0.06600921 </v>
   <v>      -0.00000000       0.00000000      -0.06600921 </v>
   <v>       0.00000000       0.00000000       0.06600921 </v>
   <v>      -0.00000000      -0.00000000       0.06600921 </v>
   <v>      -0.00000000       0.00000000       0.06600921 </v>
   <v>       0.00000000       0.00000000       0.06600921 </v>
   <v>       0.00000000      -0.00000000       0.06600921 </v>
   <v>       0.00000000       0.00000000       0.06600921 </v>
   <v>      -0.00000000      -0.00000000       0.06600921 </v>
   <v>      -0.00000000      -0.00000000       0.06600921 </v>
   <v>      -0.00000000      -0.00000000      -0.06600921 </v>
   <v>       0.00000000      -0.00000000      -0.06600921 </v>
   <v>      -0.00000000      -0.00000000      -0.06600921 </v>
   <v>       0.00000000       0.00000000      -0.06600921 </v>
   <v>       0.00000000      -0.00000000      -0.06600921 </v>
   <v>       0.00000000      -0.00000000      -0.06600921 </v>
   <v>       0.00000000       0.00000000      -0.06600921 </v>
   <v>       0.00000000       0.00000000      -0.06600921 </v>
   <v>      -0.00000000      -0.00000000       0.06600921 </v>
   <v>      -0.00000000      -0.00000000       0.06600921 </v>
   <v>       0.00000000      -0.00000000       0.06600921 </v>
   <v>       0.00000000       0.00000000       0.06600921 </v>
   <v>      -0.00000000      -0.00000000       0.06600921 </v>
   <v>      -0.00000000      -0.00000000       0.06600921 </v>
   <v>      -0.00000000       0.00000000       0.06600921 </v>
   <v>      -0.00000000       0.00000000       0.06600921 </v>
   <v>       0.00000000      -0.00000000      -0.06600921 </v>
   <v>       0.00000000      -0.00000000      -0.06600921 </v>
   <v>      -0.00000000       0.00000000      -0.06600921 </v>
   <v>      -0.00000000       0.00000000      -0.06600921 </v>
   <v>       0.00000000      -0.00000000      -0.06600921 </v>
   <v>       0.00000000      -0.00000000      -0.06600921 </v>
   <v>      -0.00000000       0.00000000      -0.06600921 </v>
   <v>      -0.00000000       0.00000000      -0.06600921 </v>
   <v>      -0.00000000      -0.00000000       0.06600921 </v>
   <v>      -0.00000000       0.00000000       0.06600921 </v>
   <v>      -0.00000000      -0.00000000       0.06600921 </v>
   <v>      -0.00000000      -0.00000000       0.06600921 </v>
   <v>       0.00000000       0.00000000       0.06600921 </v>
   <v>       0.00000000      -0.00000000       0.06600921 </v>
   <v>      -0.00000000       0.00000000       0.06600921 </v>
   <v>       0.00000000      -0.00000000       0.06600921 </v>
   <v>       0.00000000      -0.00000000      -0.06600921 </v>
   <v>       0.00000000      -0.00000000      -0.06600921 </v>
   <v>      -0.00000000       0.00000000      -0.06600921 </v>
   <v>      -0.00000000       0.00000000      -0.06600921 </v>
   <v>      -0.00000000      -0.00000000      -0.06600921 </v>
   <v>       0.00000000      -0.00000000      -0.06600921 </v>
   <v>      -0.00000000       0.00000000      -0.06600921 </v>
   <v>      -0.00000000       0.00000000      -0.06600921 </v>
   <v>      -0.00000000      -0.00000000       0.06600921 </v>
   <v>       0.00000000      -0.00000000       0.06600921 </v>
   <v>       0.00000000       0.00000000       0.06600921 </v>
   <v>       0.00000000       0.00000000       0.06600921 </v>
   <v>      -0.00000000      -0.00000000       0.06600921 </v>
   <v>      -0.00000000      -0.00000000       0.06600921 </v>
   <v>       0.00000000       0.00000000       0.06600921 </v>
   <v>       0.00000000       0.00000000       0.06600921 </v>
  </varray>
  <varray name="stress" >
   <v>      78.99029929       6.24538613       0.00000000 </v>
   <v>       6.24538615      74.89378937       0.00000000 </v>
   <v>       0.00000000       0.00000000      74.83091894 </v>
  </varray>
  <energy>
   <i name="e_fr_energy">   -365.65656243 </i>
   <i name="e_wo_entrp">   -365.68974532 </i>
   <i name="e_0_energy">   -365.66762339 </i>
  </energy>
  <time name="totalsc">   28.79   29.30</time>
 </calculation>
 <calculation>
  <scstep>
   <time name="dav">    1.26    1.26</time>
   <time name="total">    1.66    1.66</time>
   <energy>
    <i name="alphaZ">    115.08187707 </i>
    <i name="ewald">  -7478.61444667 </i>
    <i name="hartreedc">   -443.44678562 </i>
    <i name="XCdc">   -529.76418731 </i>
    <i name="pawpsdc">  32160.20180110 </i>
    <i name="pawaedc"> -31062.39547534 </i>
    <i name="eentropy">      0.03141347 </i>
    <i name="bandstr">    308.45084613 </i>
    <i name="atom">   6564.79586099 </i>
    <i name="e_fr_energy">   -365.65909617 </i>
    <i name="e_wo_entrp">   -365.69050964 </i>
    <i name="e_0_energy">   -365.66956733 </i>
   </energy>
  </scstep>
  <scstep>
   <time name="diag">    0.13    0.13</time>
   <time name="diis">    0.69    0.69</time>
   <time name="orth">    0.02    0.02</time>
   <time name="total">    1.24    1.25</time>
   <energy>
    <i name="e_fr_energy">   -365.65997128 </i>
    <i name="e_wo_entrp">   -365.69138958 </i>
    <i name="e_0_energy">   -365.67044405 </i>
   </energy>
  </scstep>
  <scstep>
   <time name="diag">    0.13    0.13</time>
   <time name="diis">    0.70    0.71</time>
   <time name="orth">    0.02    0.02</time>
   <time name="total">    1.25    1.27</time>
   <energy>
    <i name="e_fr_energy">   -365.66008150 </i>
    <i name="e_wo_entrp">   -365.69157791 </i>
    <i name="e_0_energy">   -365.67058030 </i>
   </energy>
  </scstep>
  <scstep>
   <time name="diag">    0.13    0.13</time>
   <time name="diis">    0.71    0.71</time>
   <time name="orth">    0.02    0.02</time>
   <time name="total">    1.26    1.28</time>
   <energy>
    <i name="e_fr_energy">   -365.66007726 </i>
    <i name="e_wo_entrp">   -365.69163776 </i>
    <i name="e_0_energy">   -365.67059743 </i>
   </energy>
  </scstep>
  <scstep>
   <time name="diag">    0.14    0.14</time>
   <time name="diis">    0.71    0.71</time>
   <time name="orth">    0.04    0.04</time>
   <time name="total">    1.30    1.32</time>
   <energy>
    <i name="e_fr_energy">   -365.66007895 </i>
    <i name="e_wo_entrp">   -365.69166152 </i>
    <i name="e_0_energy">   -365.67060648 </i>
   </energy>
  </scstep>
  <scstep>
   <time name="diag">    0.14    0.14</time>
   <time name="diis">    0.61    0.61</time>
   <time name="orth">    0.02    0.02</time>
   <time name="total">    1.17    1.19</time>
   <energy>
    <i name="e_fr_energy">   -365.66007973 </i>
    <i name="e_wo_entrp">   -365.69166160 </i>
    <i name="e_0_energy">   -365.67060702 </i>
   </energy>
  </scstep>
  <scstep>
   <time name="diag">    0.13    0.13</time>
   <time name="diis">    0.48    0.48</time>
   <time name="orth">    0.02    0.02</time>
   <time name="total">    1.03    1.06</time>
   <energy>
    <i name="e_fr_energy">   -365.66007983 </i>
    <i name="e_wo_entrp">   -365.69166108 </i>
    <i name="e_0_energy">   -365.67060692 </i>
   </energy>
  </scstep>
  <scstep>
   <time name="diag">    0.14    0.14</time>
   <time name="diis">    0.43    0.43</time>
   <time name="orth">    0.02    0.02</time>
   <time name="total">    0.74    0.75</time>
   <energy>
    <i name="alphaZ">    115.08187707 </i>
    <i name="ewald">  -7478.61444667 </i>
    <i name="hartreedc">   -443.41973319 </i>
    <i name="XCdc">   -529.76795838 </i>
    <i name="pawpsdc">  32157.18315578 </i>
    <i name="pawaedc"> -31059.37487029 </i>
    <i name="eentropy">      0.03158141 </i>
    <i name="bandstr">    308.42445342 </i>
    <i name="atom">   6564.79586099 </i>
    <i name="e_fr_energy">   -365.66007985 </i>
    <i name="e_wo_entrp">   -365.69166126 </i>
    <i name="e_0_energy">   -365.67060699 </i>
   </energy>
  </scstep>
  <structure>
   <crystal>
    <varray name="basis" >
     <v>      10.58568056      -0.02659700       0.00000000 </v>
     <v>      -0.02659700      10.63887557       0.00000000 </v>
     <v>       0.00000000       0.00000000      10.63887557 </v>
    </varray>
    <i name="volume">   1198.13985720 </i>
    <varray name="rec_basis" >
     <v>       0.09446783       0.00023617       0.00000000 </v>
     <v>       0.00023617       0.09399549       0.00000000 </v>
     <v>       0.00000000       0.00000000       0.09399490 </v>
    </varray>
   </crystal>
   <varray name="positions" >
    <v>       0.00000000       1.00000000       0.99970068 </v>
    <v>       0.00000000       1.00000000       0.49970068 </v>
    <v>       1.00000000       0.50000000       0.99970068 </v>
    <v>       1.00000000       0.50000000       0.49970068 </v>
    <v>       0.50000000       1.00000000       0.99970068 </v>
    <v>       0.50000000       1.00000000       0.49970068 </v>
    <v>       0.50000000       0.50000000       0.99970068 </v>
    <v>       0.50000000       0.50000000       0.49970068 </v>
    <v>       0.37500000       0.37500000       0.12529932 </v>
    <v>       0.37500000       0.37500000       0.62529932 </v>
    <v>       0.37500000       0.87500000       0.12529932 </v>
    <v>       0.37500000       0.87500000       0.62529932 </v>
    <v>       0.87500000       0.37500000       0.12529932 </v>
    <v>       0.87500000       0.37500000       0.62529932 </v>
    <v>       0.87500000       0.87500000       0.12529932 </v>
    <v>       0.87500000       0.87500000       0.62529932 </v>
    <v>       1.00000000       0.25000000       0.24970068 </v>
    <v>       0.00000000       0.25000000       0.74970068 </v>
    <v>       1.00000000       0.75000000       0.24970068 </v>
    <v>       0.00000000       0.75000000       0.74970068 </v>
    <v>       0.50000000       0.25000000       0.24970068 </v>
    <v>       0.50000000       0.25000000       0.74970068 </v>
    <v>       0.50000000       0.75000000       0.24970068 </v>
    <v>       0.50000000       0.75000000       0.74970068 </v>
    <v>       0.37500000       0.12500000       0.37529932 </v>
    <v>       0.37500000       0.12500000       0.87529932 </v>
    <v>       0.37500000       0.62500000       0.37529932 </v>
    <v>       0.37500000       0.62500000       0.87529932 </v>
    <v>       0.87500000       0.12500000       0.37529932 </v>
    <v>       0.87500000       0.12500000       0.87529932 </v>
    <v>       0.87500000       0.62500000       0.37529932 </v>
    <v>       0.87500000       0.62500000       0.87529932 </v>
    <v>       0.25000000       1.00000000       0.24970068 </v>
    <v>       0.25000000       1.00000000       0.74970068 </v>
    <v>       0.25000000       0.50000000       0.24970068 </v>
    <v>       0.25000000       0.50000000       0.74970068 </v>
    <v>       0.75000000       1.00000000       0.24970068 </v>
    <v>       0.75000000       1.00000000       0.74970068 </v>
    <v>       0.75000000       0.50000000       0.24970068 </v>
    <v>       0.75000000       0.50000000       0.74970068 </v>
    <v>       0.12500000       0.37500000       0.37529932 </v>
    <v>       0.12500000       0.37500000       0.87529932 </v>
    <v>       0.12500000       0.87500000       0.37529932 </v>
    <v>       0.12500000       0.87500000       0.87529932 </v>
    <v>       0.62500000       0.37500000       0.37529932 </v>
    <v>       0.62500000       0.37500000       0.87529932 </v>
    <v>       0.62500000       0.87500000       0.37529932 </v>
    <v>       0.62500000       0.87500000       0.87529932 </v>
    <v>       0.25000000       0.25000000       0.99970068 </v>
    <v>       0.25000000       0.25000000       0.49970068 </v>
    <v>       0.25000000       0.75000000       0.99970068 </v>
    <v>       0.25000000       0.75000000       0.49970068 </v>
    <v>       0.75000000       0.25000000       0.99970068 </v>
    <v>       0.75000000       0.25000000       0.49970068 </v>
    <v>       0.75000000       0.75000000       0.99970068 </v>
    <v>       0.75000000       0.75000000       0.49970068 </v>
    <v>       0.12500000       0.12500000       0.12529932 </v>
    <v>       0.12500000       0.12500000       0.62529932 </v>
    <v>       0.12500000       0.62500000       0.12529932 </v>
    <v>       0.12500000       0.62500000       0.62529932 </v>
    <v>       0.62500000       0.12500000       0.12529932 </v>
    <v>       0.62500000       0.12500000       0.62529932 </v>
    <v>       0.62500000       0.62500000       0.12529932 </v>
    <v>       0.62500000       0.62500000       0.62529932 </v>
   </varray>
  </structure>
  <varray name="forces" >
   <v>       0.00000000      -0.00000000       0.03141044 </v>
   <v>       0.00000000       0.00000000       0.03141044 </v>
   <v>      -0.00000000       0.00000000       0.03141044 </v>
   <v>       0.00000000       0.00000000       0.03141044 </v>
   <v>       0.00000000       0.00000000       0.03141044 </v>
   <v>       0.00000000      -0.00000000       0.03141044 </v>
   <v>      -0.00000000      -0.00000000       0.03141044 </v>
   <v>      -0.00000000      -0.00000000       0.03141044 </v>
   <v>       0.00000000      -0.00000000      -0.03141044 </v>
   <v>      -0.00000000       0.00000000      -0.03141044 </v>
   <v>       0.00000000      -0.00000000      -0.03141044 </v>
   <v>      -0.00000000       0.00000000      -0.03141044 </v>
   <v>      -0.00000000       0.00000000      -0.03141044 </v>
   <v>      -0.00000000      -0.00000000      -0.03141044 </v>
   <v>       0.00000000       0.00000000      -0.03141044 </v>
   <v>      -0.00000000      -0.00000000      -0.03141044 </v>
   <v>       0.00000000      -0.00000000       0.03141044 </v>
   <v>       0.00000000      -0.00000000       0.03141044 </v>
   <v>       0.00000000       0.00000000       0.03141044 </v>
   <v>       0.00000000       0.00000000       0.03141044 </v>
   <v>       0.00000000       0.00000000       0.03141044 </v>
   <v>      -0.00000000      -0.00000000       0.03141044 </v>
   <v>      -0.00000000      -0.00000000       0.03141044 </v>
   <v>       0.00000000       0.00000000       0.03141044 </v>
   <v>       0.00000000       0.00000000      -0.03141044 </v>
   <v>       0.00000000       0.00000000      -0.03141044 </v>
   <v>      -0.00000000      -0.00000000      -0.03141044 </v>
   <v>      -0.00000000       0.00000000      -0.03141044 </v>
   <v>       0.00000000       0.00000000      -0.03141044 </v>
   <v>       0.00000000       0.00000000      -0.03141044 </v>
   <v>      -0.00000000      -0.00000000      -0.03141044 </v>
   <v>      -0.00000000      -0.00000000      -0.03141044 </v>
   <v>       0.00000000      -0.00000000       0.03141044 </v>
   <v>       0.00000000      -0.00000000       0.03141044 </v>
   <v>      -0.00000000       0.00000000       0.03141044 </v>
   <v>      -0.00000000       0.00000000       0.03141044 </v>
   <v>      -0.00000000       0.00000000       0.03141044 </v>
   <v>      -0.00000000       0.00000000       0.03141044 </v>
   <v>       0.00000000      -0.00000000       0.03141044 </v>
   <v>      -0.00000000      -0.00000000       0.03141044 </v>
   <v>       0.00000000      -0.00000000      -0.03141044 </v>
   <v>      -0.00000000      -0.00000000      -0.03141044 </v>
   <v>      -0.00000000       0.00000000      -0.03141044 </v>
   <v>      -0.00000000       0.00000000      -0.03141044 </v>
   <v>       0.00000000       0.00000000      -0.03141044 </v>
   <v>      -0.00000000       0.00000000      -0.03141044 </v>
   <v>       0.00000000       0.00000000      -0.03141044 </v>
   <v>       0.00000000       0.00000000      -0.03141044 </v>
   <v>      -0.00000000       0.00000000       0.03141044 </v>
   <v>       0.00000000      -0.00000000       0.03141044 </v>
   <v>       0.00000000       0.00000000       0.03141044 </v>
   <v>      -0.00000000       0.00000000       0.03141044 </v>
   <v>      -0.00000000       0.00000000       0.03141044 </v>
   <v>       0.00000000      -0.00000000       0.03141044 </v>
   <v>       0.00000000       0.00000000       0.03141044 </v>
   <v>      -0.00000000       0.00000000       0.03141044 </v>
   <v>       0.00000000      -0.00000000      -0.03141044 </v>
   <v>       0.00000000       0.00000000      -0.03141044 </v>
   <v>      -0.00000000      -0.00000000      -0.03141044 </v>
   <v>      -0.00000000      -0.00000000      -0.03141044 </v>
   <v>       0.00000000       0.00000000      -0.03141044 </v>
   <v>       0.00000000       0.00000000      -0.03141044 </v>
   <v>      -0.00000000      -0.00000000      -0.03141044 </v>
   <v>      -0.00000000      -0.00000000      -0.03141044 </v>
  </varray>
  <varray name="stress" >
   <v>      78.94211085       2.65225245       0.00000000 </v>
   <v>       2.65225242      74.85161668       0.00000000 </v>
   <v>       0.00000000       0.00000000      74.77143751 </v>
  </varray>
  <energy>
   <i name="e_fr_energy">   -365.66007985 </i>
   <i name="e_wo_entrp">   -365.69166126 </i>
   <i name="e_0_energy">   -365.67060699 </i>
  </energy>
  <time name="totalsc">   13.29   13.45</time>
 </calculation>
 <calculation>
  <scstep>
   <time name="dav">    1.27    1.27</time>
   <time name="total">    1.66    1.67</time>
   <energy>
    <i name="alphaZ">    115.08187707 </i>
    <i name="ewald">  -7478.59649593 </i>
    <i name="hartreedc">   -443.43041904 </i>
    <i name="XCdc">   -529.76746469 </i>
    <i name="pawpsdc">  32157.14031263 </i>
    <i name="pawaedc"> -31059.33202331 </i>
    <i name="eentropy">      0.03233853 </i>
    <i name="bandstr">    308.41500026 </i>
    <i name="atom">   6564.79586099 </i>
    <i name="e_fr_energy">   -365.66101349 </i>
    <i name="e_wo_entrp">   -365.69335203 </i>
    <i name="e_0_energy">   -365.67179300 </i>
   </energy>
  </scstep>
  <scstep>
   <time name="diag">    0.13    0.13</time>
   <time name="diis">    0.69    0.70</time>
   <time name="orth">    0.02    0.02</time>
   <time name="total">    1.25    1.26</time>
   <energy>
    <i name="e_fr_energy">   -365.66110229 </i>
    <i name="e_wo_entrp">   -365.69343929 </i>
    <i name="e_0_energy">   -365.67188129 </i>
   </energy>
  </scstep>
  <scstep>
   <time name="diag">    0.13    0.13</time>
   <time name="diis">    0.69    0.70</time>
   <time name="orth">    0.02    0.02</time>
   <time name="total">    1.24    1.26</time>
   <energy>
    <i name="e_fr_energy">   -365.66111346 </i>
    <i name="e_wo_entrp">   -365.69343162 </i>
    <i name="e_0_energy">   -365.67188618 </i>
   </energy>
  </scstep>
  <scstep>
   <time name="diag">    0.13    0.13</time>
   <time name="diis">    0.69    0.70</time>
   <time name="orth">    0.02    0.02</time>
   <time name="total">    1.24    1.27</time>
   <energy>
    <i name="e_fr_energy">   -365.66111313 </i>
    <i name="e_wo_entrp">   -365.69341599 </i>
    <i name="e_0_energy">   -365.67188075 </i>
   </energy>
  </scstep>
  <scstep>
   <time name="diag">    0.14    0.14</time>
   <time name="diis">    0.53    0.53</time>
   <time name="orth">    0.02    0.02</time>
   <time name="total">    1.08    1.10</time>
   <energy>
    <i name="e_fr_energy">   -365.66111329 </i>
    <i name="e_wo_entrp">   -365.69341057 </i>
    <i name="e_0_energy">   -365.67187905 </i>
   </energy>
  </scstep>
  <scstep>
   <time name="diag">    0.13    0.13</time>
   <time name="diis">    0.44    0.44</time>
   <time name="orth">    0.02    0.02</time>
   <time name="total">    0.99    1.01</time>
   <energy>
    <i name="e_fr_energy">   -365.66111335 </i>
    <i name="e_wo_entrp">   -365.69341089 </i>
    <i name="e_0_energy">   -365.67187920 </i>
   </energy>
  </scstep>
  <scstep>
   <time name="diag">    0.13    0.13</time>
   <time name="diis">    0.42    0.42</time>
   <time name="orth">    0.02    0.02</time>
   <time name="total">    0.98    1.00</time>
   <energy>
    <i name="e_fr_energy">   -365.66111336 </i>
    <i name="e_wo_entrp">   -365.69341104 </i>
    <i name="e_0_energy">   -365.67187926 </i>
   </energy>
  </scstep>
  <scstep>
   <time name="diag">    0.14    0.14</time>
   <time name="diis">    0.34    0.34</time>
   <time name="orth">    0.02    0.02</time>
   <time name="total">    0.65    0.67</time>
   <energy>
    <i name="alphaZ">    115.08187707 </i>
    <i name="ewald">  -7478.59649593 </i>
    <i name="hartreedc">   -443.43956004 </i>
    <i name="XCdc">   -529.76622920 </i>
    <i name="pawpsdc">  32158.30358077 </i>
    <i name="pawaedc"> -31060.49585586 </i>
    <i name="eentropy">      0.03229765 </i>
    <i name="bandstr">    308.42341119 </i>
    <i name="atom">   6564.79586099 </i>
    <i name="e_fr_energy">   -365.66111337 </i>
    <i name="e_wo_entrp">   -365.69341102 </i>
    <i name="e_0_energy">   -365.67187926 </i>
   </energy>
  </scstep>
  <structure>
   <crystal>
    <varray name="basis" >
     <v>      10.58568056      -0.02659700       0.00000000 </v>
     <v>      -0.02659700      10.63887557       0.00000000 </v>
     <v>       0.00000000       0.00000000      10.63887557 </v>
    </varray>
    <i name="volume">   1198.13985720 </i>
    <varray name="rec_basis" >
     <v>       0.09446783       0.00023617       0.00000000 </v>
     <v>       0.00023617       0.09399549       0.00000000 </v>
     <v>       0.00000000       0.00000000       0.09399490 </v>
    </varray>
   </crystal>
   <varray name="positions" >
    <v>       0.00000000       0.00000000       0.99979719 </v>
    <v>       0.00000000       0.00000000       0.49979719 </v>
    <v>       0.00000000       0.50000000       0.99979719 </v>
    <v>       0.00000000       0.50000000       0.49979719 </v>
    <v>       0.50000000       0.00000000       0.99979719 </v>
    <v>       0.50000000       0.00000000       0.49979719 </v>
    <v>       0.50000000       0.50000000       0.99979719 </v>
    <v>       0.50000000       0.50000000       0.49979719 </v>
    <v>       0.37500000       0.37500000       0.12520281 </v>
    <v>       0.37500000       0.37500000       0.62520281 </v>
    <v>       0.37500000       0.87500000       0.12520281 </v>
    <v>       0.37500000       0.87500000       0.62520281 </v>
    <v>       0.87500000       0.37500000       0.12520281 </v>
    <v>       0.87500000       0.37500000       0.62520281 </v>
    <v>       0.87500000       0.87500000       0.12520281 </v>
    <v>       0.87500000       0.87500000       0.62520281 </v>
    <v>       0.00000000       0.25000000       0.24979719 </v>
    <v>       0.00000000       0.25000000       0.74979719 </v>
    <v>       0.00000000       0.75000000       0.24979719 </v>
    <v>       0.00000000       0.75000000       0.74979719 </v>
    <v>       0.50000000       0.25000000       0.24979719 </v>
    <v>       0.50000000       0.25000000       0.74979719 </v>
    <v>       0.50000000       0.75000000       0.24979719 </v>
    <v>       0.50000000       0.75000000       0.74979719 </v>
    <v>       0.37500000       0.12500000       0.37520281 </v>
    <v>       0.37500000       0.12500000       0.87520281 </v>
    <v>       0.37500000       0.62500000       0.37520281 </v>
    <v>       0.37500000       0.62500000       0.87520281 </v>
    <v>       0.87500000       0.12500000       0.37520281 </v>
    <v>       0.87500000       0.12500000       0.87520281 </v>
    <v>       0.87500000       0.62500000       0.37520281 </v>
    <v>       0.87500000       0.62500000       0.87520281 </v>
    <v>       0.25000000       0.00000000       0.24979719 </v>
    <v>       0.25000000       0.00000000       0.74979719 </v>
    <v>       0.25000000       0.50000000       0.24979719 </v>
    <v>       0.25000000       0.50000000       0.74979719 </v>
    <v>       0.75000000       0.00000000       0.24979719 </v>
    <v>       0.75000000       0.00000000       0.74979719 </v>
    <v>       0.75000000       0.50000000       0.24979719 </v>
    <v>       0.75000000       0.50000000       0.74979719 </v>
    <v>       0.12500000       0.37500000       0.37520281 </v>
    <v>       0.12500000       0.37500000       0.87520281 </v>
    <v>       0.12500000       0.87500000       0.37520281 </v>
    <v>       0.12500000       0.87500000       0.87520281 </v>
    <v>       0.62500000       0.37500000       0.37520281 </v>
    <v>       0.62500000       0.37500000       0.87520281 </v>
    <v>       0.62500000       0.87500000       0.37520281 </v>
    <v>       0.62500000       0.87500000       0.87520281 </v>
    <v>       0.25000000       0.25000000       0.99979719 </v>
    <v>       0.25000000       0.25000000       0.49979719 </v>
    <v>       0.25000000       0.75000000       0.99979719 </v>
    <v>       0.25000000       0.75000000       0.49979719 </v>
    <v>       0.75000000       0.25000000       0.99979719 </v>
    <v>       0.75000000       0.25000000       0.49979719 </v>
    <v>       0.75000000       0.75000000       0.99979719 </v>
    <v>       0.75000000       0.75000000       0.49979719 </v>
    <v>       0.12500000       0.12500000       0.12520281 </v>
    <v>       0.12500000       0.12500000       0.62520281 </v>
    <v>       0.12500000       0.62500000       0.12520281 </v>
    <v>       0.12500000       0.62500000       0.62520281 </v>
    <v>       0.62500000       0.12500000       0.12520281 </v>
    <v>       0.62500000       0.12500000       0.62520281 </v>
    <v>       0.62500000       0.62500000       0.12520281 </v>
    <v>       0.62500000       0.62500000       0.62520281 </v>
   </varray>
  </structure>
  <varray name="forces" >
   <v>       0.00000000      -0.00000000      -0.00000775 </v>
   <v>       0.00000000       0.00000000      -0.00000775 </v>
   <v>      -0.00000000      -0.00000000      -0.00000775 </v>
   <v>      -0.00000000       0.00000000      -0.00000775 </v>
   <v>       0.00000000      -0.00000000      -0.00000775 </v>
   <v>       0.00000000       0.00000000      -0.00000775 </v>
   <v>      -0.00000000      -0.00000000      -0.00000775 </v>
   <v>      -0.00000000       0.00000000      -0.00000775 </v>
   <v>      -0.00000000       0.00000000       0.00000775 </v>
   <v>      -0.00000000      -0.00000000       0.00000775 </v>
   <v>      -0.00000000       0.00000000       0.00000775 </v>
   <v>       0.00000000       0.00000000       0.00000775 </v>
   <v>      -0.00000000       0.00000000       0.00000775 </v>
   <v>       0.00000000      -0.00000000       0.00000775 </v>
   <v>      -0.00000000       0.00000000       0.00000775 </v>
   <v>       0.00000000      -0.00000000       0.00000775 </v>
   <v>       0.00000000      -0.00000000      -0.00000775 </v>
   <v>       0.00000000      -0.00000000      -0.00000775 </v>
   <v>       0.00000000       0.00000000      -0.00000775 </v>
   <v>       0.00000000       0.00000000      -0.00000775 </v>
   <v>       0.00000000      -0.00000000      -0.00000775 </v>
   <v>       0.00000000      -0.00000000      -0.00000775 </v>
   <v>      -0.00000000       0.00000000      -0.00000775 </v>
   <v>      -0.00000000      -0.00000000      -0.00000775 </v>
   <v>      -0.00000000      -0.00000000       0.00000775 </v>
   <v>      -0.00000000      -0.00000000       0.00000775 </v>
   <v>       0.00000000       0.00000000       0.00000775 </v>
   <v>       0.00000000       0.00000000       0.00000775 </v>
   <v>       0.00000000      -0.00000000       0.00000775 </v>
   <v>      -0.00000000      -0.00000000       0.00000775 </v>
   <v>       0.00000000      -0.00000000       0.00000775 </v>
   <v>       0.00000000       0.00000000       0.00000775 </v>
   <v>      -0.00000000       0.00000000      -0.00000775 </v>
   <v>       0.00000000      -0.00000000      -0.00000775 </v>
   <v>      -0.00000000      -0.00000000      -0.00000775 </v>
   <v>      -0.00000000      -0.00000000      -0.00000775 </v>
   <v>       0.00000000       0.00000000      -0.00000775 </v>
   <v>       0.00000000      -0.00000000      -0.00000775 </v>
   <v>      -0.00000000       0.00000000      -0.00000775 </v>
   <v>      -0.00000000      -0.00000000      -0.00000775 </v>
   <v>       0.00000000      -0.00000000       0.00000775 </v>
   <v>       0.00000000      -0.00000000       0.00000775 </v>
   <v>      -0.00000000       0.00000000       0.00000775 </v>
   <v>       0.00000000      -0.00000000       0.00000775 </v>
   <v>       0.00000000      -0.00000000       0.00000775 </v>
   <v>      -0.00000000      -0.00000000       0.00000775 </v>
   <v>      -0.00000000       0.00000000       0.00000775 </v>
   <v>       0.00000000      -0.00000000       0.00000775 </v>
   <v>       0.00000000      -0.00000000      -0.00000775 </v>
   <v>       0.00000000      -0.00000000      -0.00000775 </v>
   <v>       0.00000000       0.00000000      -0.00000775 </v>
   <v>      -0.00000000       0.00000000      -0.00000775 </v>
   <v>       0.00000000       0.00000000      -0.00000775 </v>
   <v>      -0.00000000      -0.00000000      -0.00000775 </v>
   <v>      -0.00000000       0.00000000      -0.00000775 </v>
   <v>      -0.00000000       0.00000000      -0.00000775 </v>
   <v>      -0.00000000      -0.00000000       0.00000775 </v>
   <v>      -0.00000000      -0.00000000       0.00000775 </v>
   <v>       0.00000000      -0.00000000       0.00000775 </v>
   <v>       0.00000000       0.00000000       0.00000775 </v>
   <v>      -0.00000000      -0.00000000       0.00000775 </v>
   <v>      -0.00000000       0.00000000       0.00000775 </v>
   <v>       0.00000000       0.00000000       0.00000775 </v>
   <v>      -0.00000000       0.00000000       0.00000775 </v>
  </varray>
  <varray name="stress" >
   <v>      78.94971542       3.80935123       0.00000000 </v>
   <v>       3.80935122      74.85776546       0.00000000 </v>
   <v>       0.00000000       0.00000000      74.79272368 </v>
  </varray>
  <energy>
   <i name="e_fr_energy">   -365.66111337 </i>
   <i name="e_wo_entrp">   -365.69341102 </i>
   <i name="e_0_energy">   -365.67187926 </i>
  </energy>
  <time name="totalsc">   12.53   12.70</time>
  <eigenvalues>
   <array>
    <dimension dim="1">band</dimension>
    <dimension dim="2">kpoint</dimension>
    <dimension dim="3">spin</dimension>
    <field>eigene</field>
    <field>occ</field>
    <set>
     <set comment="spin 1">
      <set comment="kpoint 1">
       <r>   -5.9744    1.0000 </r>
       <r>   -4.8276    1.0000 </r>
       <r>   -4.8275    1.0000 </r>
       <r>   -4.8275    1.0000 </r>
       <r>   -4.8275    1.0000 </r>
       <r>   -4.8175    1.0000 </r>
       <r>   -4.8175    1.0000 </r>
       <r>   -3.7990    1.0000 </r>
       <r>   -3.7990    1.0000 </r>
       <r>   -3.7939    1.0000 </r>
       <r>   -3.7939    1.0000 </r>
       <r>   -3.7939    1.0000 </r>
       <r>   -3.7939    1.0000 </r>
       <r>   -3.7866    1.0000 </r>
       <r>   -3.7866    1.0000 </r>
       <r>   -3.7866    1.0000 </r>
       <r>   -3.7866    1.0000 </r>
       <r>   -3.7742    1.0000 </r>
       <r>   -3.7742    1.0000 </r>
       <r>   -3.4607    1.0000 </r>
       <r>   -3.4607    1.0000 </r>
       <r>   -3.4351    1.0000 </r>
       <r>   -3.4351    1.0000 </r>
       <r>   -1.5813    1.0000 </r>
       <r>   -1.5741    1.0000 </r>
       <r>   -1.5741    1.0000 </r>
       <r>   -1.5672    1.0000 </r>
       <r>   -1.5413    1.0000 </r>
       <r>   -1.5413    1.0000 </r>
       <r>   -1.3801    1.0000 </r>
       <r>   -1.3801    1.0000 </r>
       <r>   -1.3690    1.0000 </r>
       <r>   -1.3690    1.0000 </r>
       <r>   -1.3558    1.0000 </r>
       <r>   -1.3558    1.0000 </r>
       <r>   -1.3558    1.0000 </r>
       <r>   -1.3558    1.0000 </r>
       <r>   -1.3536    1.0000 </r>
       <r>   -1.3536    1.0000 </r>
       <r>   -1.3428    1.0000 </r>
       <r>   -1.3428    1.0000 </r>
       <r>   -0.8620    1.0000 </r>
       <r>   -0.8620    1.0000 </r>
       <r>   -0.8482    1.0000 </r>
       <r>   -0.8482    1.0000 </r>
       <r>    0.8570    1.0000 </r>
       <r>    0.8570    1.0000 </r>
       <r>    0.8618    1.0000 </r>
       <r>    0.8619    1.0000 </r>
       <r>    0.8619    1.0000 </r>
       <r>    0.8619    1.0000 </r>
       <r>    0.8669    1.0000 </r>
       <r>    0.8669    1.0000 </r>
       <r>    0.8817    1.0000 </r>
       <r>    0.8817    1.0000 </r>
       <r>    0.8817    1.0000 </r>
       <r>    0.8817    1.0000 </r>
       <r>    2.2802    1.0000 </r>
       <r>    2.2802    1.0000 </r>
       <r>    2.2834    1.0000 </r>
       <r>    2.2834    1.0000 </r>
       <r>    2.2903    1.0000 </r>
       <r>    2.2903    1.0000 </r>
       <r>    2.2903    1.0000 </r>
       <r>    2.2903    1.0000 </r>
       <r>    2.2937    1.0000 </r>
       <r>    2.2937    1.0000 </r>
       <r>    2.2973    1.0000 </r>
       <r>    2.2973    1.0000 </r>
       <r>    2.4076    1.0000 </r>
       <r>    2.4076    1.0000 </r>
       <r>    2.4126    1.0000 </r>
       <r>    2.4126    1.0000 </r>
       <r>    2.4126    1.0000 </r>
       <r>    2.4126    1.0000 </r>
       <r>    2.4171    1.0000 </r>
       <r>    2.4172    1.0000 </r>
       <r>    2.4423    1.0000 </r>
       <r>    2.4423    1.0000 </r>
       <r>    2.4423    1.0000 </r>
       <r>    2.4423    1.0000 </r>
       <r>    2.9691    1.0000 </r>
       <r>    2.9691    1.0000 </r>
       <r>    2.9694    1.0000 </r>
       <r>    2.9694    1.0000 </r>
       <r>    3.0079    1.0000 </r>
       <r>    3.0079    1.0000 </r>
       <r>    3.4111    1.0000 </r>
       <r>    3.4111    1.0000 </r>
       <r>    3.4154    1.0000 </r>
       <r>    3.4520    1.0000 </r>
       <r>    3.4520    1.0000 </r>
       <r>    3.4889    1.0000 </r>
       <r>    4.4314    1.0000 </r>
       <r>    4.4314    1.0000 </r>
       <r>    4.4350    1.0000 </r>
       <r>    4.4350    1.0000 </r>
       <r>    4.4352    1.0000 </r>
       <r>    4.4352    1.0000 </r>
       <r>    4.4611    1.0000 </r>
       <r>    4.4611    1.0000 </r>
       <r>    4.4725    1.0000 </r>
       <r>    4.4725    1.0000 </r>
       <r>    4.5025    1.0000 </r>
       <r>    4.5025    1.0000 </r>
       <r>    5.0516    1.0000 </r>
       <r>    5.0516    1.0000 </r>
       <r>    5.0516    1.0000 </r>
       <r>    5.0516    1.0000 </r>
       <r>    5.0677    1.0000 </r>
       <r>    5.0677    1.0000 </r>
       <r>    5.0941    1.0000 </r>
       <r>    5.0941    1.0000 </r>
       <r>    5.0941    1.0000 </r>
       <r>    5.0941    1.0000 </r>
       <r>    5.1209    1.0000 </r>
       <r>    5.1209    1.0000 </r>
       <r>    5.1939    1.0000 </r>
       <r>    5.1939    1.0000 </r>
       <r>    5.2149    1.0000 </r>
       <r>    5.2149    1.0000 </r>
       <r>    5.2384    1.0000 </r>
       <r>    5.2384    1.0000 </r>
       <r>    5.2795    1.0000 </r>
       <r>    5.2795    1.0000 </r>
       <r>    6.4662    1.0353 </r>
       <r>    6.4823    1.0351 </r>
       <r>    6.5352    1.0141 </r>
       <r>    6.9135   -0.0224 </r>
       <r>    6.9135   -0.0224 </r>
       <r>    6.9149   -0.0232 </r>
       <r>    6.9551   -0.0352 </r>
       <r>    6.9551   -0.0352 </r>
       <r>    6.9956   -0.0323 </r>
       <r>    7.4318   -0.0000 </r>
       <r>    7.4318   -0.0000 </r>
       <r>    7.4724   -0.0000 </r>
       <r>    7.4724   -0.0000 </r>
       <r>    7.4728   -0.0000 </r>
       <r>    7.4728   -0.0000 </r>
       <r>    8.1700   -0.0000 </r>
       <r>    8.1700   -0.0000 </r>
       <r>    8.2221   -0.0000 </r>
       <r>    8.2221   -0.0000 </r>
       <r>    8.8508   -0.0000 </r>
       <r>    8.8508   -0.0000 </r>
       <r>    8.8508   -0.0000 </r>
       <r>    8.8508   -0.0000 </r>
       <r>    8.8711   -0.0000 </r>
       <r>    8.8711   -0.0000 </r>
       <r>    8.8993   -0.0000 </r>
       <r>    8.8993   -0.0000 </r>
       <r>    8.8993   -0.0000 </r>
       <r>    8.8993   -0.0000 </r>
       <r>    8.9278   -0.0000 </r>
       <r>    8.9278   -0.0000 </r>
       <r>    9.0019   -0.0000 </r>
       <r>    9.0386   -0.0000 </r>
       <r>    9.0622   -0.0000 </r>
       <r>    9.4756   -0.0000 </r>
       <r>    9.4779   -0.0000 </r>
       <r>    9.4841   -0.0000 </r>
      </set>
      <set comment="kpoint 2">
       <r>   -5.6826    1.0000 </r>
       <r>   -5.6826    1.0000 </r>
       <r>   -4.5665    1.0000 </r>
       <r>   -4.5665    1.0000 </r>
       <r>   -4.5601    1.0000 </r>
       <r>   -4.5601    1.0000 </r>
       <r>   -4.5601    1.0000 </r>
       <r>   -4.5601    1.0000 </r>
       <r>   -4.5536    1.0000 </r>
       <r>   -4.5536    1.0000 </r>
       <r>   -3.6486    1.0000 </r>
       <r>   -3.6486    1.0000 </r>
       <r>   -3.6486    1.0000 </r>
       <r>   -3.6486    1.0000 </r>
       <r>   -3.6329    1.0000 </r>
       <r>   -3.6329    1.0000 </r>
       <r>   -3.6329    1.0000 </r>
       <r>   -3.6329    1.0000 </r>
       <r>   -3.4132    1.0000 </r>
       <r>   -3.4132    1.0000 </r>
       <r>   -2.6398    1.0000 </r>
       <r>   -2.6398    1.0000 </r>
       <r>   -2.6236    1.0000 </r>
       <r>   -2.6236    1.0000 </r>
       <r>   -2.6236    1.0000 </r>
       <r>   -2.6236    1.0000 </r>
       <r>   -2.6075    1.0000 </r>
       <r>   -2.6075    1.0000 </r>
       <r>   -1.4867    1.0000 </r>
       <r>   -1.4867    1.0000 </r>
       <r>   -1.4859    1.0000 </r>
       <r>   -1.4859    1.0000 </r>
       <r>   -1.4677    1.0000 </r>
       <r>   -1.4677    1.0000 </r>
       <r>   -1.4666    1.0000 </r>
       <r>   -1.4666    1.0000 </r>
       <r>   -0.2548    1.0000 </r>
       <r>   -0.2548    1.0000 </r>
       <r>   -0.2517    1.0000 </r>
       <r>   -0.2517    1.0000 </r>
       <r>   -0.2517    1.0000 </r>
       <r>   -0.2517    1.0000 </r>
       <r>   -0.2487    1.0000 </r>
       <r>   -0.2487    1.0000 </r>
       <r>   -0.1903    1.0000 </r>
       <r>   -0.1903    1.0000 </r>
       <r>   -0.1903    1.0000 </r>
       <r>   -0.1903    1.0000 </r>
       <r>   -0.1692    1.0000 </r>
       <r>   -0.1692    1.0000 </r>
       <r>   -0.1692    1.0000 </r>
       <r>   -0.1692    1.0000 </r>
       <r>    0.6661    1.0000 </r>
       <r>    0.6661    1.0000 </r>
       <r>    1.8830    1.0000 </r>
       <r>    1.8830    1.0000 </r>
       <r>    1.8855    1.0000 </r>
       <r>    1.8855    1.0000 </r>
       <r>    1.8855    1.0000 </r>
       <r>    1.8855    1.0000 </r>
       <r>    1.8878    1.0000 </r>
       <r>    1.8878    1.0000 </r>
       <r>    2.1119    1.0000 </r>
       <r>    2.1119    1.0000 </r>
       <r>    2.1194    1.0000 </r>
       <r>    2.1194    1.0000 </r>
       <r>    2.1194    1.0000 </r>
       <r>    2.1194    1.0000 </r>
       <r>    2.1277    1.0000 </r>
       <r>    2.1277    1.0000 </r>
       <r>    2.7655    1.0000 </r>
       <r>    2.7655    1.0000 </r>
       <r>    2.7875    1.0000 </r>
       <r>    2.7875    1.0000 </r>
       <r>    2.7923    1.0000 </r>
       <r>    2.7923    1.0000 </r>
       <r>    2.8146    1.0000 </r>
       <r>    2.8146    1.0000 </r>
       <r>    3.5385    1.0000 </r>
       <r>    3.5385    1.0000 </r>
       <r>    3.5468    1.0000 </r>
       <r>    3.5468    1.0000 </r>
       <r>    3.5468    1.0000 </r>
       <r>    3.5468    1.0000 </r>
       <r>    3.5542    1.0000 </r>
       <r>    3.5542    1.0000 </r>
       <r>    3.6721    1.0000 </r>
       <r>    3.6721    1.0000 </r>
       <r>    3.6721    1.0000 </r>
       <r>    3.6721    1.0000 </r>
       <r>    3.6894    1.0000 </r>
       <r>    3.6894    1.0000 </r>
       <r>    3.7087    1.0000 </r>
       <r>    3.7087    1.0000 </r>
       <r>    3.7087    1.0000 </r>
       <r>    3.7087    1.0000 </r>
       <r>    3.7281    1.0000 </r>
       <r>    3.7281    1.0000 </r>
       <r>    3.8856    1.0000 </r>
       <r>    3.8856    1.0000 </r>
       <r>    3.8856    1.0000 </r>
       <r>    3.8856    1.0000 </r>
       <r>    3.9259    1.0000 </r>
       <r>    3.9259    1.0000 </r>
       <r>    3.9259    1.0000 </r>
       <r>    3.9259    1.0000 </r>
       <r>    4.9584    1.0000 </r>
       <r>    4.9584    1.0000 </r>
       <r>    4.9728    1.0000 </r>
       <r>    4.9728    1.0000 </r>
       <r>    4.9728    1.0000 </r>
       <r>    4.9728    1.0000 </r>
       <r>    4.9875    1.0000 </r>
       <r>    4.9875    1.0000 </r>
       <r>    5.1187    1.0000 </r>
       <r>    5.1187    1.0000 </r>
       <r>    5.1187    1.0000 </r>
       <r>    5.1187    1.0000 </r>
       <r>    5.1324    1.0000 </r>
       <r>    5.1324    1.0000 </r>
       <r>    5.1324    1.0000 </r>
       <r>    5.1324    1.0000 </r>
       <r>    5.2352    1.0000 </r>
       <r>    5.2352    1.0000 </r>
       <r>    5.5965    1.0000 </r>
       <r>    5.5965    1.0000 </r>
       <r>    5.5984    1.0000 </r>
       <r>    5.5984    1.0000 </r>
       <r>    6.8497    0.0563 </r>
       <r>    6.8497    0.0563 </r>
       <r>    7.7661   -0.0000 </r>
       <r>    7.7661   -0.0000 </r>
       <r>    8.2870   -0.0000 </r>
       <r>    8.2870   -0.0000 </r>
       <r>    8.3308   -0.0000 </r>
       <r>    8.3308   -0.0000 </r>
       <r>    8.3422   -0.0000 </r>
       <r>    8.3422   -0.0000 </r>
       <r>    8.3862   -0.0000 </r>
       <r>    8.3862   -0.0000 </r>
       <r>    8.4069   -0.0000 </r>
       <r>    8.4069   -0.0000 </r>
       <r>    8.8747   -0.0000 </r>
       <r>    8.8747   -0.0000 </r>
       <r>    8.8747   -0.0000 </r>
[...]
      </set>
     </set>
    </set>
   </array>
  </eigenvalues>
  <separator name="orbital magnetization" >
   <v name="MAGDIPOLOUT">      0.00000000      0.00000000      0.00000000</v>
  </separator>
  <dos>
   <i name="efermi">      6.71845292 </i>
   <total>
    <array>
     <dimension dim="1">gridpoints</dimension>
     <dimension dim="2">spin</dimension>
     <field>energy</field>
     <field>total</field>
     <field>integrated</field>
     <set>
      <set comment="spin 1">
       <r>    -7.9744     0.0000     0.0000 </r>
       <r>    -7.9078     0.0000     0.0000 </r>
       <r>    -7.8413     0.0000     0.0000 </r>
       <r>    -7.7747     0.0000     0.0000 </r>
       <r>    -7.7082     0.0000     0.0000 </r>
       <r>    -7.6416     0.0000     0.0000 </r>
       <r>    -7.5750    -0.0000    -0.0000 </r>
       <r>    -7.5085    -0.0000    -0.0000 </r>
       <r>    -7.4419    -0.0000    -0.0000 </r>
       <r>    -7.3754    -0.0000    -0.0000 </r>
       <r>    -7.3088    -0.0000    -0.0000 </r>
       <r>    -7.2422    -0.0000    -0.0000 </r>
       <r>    -7.1757    -0.0000    -0.0000 </r>
       <r>    -7.1091    -0.0000    -0.0000 </r>
       <r>    -7.0426    -0.0000    -0.0000 </r>
       <r>    -6.9760    -0.0000    -0.0000 </r>
       <r>    -6.9094    -0.0000    -0.0000 </r>
       <r>    -6.8429    -0.0000    -0.0000 </r>
       <r>    -6.7763    -0.0000    -0.0000 </r>
       <r>    -6.7098    -0.0000    -0.0000 </r>
       <r>    -6.6432    -0.0000    -0.0000 </r>
       <r>    -6.5766    -0.0003    -0.0000 </r>
       <r>    -6.5101    -0.0016    -0.0001 </r>
       <r>    -6.4435    -0.0066    -0.0006 </r>
       <r>    -6.3770    -0.0205    -0.0019 </r>
       <r>    -6.3104    -0.0450    -0.0049 </r>
       <r>    -6.2438    -0.0582    -0.0088 </r>
       <r>    -6.1773     0.0018    -0.0087 </r>
       <r>    -6.1107     0.1906     0.0040 </r>
       <r>    -6.0442     0.4530     0.0342 </r>
       <r>    -5.9776     0.6498     0.0774 </r>
       <r>    -5.9110     0.8618     0.1348 </r>
       <r>    -5.8445     1.5679     0.2391 </r>
       <r>    -5.7779     3.0856     0.4445 </r>
       <r>    -5.7114     4.7985     0.7639 </r>
       <r>    -5.6448     5.7002     1.1433 </r>
       <r>    -5.5782     6.0403     1.5453 </r>
       <r>    -5.5117     7.3409     2.0340 </r>
       <r>    -5.4451     9.9490     2.6962 </r>
       <r>    -5.3786    11.8347     3.4839 </r>
       <r>    -5.3120    11.2127     4.2302 </r>
       <r>    -5.2454     9.1657     4.8403 </r>
       <r>    -5.1789     7.9327     5.3683 </r>
       <r>    -5.1123     7.6665     5.8786 </r>
       <r>    -5.0458     6.8786     6.3364 </r>
       <r>    -4.9792     5.2897     6.6885 </r>
       <r>    -4.9126     4.1496     6.9647 </r>
       <r>    -4.8461     4.1868     7.2434 </r>
       <r>    -4.7795     5.3779     7.6013 </r>
       <r>    -4.7130     8.5468     8.1702 </r>
       <r>    -4.6464    14.5411     9.1380 </r>
       <r>    -4.5798    21.3731    10.5606 </r>
       <r>    -4.5133    25.3138    12.2455 </r>
       <r>    -4.4467    25.8316    13.9649 </r>
       <r>    -4.3802    25.8428    15.6850 </r>
       <r>    -4.3136    25.9728    17.4137 </r>
       <r>    -4.2470    22.9291    18.9399 </r>
       <r>    -4.1805    15.1143    19.9459 </r>
       <r>    -4.1139     5.8577    20.3358 </r>
       <r>    -4.0474    -0.3226    20.3143 </r>
       <r>    -3.9808    -1.6220    20.2064 </r>
       <r>    -3.9142     1.5634    20.3104 </r>
       <r>    -3.8477     8.3601    20.8669 </r>
       <r>    -3.7811    17.3716    22.0231 </r>
       <r>    -3.7146    25.9234    23.7486 </r>
       <r>    -3.6480    30.5004    25.7787 </r>
       <r>    -3.5814    28.9344    27.7046 </r>
       <r>    -3.5149    22.5967    29.2086 </r>
       <r>    -3.4483    15.7613    30.2577 </r>
       <r>    -3.3818    12.6871    31.1022 </r>
       <r>    -3.3152    15.5096    32.1345 </r>
       <r>    -3.2486    23.3817    33.6908 </r>
       <r>    -3.1821    32.4830    35.8528 </r>
       <r>    -3.1155    38.3153    38.4031 </r>
       <r>    -3.0490    39.1542    41.0092 </r>
       <r>    -2.9824    36.6435    43.4482 </r>
       <r>    -2.9158    32.9541    45.6416 </r>
       <r>    -2.8493    28.8513    47.5620 </r>
       <r>    -2.7827    25.2490    49.2426 </r>
       <r>    -2.7161    24.0516    50.8434 </r>
       <r>    -2.6496    24.9260    52.5025 </r>
       <r>    -2.5830    23.7869    54.0858 </r>
       <r>    -2.5165    17.6213    55.2587 </r>
       <r>    -2.4499     8.7085    55.8383 </r>
       <r>    -2.3833     1.6862    55.9505 </r>
       <r>    -2.3168    -1.4898    55.8514 </r>
       <r>    -2.2502    -1.9008    55.7248 </r>
       <r>    -2.1837    -0.7360    55.6759 </r>
       <r>    -2.1171     2.1213    55.8170 </r>
       <r>    -2.0505     6.6577    56.2602 </r>
       <r>    -1.9840    10.9251    56.9874 </r>
       <r>    -1.9174    11.8892    57.7787 </r>
       <r>    -1.8509     8.5382    58.3470 </r>
       <r>    -1.7843     3.4258    58.5750 </r>
       <r>    -1.7177     0.8714    58.6330 </r>
       <r>    -1.6512     4.1918    58.9120 </r>
       <r>    -1.5846    13.8617    59.8347 </r>
       <r>    -1.5181    26.4494    61.5951 </r>
       <r>    -1.4515    35.4861    63.9571 </r>
       <r>    -1.3849    35.5645    66.3243 </r>
       <r>    -1.3184    26.6869    68.1006 </r>
       <r>    -1.2518    14.1858    69.0448 </r>
       <r>    -1.1853     4.4831    69.3432 </r>
       <r>    -1.1187     1.2056    69.4234 </r>
       <r>    -1.0521     4.1031    69.6965 </r>
       <r>    -0.9856     9.7734    70.3471 </r>
       <r>    -0.9190    13.5992    71.2522 </r>
       <r>    -0.8525    13.1671    72.1286 </r>
       <r>    -0.7859    10.8370    72.8499 </r>
       <r>    -0.7193    11.5762    73.6205 </r>
       <r>    -0.6528    16.8670    74.7431 </r>
       <r>    -0.5862    21.7866    76.1932 </r>
       <r>    -0.5197    20.4222    77.5525 </r>
       <r>    -0.4531    14.2178    78.4989 </r>
       <r>    -0.3865    12.4688    79.3288 </r>
       <r>    -0.3200    23.0622    80.8638 </r>
       <r>    -0.2534    43.2915    83.7453 </r>
       <r>    -0.1869    60.6260    87.7806 </r>
       <r>    -0.1203    63.0105    91.9746 </r>
       <r>    -0.0537    48.7505    95.2194 </r>
       <r>     0.0128    26.7237    96.9981 </r>
       <r>     0.0794     8.0241    97.5322 </r>
       <r>     0.1459    -1.5133    97.4315 </r>
       <r>     0.2125    -1.7014    97.3183 </r>
       <r>     0.2791     5.2509    97.6678 </r>
       <r>     0.3456    15.5821    98.7049 </r>
       <r>     0.4122    23.4993   100.2690 </r>
       <r>     0.4787    24.2060   101.8802 </r>
       <r>     0.5453    18.2760   103.0966 </r>
       <r>     0.6119    10.7910   103.8149 </r>
       <r>     0.6784     6.3749   104.2392 </r>
       <r>     0.7450     6.9366   104.7009 </r>
       <r>     0.8115    12.6644   105.5438 </r>
       <r>     0.8781    21.8968   107.0013 </r>
       <r>     0.9447    30.0869   109.0039 </r>
       <r>     1.0112    31.7326   111.1160 </r>
       <r>     1.0778    25.0175   112.7812 </r>
       <r>     1.1443    13.8522   113.7032 </r>
       <r>     1.2109     4.2967   113.9892 </r>
       <r>     1.2775    -0.5487   113.9526 </r>
       <r>     1.3440    -1.6376   113.8436 </r>
       <r>     1.4106    -1.3946   113.7508 </r>
       <r>     1.4771    -1.3726   113.6594 </r>
       <r>     1.5437    -1.6269   113.5512 </r>
       <r>     1.6103    -0.7490   113.5013 </r>
       <r>     1.6768     3.6362   113.7433 </r>
       <r>     1.7434    12.8469   114.5984 </r>
       <r>     1.8099    24.4201   116.2238 </r>
       <r>     1.8765    32.6065   118.3941 </r>
       <r>     1.9431    33.7093   120.6378 </r>
       <r>     2.0096    30.2988   122.6545 </r>
       <r>     2.0762    27.7921   124.5043 </r>
       <r>     2.1427    27.9381   126.3639 </r>
       <r>     2.2093    28.6718   128.2723 </r>
       <r>     2.2759    28.6760   130.1810 </r>
       <r>     2.3424    27.9794   132.0433 </r>
       <r>     2.4090    25.3832   133.7328 </r>
       <r>     2.4755    20.0581   135.0679 </r>
       <r>     2.5421    16.1624   136.1436 </r>
       <r>     2.6087    21.9974   137.6078 </r>
       <r>     2.6752    41.7456   140.3864 </r>
       <r>     2.7418    68.2083   144.9263 </r>
       <r>     2.8083    85.5720   150.6220 </r>
       <r>     2.8749    81.7182   156.0612 </r>
       <r>     2.9415    58.7403   159.9710 </r>
       <r>     3.0080    30.3009   161.9878 </r>
       <r>     3.0746     9.0065   162.5873 </r>
       <r>     3.1411    -1.7806   162.4687 </r>
       <r>     3.2077    -5.0761   162.1309 </r>
       <r>     3.2743    -3.1800   161.9192 </r>
       <r>     3.3408     5.1424   162.2615 </r>
       <r>     3.4074    21.2729   163.6774 </r>
       <r>     3.4739    41.7794   166.4583 </r>
       <r>     3.5405    58.9734   170.3835 </r>
       <r>     3.6071    67.5194   174.8776 </r>
       <r>     3.6736    68.4504   179.4337 </r>
       <r>     3.7402    65.5938   183.7996 </r>
       <r>     3.8067    60.5826   187.8320 </r>
       <r>     3.8733    52.9993   191.3597 </r>
       <r>     3.9399    44.3019   194.3084 </r>
       <r>     4.0064    39.4829   196.9364 </r>
       <r>     4.0730    41.9059   199.7257 </r>
       <r>     4.1395    46.5818   202.8261 </r>
       <r>     4.2061    43.7933   205.7410 </r>
       <r>     4.2727    31.3195   207.8257 </r>
       <r>     4.3392    18.2142   209.0380 </r>
       <r>     4.4058    14.4763   210.0015 </r>
       <r>     4.4723    20.8587   211.3899 </r>
       <r>     4.5389    30.3731   213.4115 </r>
       <r>     4.6055    36.7532   215.8578 </r>
       <r>     4.6720    39.1160   218.4614 </r>
       <r>     4.7386    39.4625   221.0880 </r>
       <r>     4.8051    38.9260   223.6789 </r>
       <r>     4.8717    38.1541   226.2185 </r>
       <r>     4.9383    38.9434   228.8106 </r>
       <r>     5.0048    42.8146   231.6603 </r>
       <r>     5.0714    48.4538   234.8854 </r>
       <r>     5.1379    51.4950   238.3129 </r>
       <r>     5.2045    47.1728   241.4527 </r>
       <r>     5.2711    34.4743   243.7474 </r>
       <r>     5.3376    18.1970   244.9586 </r>
       <r>     5.4042     6.0019   245.3580 </r>
       <r>     5.4707     3.1311   245.5664 </r>
       <r>     5.5373     9.4109   246.1928 </r>
       <r>     5.6039    19.5307   247.4928 </r>
       <r>     5.6704    26.0335   249.2256 </r>
       <r>     5.7370    24.2959   250.8427 </r>
       <r>     5.8035    15.8436   251.8973 </r>
       <r>     5.8701     6.3031   252.3168 </r>
       <r>     5.9367     0.4115   252.3442 </r>
       <r>     6.0032    -0.3971   252.3178 </r>
       <r>     6.0698     2.9140   252.5117 </r>
       <r>     6.1363     7.9976   253.0441 </r>
       <r>     6.2029    11.6192   253.8174 </r>
       <r>     6.2695    11.4710   254.5809 </r>
       <r>     6.3360     8.2339   255.1290 </r>
       <r>     6.4026     4.7267   255.4436 </r>
       <r>     6.4691     2.8073   255.6305 </r>
       <r>     6.5357     2.0441   255.7665 </r>
       <r>     6.6023     1.3571   255.8568 </r>
       <r>     6.6688     0.9071   255.9172 </r>
       <r>     6.7354     1.9737   256.0486 </r>
       <r>     6.8019     5.2370   256.3972 </r>
       <r>     6.8685     9.3574   257.0200 </r>
       <r>     6.9351    11.5812   257.7908 </r>
       <r>     7.0016    10.1703   258.4678 </r>
       <r>     7.0682     6.0328   258.8693 </r>
       <r>     7.1347     1.6995   258.9824 </r>
       <r>     7.2013    -0.6701   258.9378 </r>
       <r>     7.2679     0.1383   258.9470 </r>
       <r>     7.3344     4.5162   259.2476 </r>
       <r>     7.4010    11.0531   259.9833 </r>
       <r>     7.4675    15.9855   261.0473 </r>
       <r>     7.5341    16.0803   262.1176 </r>
       <r>     7.6007    12.9653   262.9806 </r>
       <r>     7.6672    12.5656   263.8170 </r>
       <r>     7.7338    18.3823   265.0405 </r>
       <r>     7.8003    26.3192   266.7923 </r>
       <r>     7.8669    28.3127   268.6768 </r>
       <r>     7.9335    21.0790   270.0798 </r>
       <r>     8.0000     9.6583   270.7227 </r>
       <r>     8.0666     2.7960   270.9088 </r>
       <r>     8.1331     6.6728   271.3529 </r>
       <r>     8.1997    21.4965   272.7837 </r>
       <r>     8.2663    40.3054   275.4665 </r>
       <r>     8.3328    51.6070   278.9014 </r>
       <r>     8.3994    47.7820   282.0818 </r>
       <r>     8.4659    32.6380   284.2542 </r>
       <r>     8.5325    18.6038   285.4925 </r>
       <r>     8.5991    15.6370   286.5333 </r>
       <r>     8.6656    24.3027   288.1509 </r>
       <r>     8.7322    39.6289   290.7886 </r>
       <r>     8.7988    57.8081   294.6363 </r>
       <r>     8.8653    75.1582   299.6388 </r>
       <r>     8.9319    83.6378   305.2058 </r>
       <r>     8.9984    75.3191   310.2190 </r>
       <r>     9.0650    52.6091   313.7207 </r>
       <r>     9.1316    28.2694   315.6023 </r>
       <r>     9.1981    13.5484   316.5041 </r>
       <r>     9.2647     9.9484   317.1662 </r>
       <r>     9.3312    12.7515   318.0150 </r>
       <r>     9.3978    17.5373   319.1823 </r>
       <r>     9.4644    21.1613   320.5908 </r>
       <r>     9.5309    20.6956   321.9683 </r>
       <r>     9.5975    15.3134   322.9875 </r>
       <r>     9.6640     7.7968   323.5065 </r>
       <r>     9.7306     2.0044   323.6399 </r>
       <r>     9.7972    -0.4218   323.6118 </r>
       <r>     9.8637    -0.2781   323.5933 </r>
       <r>     9.9303     0.8685   323.6511 </r>
       <r>     9.9968     1.7836   323.7698 </r>
       <r>    10.0634     1.8789   323.8949 </r>
       <r>    10.1300     1.2738   323.9797 </r>
       <r>    10.1965     0.5155   324.0140 </r>
       <r>    10.2631     0.0379   324.0165 </r>
       <r>    10.3296    -0.1073   324.0094 </r>
       <r>    10.3962    -0.0860   324.0036 </r>
       <r>    10.4628    -0.0389   324.0011 </r>
       <r>    10.5293    -0.0123   324.0002 </r>
       <r>    10.5959    -0.0029   324.0000 </r>
       <r>    10.6624    -0.0005   324.0000 </r>
       <r>    10.7290    -0.0001   324.0000 </r>
       <r>    10.7956    -0.0000   324.0000 </r>
       <r>    10.8621    -0.0000   324.0000 </r>
       <r>    10.9287    -0.0000   324.0000 </r>
       <r>    10.9952    -0.0000   324.0000 </r>
       <r>    11.0618    -0.0000   324.0000 </r>
       <r>    11.1284    -0.0000   324.0000 </r>
       <r>    11.1949    -0.0000   324.0000 </r>
       <r>    11.2615    -0.0000   324.0000 </r>
       <r>    11.3280     0.0000   324.0000 </r>
       <r>    11.3946     0.0000   324.0000 </r>
       <r>    11.4612     0.0000   324.0000 </r>
       <r>    11.5277     0.0000   324.0000 </r>
       <r>    11.5943     0.0000   324.0000 </r>
       <r>    11.6608     0.0000   324.0000 </r>
       <r>    11.7274     0.0000   324.0000 </r>
       <r>    11.7940     0.0000   324.0000 </r>
       <r>    11.8605     0.0000   324.0000 </r>
       <r>    11.9271     0.0000   324.0000 </r>
       <r>    11.9936     0.0000   324.0000 </r>
      </set>
     </set>
    </array>
   </total>
  </dos>
 </calculation>
 <structure name="finalpos" >
  <crystal>
   <varray name="basis" >
    <v>      10.58568056      -0.02659700       0.00000000 </v>
    <v>      -0.02659700      10.63887557       0.00000000 </v>
    <v>       0.00000000       0.00000000      10.63887557 </v>
   </varray>
   <i name="volume">   1198.13985720 </i>
   <varray name="rec_basis" >
    <v>       0.09446783       0.00023617       0.00000000 </v>
    <v>       0.00023617       0.09399549       0.00000000 </v>
    <v>       0.00000000       0.00000000       0.09399490 </v>
   </varray>
  </crystal>
  <varray name="positions" >
   <v>       0.00000000       0.00000000       0.99979719 </v>
   <v>       0.00000000       0.00000000       0.49979719 </v>
   <v>       0.00000000       0.50000000       0.99979719 </v>
   <v>       0.00000000       0.50000000       0.49979719 </v>
   <v>       0.50000000       0.00000000       0.99979719 </v>
   <v>       0.50000000       0.00000000       0.49979719 </v>
   <v>       0.50000000       0.50000000       0.99979719 </v>
   <v>       0.50000000       0.50000000       0.49979719 </v>
   <v>       0.37500000       0.37500000       0.12520281 </v>
   <v>       0.37500000       0.37500000       0.62520281 </v>
   <v>       0.37500000       0.87500000       0.12520281 </v>
   <v>       0.37500000       0.87500000       0.62520281 </v>
   <v>       0.87500000       0.37500000       0.12520281 </v>
   <v>       0.87500000       0.37500000       0.62520281 </v>
   <v>       0.87500000       0.87500000       0.12520281 </v>
   <v>       0.87500000       0.87500000       0.62520281 </v>
   <v>       0.00000000       0.25000000       0.24979719 </v>
   <v>       0.00000000       0.25000000       0.74979719 </v>
   <v>       0.00000000       0.75000000       0.24979719 </v>
   <v>       0.00000000       0.75000000       0.74979719 </v>
   <v>       0.50000000       0.25000000       0.24979719 </v>
   <v>       0.50000000       0.25000000       0.74979719 </v>
   <v>       0.50000000       0.75000000       0.24979719 </v>
   <v>       0.50000000       0.75000000       0.74979719 </v>
   <v>       0.37500000       0.12500000       0.37520281 </v>
   <v>       0.37500000       0.12500000       0.87520281 </v>
   <v>       0.37500000       0.62500000       0.37520281 </v>
   <v>       0.37500000       0.62500000       0.87520281 </v>
   <v>       0.87500000       0.12500000       0.37520281 </v>
   <v>       0.87500000       0.12500000       0.87520281 </v>
   <v>       0.87500000       0.62500000       0.37520281 </v>
   <v>       0.87500000       0.62500000       0.87520281 </v>
   <v>       0.25000000       0.00000000       0.24979719 </v>
   <v>       0.25000000       0.00000000       0.74979719 </v>
   <v>       0.25000000       0.50000000       0.24979719 </v>
   <v>       0.25000000       0.50000000       0.74979719 </v>
   <v>       0.75000000       0.00000000       0.24979719 </v>
   <v>       0.75000000       0.00000000       0.74979719 </v>
   <v>       0.75000000       0.50000000       0.24979719 </v>
   <v>       0.75000000       0.50000000       0.74979719 </v>
   <v>       0.12500000       0.37500000       0.37520281 </v>
   <v>       0.12500000       0.37500000       0.87520281 </v>
   <v>       0.12500000       0.87500000       0.37520281 </v>
   <v>       0.12500000       0.87500000       0.87520281 </v>
   <v>       0.62500000       0.37500000       0.37520281 </v>
   <v>       0.62500000       0.37500000       0.87520281 </v>
   <v>       0.62500000       0.87500000       0.37520281 </v>
   <v>       0.62500000       0.87500000       0.87520281 </v>
   <v>       0.25000000       0.25000000       0.99979719 </v>
   <v>       0.25000000       0.25000000       0.49979719 </v>
   <v>       0.25000000       0.75000000       0.99979719 </v>
   <v>       0.25000000       0.75000000       0.49979719 </v>
   <v>       0.75000000       0.25000000       0.99979719 </v>
   <v>       0.75000000       0.25000000       0.49979719 </v>
   <v>       0.75000000       0.75000000       0.99979719 </v>
   <v>       0.75000000       0.75000000       0.49979719 </v>
   <v>       0.12500000       0.12500000       0.12520281 </v>
   <v>       0.12500000       0.12500000       0.62520281 </v>
   <v>       0.12500000       0.62500000       0.12520281 </v>
   <v>       0.12500000       0.62500000       0.62520281 </v>
   <v>       0.62500000       0.12500000       0.12520281 </v>
   <v>       0.62500000       0.12500000       0.62520281 </v>
   <v>       0.62500000       0.62500000       0.12520281 </v>
   <v>       0.62500000       0.62500000       0.62520281 </v>
  </varray>
 </structure>
</modeling>
