Si64                                    
           1
    10.585681   -0.026597    0.000000
    -0.026597   10.638876    0.000000
     0.000000    0.000000   10.638876
   Si
    64
Direct configuration=     1
   0.00000000  0.00000000  0.00000000
   0.00000000  0.00000000  0.50000000
   0.00000000  0.50000000  0.00000000
   0.00000000  0.50000000  0.50000000
   0.50000000  0.00000000  0.00000000
   0.50000000  0.00000000  0.50000000
   0.50000000  0.50000000  0.00000000
   0.50000000  0.50000000  0.50000000
   0.37500000  0.37500000  0.12500000
   0.37500000  0.37500000  0.62500000
   0.37500000  0.87500000  0.12500000
   0.37500000  0.87500000  0.62500000
   0.87500000  0.37500000  0.12500000
   0.87500000  0.37500000  0.62500000
   0.87500000  0.87500000  0.12500000
   0.87500000  0.87500000  0.62500000
   0.00000000  0.25000000  0.25000000
   0.00000000  0.25000000  0.75000000
   0.00000000  0.75000000  0.25000000
   0.00000000  0.75000000  0.75000000
   0.50000000  0.25000000  0.25000000
   0.50000000  0.25000000  0.75000000
   0.50000000  0.75000000  0.25000000
   0.50000000  0.75000000  0.75000000
   0.37500000  0.12500000  0.37500000
   0.37500000  0.12500000  0.87500000
   0.37500000  0.62500000  0.37500000
   0.37500000  0.62500000  0.87500000
   0.87500000  0.12500000  0.37500000
   0.87500000  0.12500000  0.87500000
   0.87500000  0.62500000  0.37500000
   0.87500000  0.62500000  0.87500000
   0.25000000  0.00000000  0.25000000
   0.25000000  0.00000000  0.75000000
   0.25000000  0.50000000  0.25000000
   0.25000000  0.50000000  0.75000000
   0.75000000  0.00000000  0.25000000
   0.75000000  0.00000000  0.75000000
   0.75000000  0.50000000  0.25000000
   0.75000000  0.50000000  0.75000000
   0.12500000  0.37500000  0.37500000
   0.12500000  0.37500000  0.87500000
   0.12500000  0.87500000  0.37500000
   0.12500000  0.87500000  0.87500000
   0.62500000  0.37500000  0.37500000
   0.62500000  0.37500000  0.87500000
   0.62500000  0.87500000  0.37500000
   0.62500000  0.87500000  0.87500000
   0.25000000  0.25000000  0.00000000
   0.25000000  0.25000000  0.50000000
   0.25000000  0.75000000  0.00000000
   0.25000000  0.75000000  0.50000000
   0.75000000  0.25000000  0.00000000
   0.75000000  0.25000000  0.50000000
   0.75000000  0.75000000  0.00000000
   0.75000000  0.75000000  0.50000000
   0.12500000  0.12500000  0.12500000
   0.12500000  0.12500000  0.62500000
   0.12500000  0.62500000  0.12500000
   0.12500000  0.62500000  0.62500000
   0.62500000  0.12500000  0.12500000
   0.62500000  0.12500000  0.62500000
   0.62500000  0.62500000  0.12500000
   0.62500000  0.62500000  0.62500000
Direct configuration=     2
   0.00000000  1.00000000  0.99970068
   0.00000000  1.00000000  0.49970068
   1.00000000  0.50000000  0.99970068
   1.00000000  0.50000000  0.49970068
   0.50000000  1.00000000  0.99970068
   0.50000000  1.00000000  0.49970068
   0.50000000  0.50000000  0.99970068
   0.50000000  0.50000000  0.49970068
   0.37500000  0.37500000  0.12529932
   0.37500000  0.37500000  0.62529932
   0.37500000  0.87500000  0.12529932
   0.37500000  0.87500000  0.62529932
   0.87500000  0.37500000  0.12529932
   0.87500000  0.37500000  0.62529932
   0.87500000  0.87500000  0.12529932
   0.87500000  0.87500000  0.62529932
   1.00000000  0.25000000  0.24970068
   0.00000000  0.25000000  0.74970068
   1.00000000  0.75000000  0.24970068
   0.00000000  0.75000000  0.74970068
   0.50000000  0.25000000  0.24970068
   0.50000000  0.25000000  0.74970068
   0.50000000  0.75000000  0.24970068
   0.50000000  0.75000000  0.74970068
   0.37500000  0.12500000  0.37529932
   0.37500000  0.12500000  0.87529932
   0.37500000  0.62500000  0.37529932
   0.37500000  0.62500000  0.87529932
   0.87500000  0.12500000  0.37529932
   0.87500000  0.12500000  0.87529932
   0.87500000  0.62500000  0.37529932
   0.87500000  0.62500000  0.87529932
   0.25000000  1.00000000  0.24970068
   0.25000000  1.00000000  0.74970068
   0.25000000  0.50000000  0.24970068
   0.25000000  0.50000000  0.74970068
   0.75000000  1.00000000  0.24970068
   0.75000000  1.00000000  0.74970068
   0.75000000  0.50000000  0.24970068
   0.75000000  0.50000000  0.74970068
   0.12500000  0.37500000  0.37529932
   0.12500000  0.37500000  0.87529932
   0.12500000  0.87500000  0.37529932
   0.12500000  0.87500000  0.87529932
   0.62500000  0.37500000  0.37529932
   0.62500000  0.37500000  0.87529932
   0.62500000  0.87500000  0.37529932
   0.62500000  0.87500000  0.87529932
   0.25000000  0.25000000  0.99970068
   0.25000000  0.25000000  0.49970068
   0.25000000  0.75000000  0.99970068
   0.25000000  0.75000000  0.49970068
   0.75000000  0.25000000  0.99970068
   0.75000000  0.25000000  0.49970068
   0.75000000  0.75000000  0.99970068
   0.75000000  0.75000000  0.49970068
   0.12500000  0.12500000  0.12529932
   0.12500000  0.12500000  0.62529932
   0.12500000  0.62500000  0.12529932
   0.12500000  0.62500000  0.62529932
   0.62500000  0.12500000  0.12529932
   0.62500000  0.12500000  0.62529932
   0.62500000  0.62500000  0.12529932
   0.62500000  0.62500000  0.62529932
Direct configuration=     3
   0.00000000  0.00000000  0.99979719
   0.00000000  0.00000000  0.49979719
   0.00000000  0.50000000  0.99979719
   0.00000000  0.50000000  0.49979719
   0.50000000  0.00000000  0.99979719
   0.50000000  0.00000000  0.49979719
   0.50000000  0.50000000  0.99979719
   0.50000000  0.50000000  0.49979719
   0.37500000  0.37500000  0.12520281
   0.37500000  0.37500000  0.62520281
   0.37500000  0.87500000  0.12520281
   0.37500000  0.87500000  0.62520281
   0.87500000  0.37500000  0.12520281
   0.87500000  0.37500000  0.62520281
   0.87500000  0.87500000  0.12520281
   0.87500000  0.87500000  0.62520281
   0.00000000  0.25000000  0.24979719
   0.00000000  0.25000000  0.74979719
   0.00000000  0.75000000  0.24979719
   0.00000000  0.75000000  0.74979719
   0.50000000  0.25000000  0.24979719
   0.50000000  0.25000000  0.74979719
   0.50000000  0.75000000  0.24979719
   0.50000000  0.75000000  0.74979719
   0.37500000  0.12500000  0.37520281
   0.37500000  0.12500000  0.87520281
   0.37500000  0.62500000  0.37520281
   0.37500000  0.62500000  0.87520281
   0.87500000  0.12500000  0.37520281
   0.87500000  0.12500000  0.87520281
   0.87500000  0.62500000  0.37520281
   0.87500000  0.62500000  0.87520281
   0.25000000  0.00000000  0.24979719
   0.25000000  0.00000000  0.74979719
   0.25000000  0.50000000  0.24979719
   0.25000000  0.50000000  0.74979719
   0.75000000  0.00000000  0.24979719
   0.75000000  0.00000000  0.74979719
   0.75000000  0.50000000  0.24979719
   0.75000000  0.50000000  0.74979719
   0.12500000  0.37500000  0.37520281
   0.12500000  0.37500000  0.87520281
   0.12500000  0.87500000  0.37520281
   0.12500000  0.87500000  0.87520281
   0.62500000  0.37500000  0.37520281
   0.62500000  0.37500000  0.87520281
   0.62500000  0.87500000  0.37520281
   0.62500000  0.87500000  0.87520281
   0.25000000  0.25000000  0.99979719
   0.25000000  0.25000000  0.49979719
   0.25000000  0.75000000  0.99979719
   0.25000000  0.75000000  0.49979719
   0.75000000  0.25000000  0.99979719
   0.75000000  0.25000000  0.49979719
   0.75000000  0.75000000  0.99979719
   0.75000000  0.75000000  0.49979719
   0.12500000  0.12500000  0.12520281
   0.12500000  0.12500000  0.62520281
   0.12500000  0.62500000  0.12520281
   0.12500000  0.62500000  0.62520281
   0.62500000  0.12500000  0.12520281
   0.62500000  0.12500000  0.62520281
   0.62500000  0.62500000  0.12520281
   0.62500000  0.62500000  0.62520281
