  64  64   0   0
  0.1853184E+02  0.1047960E-08  0.1063917E-08  0.1063888E-08  0.5000000E-15
  1.000000000000000E-004
  CAR 
 Si64                                    
     12.09625127     -7.93947667  301      6.78877870      1.00000000
     -7.939  0.0000E+00  0.0000E+00
     -7.873  0.0000E+00  0.0000E+00
     -7.806  0.0000E+00  0.0000E+00
     -7.739  0.0000E+00  0.0000E+00
     -7.672  0.0000E+00  0.0000E+00
     -7.606 -0.1068E-30 -0.7129E-32
     -7.539 -0.2379E-28 -0.1596E-29
     -7.472 -0.4249E-26 -0.2854E-27
     -7.405 -0.6059E-24 -0.4075E-25
     -7.338 -0.6896E-22 -0.4646E-23
     -7.272 -0.6262E-20 -0.4229E-21
     -7.205 -0.4536E-18 -0.3071E-19
     -7.138 -0.2619E-16 -0.1780E-17
     -7.071 -0.1167E-14 -0.7974E-16
     -7.004 -0.4264E-13 -0.2927E-14
     -6.938 -0.1237E-11 -0.8557E-13
     -6.871 -0.2852E-10 -0.1990E-11
     -6.804 -0.5210E-09 -0.3679E-10
     -6.737 -0.7531E-08 -0.5398E-09
     -6.671 -0.8588E-07 -0.6276E-08
     -6.604 -0.7695E-06 -0.5767E-07
     -6.537 -0.5385E-05 -0.4173E-06
     -6.470 -0.2917E-04 -0.2366E-05
     -6.403 -0.1205E-03 -0.1041E-04
     -6.337 -0.3686E-03 -0.3503E-04
     -6.270 -0.7847E-03 -0.8744E-04
     -6.203 -0.9432E-03 -0.1504E-03
     -6.136  0.2441E-03 -0.1341E-03
     -6.069  0.3628E-02  0.1082E-03
     -6.003  0.8040E-02  0.6451E-03
     -5.936  0.1111E-01  0.1387E-02
     -5.869  0.1470E-01  0.2369E-02
     -5.802  0.2732E-01  0.4194E-02
     -5.736  0.5357E-01  0.7771E-02
     -5.669  0.8173E-01  0.1323E-01
     -5.602  0.9510E-01  0.1958E-01
     -5.535  0.9997E-01  0.2626E-01
     -5.468  0.1228E+00  0.3446E-01
     -5.402  0.1672E+00  0.4562E-01
     -5.335  0.1972E+00  0.5879E-01
     -5.268  0.1842E+00  0.7110E-01
     -5.201  0.1493E+00  0.8107E-01
     -5.134  0.1299E+00  0.8975E-01
     -5.068  0.1266E+00  0.9821E-01
     -5.001  0.1136E+00  0.1058E+00
     -4.934  0.8711E-01  0.1116E+00
     -4.867  0.6853E-01  0.1162E+00
     -4.801  0.6963E-01  0.1208E+00
     -4.734  0.8936E-01  0.1268E+00
     -4.667  0.1411E+00  0.1362E+00
     -4.600  0.2393E+00  0.1522E+00
     -4.533  0.3520E+00  0.1757E+00
     -4.467  0.4175E+00  0.2036E+00
     -4.400  0.4256E+00  0.2320E+00
     -4.333  0.4241E+00  0.2604E+00
     -4.266  0.4267E+00  0.2889E+00
     -4.199  0.3810E+00  0.3143E+00
     -4.133  0.2575E+00  0.3315E+00
     -4.066  0.1061E+00  0.3386E+00
     -3.999  0.1018E-02  0.3386E+00
     -3.932 -0.2524E-01  0.3370E+00
     -3.866  0.2228E-01  0.3385E+00
     -3.799  0.1289E+00  0.3471E+00
     -3.732  0.2718E+00  0.3652E+00
     -3.665  0.4104E+00  0.3926E+00
     -3.598  0.4915E+00  0.4254E+00
     -3.532  0.4792E+00  0.4574E+00
     -3.465  0.3874E+00  0.4833E+00
     -3.398  0.2776E+00  0.5019E+00
     -3.331  0.2198E+00  0.5165E+00
     -3.264  0.2538E+00  0.5335E+00
     -3.198  0.3708E+00  0.5583E+00
     -3.131  0.5143E+00  0.5926E+00
     -3.064  0.6143E+00  0.6336E+00
     -2.997  0.6376E+00  0.6762E+00
     -2.931  0.6030E+00  0.7165E+00
     -2.864  0.5459E+00  0.7529E+00
     -2.797  0.4840E+00  0.7853E+00
     -2.730  0.4298E+00  0.8140E+00
     -2.663  0.4062E+00  0.8411E+00
     -2.597  0.4139E+00  0.8687E+00
     -2.530  0.4010E+00  0.8955E+00
     -2.463  0.3160E+00  0.9166E+00
     -2.396  0.1777E+00  0.9285E+00
     -2.329  0.5406E-01  0.9321E+00
     -2.263 -0.1261E-01  0.9313E+00
     -2.196 -0.2955E-01  0.9293E+00
     -2.129 -0.1724E-01  0.9281E+00
     -2.062  0.2090E-01  0.9295E+00
     -1.996  0.8713E-01  0.9354E+00
     -1.929  0.1600E+00  0.9460E+00
     -1.862  0.1939E+00  0.9590E+00
     -1.795  0.1606E+00  0.9697E+00
     -1.728  0.8521E-01  0.9754E+00
     -1.662  0.3249E-01  0.9776E+00
     -1.595  0.6076E-01  0.9816E+00
     -1.528  0.1866E+00  0.9941E+00
     -1.461  0.3707E+00  0.1019E+01
     -1.394  0.5285E+00  0.1054E+01
     -1.328  0.5747E+00  0.1093E+01
     -1.261  0.4824E+00  0.1125E+01
     -1.194  0.3037E+00  0.1145E+01
     -1.127  0.1325E+00  0.1154E+01
     -1.061  0.4478E-01  0.1157E+01
     -0.994  0.6026E-01  0.1161E+01
     -0.927  0.1389E+00  0.1170E+01
     -0.860  0.2086E+00  0.1184E+01
     -0.793  0.2198E+00  0.1199E+01
     -0.727  0.1926E+00  0.1212E+01
     -0.660  0.1996E+00  0.1225E+01
     -0.593  0.2768E+00  0.1243E+01
     -0.526  0.3595E+00  0.1267E+01
     -0.459  0.3477E+00  0.1291E+01
     -0.393  0.2447E+00  0.1307E+01
     -0.326  0.1897E+00  0.1320E+01
     -0.259  0.3253E+00  0.1341E+01
     -0.192  0.6392E+00  0.1384E+01
     -0.126  0.9491E+00  0.1447E+01
     -0.059  0.1048E+01  0.1517E+01
      0.008  0.8697E+00  0.1576E+01
      0.075  0.5280E+00  0.1611E+01
      0.142  0.2014E+00  0.1624E+01
      0.208  0.5719E-02  0.1625E+01
      0.275 -0.3904E-01  0.1622E+01
      0.342  0.3882E-01  0.1625E+01
      0.409  0.1921E+00  0.1637E+01
      0.476  0.3437E+00  0.1660E+01
      0.542  0.4056E+00  0.1687E+01
      0.609  0.3476E+00  0.1711E+01
      0.676  0.2252E+00  0.1726E+01
      0.743  0.1268E+00  0.1734E+01
      0.809  0.1116E+00  0.1742E+01
      0.876  0.1928E+00  0.1755E+01
      0.943  0.3387E+00  0.1777E+01
      1.010  0.4753E+00  0.1809E+01
      1.077  0.5185E+00  0.1844E+01
      1.143  0.4352E+00  0.1873E+01
      1.210  0.2715E+00  0.1891E+01
      1.277  0.1122E+00  0.1898E+01
      1.344  0.1424E-01  0.1899E+01
      1.411 -0.2133E-01  0.1898E+01
      1.477 -0.2585E-01  0.1896E+01
      1.544 -0.2665E-01  0.1894E+01
      1.611 -0.2722E-01  0.1892E+01
      1.678 -0.3313E-02  0.1892E+01
      1.744  0.8330E-01  0.1898E+01
      1.811  0.2445E+00  0.1914E+01
      1.878  0.4253E+00  0.1943E+01
      1.945  0.5272E+00  0.1978E+01
      2.012  0.5036E+00  0.2011E+01
      2.078  0.4210E+00  0.2039E+01
      2.145  0.3907E+00  0.2066E+01
      2.212  0.4457E+00  0.2095E+01
      2.279  0.5208E+00  0.2130E+01
      2.346  0.5444E+00  0.2166E+01
      2.412  0.5017E+00  0.2200E+01
      2.479  0.4140E+00  0.2228E+01
      2.546  0.3179E+00  0.2249E+01
      2.613  0.2850E+00  0.2268E+01
      2.679  0.4083E+00  0.2295E+01
      2.746  0.7158E+00  0.2343E+01
      2.813  0.1094E+01  0.2416E+01
      2.880  0.1333E+01  0.2505E+01
      2.947  0.1279E+01  0.2590E+01
      3.013  0.9576E+00  0.2654E+01
      3.080  0.5420E+00  0.2691E+01
      3.147  0.2077E+00  0.2704E+01
      3.214  0.1961E-01  0.2706E+01
      3.281 -0.5050E-01  0.2702E+01
      3.347 -0.3457E-01  0.2700E+01
      3.414  0.8351E-01  0.2706E+01
      3.481  0.3302E+00  0.2728E+01
      3.548  0.6629E+00  0.2772E+01
      3.614  0.9569E+00  0.2836E+01
      3.681  0.1104E+01  0.2910E+01
      3.748  0.1107E+01  0.2984E+01
      3.815  0.1046E+01  0.3053E+01
      3.882  0.9686E+00  0.3118E+01
      3.948  0.8661E+00  0.3176E+01
      4.015  0.7494E+00  0.3226E+01
      4.082  0.6819E+00  0.3271E+01
      4.149  0.7004E+00  0.3318E+01
      4.216  0.7438E+00  0.3368E+01
      4.282  0.7066E+00  0.3415E+01
      4.349  0.5599E+00  0.3453E+01
      4.416  0.3875E+00  0.3478E+01
      4.483  0.3016E+00  0.3499E+01
      4.549  0.3399E+00  0.3521E+01
      4.616  0.4519E+00  0.3551E+01
      4.683  0.5613E+00  0.3589E+01
      4.750  0.6239E+00  0.3631E+01
      4.817  0.6356E+00  0.3673E+01
      4.883  0.6203E+00  0.3714E+01
      4.950  0.6200E+00  0.3756E+01
      5.017  0.6658E+00  0.3800E+01
      5.084  0.7435E+00  0.3850E+01
      5.151  0.8034E+00  0.3904E+01
      5.217  0.8019E+00  0.3957E+01
      5.284  0.7216E+00  0.4005E+01
      5.351  0.5681E+00  0.4043E+01
      5.418  0.3758E+00  0.4068E+01
      5.484  0.2110E+00  0.4083E+01
      5.551  0.1405E+00  0.4092E+01
      5.618  0.1813E+00  0.4104E+01
      5.685  0.2806E+00  0.4123E+01
      5.752  0.3531E+00  0.4146E+01
      5.818  0.3456E+00  0.4169E+01
      5.885  0.2663E+00  0.4187E+01
      5.952  0.1607E+00  0.4198E+01
      6.019  0.7370E-01  0.4203E+01
      6.086  0.3399E-01  0.4205E+01
      6.152  0.5036E-01  0.4208E+01
      6.219  0.1051E+00  0.4215E+01
      6.286  0.1586E+00  0.4226E+01
      6.353  0.1756E+00  0.4238E+01
      6.419  0.1508E+00  0.4248E+01
      6.486  0.1055E+00  0.4255E+01
      6.553  0.6359E-01  0.4259E+01
      6.620  0.3553E-01  0.4262E+01
      6.687  0.2310E-01  0.4263E+01
      6.753  0.2868E-01  0.4265E+01
      6.820  0.5581E-01  0.4269E+01
      6.887  0.1006E+00  0.4275E+01
      6.954  0.1447E+00  0.4285E+01
      7.021  0.1627E+00  0.4296E+01
      7.087  0.1416E+00  0.4305E+01
      7.154  0.9229E-01  0.4312E+01
      7.221  0.4176E-01  0.4314E+01
      7.288  0.1689E-01  0.4316E+01
      7.354  0.3461E-01  0.4318E+01
      7.421  0.9350E-01  0.4324E+01
      7.488  0.1672E+00  0.4335E+01
      7.555  0.2167E+00  0.4350E+01
      7.622  0.2255E+00  0.4365E+01
      7.688  0.2219E+00  0.4380E+01
      7.755  0.2542E+00  0.4397E+01
      7.822  0.3321E+00  0.4419E+01
      7.889  0.4024E+00  0.4446E+01
      7.956  0.3981E+00  0.4472E+01
      8.022  0.3096E+00  0.4493E+01
      8.089  0.2003E+00  0.4506E+01
      8.156  0.1577E+00  0.4517E+01
      8.223  0.2292E+00  0.4532E+01
      8.289  0.3878E+00  0.4558E+01
      8.356  0.5544E+00  0.4595E+01
      8.423  0.6507E+00  0.4638E+01
      8.490  0.6376E+00  0.4681E+01
      8.557  0.5316E+00  0.4717E+01
      8.623  0.4078E+00  0.4744E+01
      8.690  0.3635E+00  0.4768E+01
      8.757  0.4510E+00  0.4798E+01
      8.824  0.6485E+00  0.4842E+01
      8.891  0.8889E+00  0.4901E+01
      8.957  0.1098E+01  0.4974E+01
      9.024  0.1207E+01  0.5055E+01
      9.091  0.1170E+01  0.5133E+01
      9.158  0.9900E+00  0.5199E+01
      9.224  0.7270E+00  0.5248E+01
      9.291  0.4680E+00  0.5279E+01
      9.358  0.2880E+00  0.5298E+01
      9.425  0.2230E+00  0.5313E+01
      9.492  0.2515E+00  0.5330E+01
      9.558  0.2990E+00  0.5350E+01
      9.625  0.2914E+00  0.5369E+01
      9.692  0.2138E+00  0.5384E+01
      9.759  0.1108E+00  0.5391E+01
      9.826  0.3308E-01  0.5393E+01
      9.892 -0.4733E-03  0.5393E+01
      9.959  0.3530E-03  0.5393E+01
     10.026  0.1633E-01  0.5394E+01
     10.093  0.2985E-01  0.5396E+01
     10.159  0.3093E-01  0.5398E+01
     10.226  0.2085E-01  0.5400E+01
     10.293  0.8373E-02  0.5400E+01
     10.360  0.5682E-03  0.5400E+01
     10.427 -0.1772E-02  0.5400E+01
     10.493 -0.1403E-02  0.5400E+01
     10.560 -0.6306E-03  0.5400E+01
     10.627 -0.1983E-03  0.5400E+01
     10.694 -0.4643E-04  0.5400E+01
     10.761 -0.8314E-05  0.5400E+01
     10.827 -0.1155E-05  0.5400E+01
     10.894 -0.1257E-06  0.5400E+01
     10.961 -0.1076E-07  0.5400E+01
     11.028 -0.7277E-09  0.5400E+01
     11.094 -0.3900E-10  0.5400E+01
     11.161 -0.1659E-11  0.5400E+01
     11.228 -0.5612E-13  0.5400E+01
     11.295 -0.1496E-14  0.5400E+01
     11.362 -0.4156E-16  0.5400E+01
     11.428  0.0000E+00  0.5400E+01
     11.495  0.0000E+00  0.5400E+01
     11.562  0.0000E+00  0.5400E+01
     11.629  0.0000E+00  0.5400E+01
     11.696  0.0000E+00  0.5400E+01
     11.762  0.0000E+00  0.5400E+01
     11.829  0.0000E+00  0.5400E+01
     11.896  0.0000E+00  0.5400E+01
     11.963  0.0000E+00  0.5400E+01
     12.029  0.0000E+00  0.5400E+01
     12.096  0.0000E+00  0.5400E+01
