       N       E                     dE             d eps       ncg     rms          rms(c)
DAV:   1     0.572473337756E+03    0.57247E+03   -0.85332E+04  2592   0.107E+03
DAV:   2    -0.309294120137E+03   -0.88177E+03   -0.83619E+03  3088   0.175E+02
DAV:   3    -0.372114820023E+03   -0.62821E+02   -0.61511E+02  3136   0.414E+01
DAV:   4    -0.373710663365E+03   -0.15958E+01   -0.15847E+01  3144   0.798E+00
DAV:   5    -0.373757089632E+03   -0.46426E-01   -0.46300E-01  3110   0.128E+00    0.311E+01
RMM:   6    -0.367522994902E+03    0.62341E+01   -0.33062E+00  2592   0.286E+00    0.188E+01
RMM:   7    -0.364839266703E+03    0.26837E+01   -0.83178E+00  2649   0.453E+00    0.123E+00
RMM:   8    -0.364870954834E+03   -0.31688E-01   -0.77966E-01  2619   0.172E+00    0.559E-01
RMM:   9    -0.364894528903E+03   -0.23574E-01   -0.23070E-01  2668   0.839E-01    0.623E-01
RMM:  10    -0.364899536960E+03   -0.50081E-02   -0.41846E-02  2710   0.396E-01    0.908E-01
RMM:  11    -0.364894277360E+03    0.52596E-02   -0.15731E-02  2592   0.246E-01    0.562E-01
RMM:  12    -0.364894483782E+03   -0.20642E-03   -0.19214E-03  2625   0.105E-01    0.533E-01
RMM:  13    -0.364894553875E+03   -0.70094E-04   -0.35204E-04  2706   0.428E-02    0.612E-01
RMM:  14    -0.364894550937E+03    0.29382E-05   -0.96912E-05  2600   0.242E-02    0.207E-01
RMM:  15    -0.364894596627E+03   -0.45690E-04   -0.40279E-05  2645   0.130E-02    0.156E-01
RMM:  16    -0.364894626540E+03   -0.29913E-04   -0.21372E-05  2593   0.102E-02    0.101E-01
RMM:  17    -0.364894629337E+03   -0.27969E-05   -0.61621E-06  2281   0.557E-03    0.291E-02
RMM:  18    -0.364894629834E+03   -0.49702E-06   -0.85733E-07  1563   0.225E-03
   1 F= -.36489463E+03 E0= -.36490306E+03  d E =-.364895E+03
       N       E                     dE             d eps       ncg     rms          rms(c)
DAV:   1    -0.364920899334E+03   -0.26270E-01   -0.18123E+00  2952   0.259E+00    0.634E-01
RMM:   2    -0.364929314768E+03   -0.84154E-02   -0.87880E-02  2593   0.637E-01    0.259E-01
RMM:   3    -0.364930128740E+03   -0.81397E-03   -0.13144E-02  2633   0.278E-01    0.106E-01
RMM:   4    -0.364930073986E+03    0.54754E-04   -0.18422E-03  2630   0.116E-01    0.410E-02
RMM:   5    -0.364930090809E+03   -0.16823E-04   -0.34548E-04  2705   0.452E-02    0.860E-03
RMM:   6    -0.364930097805E+03   -0.69959E-05   -0.70122E-05  2752   0.192E-02    0.246E-03
RMM:   7    -0.364930098834E+03   -0.10285E-05   -0.11357E-05  2235   0.736E-03    0.115E-03
RMM:   8    -0.364930098893E+03   -0.59721E-07   -0.17428E-06  1687   0.292E-03
   2 F= -.36493010E+03 E0= -.36493531E+03  d E =-.354691E-01
       N       E                     dE             d eps       ncg     rms          rms(c)
DAV:   1    -0.364939111938E+03   -0.90131E-02   -0.18329E-01  2912   0.822E-01    0.201E-01
RMM:   2    -0.364939945419E+03   -0.83348E-03   -0.86873E-03  2592   0.202E-01    0.826E-02
RMM:   3    -0.364940023505E+03   -0.78085E-04   -0.12802E-03  2632   0.878E-02    0.327E-02
RMM:   4    -0.364940018979E+03    0.45251E-05   -0.17849E-04  2621   0.364E-02    0.127E-02
RMM:   5    -0.364940020607E+03   -0.16271E-05   -0.34389E-05  2694   0.143E-02    0.265E-03
RMM:   6    -0.364940021177E+03   -0.57043E-06   -0.67024E-06  2077   0.609E-03    0.683E-04
RMM:   7    -0.364940021320E+03   -0.14257E-06   -0.11412E-06  1591   0.241E-03    0.349E-04
RMM:   8    -0.364940021356E+03   -0.36724E-07   -0.23862E-07  1323   0.109E-03
   3 F= -.36494002E+03 E0= -.36494648E+03  d E =-.453915E-01
