 vasp.6.4.3 19Mar24 (build Oct 21 2024 22:36:34) complex                        
  
 executed on             LinuxIFC date 2024.11.01  22:55:04
 running   96 mpi-ranks, on    1 nodes
 distrk:  each k-point on   24 cores,    4 groups
 distr:  one band on NCORE=  12 cores,    2 groups


--------------------------------------------------------------------------------------------------------


 INCAR:
   SYSTEM = Si64
   ISTART = 0
   ICHARG = 2
   LREAL = Auto
   PREC = Accurate
   LWAVE = .False.
   LCHARG = .False.
   ADDGRID = .True.
   ENCUT = 400
   GGA = PS
   GGA_COMPAT = .FALSE.
   ISMEAR = 1
   SIGMA = 0.2
   NELM = 60
   NELMIN = 8
   EDIFF = 1e-06
   EDIFFG = -0.01
   NSW = 60
   IBRION = 2
   ISIF = 2
   KPAR = 4
   NPAR = 2
   ALGO = Fast

 POTCAR:    PAW_PBE Si 05Jan2001                  
 POTCAR:    PAW_PBE Si 05Jan2001                  
   VRHFIN =Si: s2p2                                                                                 
   LEXCH  = PE                                                                                      
   EATOM  =   103.0669 eV,    7.5752 Ry                                                             
                                                                                                    
   TITEL  = PAW_PBE Si 05Jan2001                                                                    
   LULTRA =        F    use ultrasoft PP ?                                                          
   IUNSCR =        1    unscreen: 0-lin 1-nonlin 2-no                                               
   RPACOR =    1.500    partial core radius                                                         
   POMASS =   28.085; ZVAL   =    4.000    mass and valenz                                          
   RCORE  =    1.900    outmost cutoff radius                                                       
   RWIGS  =    2.480; RWIGS  =    1.312    wigner-seitz radius (au A)                               
   ENMAX  =  245.345; ENMIN  =  184.009 eV                                                          
   ICORE  =        2    local potential                                                             
   LCOR   =        T    correct aug charges                                                         
   LPAW   =        T    paw PP                                                                      
   EAUG   =  322.069                                                                                
   DEXC   =    0.000                                                                                
   RMAX   =    1.950    core radius for proj-oper                                                   
   RAUG   =    1.300    factor for augmentation sphere                                              
   RDEP   =    1.993    radius for radial grids                                                     
   RDEPT  =    1.837    core radius for aug-charge                                                  
                                                                                                    
   Atomic configuration                                                                             
    6 entries                                                                                       
     n  l   j            E        occ.                                                              
     1  0  0.50     -1785.8828   2.0000                                                             
     2  0  0.50      -139.4969   2.0000                                                             
     2  1  1.50       -95.5546   6.0000                                                             
     3  0  0.50       -10.8127   2.0000                                                             
     3  1  0.50        -4.0811   2.0000                                                             
     3  2  1.50        -4.0817   0.0000                                                             
   Description                                                                                      
     l       E           TYP  RCUT    TYP  RCUT                                                     
     0    -10.8127223     23  1.900                                                                 
     0     -7.6451159     23  1.900                                                                 
     1     -4.0811372     23  1.900                                                                 
     1      2.4879257     23  1.900                                                                 
     2     -4.0817478      7  1.900                                                                 
  local pseudopotential read in
  partial core-charges read in
  partial kinetic energy density read in
  atomic valenz-charges read in
  non local Contribution for L=           0  read in
    real space projection operators read in
  non local Contribution for L=           0  read in
    real space projection operators read in
  non local Contribution for L=           1  read in
    real space projection operators read in
  non local Contribution for L=           1  read in
    real space projection operators read in
    PAW grid and wavefunctions read in
 
   number of l-projection  operators is LMAX  =           4
   number of lm-projection operators is LMMAX =           8
 
 Optimization of the real space projectors (new method)

 maximal supplied QI-value         = 19.84
 optimisation between [QCUT,QGAM] = [ 10.12, 20.44] = [ 28.68,116.96] Ry 
 Optimized for a Real-space Cutoff    1.38 Angstroem

   l    n(q)    QCUT    max X(q) W(low)/X(q) W(high)/X(q)  e(spline) 
   0      8    10.119   159.560    0.58E-04    0.11E-03    0.54E-07
   0      8    10.119   115.863    0.56E-04    0.11E-03    0.54E-07
   1      8    10.119    88.339    0.22E-03    0.17E-03    0.19E-06
   1      8    10.119    48.592    0.22E-03    0.17E-03    0.18E-06
 -----------------------------------------------------------------------------
|                                                                             |
|               ----> ADVICE to this user running VASP <----                  |
|                                                                             |
|     You enforced a specific xc type in the INCAR file but a different       |
|     type was found in the POTCAR file.                                      |
|     I HOPE YOU KNOW WHAT YOU ARE DOING!                                     |
|                                                                             |
 -----------------------------------------------------------------------------

  PAW_PBE Si 05Jan2001                  :
 energy of atom  1       EATOM= -103.0669
 kinetic energy error for atom=    0.0012 (will be added to EATOM!!)
 
 
 POSCAR: Si8
  positions in direct lattice
  velocities in cartesian coordinates


 exchange-correlation table for PS
   RHO(1)=    0.500       N(1)  =     2000
   RHO(2)=  100.500       N(2)  =     4000
 


--------------------------------------------------------------------------------------------------------


 ion  position               nearest neighbor table
   1  0.000  0.000  0.000-  15 2.28  57 2.28  44 2.30  30 2.30
   2  0.000  0.000  0.500-  16 2.28  58 2.28  43 2.30  29 2.30
   3  0.000  0.500  0.000-  13 2.28  59 2.28  42 2.30  32 2.30
   4  0.000  0.500  0.500-  14 2.28  60 2.28  41 2.30  31 2.30
   5  0.500  0.000  0.000-  11 2.28  61 2.28  48 2.30  26 2.30
   6  0.500  0.000  0.500-  12 2.28  62 2.28  47 2.30  25 2.30
   7  0.500  0.500  0.000-   9 2.28  63 2.28  46 2.30  28 2.30
   8  0.500  0.500  0.500-  10 2.28  64 2.28  45 2.30  27 2.30
   9  0.375  0.375  0.125-   7 2.28  49 2.28  35 2.30  21 2.30
  10  0.375  0.375  0.625-   8 2.28  50 2.28  36 2.30  22 2.30
  11  0.375  0.875  0.125-   5 2.28  51 2.28  33 2.30  23 2.30
  12  0.375  0.875  0.625-   6 2.28  52 2.28  34 2.30  24 2.30
  13  0.875  0.375  0.125-   3 2.28  53 2.28  39 2.30  17 2.30
  14  0.875  0.375  0.625-   4 2.28  54 2.28  40 2.30  18 2.30
  15  0.875  0.875  0.125-   1 2.28  55 2.28  37 2.30  19 2.30
  16  0.875  0.875  0.625-   2 2.28  56 2.28  38 2.30  20 2.30
  17  0.000  0.250  0.250-  29 2.28  41 2.28  13 2.30  57 2.30
  18  0.000  0.250  0.750-  30 2.28  42 2.28  14 2.30  58 2.30
  19  0.000  0.750  0.250-  31 2.28  43 2.28  15 2.30  59 2.30
  20  0.000  0.750  0.750-  32 2.28  44 2.28  16 2.30  60 2.30
  21  0.500  0.250  0.250-  25 2.28  45 2.28   9 2.30  61 2.30
  22  0.500  0.250  0.750-  26 2.28  46 2.28  10 2.30  62 2.30
  23  0.500  0.750  0.250-  27 2.28  47 2.28  11 2.30  63 2.30
  24  0.500  0.750  0.750-  28 2.28  48 2.28  12 2.30  64 2.30
  25  0.375  0.125  0.375-  21 2.28  33 2.28   6 2.30  50 2.30
  26  0.375  0.125  0.875-  22 2.28  34 2.28   5 2.30  49 2.30
  27  0.375  0.625  0.375-  23 2.28  35 2.28   8 2.30  52 2.30
  28  0.375  0.625  0.875-  24 2.28  36 2.28   7 2.30  51 2.30
  29  0.875  0.125  0.375-  17 2.28  37 2.28   2 2.30  54 2.30
  30  0.875  0.125  0.875-  18 2.28  38 2.28   1 2.30  53 2.30
  31  0.875  0.625  0.375-  19 2.28  39 2.28   4 2.30  56 2.30
  32  0.875  0.625  0.875-  20 2.28  40 2.28   3 2.30  55 2.30
  33  0.250  0.000  0.250-  25 2.28  43 2.28  11 2.30  57 2.30
  34  0.250  0.000  0.750-  26 2.28  44 2.28  12 2.30  58 2.30
  35  0.250  0.500  0.250-  27 2.28  41 2.28   9 2.30  59 2.30
  36  0.250  0.500  0.750-  28 2.28  42 2.28  10 2.30  60 2.30
  37  0.750  0.000  0.250-  29 2.28  47 2.28  15 2.30  61 2.30
  38  0.750  0.000  0.750-  30 2.28  48 2.28  16 2.30  62 2.30
  39  0.750  0.500  0.250-  31 2.28  45 2.28  13 2.30  63 2.30
  40  0.750  0.500  0.750-  32 2.28  46 2.28  14 2.30  64 2.30
  41  0.125  0.375  0.375-  17 2.28  35 2.28   4 2.30  50 2.30
  42  0.125  0.375  0.875-  18 2.28  36 2.28   3 2.30  49 2.30
  43  0.125  0.875  0.375-  19 2.28  33 2.28   2 2.30  52 2.30
  44  0.125  0.875  0.875-  20 2.28  34 2.28   1 2.30  51 2.30
  45  0.625  0.375  0.375-  21 2.28  39 2.28   8 2.30  54 2.30
  46  0.625  0.375  0.875-  22 2.28  40 2.28   7 2.30  53 2.30
  47  0.625  0.875  0.375-  23 2.28  37 2.28   6 2.30  56 2.30
  48  0.625  0.875  0.875-  24 2.28  38 2.28   5 2.30  55 2.30
  49  0.250  0.250  0.000-   9 2.28  57 2.28  42 2.30  26 2.30
  50  0.250  0.250  0.500-  10 2.28  58 2.28  41 2.30  25 2.30
  51  0.250  0.750  0.000-  11 2.28  59 2.28  44 2.30  28 2.30
  52  0.250  0.750  0.500-  12 2.28  60 2.28  43 2.30  27 2.30
  53  0.750  0.250  0.000-  13 2.28  61 2.28  46 2.30  30 2.30
  54  0.750  0.250  0.500-  14 2.28  62 2.28  45 2.30  29 2.30
  55  0.750  0.750  0.000-  15 2.28  63 2.28  48 2.30  32 2.30
  56  0.750  0.750  0.500-  16 2.28  64 2.28  47 2.30  31 2.30
  57  0.125  0.125  0.125-   1 2.28  49 2.28  33 2.30  17 2.30
  58  0.125  0.125  0.625-   2 2.28  50 2.28  34 2.30  18 2.30
  59  0.125  0.625  0.125-   3 2.28  51 2.28  35 2.30  19 2.30
  60  0.125  0.625  0.625-   4 2.28  52 2.28  36 2.30  20 2.30
  61  0.625  0.125  0.125-   5 2.28  53 2.28  37 2.30  21 2.30
  62  0.625  0.125  0.625-   6 2.28  54 2.28  38 2.30  22 2.30
  63  0.625  0.625  0.125-   7 2.28  55 2.28  39 2.30  23 2.30
  64  0.625  0.625  0.625-   8 2.28  56 2.28  40 2.30  24 2.30
 
  LATTYP: Found a simple monoclinic cell.
 ALAT       =    10.4795953216
 B/A-ratio  =     1.0151990840
 C/A-ratio  =     1.0152276364
 COS(beta)  =    -0.0151134350
  
  Lattice vectors:
  
 A1 = (  10.4792915476,  -0.0797920118,   0.0000000000)
 A2 = (   0.0000000000,   0.0000000000, -10.6388755712)
 A3 = (  -0.0797920118,  10.6388755712,   0.0000000000)


Analysis of symmetry for initial positions (statically):
=====================================================================
 Subroutine PRICEL returns following result:
 
  LATTYP: Found a base centered monoclinic cell.
 ALAT       =     5.2397976608
 B/A-ratio  =     1.0151990840
 C/A-ratio  =     0.7071067812
 COS(beta)  =    -0.6962572340
  
  Lattice vectors:
  
 A1 = (  -2.6198228869,   0.0199480029,  -2.6597188928)
 A2 = (  -2.6198228869,   0.0199480029,   2.6597188928)
 A3 = (   2.5998748840,   2.6397708898,   0.0000000000)
 
  32 primitive cells build up your supercell.
 

 Routine SETGRP: Setting up the symmetry group for a 
 simple monoclinic supercell.


 Subroutine GETGRP returns: Found  4 space group operations
 (whereof  2 operations were pure point group operations)
 out of a pool of  4 trial point group operations.


The static configuration has the point symmetry C_2 .
 The point group associated with its full space group is C_2h.


Analysis of symmetry for dynamics (positions and initial velocities):
=====================================================================
 Subroutine PRICEL returns following result:
 
  LATTYP: Found a base centered monoclinic cell.
 ALAT       =     5.2397976608
 B/A-ratio  =     1.0151990840
 C/A-ratio  =     0.7071067812
 COS(beta)  =    -0.6962572340
  
  Lattice vectors:
  
 A1 = (  -2.6198228869,   0.0199480029,  -2.6597188928)
 A2 = (  -2.6198228869,   0.0199480029,   2.6597188928)
 A3 = (   2.5998748840,   2.6397708898,   0.0000000000)
 
  32 primitive cells build up your supercell.
 

 Routine SETGRP: Setting up the symmetry group for a 
 simple monoclinic supercell.


 Subroutine GETGRP returns: Found  4 space group operations
 (whereof  2 operations were pure point group operations)
 out of a pool of  4 trial point group operations.


The dynamic configuration has the point symmetry C_2 .
 The point group associated with its full space group is C_2h.


 Subroutine INISYM returns: Found  4 space group operations
 (whereof  2 operations are pure point group operations),
 and found    32 'primitive' translations


----------------------------------------------------------------------------------------

                                     Primitive cell                                     

  volume of cell :      37.0637

  direct lattice vectors                    reciprocal lattice vectors
    -2.619822887  0.019948003 -2.659718893    -0.189432012  0.186569043 -0.187989791
    -2.619822887  0.019948003  2.659718893    -0.189432012  0.186569043  0.187989791
     2.599874884  2.639770890  0.000000000     0.002862968  0.376001055 -0.000000000

  length of vectors
     3.733359676  3.733359676  3.705096458     0.325626560  0.325626560  0.376011955

  position of ions in fractional coordinates (direct lattice)
     0.000000000  0.000000000  0.000000000
     0.750000000  0.250000000  0.500000000

  ion indices of the primitive-cell ions
   primitive index   ion index
                 1           1
                 2          15

----------------------------------------------------------------------------------------

 
 
 KPOINTS: Automatic mesh                          

Automatic generation of k-mesh.
 Grid dimensions read from file:
 generate k-points for:    2    2    2

 Generating k-lattice:

  Cartesian coordinates                     Fractional coordinates (reciprocal lattice)
     0.047715874  0.000357871  0.000000000     0.500000000  0.000000000  0.000000000
     0.000357871  0.047000132  0.000000000     0.000000000  0.500000000  0.000000000
     0.000000000  0.000000000  0.046997448     0.000000000  0.000000000  0.500000000

  Length of vectors
     0.047717216  0.047001494  0.046997448

  Shift w.r.t. Gamma in fractional coordinates (k-lattice)
     0.000000000  0.000000000  0.000000000

 
 Subroutine IBZKPT returns following result:
 ===========================================
 
 Found      8 irreducible k-points:
 
 Following reciprocal coordinates:
            Coordinates               Weight
  0.000000  0.000000  0.000000      1.000000
  0.500000 -0.000000  0.000000      1.000000
  0.000000  0.500000  0.000000      1.000000
  0.500000  0.500000  0.000000      1.000000
  0.000000  0.000000  0.500000      1.000000
  0.500000 -0.000000  0.500000      1.000000
  0.000000  0.500000  0.500000      1.000000
  0.500000  0.500000  0.500000      1.000000
 
 Following cartesian coordinates:
            Coordinates               Weight
  0.000000  0.000000  0.000000      1.000000
  0.047716  0.000358  0.000000      1.000000
  0.000358  0.047000  0.000000      1.000000
  0.048074  0.047358  0.000000      1.000000
  0.000000  0.000000  0.046997      1.000000
  0.047716  0.000358  0.046997      1.000000
  0.000358  0.047000  0.046997      1.000000
  0.048074  0.047358  0.046997      1.000000
 


--------------------------------------------------------------------------------------------------------




 Dimension of arrays:
   k-points           NKPTS =      8   k-points in BZ     NKDIM =      8   number of bands    NBANDS=    162
   number of dos      NEDOS =    301   number of ions     NIONS =     64
   non local maximal  LDIM  =      4   non local SUM 2l+1 LMDIM =      8
   total plane-waves  NPLWV = 343000
   max r-space proj   IRMAX =   3237   max aug-charges    IRDMAX=  77545
   dimension x,y,z NGX =    70 NGY =   70 NGZ =   70
   dimension x,y,z NGXF=   140 NGYF=  140 NGZF=  140
   support grid    NGXF=   280 NGYF=  280 NGZF=  280
   ions per type =              64
   NGX,Y,Z   is equivalent  to a cutoff of  11.10, 10.94, 10.94 a.u.
   NGXF,Y,Z  is equivalent  to a cutoff of  22.21, 21.88, 21.88 a.u.

 SYSTEM =  Si64                                    
 POSCAR =  Si8                                     

 Startparameter for this run:
   NWRITE =      2    write-flag & timer
   PREC   = accura    normal or accurate (medium, high low for compatibility)
   ISTART =      0    job   : 0-new  1-cont  2-samecut
   ICHARG =      2    charge: 1-file 2-atom 10-const
   ISPIN  =      1    spin polarized calculation?
   LNONCOLLINEAR =      F non collinear calculations
   LSORBIT =      F    spin-orbit coupling
   INIWAV =      1    electr: 0-lowe 1-rand  2-diag
   LASPH  =      F    aspherical Exc in radial PAW
 Electronic Relaxation 1
   ENCUT  =  400.0 eV  29.40 Ry    5.42 a.u.  17.09 17.35 17.35*2*pi/ulx,y,z
   ENINI  =  400.0     initial cutoff
   ENAUG  =  322.1 eV  augmentation charge cutoff
   NELM   =     60;   NELMIN=  8; NELMDL= -5     # of ELM steps 
   EDIFF  = 0.1E-05   stopping-criterion for ELM
   LREAL  =      T    real-space projection
   NLSPLINE    = F    spline interpolate recip. space projectors
   LCOMPAT=      F    compatible to vasp.4.4
   GGA_COMPAT  = F    GGA compatible to vasp.4.4-vasp.4.6
   LMAXPAW     = -100 max onsite density
   LMAXMIX     =    2 max onsite mixed and CHGCAR
   VOSKOWN=      0    Vosko Wilk Nusair interpolation
   ROPT   =   -0.00025
 Ionic relaxation
   EDIFFG = -.1E-01   stopping-criterion for IOM
   NSW    =     60    number of steps for IOM
   NBLOCK =      1;   KBLOCK =     60    inner block; outer block 
   IBRION =      2    ionic relax: 0-MD 1-quasi-New 2-CG
   NFREE  =      1    steps in history (QN), initial steepest desc. (CG)
   ISIF   =      2    stress and relaxation
   IWAVPR =     11    prediction:  0-non 1-charg 2-wave 3-comb
   ISYM   =      2    0-nonsym 1-usesym 2-fastsym
   LCORR  =      T    Harris-Foulkes like correction to forces

   POTIM  = 0.5000    time-step for ionic-motion
   TEIN   =    0.0    initial temperature
   TEBEG  =    0.0;   TEEND  =   0.0 temperature during run
   SMASS  =  -3.00    Nose mass-parameter (am)
   estimated Nose-frequenzy (Omega)   =  0.10E-29 period in steps = 0.13E+47 mass=  -0.251E-26a.u.
   SCALEE = 1.0000    scale energy and forces
   NPACO  =    256;   APACO  = 10.0  distance and # of slots for P.C.
   PSTRESS=    0.0 pullay stress

  Mass of Ions in am
   POMASS =  28.09
  Ionic Valenz
   ZVAL   =   4.00
  Atomic Wigner-Seitz radii
   RWIGS  =  -1.00
  virtual crystal weights 
   VCA    =   1.00
   NELECT =     256.0000    total number of electrons
   NUPDOWN=      -1.0000    fix difference up-down

 DOS related values:
   EMIN   =  10.00;   EMAX   =-10.00  energy-range for DOS
   EFERMI =   0.00;   METHOD = LEGACY      
   ISMEAR =     1;   SIGMA  =   0.20  broadening in eV -4-tet -1-fermi 0-gaus

 Electronic relaxation 2 (details)
   IALGO  =     68    algorithm
   LDIAG  =      T    sub-space diagonalisation (order eigenvalues)
   LSUBROT=      F    optimize rotation matrix (better conditioning)
   TURBO    =      0    0=normal 1=particle mesh
   IRESTART =      0    0=no restart 2=restart with 2 vectors
   NREBOOT  =      0    no. of reboots
   NMIN     =      0    reboot dimension
   EREF     =   0.00    reference energy to select bands
   IMIX   =      4    mixing-type and parameters
     AMIX     =   0.40;   BMIX     =  1.00
     AMIX_MAG =   1.60;   BMIX_MAG =  1.00
     AMIN     =   0.10
     WC   =   100.;   INIMIX=   1;  MIXPRE=   1;  MAXMIX= -45

 Intra band minimization:
   WEIMIN = 0.0010     energy-eigenvalue tresh-hold
   EBREAK =  0.15E-08  absolut break condition
   DEPER  =   0.30     relativ break condition  

   TIME   =   0.40     timestep for ELM

  volume/ion in A,a.u.               =      18.53       125.06
  Fermi-wavevector in a.u.,A,eV,Ry     =   0.982024  1.855756 13.121057  0.964371
  Thomas-Fermi vector in A             =   2.113075
 
 Write flags
   LWAVE        =      F    write WAVECAR
   LDOWNSAMPLE  =      F    k-point downsampling of WAVECAR
   LCHARG       =      F    write CHGCAR
   LVTOT        =      F    write LOCPOT, total local potential
   LVHAR        =      F    write LOCPOT, Hartree potential only
   WRT_POTENTIAL= false  ! write potential to hdf5 file
   LELF         =      F    write electronic localiz. function (ELF)
   LORBIT       =      0    0 simple, 1 ext, 2 COOP (PROOUT), +10 PAW based schemes


 Dipole corrections
   LMONO      =      F    monopole corrections only (constant potential shift)
   LDIPOL     =      F    correct potential (dipole corrections)
   IDIPOL     =      0    1-x, 2-y, 3-z, 4-all directions 
   EPSILON    =  1.0000000 bulk dielectric constant
   LVACPOTAV  =      F  vacuum potentials using an averaging scheme for the charge density
   VACPOTFLAT =  0.1000000 required flatness to determine vacuum potential
 Exchange correlation treatment:
   GGA     = PS    functional components
   XC_C    = 1    coefficients multiplying the functional components
   LIBXC   =     F    Libxc                    
   VOSKOWN =     0    Vosko Wilk Nusair interpolation
   LHFCALC =     F    Hartree Fock is set to
   LHFONE  =     F    Hartree Fock one center treatment
   AEXX    =    0.0000 exact exchange contribution

 Parameters of functionals:
   PS:
     No parameter
 
 Van der Waals corrections
   IVDW    =     0    specifies the selected vdW correction

 Linear response parameters
   LEPSILON=     F    determine dielectric tensor
   LRPA    =     F    only Hartree local field effects (RPA)
   LNABLA  =     F    use nabla operator in PAW spheres
   LVEL    =     F    velocity operator in full k-point grid
   CSHIFT  =0.1000    complex shift for real part using Kramers Kronig
   OMEGAMAX=  -1.0    maximum frequency
   DEG_THRESHOLD= 0.2000000E-02 threshold for treating states as degnerate
   RTIME   =   -0.100 relaxation time in fs
  (WPLASMAI=    0.000 imaginary part of plasma frequency in eV, 0.658/RTIME)
   DFIELD  = 0.0000000 0.0000000 0.0000000 field for delta impulse in time
 
  Optional k-point grid parameters
   LKPOINTS_OPT  =     F    use optional k-point grid
   KPOINTS_OPT_MODE=     1    mode for optional k-point grid
 
 Orbital magnetization related:
   ORBITALMAG=     F  switch on orbital magnetization
   LCHIMAG   =     F  perturbation theory with respect to B field
   DQ        =  0.001000  dq finite difference perturbation B field
   LLRAUG    =     F  two centre corrections for induced B field
   LBONE     =     F  B-component reconstruction in AE one-centre
   LVGVCALC  =     T  calculate vGv susceptibility
   LVGVAPPL  =     F  apply vGv susceptibility instead of pGv for G=0

 Random number generation:
   RANDOM_GENERATOR = DEFAULT
   PCG_SEED         = not used


--------------------------------------------------------------------------------------------------------


 conjugate gradient relaxation of ions
 charge density and potential will be updated during run
 non-spin polarized calculation
 RMM-DIIS sequential band-by-band and
  variant of blocked Davidson during initial phase
 perform sub-space diagonalisation
    before iterative eigenvector-optimisation
 modified Broyden-mixing scheme, WC =      100.0
 initial mixing is a Kerker type mixing with AMIX =  0.4000 and BMIX =      1.0000
 Hartree-type preconditioning will be used
 using additional bands           34
 real space projection scheme for non local part
 use partial core corrections
 calculate Harris-corrections to forces 
   (improved forces if not selfconsistent)
 use gradient corrections 
 use of overlap-Matrix (Vanderbilt PP)
 Methfessel and Paxton  Order N= 1 SIGMA  =   0.20


--------------------------------------------------------------------------------------------------------


  energy-cutoff  :      400.00
  volume of cell :     1186.04
      direct lattice vectors                 reciprocal lattice vectors
    10.479291548 -0.079792012  0.000000000     0.095431748  0.000715742  0.000000000
    -0.079792012 10.638875571  0.000000000     0.000715742  0.094000264  0.000000000
     0.000000000  0.000000000 10.638875571     0.000000000  0.000000000  0.093994896

  length of vectors
    10.479595322 10.639174789 10.638875571     0.095434432  0.094002989  0.093994896


 
 k-points in units of 2pi/SCALE and weight: Automatic mesh                          
   0.00000000  0.00000000  0.00000000       0.125
   0.04771588  0.00035787  0.00000000       0.125
   0.00035787  0.04700014  0.00000000       0.125
   0.04807375  0.04735801  0.00000000       0.125
   0.00000000  0.00000000  0.04699745       0.125
   0.04771588  0.00035787  0.04699745       0.125
   0.00035787  0.04700014  0.04699745       0.125
   0.04807375  0.04735801  0.04699745       0.125
 
 k-points in reciprocal lattice and weights: Automatic mesh                          
   0.00000000  0.00000000  0.00000000       0.125
   0.50000000 -0.00000000  0.00000000       0.125
   0.00000000  0.50000000  0.00000000       0.125
   0.50000000  0.50000000  0.00000000       0.125
   0.00000000  0.00000000  0.50000000       0.125
   0.50000000 -0.00000000  0.50000000       0.125
   0.00000000  0.50000000  0.50000000       0.125
   0.50000000  0.50000000  0.50000000       0.125
 
 position of ions in fractional coordinates (direct lattice) 
   0.00000000  0.00000000  0.00000000
   0.00000000  0.00000000  0.50000000
   0.00000000  0.50000000  0.00000000
   0.00000000  0.50000000  0.50000000
   0.50000000  0.00000000  0.00000000
   0.50000000  0.00000000  0.50000000
   0.50000000  0.50000000  0.00000000
   0.50000000  0.50000000  0.50000000
   0.37500000  0.37500000  0.12500000
   0.37500000  0.37500000  0.62500000
   0.37500000  0.87500000  0.12500000
   0.37500000  0.87500000  0.62500000
   0.87500000  0.37500000  0.12500000
   0.87500000  0.37500000  0.62500000
   0.87500000  0.87500000  0.12500000
   0.87500000  0.87500000  0.62500000
   0.00000000  0.25000000  0.25000000
   0.00000000  0.25000000  0.75000000
   0.00000000  0.75000000  0.25000000
   0.00000000  0.75000000  0.75000000
   0.50000000  0.25000000  0.25000000
   0.50000000  0.25000000  0.75000000
   0.50000000  0.75000000  0.25000000
   0.50000000  0.75000000  0.75000000
   0.37500000  0.12500000  0.37500000
   0.37500000  0.12500000  0.87500000
   0.37500000  0.62500000  0.37500000
   0.37500000  0.62500000  0.87500000
   0.87500000  0.12500000  0.37500000
   0.87500000  0.12500000  0.87500000
   0.87500000  0.62500000  0.37500000
   0.87500000  0.62500000  0.87500000
   0.25000000  0.00000000  0.25000000
   0.25000000  0.00000000  0.75000000
   0.25000000  0.50000000  0.25000000
   0.25000000  0.50000000  0.75000000
   0.75000000  0.00000000  0.25000000
   0.75000000  0.00000000  0.75000000
   0.75000000  0.50000000  0.25000000
   0.75000000  0.50000000  0.75000000
   0.12500000  0.37500000  0.37500000
   0.12500000  0.37500000  0.87500000
   0.12500000  0.87500000  0.37500000
   0.12500000  0.87500000  0.87500000
   0.62500000  0.37500000  0.37500000
   0.62500000  0.37500000  0.87500000
   0.62500000  0.87500000  0.37500000
   0.62500000  0.87500000  0.87500000
   0.25000000  0.25000000  0.00000000
   0.25000000  0.25000000  0.50000000
   0.25000000  0.75000000  0.00000000
   0.25000000  0.75000000  0.50000000
   0.75000000  0.25000000  0.00000000
   0.75000000  0.25000000  0.50000000
   0.75000000  0.75000000  0.00000000
   0.75000000  0.75000000  0.50000000
   0.12500000  0.12500000  0.12500000
   0.12500000  0.12500000  0.62500000
   0.12500000  0.62500000  0.12500000
   0.12500000  0.62500000  0.62500000
   0.62500000  0.12500000  0.12500000
   0.62500000  0.12500000  0.62500000
   0.62500000  0.62500000  0.12500000
   0.62500000  0.62500000  0.62500000
 
 position of ions in cartesian coordinates  (Angst):
   0.00000000  0.00000000  0.00000000
   0.00000000  0.00000000  5.31943779
  -0.03989601  5.31943779  0.00000000
  -0.03989601  5.31943779  5.31943779
   5.23964577 -0.03989601  0.00000000
   5.23964577 -0.03989601  5.31943779
   5.19974977  5.27954178  0.00000000
   5.19974977  5.27954178  5.31943779
   3.89981233  3.95965633  1.32985945
   3.89981233  3.95965633  6.64929723
   3.85991632  9.27909412  1.32985945
   3.85991632  9.27909412  6.64929723
   9.13945810  3.91976033  1.32985945
   9.13945810  3.91976033  6.64929723
   9.09956209  9.23919811  1.32985945
   9.09956209  9.23919811  6.64929723
  -0.01994800  2.65971889  2.65971889
  -0.01994800  2.65971889  7.97915668
  -0.05984401  7.97915668  2.65971889
  -0.05984401  7.97915668  7.97915668
   5.21969777  2.61982289  2.65971889
   5.21969777  2.61982289  7.97915668
   5.17980176  7.93926067  2.65971889
   5.17980176  7.93926067  7.97915668
   3.91976033  1.29993744  3.98957834
   3.91976033  1.29993744  9.30901612
   3.87986432  6.61937523  3.98957834
   3.87986432  6.61937523  9.30901612
   9.15940610  1.26004144  3.98957834
   9.15940610  1.26004144  9.30901612
   9.11951010  6.57947922  3.98957834
   9.11951010  6.57947922  9.30901612
   2.61982289 -0.01994800  2.65971889
   2.61982289 -0.01994800  7.97915668
   2.57992688  5.29948978  2.65971889
   2.57992688  5.29948978  7.97915668
   7.85946866 -0.05984401  2.65971889
   7.85946866 -0.05984401  7.97915668
   7.81957265  5.25959378  2.65971889
   7.81957265  5.25959378  7.97915668
   1.27998944  3.97960434  3.98957834
   1.27998944  3.97960434  9.30901612
   1.24009343  9.29904212  3.98957834
   1.24009343  9.29904212  9.30901612
   6.51963521  3.93970833  3.98957834
   6.51963521  3.93970833  9.30901612
   6.47973921  9.25914612  3.98957834
   6.47973921  9.25914612  9.30901612
   2.59987488  2.63977089  0.00000000
   2.59987488  2.63977089  5.31943779
   2.55997888  7.95920868  0.00000000
   2.55997888  7.95920868  5.31943779
   7.83952066  2.59987488  0.00000000
   7.83952066  2.59987488  5.31943779
   7.79962465  7.91931267  0.00000000
   7.79962465  7.91931267  5.31943779
   1.29993744  1.31988544  1.32985945
   1.29993744  1.31988544  6.64929723
   1.26004144  6.63932323  1.32985945
   1.26004144  6.63932323  6.64929723
   6.53958322  1.27998944  1.32985945
   6.53958322  1.27998944  6.64929723
   6.49968721  6.59942722  1.32985945
   6.49968721  6.59942722  6.64929723
 


--------------------------------------------------------------------------------------------------------


 k-point     1 :   0.0000 0.0000 0.0000  plane waves:   21591
 k-point     2 :   0.5000-0.0000 0.0000  plane waves:   21558
 k-point     3 :   0.0000 0.5000 0.0000  plane waves:   21538
 k-point     4 :   0.5000 0.5000 0.0000  plane waves:   21532
 k-point     5 :   0.0000 0.0000 0.5000  plane waves:   21526
 k-point     6 :   0.5000-0.0000 0.5000  plane waves:   21536
 k-point     7 :   0.0000 0.5000 0.5000  plane waves:   21524
 k-point     8 :   0.5000 0.5000 0.5000  plane waves:   21596

 maximum and minimum number of plane-waves per node :      1815     1775

 maximum number of plane-waves:     21596
 maximum index in each direction: 
   IXMAX=   17   IYMAX=   17   IZMAX=   17
   IXMIN=  -17   IYMIN=  -17   IZMIN=  -17


 real space projection operators:
  total allocation   :      12379.50 KBytes
  max/ min on nodes  :       1071.00        896.75


 parallel 3D FFT for wavefunctions:
    minimum data exchange during FFTs selected (reduces bandwidth)
 parallel 3D FFT for charge:
    minimum data exchange during FFTs selected (reduces bandwidth)


 total amount of memory used by VASP MPI-rank0    78968. kBytes
=======================================================================

   base      :      30000. kBytes
   nonlr-proj:       4794. kBytes
   fftplans  :      17991. kBytes
   grid      :       6881. kBytes
   one-center:         18. kBytes
   wavefun   :      19284. kBytes
 
     INWAV:  cpu time      0.0000: real time      0.0000
 Broyden mixing: mesh for mixing (old mesh)
   NGX = 35   NGY = 35   NGZ = 35
  (NGX  =140   NGY  =140   NGZ  =140)
  gives a total of  42875 points

 initial charge density was supplied:
 charge density of overlapping atoms calculated
 number of electron     256.0000000 magnetization 
 keeping initial charge density in first step


--------------------------------------------------------------------------------------------------------


 Maximum index for non-local projection operator          290
 Maximum index for augmentation-charges         3852 (set IRDMAX)


--------------------------------------------------------------------------------------------------------


 First call to EWALD:  gamma=   0.167
 Maximum number of real-space cells 3x 3x 3
 Maximum number of reciprocal cells 3x 3x 3

    FEWALD:  cpu time      0.0072: real time      0.0072


--------------------------------------- Ionic step        1  -------------------------------------------




--------------------------------------- Iteration      1(   1)  ---------------------------------------


    POTLOK:  cpu time      0.0841: real time      0.0863
    SETDIJ:  cpu time      0.0813: real time      0.0823
     EDDAV:  cpu time      1.2473: real time      1.2980
       DOS:  cpu time      0.0046: real time      0.0046
    --------------------------------------------
      LOOP:  cpu time      1.4173: real time      1.4713

 eigenvalue-minimisations  :  2592
 total energy-change (2. order) : 0.5724733E+03  (-0.8533243E+04)
 number of electron     256.0000000 magnetization 
 augmentation part      256.0000000 magnetization 

 Free energy of the ion-electron system (eV)
  ---------------------------------------------------
  alpha Z        PSCENC =       116.25613281
  Ewald energy   TEWEN  =     -7503.84478219
  -Hartree energ DENC   =      -316.12712427
  -exchange      EXHF   =         0.00000000
  -V(xc)+E(xc)   XCENC  =      -549.36716584
  PAW double counting   =      5598.62625415    -4492.17844134
  entropy T*S    EENTRO =         0.00565408
  eigenvalues    EBANDS =      1154.30694935
  atomic energy  EATOM  =      6564.79586099
  Solvation  Ediel_sol  =         0.00000000
  ---------------------------------------------------
  free energy    TOTEN  =       572.47333776 eV

  energy without entropy =      572.46768368  energy(sigma->0) =      572.47145306


--------------------------------------------------------------------------------------------------------




--------------------------------------- Iteration      1(   2)  ---------------------------------------


     EDDAV:  cpu time      1.3188: real time      1.3394
       DOS:  cpu time      0.0011: real time      0.0011
    --------------------------------------------
      LOOP:  cpu time      1.3199: real time      1.3405

 eigenvalue-minimisations  :  3088
 total energy-change (2. order) :-0.8817675E+03  (-0.8361913E+03)
 number of electron     256.0000000 magnetization 
 augmentation part      256.0000000 magnetization 

 Free energy of the ion-electron system (eV)
  ---------------------------------------------------
  alpha Z        PSCENC =       116.25613281
  Ewald energy   TEWEN  =     -7503.84478219
  -Hartree energ DENC   =      -316.12712427
  -exchange      EXHF   =         0.00000000
  -V(xc)+E(xc)   XCENC  =      -549.36716584
  PAW double counting   =      5598.62625415    -4492.17844134
  entropy T*S    EENTRO =         0.00796741
  eigenvalues    EBANDS =       272.53717812
  atomic energy  EATOM  =      6564.79586099
  Solvation  Ediel_sol  =         0.00000000
  ---------------------------------------------------
  free energy    TOTEN  =      -309.29412014 eV

  energy without entropy =     -309.30208755  energy(sigma->0) =     -309.29677594


--------------------------------------------------------------------------------------------------------




--------------------------------------- Iteration      1(   3)  ---------------------------------------


     EDDAV:  cpu time      1.3458: real time      1.3631
       DOS:  cpu time      0.0013: real time      0.0013
    --------------------------------------------
      LOOP:  cpu time      1.3471: real time      1.3644

 eigenvalue-minimisations  :  3136
 total energy-change (2. order) :-0.6282070E+02  (-0.6151092E+02)
 number of electron     256.0000000 magnetization 
 augmentation part      256.0000000 magnetization 

 Free energy of the ion-electron system (eV)
  ---------------------------------------------------
  alpha Z        PSCENC =       116.25613281
  Ewald energy   TEWEN  =     -7503.84478219
  -Hartree energ DENC   =      -316.12712427
  -exchange      EXHF   =         0.00000000
  -V(xc)+E(xc)   XCENC  =      -549.36716584
  PAW double counting   =      5598.62625415    -4492.17844134
  entropy T*S    EENTRO =         0.00793936
  eigenvalues    EBANDS =       209.71650630
  atomic energy  EATOM  =      6564.79586099
  Solvation  Ediel_sol  =         0.00000000
  ---------------------------------------------------
  free energy    TOTEN  =      -372.11482002 eV

  energy without entropy =     -372.12275938  energy(sigma->0) =     -372.11746647


--------------------------------------------------------------------------------------------------------




--------------------------------------- Iteration      1(   4)  ---------------------------------------


     EDDAV:  cpu time      1.3139: real time      1.3297
       DOS:  cpu time      0.0012: real time      0.0012
    --------------------------------------------
      LOOP:  cpu time      1.3150: real time      1.3309

 eigenvalue-minimisations  :  3144
 total energy-change (2. order) :-0.1595843E+01  (-0.1584719E+01)
 number of electron     256.0000000 magnetization 
 augmentation part      256.0000000 magnetization 

 Free energy of the ion-electron system (eV)
  ---------------------------------------------------
  alpha Z        PSCENC =       116.25613281
  Ewald energy   TEWEN  =     -7503.84478219
  -Hartree energ DENC   =      -316.12712427
  -exchange      EXHF   =         0.00000000
  -V(xc)+E(xc)   XCENC  =      -549.36716584
  PAW double counting   =      5598.62625415    -4492.17844134
  entropy T*S    EENTRO =         0.00822687
  eigenvalues    EBANDS =       208.12037544
  atomic energy  EATOM  =      6564.79586099
  Solvation  Ediel_sol  =         0.00000000
  ---------------------------------------------------
  free energy    TOTEN  =      -373.71066336 eV

  energy without entropy =     -373.71889023  energy(sigma->0) =     -373.71340565


--------------------------------------------------------------------------------------------------------




--------------------------------------- Iteration      1(   5)  ---------------------------------------


     EDDAV:  cpu time      1.3110: real time      1.3351
       DOS:  cpu time      0.0011: real time      0.0011
    CHARGE:  cpu time      0.2416: real time      0.2420
    MIXING:  cpu time      0.0090: real time      0.0093
    --------------------------------------------
      LOOP:  cpu time      1.5627: real time      1.5875

 eigenvalue-minimisations  :  3110
 total energy-change (2. order) :-0.4642627E-01  (-0.4630022E-01)
 number of electron     255.9999998 magnetization 
 augmentation part      -15.1532052 magnetization 

 Broyden mixing:
  rms(total) = 0.31090E+01    rms(broyden)= 0.31090E+01
  rms(prec ) = 0.34210E+01
  weight for this iteration     100.00

 Free energy of the ion-electron system (eV)
  ---------------------------------------------------
  alpha Z        PSCENC =       116.25613281
  Ewald energy   TEWEN  =     -7503.84478219
  -Hartree energ DENC   =      -316.12712427
  -exchange      EXHF   =         0.00000000
  -V(xc)+E(xc)   XCENC  =      -549.36716584
  PAW double counting   =      5598.62625415    -4492.17844134
  entropy T*S    EENTRO =         0.00823888
  eigenvalues    EBANDS =       208.07393716
  atomic energy  EATOM  =      6564.79586099
  Solvation  Ediel_sol  =         0.00000000
  ---------------------------------------------------
  free energy    TOTEN  =      -373.75708963 eV

  energy without entropy =     -373.76532851  energy(sigma->0) =     -373.75983592


--------------------------------------------------------------------------------------------------------




--------------------------------------- Iteration      1(   6)  ---------------------------------------


    POTLOK:  cpu time      0.0840: real time      0.1010
    SETDIJ:  cpu time      0.0838: real time      0.0840
    EDDIAG:  cpu time      0.1328: real time      0.1331
  RMM-DIIS:  cpu time      0.6944: real time      0.6962
    ORTHCH:  cpu time      0.0188: real time      0.0188
       DOS:  cpu time      0.0023: real time      0.0023
    CHARGE:  cpu time      0.2348: real time      0.2355
    MIXING:  cpu time      0.0056: real time      0.0093
    --------------------------------------------
      LOOP:  cpu time      1.2564: real time      1.2801

 eigenvalue-minimisations  :  2592
 total energy-change (2. order) : 0.6234095E+01  (-0.3306198E+00)
 number of electron     255.9999998 magnetization 
 augmentation part      -14.9615927 magnetization 

 Broyden mixing:
  rms(total) = 0.18774E+01    rms(broyden)= 0.18774E+01
  rms(prec ) = 0.20514E+01
  weight for this iteration     100.00

 eigenvalues of (default mixing * dielectric matrix)
  average eigenvalue GAMMA=   2.5177
  2.5177

 Free energy of the ion-electron system (eV)
  ---------------------------------------------------
  alpha Z        PSCENC =       116.25613281
  Ewald energy   TEWEN  =     -7503.84478219
  -Hartree energ DENC   =      -366.21579943
  -exchange      EXHF   =         0.00000000
  -V(xc)+E(xc)   XCENC  =      -541.42569905
  PAW double counting   =     13469.81210410   -12367.50142472
  entropy T*S    EENTRO =         0.02462467
  eigenvalues    EBANDS =       260.57598791
  atomic energy  EATOM  =      6564.79586099
  Solvation  Ediel_sol  =         0.00000000
  ---------------------------------------------------
  free energy    TOTEN  =      -367.52299490 eV

  energy without entropy =     -367.54761957  energy(sigma->0) =     -367.53120313


--------------------------------------------------------------------------------------------------------




--------------------------------------- Iteration      1(   7)  ---------------------------------------


    POTLOK:  cpu time      0.0732: real time      0.0870
    SETDIJ:  cpu time      0.0755: real time      0.0757
    EDDIAG:  cpu time      0.1306: real time      0.1318
  RMM-DIIS:  cpu time      0.7110: real time      0.7125
    ORTHCH:  cpu time      0.0190: real time      0.0190
       DOS:  cpu time      0.0026: real time      0.0026
    CHARGE:  cpu time      0.2348: real time      0.2355
    MIXING:  cpu time      0.0077: real time      0.0089
    --------------------------------------------
      LOOP:  cpu time      1.2545: real time      1.2730

 eigenvalue-minimisations  :  2649
 total energy-change (2. order) : 0.2683728E+01  (-0.8317777E+00)
 number of electron     255.9999998 magnetization 
 augmentation part      -14.6913393 magnetization 

 Broyden mixing:
  rms(total) = 0.12264E+00    rms(broyden)= 0.12264E+00
  rms(prec ) = 0.15400E+00
  weight for this iteration     100.00

 eigenvalues of (default mixing * dielectric matrix)
  average eigenvalue GAMMA=   2.3119
  2.3119  2.3119

 Free energy of the ion-electron system (eV)
  ---------------------------------------------------
  alpha Z        PSCENC =       116.25613281
  Ewald energy   TEWEN  =     -7503.84478219
  -Hartree energ DENC   =      -448.59849519
  -exchange      EXHF   =         0.00000000
  -V(xc)+E(xc)   XCENC  =      -527.77280666
  PAW double counting   =     33103.92824000   -32007.44719137
  entropy T*S    EENTRO =         0.02036860
  eigenvalues    EBANDS =       337.82340628
  atomic energy  EATOM  =      6564.79586099
  Solvation  Ediel_sol  =         0.00000000
  ---------------------------------------------------
  free energy    TOTEN  =      -364.83926670 eV

  energy without entropy =     -364.85963531  energy(sigma->0) =     -364.84605624


--------------------------------------------------------------------------------------------------------




--------------------------------------- Iteration      1(   8)  ---------------------------------------


    POTLOK:  cpu time      0.0753: real time      0.0885
    SETDIJ:  cpu time      0.0745: real time      0.0746
    EDDIAG:  cpu time      0.1366: real time      0.1372
  RMM-DIIS:  cpu time      0.7098: real time      0.7112
    ORTHCH:  cpu time      0.0190: real time      0.0191
       DOS:  cpu time      0.0029: real time      0.0029
    CHARGE:  cpu time      0.2385: real time      0.2392
    MIXING:  cpu time      0.0071: real time      0.0079
    --------------------------------------------
      LOOP:  cpu time      1.2636: real time      1.2804

 eigenvalue-minimisations  :  2619
 total energy-change (2. order) :-0.3168813E-01  (-0.7796585E-01)
 number of electron     255.9999998 magnetization 
 augmentation part      -14.7524108 magnetization 

 Broyden mixing:
  rms(total) = 0.55945E-01    rms(broyden)= 0.55945E-01
  rms(prec ) = 0.60153E-01
  weight for this iteration     100.00

 eigenvalues of (default mixing * dielectric matrix)
  average eigenvalue GAMMA=   2.0736
  2.5599  1.8305  1.8305

 Free energy of the ion-electron system (eV)
  ---------------------------------------------------
  alpha Z        PSCENC =       116.25613281
  Ewald energy   TEWEN  =     -7503.84478219
  -Hartree energ DENC   =      -438.74601247
  -exchange      EXHF   =         0.00000000
  -V(xc)+E(xc)   XCENC  =      -528.61470628
  PAW double counting   =     32885.32448462   -31787.69920073
  entropy T*S    EENTRO =         0.02509996
  eigenvalues    EBANDS =       327.63216846
  atomic energy  EATOM  =      6564.79586099
  Solvation  Ediel_sol  =         0.00000000
  ---------------------------------------------------
  free energy    TOTEN  =      -364.87095483 eV

  energy without entropy =     -364.89605479  energy(sigma->0) =     -364.87932149


--------------------------------------------------------------------------------------------------------




--------------------------------------- Iteration      1(   9)  ---------------------------------------


    POTLOK:  cpu time      0.0785: real time      0.0888
    SETDIJ:  cpu time      0.0751: real time      0.0756
    EDDIAG:  cpu time      0.1325: real time      0.1327
  RMM-DIIS:  cpu time      0.7159: real time      0.7203
    ORTHCH:  cpu time      0.0187: real time      0.0187
       DOS:  cpu time      0.0032: real time      0.0032
    CHARGE:  cpu time      0.2352: real time      0.2358
    MIXING:  cpu time      0.0086: real time      0.0086
    --------------------------------------------
      LOOP:  cpu time      1.2678: real time      1.2838

 eigenvalue-minimisations  :  2668
 total energy-change (2. order) :-0.2357407E-01  (-0.2307030E-01)
 number of electron     255.9999998 magnetization 
 augmentation part      -14.7362617 magnetization 

 Broyden mixing:
  rms(total) = 0.62306E-01    rms(broyden)= 0.62306E-01
  rms(prec ) = 0.71034E-01
  weight for this iteration     100.00

 eigenvalues of (default mixing * dielectric matrix)
  average eigenvalue GAMMA=   1.7512
  2.5544  2.0825  2.0825  0.2855

 Free energy of the ion-electron system (eV)
  ---------------------------------------------------
  alpha Z        PSCENC =       116.25613281
  Ewald energy   TEWEN  =     -7503.84478219
  -Hartree energ DENC   =      -442.49723452
  -exchange      EXHF   =         0.00000000
  -V(xc)+E(xc)   XCENC  =      -528.11635347
  PAW double counting   =     33364.57722361   -32267.28371929
  entropy T*S    EENTRO =         0.02389261
  eigenvalues    EBANDS =       331.19445055
  atomic energy  EATOM  =      6564.79586099
  Solvation  Ediel_sol  =         0.00000000
  ---------------------------------------------------
  free energy    TOTEN  =      -364.89452890 eV

  energy without entropy =     -364.91842151  energy(sigma->0) =     -364.90249311


--------------------------------------------------------------------------------------------------------




--------------------------------------- Iteration      1(  10)  ---------------------------------------


    POTLOK:  cpu time      0.0857: real time      0.0977
    SETDIJ:  cpu time      0.0713: real time      0.0714
    EDDIAG:  cpu time      0.1295: real time      0.1297
  RMM-DIIS:  cpu time      0.7173: real time      0.7193
    ORTHCH:  cpu time      0.0189: real time      0.0189
       DOS:  cpu time      0.0022: real time      0.0022
    CHARGE:  cpu time      0.2347: real time      0.2353
    MIXING:  cpu time      0.0082: real time      0.0082
    --------------------------------------------
      LOOP:  cpu time      1.2677: real time      1.2827

 eigenvalue-minimisations  :  2710
 total energy-change (2. order) :-0.5008056E-02  (-0.4184606E-02)
 number of electron     255.9999998 magnetization 
 augmentation part      -14.7420479 magnetization 

 Broyden mixing:
  rms(total) = 0.90802E-01    rms(broyden)= 0.90802E-01
  rms(prec ) = 0.98872E-01
  weight for this iteration     100.00

 eigenvalues of (default mixing * dielectric matrix)
  average eigenvalue GAMMA=   1.6430
  2.6807  2.3289  1.7536  0.7258  0.7258

 Free energy of the ion-electron system (eV)
  ---------------------------------------------------
  alpha Z        PSCENC =       116.25613281
  Ewald energy   TEWEN  =     -7503.84478219
  -Hartree energ DENC   =      -442.76527436
  -exchange      EXHF   =         0.00000000
  -V(xc)+E(xc)   XCENC  =      -528.08733039
  PAW double counting   =     33431.05351818   -32333.77060091
  entropy T*S    EENTRO =         0.02375549
  eigenvalues    EBANDS =       331.43918341
  atomic energy  EATOM  =      6564.79586099
  Solvation  Ediel_sol  =         0.00000000
  ---------------------------------------------------
  free energy    TOTEN  =      -364.89953696 eV

  energy without entropy =     -364.92329245  energy(sigma->0) =     -364.90745546


--------------------------------------------------------------------------------------------------------




--------------------------------------- Iteration      1(  11)  ---------------------------------------


    POTLOK:  cpu time      0.0800: real time      0.0895
    SETDIJ:  cpu time      0.0743: real time      0.0744
    EDDIAG:  cpu time      0.1293: real time      0.1295
  RMM-DIIS:  cpu time      0.7009: real time      0.7023
    ORTHCH:  cpu time      0.0189: real time      0.0189
       DOS:  cpu time      0.0029: real time      0.0029
    CHARGE:  cpu time      0.2346: real time      0.2352
    MIXING:  cpu time      0.0094: real time      0.0095
    --------------------------------------------
      LOOP:  cpu time      1.2504: real time      1.2623

 eigenvalue-minimisations  :  2592
 total energy-change (2. order) : 0.5259600E-02  (-0.1573100E-02)
 number of electron     255.9999998 magnetization 
 augmentation part      -14.7576304 magnetization 

 Broyden mixing:
  rms(total) = 0.56192E-01    rms(broyden)= 0.56192E-01
  rms(prec ) = 0.56662E-01
  weight for this iteration     100.00

 eigenvalues of (default mixing * dielectric matrix)
  average eigenvalue GAMMA=   1.5001
  2.5947  2.5947  1.4369  1.2620  0.7938  0.3186

 Free energy of the ion-electron system (eV)
  ---------------------------------------------------
  alpha Z        PSCENC =       116.25613281
  Ewald energy   TEWEN  =     -7503.84478219
  -Hartree energ DENC   =      -439.79193636
  -exchange      EXHF   =         0.00000000
  -V(xc)+E(xc)   XCENC  =      -528.32334665
  PAW double counting   =     33293.96206405   -32196.40303293
  entropy T*S    EENTRO =         0.02518612
  eigenvalues    EBANDS =       328.42957679
  atomic energy  EATOM  =      6564.79586099
  Solvation  Ediel_sol  =         0.00000000
  ---------------------------------------------------
  free energy    TOTEN  =      -364.89427736 eV

  energy without entropy =     -364.91946348  energy(sigma->0) =     -364.90267273


--------------------------------------------------------------------------------------------------------




--------------------------------------- Iteration      1(  12)  ---------------------------------------


    POTLOK:  cpu time      0.0737: real time      0.0893
    SETDIJ:  cpu time      0.0716: real time      0.0717
    EDDIAG:  cpu time      0.1308: real time      0.1310
  RMM-DIIS:  cpu time      0.6990: real time      0.7004
    ORTHCH:  cpu time      0.0187: real time      0.0187
       DOS:  cpu time      0.0028: real time      0.0028
    CHARGE:  cpu time      0.2355: real time      0.2361
    MIXING:  cpu time      0.0084: real time      0.0084
    --------------------------------------------
      LOOP:  cpu time      1.2405: real time      1.2585

 eigenvalue-minimisations  :  2625
 total energy-change (2. order) :-0.2064220E-03  (-0.1921402E-03)
 number of electron     255.9999998 magnetization 
 augmentation part      -14.7604416 magnetization 

 Broyden mixing:
  rms(total) = 0.53257E-01    rms(broyden)= 0.53257E-01
  rms(prec ) = 0.53540E-01
  weight for this iteration     100.00

 eigenvalues of (default mixing * dielectric matrix)
  average eigenvalue GAMMA=   1.4584
  2.5960  2.5960  1.8657  1.0608  0.8829  0.4508  0.7567

 Free energy of the ion-electron system (eV)
  ---------------------------------------------------
  alpha Z        PSCENC =       116.25613281
  Ewald energy   TEWEN  =     -7503.84478219
  -Hartree energ DENC   =      -439.69883571
  -exchange      EXHF   =         0.00000000
  -V(xc)+E(xc)   XCENC  =      -528.34296288
  PAW double counting   =     33213.30175030   -32115.75420074
  entropy T*S    EENTRO =         0.02520827
  eigenvalues    EBANDS =       328.36734535
  atomic energy  EATOM  =      6564.79586099
  Solvation  Ediel_sol  =         0.00000000
  ---------------------------------------------------
  free energy    TOTEN  =      -364.89448378 eV

  energy without entropy =     -364.91969205  energy(sigma->0) =     -364.90288654


--------------------------------------------------------------------------------------------------------




--------------------------------------- Iteration      1(  13)  ---------------------------------------


    POTLOK:  cpu time      0.0775: real time      0.0943
    SETDIJ:  cpu time      0.0698: real time      0.0700
    EDDIAG:  cpu time      0.1291: real time      0.1294
  RMM-DIIS:  cpu time      0.7159: real time      0.7173
    ORTHCH:  cpu time      0.0188: real time      0.0189
       DOS:  cpu time      0.0025: real time      0.0025
    CHARGE:  cpu time      0.2350: real time      0.2356
    MIXING:  cpu time      0.0090: real time      0.0090
    --------------------------------------------
      LOOP:  cpu time      1.2576: real time      1.2768

 eigenvalue-minimisations  :  2706
 total energy-change (2. order) :-0.7009363E-04  (-0.3520391E-04)
 number of electron     255.9999998 magnetization 
 augmentation part      -14.7610800 magnetization 

 Broyden mixing:
  rms(total) = 0.61171E-01    rms(broyden)= 0.61171E-01
  rms(prec ) = 0.61423E-01
  weight for this iteration     100.00

 eigenvalues of (default mixing * dielectric matrix)
  average eigenvalue GAMMA=   1.7438
  3.0421  3.0421  2.3040  2.3040  0.9668  0.8979  0.8979  0.4957

 Free energy of the ion-electron system (eV)
  ---------------------------------------------------
  alpha Z        PSCENC =       116.25613281
  Ewald energy   TEWEN  =     -7503.84478219
  -Hartree energ DENC   =      -439.74812587
  -exchange      EXHF   =         0.00000000
  -V(xc)+E(xc)   XCENC  =      -528.32855603
  PAW double counting   =     33283.34431304   -32185.79989072
  entropy T*S    EENTRO =         0.02521092
  eigenvalues    EBANDS =       328.40528315
  atomic energy  EATOM  =      6564.79586099
  Solvation  Ediel_sol  =         0.00000000
  ---------------------------------------------------
  free energy    TOTEN  =      -364.89455388 eV

  energy without entropy =     -364.91976480  energy(sigma->0) =     -364.90295752


--------------------------------------------------------------------------------------------------------




--------------------------------------- Iteration      1(  14)  ---------------------------------------


    POTLOK:  cpu time      0.0716: real time      0.0891
    SETDIJ:  cpu time      0.0761: real time      0.0762
    EDDIAG:  cpu time      0.1302: real time      0.1305
  RMM-DIIS:  cpu time      0.6923: real time      0.6941
    ORTHCH:  cpu time      0.0183: real time      0.0323
       DOS:  cpu time      0.0017: real time      0.0017
    CHARGE:  cpu time      0.2347: real time      0.2353
    MIXING:  cpu time      0.0088: real time      0.0088
    --------------------------------------------
      LOOP:  cpu time      1.2338: real time      1.2681

 eigenvalue-minimisations  :  2600
 total energy-change (2. order) : 0.2938203E-05  (-0.9691211E-05)
 number of electron     255.9999998 magnetization 
 augmentation part      -14.7610324 magnetization 

 Broyden mixing:
  rms(total) = 0.20671E-01    rms(broyden)= 0.20671E-01
  rms(prec ) = 0.20961E-01
  weight for this iteration     100.00

 eigenvalues of (default mixing * dielectric matrix)
  average eigenvalue GAMMA=   1.5307
  2.6423  2.6423  2.4690  2.1311  0.9502  0.9349  0.9349  0.5359  0.5359

 Free energy of the ion-electron system (eV)
  ---------------------------------------------------
  alpha Z        PSCENC =       116.25613281
  Ewald energy   TEWEN  =     -7503.84478219
  -Hartree energ DENC   =      -439.58950215
  -exchange      EXHF   =         0.00000000
  -V(xc)+E(xc)   XCENC  =      -528.37535269
  PAW double counting   =     32919.56072211   -31822.03694939
  entropy T*S    EENTRO =         0.02522121
  eigenvalues    EBANDS =       328.31409836
  atomic energy  EATOM  =      6564.79586099
  Solvation  Ediel_sol  =         0.00000000
  ---------------------------------------------------
  free energy    TOTEN  =      -364.89455094 eV

  energy without entropy =     -364.91977214  energy(sigma->0) =     -364.90295801


--------------------------------------------------------------------------------------------------------




--------------------------------------- Iteration      1(  15)  ---------------------------------------


    POTLOK:  cpu time      0.0772: real time      0.0956
    SETDIJ:  cpu time      0.0699: real time      0.0701
    EDDIAG:  cpu time      0.1295: real time      0.1298
  RMM-DIIS:  cpu time      0.7069: real time      0.7083
    ORTHCH:  cpu time      0.0187: real time      0.0187
       DOS:  cpu time      0.0032: real time      0.0032
    CHARGE:  cpu time      0.2360: real time      0.2367
    MIXING:  cpu time      0.0095: real time      0.0095
    --------------------------------------------
      LOOP:  cpu time      1.2510: real time      1.2718

 eigenvalue-minimisations  :  2645
 total energy-change (2. order) :-0.4568969E-04  (-0.4027858E-05)
 number of electron     255.9999998 magnetization 
 augmentation part      -14.7613189 magnetization 

 Broyden mixing:
  rms(total) = 0.15637E-01    rms(broyden)= 0.15637E-01
  rms(prec ) = 0.15819E-01
  weight for this iteration     100.00

 eigenvalues of (default mixing * dielectric matrix)
  average eigenvalue GAMMA=   1.4888
  2.7125  2.7125  2.2463  2.0666  0.8750  0.8750  1.0131  1.0131  0.8740  0.4996

 Free energy of the ion-electron system (eV)
  ---------------------------------------------------
  alpha Z        PSCENC =       116.25613281
  Ewald energy   TEWEN  =     -7503.84478219
  -Hartree energ DENC   =      -439.57341013
  -exchange      EXHF   =         0.00000000
  -V(xc)+E(xc)   XCENC  =      -528.37085418
  PAW double counting   =     32920.37558161   -31822.84931626
  entropy T*S    EENTRO =         0.02526136
  eigenvalues    EBANDS =       328.29092936
  atomic energy  EATOM  =      6564.79586099
  Solvation  Ediel_sol  =         0.00000000
  ---------------------------------------------------
  free energy    TOTEN  =      -364.89459663 eV

  energy without entropy =     -364.91985799  energy(sigma->0) =     -364.90301708


--------------------------------------------------------------------------------------------------------




--------------------------------------- Iteration      1(  16)  ---------------------------------------


    POTLOK:  cpu time      0.0816: real time      0.0896
    SETDIJ:  cpu time      0.0739: real time      0.0740
    EDDIAG:  cpu time      0.1307: real time      0.1313
  RMM-DIIS:  cpu time      0.6951: real time      0.6964
    ORTHCH:  cpu time      0.0190: real time      0.0193
       DOS:  cpu time      0.0028: real time      0.0029
    CHARGE:  cpu time      0.2360: real time      0.2364
    MIXING:  cpu time      0.0096: real time      0.0100
    --------------------------------------------
      LOOP:  cpu time      1.2486: real time      1.2599

 eigenvalue-minimisations  :  2593
 total energy-change (2. order) :-0.2991319E-04  (-0.2137222E-05)
 number of electron     255.9999998 magnetization 
 augmentation part      -14.7611277 magnetization 

 Broyden mixing:
  rms(total) = 0.10110E-01    rms(broyden)= 0.10110E-01
  rms(prec ) = 0.10169E-01
  weight for this iteration     100.00

 eigenvalues of (default mixing * dielectric matrix)
  average eigenvalue GAMMA=   1.3607
  2.7144  2.7144  2.2343  2.0877  0.8710  0.8710  1.0105  1.0105  0.8732  0.4987
  0.0819

 Free energy of the ion-electron system (eV)
  ---------------------------------------------------
  alpha Z        PSCENC =       116.25613281
  Ewald energy   TEWEN  =     -7503.84478219
  -Hartree energ DENC   =      -439.66269528
  -exchange      EXHF   =         0.00000000
  -V(xc)+E(xc)   XCENC  =      -528.35990170
  PAW double counting   =     32925.36385594   -31827.83796420
  entropy T*S    EENTRO =         0.02527398
  eigenvalues    EBANDS =       328.36959310
  atomic energy  EATOM  =      6564.79586099
  Solvation  Ediel_sol  =         0.00000000
  ---------------------------------------------------
  free energy    TOTEN  =      -364.89462654 eV

  energy without entropy =     -364.91990052  energy(sigma->0) =     -364.90305120


--------------------------------------------------------------------------------------------------------




--------------------------------------- Iteration      1(  17)  ---------------------------------------


    POTLOK:  cpu time      0.0755: real time      0.0908
    SETDIJ:  cpu time      0.0729: real time      0.0730
    EDDIAG:  cpu time      0.1292: real time      0.1295
  RMM-DIIS:  cpu time      0.6081: real time      0.6092
    ORTHCH:  cpu time      0.0192: real time      0.0192
       DOS:  cpu time      0.0034: real time      0.0034
    CHARGE:  cpu time      0.2507: real time      0.2514
    MIXING:  cpu time      0.0116: real time      0.0117
    --------------------------------------------
      LOOP:  cpu time      1.1706: real time      1.1882

 eigenvalue-minimisations  :  2281
 total energy-change (2. order) :-0.2796867E-05  (-0.6162088E-06)
 number of electron     255.9999998 magnetization 
 augmentation part      -14.7609529 magnetization 

 Broyden mixing:
  rms(total) = 0.29052E-02    rms(broyden)= 0.29052E-02
  rms(prec ) = 0.29407E-02
  weight for this iteration     100.00

 eigenvalues of (default mixing * dielectric matrix)
  average eigenvalue GAMMA=   1.6588
  2.2140  2.2140  2.7741  2.7741  2.4893  1.9584  1.0002  1.0002  1.0355  1.0355
  0.9055  0.5052

 Free energy of the ion-electron system (eV)
  ---------------------------------------------------
  alpha Z        PSCENC =       116.25613281
  Ewald energy   TEWEN  =     -7503.84478219
  -Hartree energ DENC   =      -439.67586814
  -exchange      EXHF   =         0.00000000
  -V(xc)+E(xc)   XCENC  =      -528.36331666
  PAW double counting   =     32877.18012918   -31779.65438253
  entropy T*S    EENTRO =         0.02527932
  eigenvalues    EBANDS =       328.38631788
  atomic energy  EATOM  =      6564.79586099
  Solvation  Ediel_sol  =         0.00000000
  ---------------------------------------------------
  free energy    TOTEN  =      -364.89462934 eV

  energy without entropy =     -364.91990866  energy(sigma->0) =     -364.90305578


--------------------------------------------------------------------------------------------------------




--------------------------------------- Iteration      1(  18)  ---------------------------------------


    POTLOK:  cpu time      0.0742: real time      0.0897
    SETDIJ:  cpu time      0.0731: real time      0.0733
    EDDIAG:  cpu time      0.1326: real time      0.1328
  RMM-DIIS:  cpu time      0.4478: real time      0.4487
    ORTHCH:  cpu time      0.0191: real time      0.0192
       DOS:  cpu time      0.0025: real time      0.0025
    --------------------------------------------
      LOOP:  cpu time      0.7493: real time      0.7661

 eigenvalue-minimisations  :  1563
 total energy-change (2. order) :-0.4970243E-06  (-0.8573288E-07)
 number of electron     255.9999998 magnetization 
 augmentation part      -14.7609529 magnetization 

 Free energy of the ion-electron system (eV)
  ---------------------------------------------------
  alpha Z        PSCENC =       116.25613281
  Ewald energy   TEWEN  =     -7503.84478219
  -Hartree energ DENC   =      -439.67727917
  -exchange      EXHF   =         0.00000000
  -V(xc)+E(xc)   XCENC  =      -528.36458116
  PAW double counting   =     32861.70919502   -31764.18350857
  entropy T*S    EENTRO =         0.02528226
  eigenvalues    EBANDS =       328.38905017
  atomic energy  EATOM  =      6564.79586099
  Solvation  Ediel_sol  =         0.00000000
  ---------------------------------------------------
  free energy    TOTEN  =      -364.89462983 eV

  energy without entropy =     -364.91991209  energy(sigma->0) =     -364.90305725


--------------------------------------------------------------------------------------------------------




 average (electrostatic) potential at core
  the test charge radii are     0.9892
  (the norm of the test charge is              1.0000)
       1 -82.1465       2 -82.1465       3 -82.1465       4 -82.1465       5 -82.1465
       6 -82.1465       7 -82.1465       8 -82.1465       9 -82.1465      10 -82.1465
      11 -82.1465      12 -82.1465      13 -82.1465      14 -82.1465      15 -82.1465
      16 -82.1465      17 -82.1465      18 -82.1465      19 -82.1465      20 -82.1465
      21 -82.1465      22 -82.1465      23 -82.1465      24 -82.1465      25 -82.1465
      26 -82.1465      27 -82.1465      28 -82.1465      29 -82.1465      30 -82.1465
      31 -82.1465      32 -82.1465      33 -82.1465      34 -82.1465      35 -82.1465
      36 -82.1465      37 -82.1465      38 -82.1465      39 -82.1465      40 -82.1465
      41 -82.1465      42 -82.1465      43 -82.1465      44 -82.1465      45 -82.1465
      46 -82.1465      47 -82.1465      48 -82.1465      49 -82.1465      50 -82.1465
      51 -82.1465      52 -82.1465      53 -82.1465      54 -82.1465      55 -82.1465
      56 -82.1465      57 -82.1465      58 -82.1465      59 -82.1465      60 -82.1465
      61 -82.1465      62 -82.1465      63 -82.1465      64 -82.1465
 
 
 
 E-fermi :   6.7799     XC(G=0):  -9.8521     alpha+bet :-12.9423

 val. band max:        6.6828877610   @ k =   0.0000   0.0000   0.0000
 cond. band min:       6.8781479407   @ k =   0.5000  -0.0000   0.0000
 fundamental gap:      0.1952601797
 Fermi energy:         6.7798653464

 k-point     1 :       0.0000    0.0000    0.0000
  band No.  band energies     occupation 
      1      -5.9399      2.00000
      2      -4.7902      2.00000
      3      -4.7902      2.00000
      4      -4.7898      2.00000
      5      -4.7898      2.00000
      6      -4.7592      2.00000
      7      -4.7592      2.00000
      8      -3.7731      2.00000
      9      -3.7731      2.00000
     10      -3.7493      2.00000
     11      -3.7493      2.00000
     12      -3.7493      2.00000
     13      -3.7493      2.00000
     14      -3.7269      2.00000
     15      -3.7269      2.00000
     16      -3.7269      2.00000
     17      -3.7269      2.00000
     18      -3.6795      2.00000
     19      -3.6795      2.00000
     20      -3.4392      2.00000
     21      -3.4392      2.00000
     22      -3.3311      2.00000
     23      -3.3311      2.00000
     24      -1.5844      2.00000
     25      -1.5227      2.00000
     26      -1.5227      2.00000
     27      -1.4633      2.00000
     28      -1.4225      2.00000
     29      -1.4225      2.00000
     30      -1.3741      2.00000
     31      -1.3741      2.00000
     32      -1.3408      2.00000
     33      -1.3408      2.00000
     34      -1.2697      2.00000
     35      -1.2697      2.00000
     36      -1.2697      2.00000
     37      -1.2697      2.00000
     38      -1.2305      2.00000
     39      -1.2305      2.00000
     40      -1.1987      2.00000
     41      -1.1987      2.00000
     42      -0.8071      2.00000
     43      -0.8071      2.00000
     44      -0.7899      2.00000
     45      -0.7899      2.00000
     46       0.9103      2.00000
     47       0.9103      2.00000
     48       0.9365      2.00000
     49       0.9365      2.00000
     50       0.9365      2.00000
     51       0.9365      2.00000
     52       0.9611      2.00000
     53       0.9611      2.00000
     54       0.9976      2.00000
     55       0.9976      2.00000
     56       0.9976      2.00000
     57       0.9976      2.00000
     58       2.3439      2.00000
     59       2.3439      2.00000
     60       2.3474      2.00000
     61       2.3474      2.00000
     62       2.3549      2.00000
     63       2.3549      2.00000
     64       2.3579      2.00000
     65       2.3579      2.00000
     66       2.3579      2.00000
     67       2.3579      2.00000
     68       2.3596      2.00000
     69       2.3596      2.00000
     70       2.4422      2.00000
     71       2.4422      2.00000
     72       2.4617      2.00000
     73       2.4617      2.00000
     74       2.4617      2.00000
     75       2.4617      2.00000
     76       2.4794      2.00000
     77       2.4794      2.00000
     78       2.5522      2.00000
     79       2.5522      2.00000
     80       2.5522      2.00000
     81       2.5522      2.00000
     82       3.0501      2.00000
     83       3.0501      2.00000
     84       3.0538      2.00000
     85       3.0538      2.00000
     86       3.1699      2.00000
     87       3.1699      2.00000
     88       3.4380      2.00000
     89       3.4380      2.00000
     90       3.4726      2.00000
     91       3.5626      2.00000
     92       3.5626      2.00000
     93       3.6537      2.00000
     94       4.4814      2.00000
     95       4.4814      2.00000
     96       4.4814      2.00000
     97       4.4815      2.00000
     98       4.4976      2.00000
     99       4.4976      2.00000
    100       4.5610      2.00000
    101       4.5610      2.00000
    102       4.5945      2.00000
    103       4.5945      2.00000
    104       4.6609      2.00000
    105       4.6609      2.00000
    106       5.0919      2.00000
    107       5.0919      2.00000
    108       5.0919      2.00000
    109       5.0919      2.00000
    110       5.1769      2.00000
    111       5.1769      2.00000
    112       5.2146      2.00000
    113       5.2146      2.00000
    114       5.2198      2.00000
    115       5.2198      2.00000
    116       5.2198      2.00000
    117       5.2198      2.00000
    118       5.2653      2.00000
    119       5.2653      2.00000
    120       5.2961      2.00000
    121       5.2961      2.00000
    122       5.3715      2.00000
    123       5.3715      2.00000
    124       5.4486      2.00000
    125       5.4486      2.00000
    126       6.5630      2.06362
    127       6.5663      2.06164
    128       6.6829      1.72337
    129       6.9446      0.00818
    130       6.9446      0.00818
    131       6.9779     -0.04819
    132       7.0710     -0.05914
    133       7.0710     -0.05914
    134       7.1663     -0.01979
    135       7.4766     -0.00001
    136       7.4766     -0.00001
    137       7.6003     -0.00000
    138       7.6003     -0.00000
    139       7.6010     -0.00000
    140       7.6010     -0.00000
    141       8.2596     -0.00000
    142       8.2596     -0.00000
    143       8.4012     -0.00000
    144       8.4013     -0.00000
    145       8.8958     -0.00000
    146       8.8958     -0.00000
    147       8.8962     -0.00000
    148       8.8971     -0.00000
    149       8.9937     -0.00000
    150       8.9965     -0.00000
    151       9.0150     -0.00000
    152       9.0430     -0.00000
    153       9.0434     -0.00000
    154       9.0446     -0.00000
    155       9.0499     -0.00000
    156       9.0988     -0.00000
    157       9.1037     -0.00000
    158       9.1560     -0.00000
    159       9.2727     -0.00000
    160       9.5808     -0.00000
    161       9.6285     -0.00000
    162       9.6819     -0.00000

 k-point     2 :       0.5000   -0.0000    0.0000
  band No.  band energies     occupation 
      1      -5.6421      2.00000
      2      -5.6421      2.00000
      3      -4.5398      2.00000
      4      -4.5398      2.00000
      5      -4.5168      2.00000
      6      -4.5168      2.00000
      7      -4.5168      2.00000
      8      -4.5168      2.00000
      9      -4.4930      2.00000
     10      -4.4930      2.00000
     11      -3.6209      2.00000
     12      -3.6209      2.00000
     13      -3.6209      2.00000
     14      -3.6209      2.00000
     15      -3.5569      2.00000
     16      -3.5569      2.00000
     17      -3.5569      2.00000
     18      -3.5569      2.00000
     19      -3.3273      2.00000
     20      -3.3273      2.00000
     21      -2.6103      2.00000
     22      -2.6103      2.00000
     23      -2.5434      2.00000
     24      -2.5434      2.00000
     25      -2.5434      2.00000
     26      -2.5434      2.00000
     27      -2.4750      2.00000
     28      -2.4750      2.00000
     29      -1.4866      2.00000
     30      -1.4866      2.00000
     31      -1.4649      2.00000
     32      -1.4649      2.00000
     33      -1.3737      2.00000
     34      -1.3737      2.00000
     35      -1.3540      2.00000
     36      -1.3540      2.00000
     37      -0.2257      2.00000
     38      -0.2257      2.00000
     39      -0.1765      2.00000
     40      -0.1765      2.00000
     41      -0.1765      2.00000
     42      -0.1765      2.00000
     43      -0.1307      2.00000
     44      -0.1307      2.00000
     45      -0.1097      2.00000
     46      -0.1097      2.00000
     47      -0.1097      2.00000
     48      -0.1097      2.00000
     49      -0.0908      2.00000
     50      -0.0908      2.00000
     51      -0.0908      2.00000
     52      -0.0908      2.00000
     53       0.8139      2.00000
     54       0.8139      2.00000
     55       1.9228      2.00000
     56       1.9228      2.00000
     57       1.9250      2.00000
     58       1.9250      2.00000
     59       1.9250      2.00000
     60       1.9250      2.00000
     61       1.9272      2.00000
     62       1.9272      2.00000
     63       2.1880      2.00000
     64       2.1880      2.00000
     65       2.2019      2.00000
     66       2.2019      2.00000
     67       2.2019      2.00000
     68       2.2019      2.00000
     69       2.2209      2.00000
     70       2.2209      2.00000
     71       2.8186      2.00000
     72       2.8186      2.00000
     73       2.8559      2.00000
     74       2.8559      2.00000
     75       2.8835      2.00000
     76       2.8835      2.00000
     77       2.9220      2.00000
     78       2.9220      2.00000
     79       3.5903      2.00000
     80       3.5903      2.00000
     81       3.6250      2.00000
     82       3.6250      2.00000
     83       3.6250      2.00000
     84       3.6250      2.00000
     85       3.6531      2.00000
     86       3.6531      2.00000
     87       3.7037      2.00000
     88       3.7037      2.00000
     89       3.7041      2.00000
     90       3.7041      2.00000
     91       3.8002      2.00000
     92       3.8002      2.00000
     93       3.8312      2.00000
     94       3.8312      2.00000
     95       3.8312      2.00000
     96       3.8312      2.00000
     97       3.8614      2.00000
     98       3.8614      2.00000
     99       4.0054      2.00000
    100       4.0054      2.00000
    101       4.0054      2.00000
    102       4.0054      2.00000
    103       4.0895      2.00000
    104       4.0895      2.00000
    105       4.0895      2.00000
    106       4.0895      2.00000
    107       5.0762      2.00000
    108       5.0762      2.00000
    109       5.0762      2.00000
    110       5.0762      2.00000
    111       5.0775      2.00000
    112       5.0775      2.00000
    113       5.0797      2.00000
    114       5.0797      2.00000
    115       5.1430      2.00000
    116       5.1430      2.00000
    117       5.1430      2.00000
    118       5.1430      2.00000
    119       5.1970      2.00000
    120       5.1970      2.00000
    121       5.1970      2.00000
    122       5.1970      2.00000
    123       5.3969      2.00000
    124       5.3969      2.00000
    125       5.6642      2.00000
    126       5.6642      2.00000
    127       5.6679      2.00000
    128       5.6679      2.00000
    129       6.8781      0.26931
    130       6.8781      0.26931
    131       7.8262     -0.00000
    132       7.8262     -0.00000
    133       8.3704     -0.00000
    134       8.3704     -0.00000
    135       8.4778     -0.00000
    136       8.4779     -0.00000
    137       8.4841     -0.00000
    138       8.4843     -0.00000
    139       8.5004     -0.00000
    140       8.5005     -0.00000
    141       8.6157     -0.00000
    142       8.6161     -0.00000
    143       8.9095     -0.00000
    144       8.9102     -0.00000
    145       8.9115     -0.00000
    146       8.9160     -0.00000
    147       8.9907     -0.00000
    148       8.9912     -0.00000
    149       8.9928     -0.00000
    150       8.9975     -0.00000
    151       9.0011     -0.00000
    152       9.0068     -0.00000
    153       9.0577     -0.00000
    154       9.0593     -0.00000
    155       9.0643     -0.00000
    156       9.0692     -0.00000
    157       9.1270     -0.00000
    158       9.1395     -0.00000
    159       9.3105     -0.00000
    160       9.3460     -0.00000
    161       9.3786     -0.00000
    162       9.4116     -0.00000

 k-point     3 :       0.0000    0.5000    0.0000
  band No.  band energies     occupation 
[...]
  0.000   0.000   4.168   0.000   0.000   7.763   0.000   0.000
 -0.001  -0.001   0.000   4.168   0.000   0.000   7.763   0.000
  0.000   0.000   0.000   0.000   4.168   0.000   0.000   7.763
  0.000   0.000   7.763   0.000   0.000  14.472   0.000   0.000
 -0.002  -0.002   0.000   7.763   0.000   0.000  14.472   0.000
  0.000   0.000   0.000   0.000   7.763   0.000   0.000  14.472
 total augmentation occupancy for first ion, spin component:           1
  6.608  -2.658   0.000   0.040  -0.000  -0.000  -0.015   0.000
 -2.658   1.176  -0.000  -0.020   0.000   0.000   0.007  -0.000
  0.000   0.000   3.241   0.000   0.001  -0.749   0.000   0.002
  0.040  -0.020   0.000   3.242   0.000   0.000  -0.749   0.000
 -0.000   0.000   0.001   0.000   3.210   0.002   0.000  -0.737
 -0.000   0.000  -0.749   0.000   0.002   0.183   0.000  -0.001
 -0.015   0.007   0.000  -0.749  -0.000   0.000   0.183  -0.000
  0.000  -0.000   0.002  -0.000  -0.737  -0.001  -0.000   0.179


------------------------ aborting loop because EDIFF is reached ----------------------------------------


    CHARGE:  cpu time      0.2613: real time      0.2620
    FORLOC:  cpu time      0.0222: real time      0.0222
    FORNL :  cpu time      0.6850: real time      0.6874
    STRESS:  cpu time      2.1361: real time      2.1723
    FORCOR:  cpu time      0.0852: real time      0.0855
    FORHAR:  cpu time      0.0339: real time      0.0341
    MIXING:  cpu time      0.0129: real time      0.0129
    OFIELD:  cpu time      0.0000: real time      0.0000

  FORCE on cell =-STRESS in cart. coord.  units (eV):
  Direction    XX          YY          ZZ          XY          YZ          ZX
  --------------------------------------------------------------------------------------
  Alpha Z   116.25613   116.25613   116.25613
  Ewald   -2536.13355 -2484.13998 -2484.08552     6.42879     0.00000    -0.00000
  Hartree   141.15337   149.14886   149.01902     6.17113    -0.00000    -0.00000
  E(xc)    -832.80412  -833.29837  -833.31737     0.01137    -0.00000    -0.00000
  Local    -855.80790  -917.42198  -917.52601   -13.89110    -0.00000     0.00000
  n-local  2530.80053  2538.88804  2539.22181    -0.77805     0.00000     0.00000
  augment  -370.12414  -370.14474  -370.17111    -0.46397     0.00000     0.00000
  Kinetic  1878.15684  1863.57055  1863.30851    10.78810     0.00000     0.00000
  Fock        0.00000     0.00000     0.00000     0.00000     0.00000     0.00000
  -------------------------------------------------------------------------------------
  Total      71.49716    62.85850    62.70547     8.26627     0.00000     0.00000
  in kB      96.58302    84.91336    84.70664    11.16661     0.00000     0.00000
  external pressure =       88.73 kB  Pullay stress =        0.00 kB


 VOLUME and BASIS-vectors are now :
 -----------------------------------------------------------------------------
  energy-cutoff  :      400.00
  volume of cell :     1186.04
      direct lattice vectors                 reciprocal lattice vectors
    10.479291548 -0.079792012  0.000000000     0.095431748  0.000715742  0.000000000
    -0.079792012 10.638875571  0.000000000     0.000715742  0.094000264  0.000000000
     0.000000000  0.000000000 10.638875571     0.000000000  0.000000000  0.093994896

  length of vectors
    10.479595322 10.639174789 10.638875571     0.095434432  0.094002989  0.093994896


 FORCES acting on ions
    electron-ion (+dipol)            ewald-force                    non-local-force                 convergence-correction
 -----------------------------------------------------------------------------------------------
   -.201E-08 -.202E-08 0.125E+01   0.422E-14 -.193E-13 -.886E+00   0.389E-20 -.479E-20 -.366E+00   -.936E-14 -.397E-13 -.217E-04
   -.201E-08 -.202E-08 0.125E+01   -.266E-14 -.178E-13 -.886E+00   0.112E-20 -.801E-20 -.366E+00   0.477E-14 -.941E-13 -.217E-04
   -.201E-08 -.202E-08 0.125E+01   -.266E-14 -.284E-13 -.886E+00   0.675E-22 -.546E-20 -.366E+00   -.136E-13 0.495E-13 -.217E-04
   -.201E-08 -.202E-08 0.125E+01   -.888E-15 -.266E-13 -.886E+00   -.355E-20 -.904E-20 -.366E+00   0.666E-14 0.101E-12 -.217E-04
   -.201E-08 -.202E-08 0.125E+01   -.444E-15 -.178E-13 -.886E+00   -.105E-20 -.408E-20 -.366E+00   0.255E-13 -.497E-13 -.217E-04
   -.201E-08 -.202E-08 0.125E+01   -.444E-15 -.142E-13 -.886E+00   -.317E-20 -.836E-20 -.366E+00   -.117E-13 -.590E-13 -.217E-04
   -.201E-08 -.202E-08 0.125E+01   -.209E-13 -.271E-13 -.886E+00   0.231E-20 0.187E-20 -.366E+00   0.330E-13 0.558E-13 -.217E-04
   -.201E-08 -.202E-08 0.125E+01   -.178E-13 -.249E-13 -.886E+00   0.232E-20 -.804E-20 -.366E+00   -.166E-13 0.617E-13 -.217E-04
   0.378E-08 0.356E-08 -.125E+01   -.311E-14 -.213E-13 0.886E+00   0.150E-20 0.479E-20 0.366E+00   0.538E-13 -.707E-13 0.217E-04
   0.378E-08 0.356E-08 -.125E+01   -.533E-14 -.178E-13 0.886E+00   0.996E-21 0.801E-20 0.366E+00   -.427E-13 0.148E-12 0.217E-04
   0.378E-08 0.356E-08 -.125E+01   -.666E-14 -.142E-13 0.886E+00   -.235E-20 0.547E-20 0.366E+00   0.644E-13 0.710E-13 0.217E-04
   0.378E-08 0.356E-08 -.125E+01   -.107E-13 -.160E-13 0.886E+00   -.228E-20 -.451E-20 0.366E+00   -.570E-13 -.156E-12 0.217E-04
   0.378E-08 0.355E-08 -.125E+01   0.178E-14 -.138E-13 0.886E+00   -.277E-20 0.108E-19 0.366E+00   -.622E-13 -.594E-13 0.217E-04
   0.378E-08 0.355E-08 -.125E+01   0.355E-14 -.142E-13 0.886E+00   -.222E-20 0.836E-20 0.366E+00   0.373E-13 0.161E-12 0.217E-04
   0.378E-08 0.356E-08 -.125E+01   -.191E-13 -.164E-13 0.886E+00   0.182E-20 0.491E-20 0.366E+00   -.673E-13 0.528E-13 0.217E-04
   0.378E-08 0.356E-08 -.125E+01   -.178E-14 -.178E-13 0.886E+00   0.167E-20 0.805E-20 0.366E+00   0.484E-13 -.169E-12 0.217E-04
   -.201E-08 -.202E-08 0.125E+01   -.844E-14 -.711E-14 -.886E+00   0.176E-20 0.118E-19 -.366E+00   -.529E-13 -.575E-13 -.217E-04
   -.201E-08 -.202E-08 0.125E+01   -.533E-14 -.115E-13 -.886E+00   0.225E-20 -.788E-20 -.366E+00   0.515E-13 0.690E-13 -.217E-04
   -.201E-08 -.202E-08 0.125E+01   0.311E-14 -.777E-14 -.886E+00   -.322E-20 0.180E-19 -.366E+00   0.778E-14 0.592E-13 -.217E-04
   -.201E-08 -.202E-08 0.125E+01   0.266E-14 -.444E-14 -.886E+00   -.153E-20 0.410E-20 -.366E+00   -.334E-13 -.635E-13 -.217E-04
   -.201E-08 -.202E-08 0.125E+01   -.644E-14 -.138E-13 -.886E+00   -.236E-20 0.158E-19 -.366E+00   0.478E-13 -.102E-12 -.217E-04
   -.201E-08 -.202E-08 0.125E+01   -.622E-14 -.107E-13 -.886E+00   -.185E-20 0.112E-19 -.366E+00   -.393E-13 0.106E-12 -.217E-04
   -.201E-08 -.202E-08 0.125E+01   0.355E-14 -.138E-13 -.886E+00   0.239E-20 0.463E-20 -.366E+00   -.674E-14 0.101E-12 -.217E-04
   -.201E-08 -.202E-08 0.125E+01   0.355E-14 -.107E-13 -.886E+00   0.147E-20 -.695E-20 -.366E+00   0.410E-13 -.930E-13 -.217E-04
   0.378E-08 0.355E-08 -.125E+01   -.444E-14 -.622E-14 0.886E+00   -.565E-21 -.156E-19 0.366E+00   -.191E-13 -.429E-13 0.217E-04
   0.378E-08 0.356E-08 -.125E+01   -.444E-14 -.977E-14 0.886E+00   -.626E-22 -.113E-19 0.366E+00   0.375E-13 -.305E-13 0.217E-04
   0.378E-08 0.356E-08 -.125E+01   -.142E-13 -.283E-14 0.886E+00   -.186E-20 -.474E-20 0.366E+00   -.846E-13 0.443E-13 0.217E-04
   0.378E-08 0.355E-08 -.125E+01   -.107E-13 0.361E-14 0.886E+00   0.153E-20 0.698E-20 0.366E+00   0.967E-13 0.313E-13 0.217E-04
   0.378E-08 0.355E-08 -.125E+01   0.888E-14 -.711E-14 0.886E+00   -.323E-20 -.484E-20 0.366E+00   0.104E-13 -.195E-13 0.217E-04
   0.378E-08 0.356E-08 -.125E+01   0.178E-14 -.666E-14 0.886E+00   0.237E-20 0.767E-20 0.366E+00   -.411E-13 -.806E-13 0.217E-04
   0.378E-08 0.356E-08 -.125E+01   -.142E-13 -.328E-14 0.886E+00   0.202E-21 -.113E-19 0.366E+00   0.810E-13 0.145E-13 0.217E-04
   0.378E-08 0.355E-08 -.125E+01   -.142E-13 -.416E-14 0.886E+00   0.102E-20 -.399E-20 0.366E+00   -.102E-12 0.894E-13 0.217E-04
   -.201E-08 -.202E-08 0.125E+01   0.822E-14 0.666E-14 -.886E+00   0.615E-21 -.116E-19 -.366E+00   0.124E-13 -.747E-15 -.217E-04
   -.201E-08 -.202E-08 0.125E+01   0.799E-14 0.266E-14 -.886E+00   0.252E-21 -.470E-20 -.366E+00   0.460E-14 -.102E-12 -.217E-04
   -.201E-08 -.202E-08 0.125E+01   0.120E-13 0.311E-14 -.886E+00   0.662E-21 -.551E-20 -.366E+00   -.294E-13 0.874E-14 -.217E-04
   -.201E-08 -.202E-08 0.125E+01   0.799E-14 0.400E-14 -.886E+00   -.103E-20 0.450E-20 -.366E+00   0.407E-13 0.108E-12 -.217E-04
   -.201E-08 -.202E-08 0.125E+01   0.733E-14 0.102E-13 -.886E+00   0.151E-20 -.746E-20 -.366E+00   -.507E-14 0.603E-13 -.217E-04
   -.201E-08 -.202E-08 0.125E+01   0.844E-14 0.622E-14 -.886E+00   -.159E-20 0.543E-20 -.366E+00   -.101E-13 -.188E-12 -.217E-04
   -.201E-08 -.202E-08 0.125E+01   -.888E-15 0.311E-14 -.886E+00   0.346E-21 -.502E-20 -.366E+00   0.409E-13 -.448E-13 -.217E-04
   -.201E-08 -.202E-08 0.125E+01   0.142E-13 0.355E-14 -.886E+00   0.468E-21 -.135E-20 -.366E+00   -.418E-13 0.187E-12 -.217E-04
   0.378E-08 0.355E-08 -.125E+01   0.122E-14 0.799E-14 0.886E+00   0.313E-20 0.745E-20 0.366E+00   -.698E-13 0.271E-13 0.217E-04
   0.378E-08 0.355E-08 -.125E+01   0.167E-14 0.799E-14 0.886E+00   0.278E-20 -.538E-20 0.366E+00   0.857E-13 0.725E-13 0.217E-04
   0.378E-08 0.355E-08 -.125E+01   -.146E-14 0.115E-13 0.886E+00   -.228E-21 0.116E-19 0.366E+00   -.442E-13 -.278E-13 0.217E-04
   0.378E-08 0.355E-08 -.125E+01   0.168E-13 0.115E-13 0.886E+00   -.533E-20 0.127E-20 0.366E+00   0.294E-13 -.801E-13 0.217E-04
   0.378E-08 0.356E-08 -.125E+01   -.262E-14 -.355E-14 0.886E+00   -.180E-20 0.115E-19 0.366E+00   0.711E-13 -.409E-13 0.217E-04
   0.378E-08 0.356E-08 -.125E+01   0.804E-14 0.355E-14 0.886E+00   -.488E-20 0.471E-20 0.366E+00   -.860E-13 0.133E-12 0.217E-04
   0.378E-08 0.355E-08 -.125E+01   -.308E-14 0.107E-13 0.886E+00   0.249E-20 0.558E-20 0.366E+00   0.426E-13 0.383E-13 0.217E-04
   0.378E-08 0.356E-08 -.125E+01   0.916E-15 0.107E-13 0.886E+00   0.263E-20 -.429E-20 0.366E+00   -.323E-13 -.138E-12 0.217E-04
   -.201E-08 -.202E-08 0.125E+01   -.711E-14 0.147E-13 -.886E+00   -.741E-21 0.542E-20 -.366E+00   0.950E-13 -.353E-13 -.217E-04
   -.201E-08 -.202E-08 0.125E+01   0.266E-14 0.204E-13 -.886E+00   0.514E-20 0.951E-20 -.366E+00   -.698E-13 0.497E-13 -.217E-04
   -.201E-08 -.202E-08 0.125E+01   0.107E-13 0.209E-13 -.886E+00   -.324E-20 0.796E-20 -.366E+00   0.100E-12 0.378E-13 -.217E-04
   -.201E-08 -.202E-08 0.125E+01   0.178E-14 0.182E-13 -.886E+00   -.280E-20 0.490E-20 -.366E+00   -.104E-12 -.421E-13 -.217E-04
   -.201E-08 -.202E-08 0.125E+01   0.400E-14 0.173E-13 -.886E+00   -.133E-21 0.661E-20 -.366E+00   -.101E-12 -.281E-13 -.217E-04
   -.201E-08 -.202E-08 0.125E+01   0.182E-13 0.178E-13 -.886E+00   -.111E-20 0.236E-20 -.366E+00   0.811E-13 0.458E-13 -.217E-04
   -.201E-08 -.202E-08 0.125E+01   0.213E-13 0.933E-14 -.886E+00   -.239E-20 -.621E-21 -.366E+00   -.113E-12 0.335E-13 -.217E-04
   -.201E-08 -.202E-08 0.125E+01   0.178E-13 0.178E-13 -.886E+00   0.578E-20 0.751E-20 -.366E+00   0.122E-12 -.391E-13 -.217E-04
   0.378E-08 0.355E-08 -.125E+01   0.179E-13 0.139E-13 0.886E+00   0.450E-20 0.137E-20 0.366E+00   0.297E-13 -.475E-13 0.217E-04
   0.378E-08 0.355E-08 -.125E+01   0.117E-13 0.152E-13 0.886E+00   0.185E-20 -.951E-20 0.366E+00   -.224E-13 -.352E-13 0.217E-04
   0.378E-08 0.355E-08 -.125E+01   0.374E-14 0.216E-13 0.886E+00   -.405E-20 -.795E-20 0.366E+00   0.155E-13 0.504E-13 0.217E-04
   0.378E-08 0.355E-08 -.125E+01   0.126E-13 0.279E-13 0.886E+00   -.102E-20 -.490E-20 0.366E+00   -.357E-13 0.390E-13 0.217E-04
   0.378E-08 0.356E-08 -.125E+01   0.171E-13 0.218E-13 0.886E+00   -.177E-20 -.661E-20 0.366E+00   -.306E-13 -.587E-13 0.217E-04
   0.378E-08 0.356E-08 -.125E+01   0.171E-13 0.178E-13 0.886E+00   -.949E-21 -.159E-19 0.366E+00   0.227E-13 -.210E-13 0.217E-04
   0.378E-08 0.356E-08 -.125E+01   -.722E-14 0.225E-13 0.886E+00   0.450E-20 0.613E-21 0.366E+00   -.155E-13 0.557E-13 0.217E-04
   0.378E-08 0.356E-08 -.125E+01   0.106E-13 0.212E-13 0.886E+00   -.187E-20 -.752E-20 0.366E+00   0.366E-13 0.275E-13 0.217E-04
 -----------------------------------------------------------------------------------------------
   0.567E-07 0.491E-07 -.199E-04   0.916E-13 -.254E-13 -.732E-13   -.170E-20 0.135E-19 -.544E-14   0.786E-14 0.735E-13 0.214E-09
 
 
 POSITION                                       TOTAL-FORCE (eV/Angst)
 -----------------------------------------------------------------------------------
      0.00000     -0.00000     10.63204        -0.000000     -0.000000      0.000185
      0.00000     -0.00000      5.31261        -0.000000     -0.000000      0.000185
     -0.03990      5.31944     10.63204         0.000000     -0.000000      0.000185
     -0.03990      5.31944      5.31261         0.000000     -0.000000      0.000185
      5.23965     -0.03990     10.63204        -0.000000     -0.000000      0.000185
      5.23965     -0.03990      5.31261        -0.000000      0.000000      0.000185
      5.19975      5.27954     10.63204        -0.000000      0.000000      0.000185
      5.19975      5.27954      5.31261         0.000000     -0.000000      0.000185
      3.89981      3.95966      1.33669         0.000000      0.000000     -0.000185
      3.89981      3.95966      6.65613         0.000000      0.000000     -0.000185
      3.85992      9.27909      1.33669         0.000000      0.000000     -0.000185
      3.85992      9.27909      6.65613         0.000000     -0.000000     -0.000185
      9.13946      3.91976      1.33669        -0.000000      0.000000     -0.000185
      9.13946      3.91976      6.65613         0.000000     -0.000000     -0.000185
      9.09956      9.23920      1.33669         0.000000      0.000000     -0.000185
      9.09956      9.23920      6.65613        -0.000000      0.000000     -0.000185
     -0.01995      2.65972      2.65289        -0.000000      0.000000      0.000185
     -0.01995      2.65972      7.97232         0.000000      0.000000      0.000185
     -0.05984      7.97916      2.65289        -0.000000      0.000000      0.000185
     -0.05984      7.97916      7.97232         0.000000      0.000000      0.000185
      5.21970      2.61982      2.65289        -0.000000      0.000000      0.000185
      5.21970      2.61982      7.97232        -0.000000      0.000000      0.000185
      5.17980      7.93926      2.65289         0.000000     -0.000000      0.000185
      5.17980      7.93926      7.97232         0.000000      0.000000      0.000185
      3.91976      1.29994      3.99641        -0.000000     -0.000000     -0.000185
      3.91976      1.29994      9.31585         0.000000      0.000000     -0.000185
      3.87986      6.61938      3.99641        -0.000000     -0.000000     -0.000185
      3.87986      6.61938      9.31585         0.000000     -0.000000     -0.000185
      9.15941      1.26004      3.99641         0.000000      0.000000     -0.000185
      9.15941      1.26004      9.31585         0.000000     -0.000000     -0.000185
      9.11951      6.57948      3.99641        -0.000000     -0.000000     -0.000185
      9.11951      6.57948      9.31585        -0.000000     -0.000000     -0.000185
      2.61982     -0.01995      2.65289        -0.000000     -0.000000      0.000185
      2.61982     -0.01995      7.97232        -0.000000     -0.000000      0.000185
      2.57993      5.29949      2.65289         0.000000     -0.000000      0.000185
      2.57993      5.29949      7.97232         0.000000      0.000000      0.000185
      7.85947     -0.05984      2.65289        -0.000000     -0.000000      0.000185
      7.85947     -0.05984      7.97232        -0.000000     -0.000000      0.000185
      7.81957      5.25959      2.65289        -0.000000      0.000000      0.000185
      7.81957      5.25959      7.97232         0.000000     -0.000000      0.000185
      1.27999      3.97960      3.99641         0.000000     -0.000000     -0.000185
      1.27999      3.97960      9.31585         0.000000      0.000000     -0.000185
      1.24009      9.29904      3.99641         0.000000     -0.000000     -0.000185
      1.24009      9.29904      9.31585         0.000000      0.000000     -0.000185
      6.51964      3.93971      3.99641        -0.000000      0.000000     -0.000185
      6.51964      3.93971      9.31585         0.000000     -0.000000     -0.000185
      6.47974      9.25915      3.99641         0.000000      0.000000     -0.000185
      6.47974      9.25915      9.31585         0.000000      0.000000     -0.000185
      2.59987      2.63977     10.63204        -0.000000      0.000000      0.000185
      2.59987      2.63977      5.31261        -0.000000     -0.000000      0.000185
      2.55998      7.95921     10.63204         0.000000      0.000000      0.000185
      2.55998      7.95921      5.31261        -0.000000      0.000000      0.000185
      7.83952      2.59987     10.63204        -0.000000      0.000000      0.000185
      7.83952      2.59987      5.31261        -0.000000      0.000000      0.000185
      7.79962      7.91931     10.63204         0.000000      0.000000      0.000185
      7.79962      7.91931      5.31261         0.000000      0.000000      0.000185
      1.29994      1.31989      1.33669         0.000000     -0.000000     -0.000185
      1.29994      1.31989      6.65613         0.000000      0.000000     -0.000185
      1.26004      6.63932      1.33669        -0.000000     -0.000000     -0.000185
      1.26004      6.63932      6.65613        -0.000000     -0.000000     -0.000185
      6.53958      1.27999      1.33669        -0.000000      0.000000     -0.000185
      6.53958      1.27999      6.65613         0.000000      0.000000     -0.000185
      6.49969      6.59943      1.33669        -0.000000     -0.000000     -0.000185
      6.49969      6.59943      6.65613        -0.000000     -0.000000     -0.000185
 -----------------------------------------------------------------------------------
    total drift:                                0.000000      0.000000     -0.000020


--------------------------------------------------------------------------------------------------------



  FREE ENERGIE OF THE ION-ELECTRON SYSTEM (eV)
  ---------------------------------------------------
  free  energy   TOTEN  =      -364.94002136 eV

  energy  without entropy=     -364.95940758  energy(sigma->0) =     -364.94648343
 
 d Force = 0.9928300E-02[ 0.378E-04, 0.198E-01]  d Energy = 0.9922463E-02 0.584E-05
 d Force =-0.1636902E+00[-0.181E+00,-0.146E+00]  d Ewald  =-0.1636893E+00-0.969E-06


--------------------------------------------------------------------------------------------------------


    POTLOK:  cpu time      0.1442: real time      0.1447


--------------------------------------------------------------------------------------------------------




--------------------------------------------------------------------------------------------------------


  
 reached required accuracy - stopping structural energy minimisation
     LOOP+:  cpu time     12.9886: real time     13.1831
    4ORBIT:  cpu time      0.0000: real time      0.0000

 total amount of memory used by VASP MPI-rank0    78968. kBytes
=======================================================================

   base      :      30000. kBytes
   nonlr-proj:       4794. kBytes
   fftplans  :      17991. kBytes
   grid      :       6881. kBytes
   one-center:         18. kBytes
   wavefun   :      19284. kBytes
 
  
  
 General timing and accounting informations for this job:
 ========================================================
  
                  Total CPU time used (sec):       58.702
                            User time (sec):       55.297
                          System time (sec):        3.405
                         Elapsed time (sec):       62.134
  
                   Maximum memory used (kb):      399380.
                   Average memory used (kb):          N/A
  
                          Minor page faults:        93943
                          Major page faults:            0
                 Voluntary context switches:         8866
