  64  64   0   0
  0.2013400E+02  0.1088187E-08  0.1088187E-08  0.1088187E-08  0.5000000E-15
  1.000000000000000E-004
  CAR 
 Si64                                    
     11.94294172     -7.99171575  301      6.67870732      1.00000000
     -7.992  0.0000E+00  0.0000E+00
     -7.925  0.0000E+00  0.0000E+00
     -7.859  0.0000E+00  0.0000E+00
     -7.792  0.0000E+00  0.0000E+00
     -7.726  0.0000E+00  0.0000E+00
     -7.659  0.0000E+00  0.0000E+00
     -7.593 -0.2046E-28 -0.1359E-29
     -7.527 -0.3569E-26 -0.2385E-27
     -7.460 -0.5006E-24 -0.3350E-25
     -7.394 -0.5616E-22 -0.3766E-23
     -7.327 -0.5039E-20 -0.3386E-21
     -7.261 -0.3615E-18 -0.2436E-19
     -7.194 -0.2072E-16 -0.1401E-17
     -7.128 -0.9173E-15 -0.6236E-16
     -7.061 -0.3348E-13 -0.2287E-14
     -6.995 -0.9711E-12 -0.6682E-13
     -6.929 -0.2242E-10 -0.1557E-11
     -6.862 -0.4116E-09 -0.2891E-10
     -6.796 -0.5991E-08 -0.4270E-09
     -6.729 -0.6899E-07 -0.5011E-08
     -6.663 -0.6259E-06 -0.4660E-07
     -6.596 -0.4450E-05 -0.3423E-06
     -6.530 -0.2458E-04 -0.1975E-05
     -6.463 -0.1040E-03 -0.8886E-05
     -6.397 -0.3286E-03 -0.3072E-04
     -6.330 -0.7334E-03 -0.7945E-04
     -6.264 -0.9784E-03 -0.1445E-03
     -6.198 -0.6690E-04 -0.1489E-03
     -6.131  0.2960E-02  0.4779E-04
     -6.065  0.7303E-02  0.5331E-03
     -5.998  0.1068E-01  0.1243E-02
     -5.932  0.1420E-01  0.2187E-02
     -5.865  0.2558E-01  0.3886E-02
     -5.799  0.5038E-01  0.7234E-02
     -5.732  0.7907E-01  0.1249E-01
     -5.666  0.9491E-01  0.1879E-01
     -5.600  0.1010E+00  0.2551E-01
     -5.533  0.1222E+00  0.3363E-01
     -5.467  0.1651E+00  0.4460E-01
     -5.400  0.1972E+00  0.5770E-01
     -5.334  0.1881E+00  0.7020E-01
     -5.267  0.1545E+00  0.8047E-01
     -5.201  0.1334E+00  0.8933E-01
     -5.134  0.1283E+00  0.9785E-01
     -5.068  0.1151E+00  0.1055E+00
     -5.002  0.8877E-01  0.1114E+00
     -4.935  0.6956E-01  0.1160E+00
     -4.869  0.6993E-01  0.1207E+00
     -4.802  0.9005E-01  0.1267E+00
     -4.736  0.1436E+00  0.1362E+00
     -4.669  0.2440E+00  0.1524E+00
     -4.603  0.3578E+00  0.1762E+00
     -4.536  0.4236E+00  0.2043E+00
     -4.470  0.4332E+00  0.2331E+00
     -4.403  0.4339E+00  0.2620E+00
     -4.337  0.4347E+00  0.2908E+00
     -4.271  0.3811E+00  0.3162E+00
     -4.204  0.2487E+00  0.3327E+00
     -4.138  0.9443E-01  0.3390E+00
     -4.071 -0.7066E-02  0.3385E+00
     -4.005 -0.2646E-01  0.3367E+00
     -3.938  0.2957E-01  0.3387E+00
     -3.872  0.1463E+00  0.3484E+00
     -3.805  0.2991E+00  0.3683E+00
     -3.739  0.4413E+00  0.3976E+00
     -3.673  0.5129E+00  0.4317E+00
     -3.606  0.4801E+00  0.4636E+00
     -3.540  0.3701E+00  0.4882E+00
     -3.473  0.2569E+00  0.5053E+00
     -3.407  0.2107E+00  0.5193E+00
     -3.340  0.2646E+00  0.5369E+00
     -3.274  0.4012E+00  0.5635E+00
     -3.207  0.5537E+00  0.6003E+00
     -3.141  0.6476E+00  0.6434E+00
     -3.075  0.6577E+00  0.6871E+00
     -3.008  0.6134E+00  0.7278E+00
     -2.942  0.5492E+00  0.7643E+00
     -2.875  0.4773E+00  0.7960E+00
     -2.809  0.4171E+00  0.8237E+00
     -2.742  0.4011E+00  0.8504E+00
     -2.676  0.4165E+00  0.8781E+00
     -2.609  0.3904E+00  0.9040E+00
     -2.543  0.2793E+00  0.9226E+00
     -2.476  0.1299E+00  0.9312E+00
     -2.410  0.1879E-01  0.9325E+00
     -2.344 -0.2793E-01  0.9306E+00
     -2.277 -0.3101E-01  0.9285E+00
     -2.211 -0.7938E-02  0.9280E+00
     -2.144  0.4470E-01  0.9310E+00
     -2.078  0.1231E+00  0.9392E+00
     -2.011  0.1897E+00  0.9518E+00
     -1.945  0.1950E+00  0.9647E+00
     -1.878  0.1303E+00  0.9734E+00
     -1.812  0.4548E-01  0.9764E+00
     -1.746  0.1318E-01  0.9773E+00
     -1.679  0.8462E-01  0.9829E+00
     -1.613  0.2602E+00  0.1000E+01
     -1.546  0.4726E+00  0.1032E+01
     -1.480  0.6084E+00  0.1072E+01
     -1.413  0.5846E+00  0.1111E+01
     -1.347  0.4173E+00  0.1139E+01
     -1.280  0.2063E+00  0.1152E+01
     -1.214  0.5662E-01  0.1156E+01
     -1.147  0.1873E-01  0.1157E+01
     -1.081  0.7841E-01  0.1163E+01
     -1.015  0.1733E+00  0.1174E+01
     -0.948  0.2284E+00  0.1189E+01
     -0.882  0.2127E+00  0.1203E+01
     -0.815  0.1738E+00  0.1215E+01
     -0.749  0.1931E+00  0.1228E+01
     -0.682  0.2860E+00  0.1247E+01
     -0.616  0.3647E+00  0.1271E+01
     -0.549  0.3370E+00  0.1293E+01
     -0.483  0.2385E+00  0.1309E+01
     -0.417  0.2267E+00  0.1324E+01
     -0.350  0.4205E+00  0.1352E+01
     -0.284  0.7577E+00  0.1403E+01
     -0.217  0.1026E+01  0.1471E+01
     -0.151  0.1036E+01  0.1540E+01
     -0.084  0.7781E+00  0.1591E+01
     -0.018  0.4083E+00  0.1618E+01
      0.049  0.1084E+00  0.1626E+01
      0.115 -0.3187E-01  0.1623E+01
      0.181 -0.1423E-01  0.1623E+01
      0.248  0.1187E+00  0.1630E+01
      0.314  0.2930E+00  0.1650E+01
      0.381  0.4060E+00  0.1677E+01
      0.447  0.3914E+00  0.1703E+01
      0.514  0.2795E+00  0.1721E+01
      0.580  0.1603E+00  0.1732E+01
      0.647  0.1003E+00  0.1739E+01
      0.713  0.1220E+00  0.1747E+01
      0.780  0.2257E+00  0.1762E+01
      0.846  0.3808E+00  0.1787E+01
      0.912  0.5088E+00  0.1821E+01
      0.979  0.5216E+00  0.1856E+01
      1.045  0.3981E+00  0.1882E+01
      1.112  0.2105E+00  0.1896E+01
      1.178  0.5829E-01  0.1900E+01
      1.245 -0.1394E-01  0.1899E+01
      1.311 -0.2712E-01  0.1897E+01
      1.378 -0.2167E-01  0.1896E+01
      1.444 -0.2150E-01  0.1894E+01
      1.510 -0.2694E-01  0.1893E+01
      1.577 -0.1560E-01  0.1892E+01
      1.643  0.5162E-01  0.1895E+01
      1.710  0.2000E+00  0.1908E+01
      1.776  0.3955E+00  0.1935E+01
      1.843  0.5478E+00  0.1971E+01
      1.909  0.5910E+00  0.2010E+01
      1.976  0.5515E+00  0.2047E+01
      2.042  0.5019E+00  0.2080E+01
      2.109  0.4721E+00  0.2112E+01
      2.175  0.4526E+00  0.2142E+01
      2.241  0.4456E+00  0.2171E+01
      2.308  0.4493E+00  0.2201E+01
      2.374  0.4222E+00  0.2229E+01
      2.441  0.3373E+00  0.2252E+01
      2.507  0.2690E+00  0.2269E+01
      2.574  0.3664E+00  0.2294E+01
      2.640  0.7025E+00  0.2341E+01
      2.707  0.1153E+01  0.2417E+01
      2.773  0.1446E+01  0.2513E+01
      2.839  0.1376E+01  0.2605E+01
      2.906  0.9796E+00  0.2670E+01
      2.972  0.4926E+00  0.2702E+01
      3.039  0.1318E+00  0.2711E+01
      3.105 -0.4572E-01  0.2708E+01
      3.172 -0.9388E-01  0.2702E+01
      3.238 -0.5437E-01  0.2698E+01
      3.305  0.9223E-01  0.2704E+01
      3.371  0.3672E+00  0.2729E+01
      3.437  0.7107E+00  0.2776E+01
      3.504  0.9967E+00  0.2842E+01
      3.570  0.1142E+01  0.2918E+01
      3.637  0.1163E+01  0.2996E+01
      3.703  0.1114E+01  0.3070E+01
      3.770  0.1019E+01  0.3137E+01
      3.836  0.8772E+00  0.3196E+01
      3.903  0.7226E+00  0.3244E+01
      3.969  0.6460E+00  0.3287E+01
      4.036  0.6992E+00  0.3333E+01
      4.102  0.7822E+00  0.3385E+01
      4.168  0.7235E+00  0.3433E+01
      4.235  0.5011E+00  0.3466E+01
      4.301  0.2869E+00  0.3485E+01
      4.368  0.2467E+00  0.3502E+01
      4.434  0.3718E+00  0.3526E+01
      4.501  0.5296E+00  0.3562E+01
      4.567  0.6217E+00  0.3603E+01
      4.634  0.6509E+00  0.3646E+01
      4.700  0.6578E+00  0.3690E+01
      4.766  0.6530E+00  0.3733E+01
      4.833  0.6400E+00  0.3776E+01
      4.899  0.6532E+00  0.3819E+01
      4.966  0.7245E+00  0.3867E+01
      5.032  0.8278E+00  0.3922E+01
      5.099  0.8759E+00  0.3981E+01
      5.165  0.7818E+00  0.4033E+01
      5.232  0.5414E+00  0.4069E+01
      5.298  0.2574E+00  0.4086E+01
      5.365  0.6654E-01  0.4090E+01
      5.431  0.4610E-01  0.4093E+01
      5.497  0.1762E+00  0.4105E+01
      5.564  0.3545E+00  0.4128E+01
      5.630  0.4516E+00  0.4158E+01
      5.697  0.3989E+00  0.4185E+01
      5.763  0.2398E+00  0.4201E+01
      5.830  0.7939E-01  0.4206E+01
      5.896 -0.6744E-02  0.4206E+01
      5.963 -0.4513E-02  0.4205E+01
      6.029  0.6253E-01  0.4210E+01
      6.095  0.1499E+00  0.4220E+01
      6.162  0.2017E+00  0.4233E+01
      6.228  0.1857E+00  0.4245E+01
      6.295  0.1246E+00  0.4254E+01
      6.361  0.6932E-01  0.4258E+01
      6.428  0.4407E-01  0.4261E+01
      6.494  0.3394E-01  0.4263E+01
      6.561  0.2056E-01  0.4265E+01
      6.627  0.1092E-01  0.4265E+01
      6.693  0.2933E-01  0.4267E+01
      6.760  0.8698E-01  0.4273E+01
      6.826  0.1595E+00  0.4284E+01
      6.893  0.1980E+00  0.4297E+01
      6.959  0.1724E+00  0.4308E+01
      7.026  0.9945E-01  0.4315E+01
      7.092  0.2452E-01  0.4317E+01
      7.159 -0.1525E-01  0.4316E+01
      7.225  0.1429E-03  0.4316E+01
      7.292  0.7749E-01  0.4321E+01
      7.358  0.1920E+00  0.4333E+01
      7.424  0.2760E+00  0.4352E+01
      7.491  0.2717E+00  0.4370E+01
      7.557  0.2111E+00  0.4384E+01
      7.624  0.2031E+00  0.4397E+01
      7.690  0.3088E+00  0.4418E+01
      7.757  0.4502E+00  0.4448E+01
      7.823  0.4817E+00  0.4480E+01
      7.890  0.3499E+00  0.4503E+01
      7.956  0.1504E+00  0.4513E+01
      8.022  0.3684E-01  0.4516E+01
      8.089  0.1126E+00  0.4523E+01
      8.155  0.3788E+00  0.4548E+01
      8.222  0.7096E+00  0.4595E+01
      8.288  0.8939E+00  0.4655E+01
      8.355  0.8008E+00  0.4708E+01
      8.421  0.5219E+00  0.4743E+01
      8.488  0.2931E+00  0.4762E+01
      8.554  0.2714E+00  0.4780E+01
      8.620  0.4359E+00  0.4809E+01
      8.687  0.6972E+00  0.4855E+01
      8.753  0.1007E+01  0.4922E+01
      8.820  0.1298E+01  0.5009E+01
      8.886  0.1411E+01  0.5102E+01
      8.953  0.1216E+01  0.5183E+01
      9.019  0.7933E+00  0.5236E+01
      9.086  0.3859E+00  0.5261E+01
      9.152  0.1715E+00  0.5273E+01
      9.219  0.1463E+00  0.5283E+01
      9.285  0.2133E+00  0.5297E+01
      9.351  0.2997E+00  0.5317E+01
      9.418  0.3638E+00  0.5341E+01
      9.484  0.3609E+00  0.5365E+01
      9.551  0.2716E+00  0.5383E+01
      9.617  0.1394E+00  0.5392E+01
      9.684  0.3440E-01  0.5394E+01
      9.750 -0.9904E-02  0.5394E+01
      9.817 -0.7008E-02  0.5393E+01
      9.883  0.1364E-01  0.5394E+01
      9.949  0.2968E-01  0.5396E+01
     10.016  0.3141E-01  0.5398E+01
     10.082  0.2128E-01  0.5400E+01
     10.149  0.8616E-02  0.5400E+01
     10.215  0.6418E-03  0.5400E+01
     10.282 -0.1789E-02  0.5400E+01
     10.348 -0.1439E-02  0.5400E+01
     10.415 -0.6535E-03  0.5400E+01
     10.481 -0.2076E-03  0.5400E+01
     10.548 -0.4913E-04  0.5400E+01
     10.614 -0.8898E-05  0.5400E+01
     10.680 -0.1252E-05  0.5400E+01
     10.747 -0.1380E-06  0.5400E+01
     10.813 -0.1198E-07  0.5400E+01
     10.880 -0.8231E-09  0.5400E+01
     10.946 -0.4485E-10  0.5400E+01
     11.013 -0.1942E-11  0.5400E+01
     11.079 -0.6694E-13  0.5400E+01
     11.146 -0.1838E-14  0.5400E+01
     11.212 -0.5569E-16  0.5400E+01
     11.278  0.0000E+00  0.5400E+01
     11.345  0.0000E+00  0.5400E+01
     11.411  0.0000E+00  0.5400E+01
     11.478  0.0000E+00  0.5400E+01
     11.544  0.0000E+00  0.5400E+01
     11.611  0.0000E+00  0.5400E+01
     11.677  0.0000E+00  0.5400E+01
     11.744  0.0000E+00  0.5400E+01
     11.810  0.0000E+00  0.5400E+01
     11.876  0.0000E+00  0.5400E+01
     11.943  0.0000E+00  0.5400E+01
