       N       E                     dE             d eps       ncg     rms          rms(c)
DAV:   1     0.555804707810E+03    0.55580E+03   -0.83694E+04  1296   0.106E+03
DAV:   2    -0.309906729313E+03   -0.86571E+03   -0.82147E+03  1536   0.172E+02
DAV:   3    -0.372982226243E+03   -0.63075E+02   -0.61823E+02  1568   0.409E+01
DAV:   4    -0.374664277786E+03   -0.16821E+01   -0.16700E+01  1552   0.800E+00
DAV:   5    -0.374715560020E+03   -0.51282E-01   -0.51178E-01  1510   0.132E+00    0.279E+01
RMM:   6    -0.369822199438E+03    0.48934E+01   -0.24101E+00  1296   0.242E+00    0.168E+01
RMM:   7    -0.367570632286E+03    0.22516E+01   -0.62841E+00  1322   0.391E+00    0.931E-01
RMM:   8    -0.367608697552E+03   -0.38065E-01   -0.55290E-01  1310   0.148E+00    0.480E-01
RMM:   9    -0.367626680108E+03   -0.17983E-01   -0.16517E-01  1322   0.726E-01    0.564E-01
RMM:  10    -0.367629569675E+03   -0.28896E-02   -0.28950E-02  1354   0.344E-01    0.682E-01
RMM:  11    -0.367628071929E+03    0.14977E-02   -0.95577E-03  1296   0.203E-01    0.819E-01
RMM:  12    -0.367627955941E+03    0.11599E-03   -0.17209E-03  1304   0.978E-02    0.981E-01
RMM:  13    -0.367628101843E+03   -0.14590E-03   -0.33053E-04  1368   0.421E-02    0.956E-01
RMM:  14    -0.367626376641E+03    0.17252E-02   -0.67685E-04  1296   0.575E-02    0.151E+00
RMM:  15    -0.367626156066E+03    0.22057E-03   -0.16016E-04  1299   0.257E-02    0.166E+00
RMM:  16    -0.367626243714E+03   -0.87648E-04   -0.20131E-05  1338   0.954E-03    0.162E+00
RMM:  17    -0.367627310178E+03   -0.10665E-02   -0.16341E-04  1350   0.268E-02    0.104E+00
RMM:  18    -0.367628459248E+03   -0.11491E-02   -0.57836E-04  1747   0.535E-02    0.293E-01
RMM:  19    -0.367628593290E+03   -0.13404E-03   -0.17536E-04  1324   0.278E-02    0.366E-02
RMM:  20    -0.367628600875E+03   -0.75858E-05   -0.46774E-05  1300   0.130E-02    0.337E-03
RMM:  21    -0.367628601367E+03   -0.49160E-06   -0.66531E-06  1076   0.503E-03
   1 F= -.31133001E+03 E0= -.31133840E+03  d E =-.311330E+03
       N       E                     dE             d eps       ncg     rms          rms(c)
DAV:   1    -0.363691737254E+03    0.39369E+01   -0.11231E+02  1368   0.190E+01    0.115E+01
RMM:   2    -0.361472948150E+03    0.22188E+01   -0.40534E+00  1296   0.379E+00    0.669E+00
RMM:   3    -0.360337573851E+03    0.11354E+01   -0.25996E+00  1296   0.286E+00    0.118E+00
RMM:   4    -0.360365185082E+03   -0.27611E-01   -0.25149E-01  1296   0.119E+00    0.132E+00
RMM:   5    -0.360370858832E+03   -0.56737E-02   -0.51115E-02  1322   0.488E-01    0.181E+00
RMM:   6    -0.360371189868E+03   -0.33104E-03   -0.22664E-02  1296   0.306E-01    0.132E+00
RMM:   7    -0.360366700124E+03    0.44897E-02   -0.59257E-03  1296   0.173E-01    0.543E-01
RMM:   8    -0.360366392568E+03    0.30756E-03   -0.75102E-04  1298   0.747E-02    0.481E-01
RMM:   9    -0.360366027330E+03    0.36524E-03   -0.14984E-04  1296   0.287E-02    0.352E-01
RMM:  10    -0.360365508980E+03    0.51835E-03   -0.10831E-03  1380   0.535E-02    0.229E-02
RMM:  11    -0.360365516252E+03   -0.72720E-05   -0.10470E-04  1326   0.190E-02    0.382E-02
RMM:  12    -0.360365516382E+03   -0.13039E-06   -0.13270E-05  1173   0.714E-03    0.539E-02
RMM:  13    -0.360365520491E+03   -0.41086E-05   -0.35258E-06   964   0.405E-03    0.244E-02
RMM:  14    -0.360365521629E+03   -0.11384E-05   -0.96351E-07   766   0.217E-03    0.206E-03
RMM:  15    -0.360365521454E+03    0.17517E-06   -0.15020E-07   667   0.989E-04
   2 F= -.31118158E+03 E0= -.31118676E+03  d E =0.148431E+00
       N       E                     dE             d eps       ncg     rms          rms(c)
DAV:   1    -0.366838777758E+03   -0.64733E+01   -0.26509E+01  1346   0.887E+00    0.549E+00
RMM:   2    -0.366285605056E+03    0.55317E+00   -0.77019E-01  1296   0.173E+00    0.330E+00
RMM:   3    -0.365995370478E+03    0.29023E+00   -0.67229E-01  1296   0.141E+00    0.600E-01
RMM:   4    -0.366001651872E+03   -0.62814E-02   -0.57780E-02  1296   0.572E-01    0.616E-01
RMM:   5    -0.366002891293E+03   -0.12394E-02   -0.11337E-02  1322   0.236E-01    0.664E-01
RMM:   6    -0.366005799850E+03   -0.29086E-02   -0.82282E-03  1296   0.156E-01    0.138E+00
RMM:   7    -0.366003670819E+03    0.21290E-02   -0.24377E-02  1312   0.250E-01    0.828E-01
RMM:   8    -0.366002726934E+03    0.94388E-03   -0.83612E-04  1296   0.648E-02    0.602E-01
RMM:   9    -0.366001852843E+03    0.87409E-03   -0.15654E-03  1296   0.653E-02    0.940E-02
RMM:  10    -0.366001888193E+03   -0.35351E-04   -0.27808E-04  1296   0.294E-02    0.526E-02
RMM:  11    -0.366001894319E+03   -0.61260E-05   -0.33037E-05  1296   0.126E-02    0.788E-02
RMM:  12    -0.366001876835E+03    0.17485E-04   -0.11252E-05  1297   0.713E-03    0.368E-02
RMM:  13    -0.366001871069E+03    0.57652E-05   -0.11854E-05  1296   0.614E-03    0.375E-03
RMM:  14    -0.366001871237E+03   -0.16791E-06   -0.12352E-06   760   0.232E-03
   3 F= -.31335122E+03 E0= -.31336237E+03  d E =-.202121E+01
       N       E                     dE             d eps       ncg     rms          rms(c)
DAV:   1    -0.365962369224E+03    0.39502E-01   -0.32685E-03  1406   0.997E-02    0.519E-02
RMM:   2    -0.365962317244E+03    0.51980E-04   -0.10141E-04  1296   0.191E-02    0.311E-02
RMM:   3    -0.365962299165E+03    0.18079E-04   -0.72997E-05  1296   0.149E-02    0.649E-03
RMM:   4    -0.365962300623E+03   -0.14579E-05   -0.69954E-06  1227   0.621E-03    0.730E-03
RMM:   5    -0.365962300666E+03   -0.42479E-07   -0.13447E-06   727   0.259E-03    0.951E-03
RMM:   6    -0.365962303602E+03   -0.29359E-05   -0.61233E-07   712   0.157E-03    0.713E-03
RMM:   7    -0.365962304332E+03   -0.72994E-06   -0.18600E-07   704   0.885E-04    0.219E-03
RMM:   8    -0.365962304292E+03    0.39910E-07   -0.81207E-10   145   0.393E-04
   4 F= -.31335154E+03 E0= -.31336269E+03  d E =-.202153E+01
