 vasp.6.4.3 19Mar24 (build Oct 21 2024 22:36:34) complex                        
  
 executed on             LinuxIFC date 2024.11.01  22:42:56
 running   96 mpi-ranks, on    1 nodes
 distrk:  each k-point on   24 cores,    4 groups
 distr:  one band on NCORE=  12 cores,    2 groups


--------------------------------------------------------------------------------------------------------


 INCAR:
   SYSTEM = Si64
   ISTART = 0
   ICHARG = 2
   LREAL = Auto
   PREC = Accurate
   LWAVE = .False.
   LCHARG = .False.
   ADDGRID = .True.
   ENCUT = 400
   GGA = PS
   GGA_COMPAT = .FALSE.
   ISMEAR = 1
   SIGMA = 0.2
   NELM = 60
   NELMIN = 8
   EDIFF = 1e-06
   EDIFFG = -0.01
   NSW = 60
   IBRION = 2
   ISIF = 2
   KPAR = 4
   NPAR = 2
   ALGO = Fast

 POTCAR:    PAW_PBE Si 05Jan2001                  
 POTCAR:    PAW_PBE Si 05Jan2001                  
   VRHFIN =Si: s2p2                                                                                 
   LEXCH  = PE                                                                                      
   EATOM  =   103.0669 eV,    7.5752 Ry                                                             
                                                                                                    
   TITEL  = PAW_PBE Si 05Jan2001                                                                    
   LULTRA =        F    use ultrasoft PP ?                                                          
   IUNSCR =        1    unscreen: 0-lin 1-nonlin 2-no                                               
   RPACOR =    1.500    partial core radius                                                         
   POMASS =   28.085; ZVAL   =    4.000    mass and valenz                                          
   RCORE  =    1.900    outmost cutoff radius                                                       
   RWIGS  =    2.480; RWIGS  =    1.312    wigner-seitz radius (au A)                               
   ENMAX  =  245.345; ENMIN  =  184.009 eV                                                          
   ICORE  =        2    local potential                                                             
   LCOR   =        T    correct aug charges                                                         
   LPAW   =        T    paw PP                                                                      
   EAUG   =  322.069                                                                                
   DEXC   =    0.000                                                                                
   RMAX   =    1.950    core radius for proj-oper                                                   
   RAUG   =    1.300    factor for augmentation sphere                                              
   RDEP   =    1.993    radius for radial grids                                                     
   RDEPT  =    1.837    core radius for aug-charge                                                  
                                                                                                    
   Atomic configuration                                                                             
    6 entries                                                                                       
     n  l   j            E        occ.                                                              
     1  0  0.50     -1785.8828   2.0000                                                             
     2  0  0.50      -139.4969   2.0000                                                             
     2  1  1.50       -95.5546   6.0000                                                             
     3  0  0.50       -10.8127   2.0000                                                             
     3  1  0.50        -4.0811   2.0000                                                             
     3  2  1.50        -4.0817   0.0000                                                             
   Description                                                                                      
     l       E           TYP  RCUT    TYP  RCUT                                                     
     0    -10.8127223     23  1.900                                                                 
     0     -7.6451159     23  1.900                                                                 
     1     -4.0811372     23  1.900                                                                 
     1      2.4879257     23  1.900                                                                 
     2     -4.0817478      7  1.900                                                                 
  local pseudopotential read in
  partial core-charges read in
  partial kinetic energy density read in
  atomic valenz-charges read in
  non local Contribution for L=           0  read in
    real space projection operators read in
  non local Contribution for L=           0  read in
    real space projection operators read in
  non local Contribution for L=           1  read in
    real space projection operators read in
  non local Contribution for L=           1  read in
    real space projection operators read in
    PAW grid and wavefunctions read in
 
   number of l-projection  operators is LMAX  =           4
   number of lm-projection operators is LMMAX =           8
 
 Optimization of the real space projectors (new method)

 maximal supplied QI-value         = 19.84
 optimisation between [QCUT,QGAM] = [ 10.12, 20.44] = [ 28.68,116.96] Ry 
 Optimized for a Real-space Cutoff    1.38 Angstroem

   l    n(q)    QCUT    max X(q) W(low)/X(q) W(high)/X(q)  e(spline) 
   0      8    10.119   159.560    0.58E-04    0.11E-03    0.54E-07
   0      8    10.119   115.863    0.56E-04    0.11E-03    0.54E-07
   1      8    10.119    88.339    0.22E-03    0.17E-03    0.19E-06
   1      8    10.119    48.592    0.22E-03    0.17E-03    0.18E-06
 -----------------------------------------------------------------------------
|                                                                             |
|               ----> ADVICE to this user running VASP <----                  |
|                                                                             |
|     You enforced a specific xc type in the INCAR file but a different       |
|     type was found in the POTCAR file.                                      |
|     I HOPE YOU KNOW WHAT YOU ARE DOING!                                     |
|                                                                             |
 -----------------------------------------------------------------------------

  PAW_PBE Si 05Jan2001                  :
 energy of atom  1       EATOM= -103.0669
 kinetic energy error for atom=    0.0012 (will be added to EATOM!!)
 
 
 POSCAR: Si8
  positions in direct lattice
  velocities in cartesian coordinates


 exchange-correlation table for PS
   RHO(1)=    0.500       N(1)  =     2000
   RHO(2)=  100.500       N(2)  =     4000
 


--------------------------------------------------------------------------------------------------------


 ion  position               nearest neighbor table
   1  0.000  0.000  0.000-  15 2.32  57 2.32  44 2.35  30 2.35
   2  0.000  0.000  0.500-  16 2.32  58 2.32  43 2.35  29 2.35
   3  0.000  0.500  0.000-  13 2.32  59 2.32  42 2.35  32 2.35
   4  0.000  0.500  0.500-  14 2.32  60 2.32  41 2.35  31 2.35
   5  0.500  0.000  0.000-  11 2.32  61 2.32  48 2.35  26 2.35
   6  0.500  0.000  0.500-  12 2.32  62 2.32  47 2.35  25 2.35
   7  0.500  0.500  0.000-   9 2.32  63 2.32  46 2.35  28 2.35
   8  0.500  0.500  0.500-  10 2.32  64 2.32  45 2.35  27 2.35
   9  0.375  0.375  0.125-   7 2.32  49 2.32  35 2.35  21 2.35
  10  0.375  0.375  0.625-   8 2.32  50 2.32  36 2.35  22 2.35
  11  0.375  0.875  0.125-   5 2.32  51 2.32  33 2.35  23 2.35
  12  0.375  0.875  0.625-   6 2.32  52 2.32  34 2.35  24 2.35
  13  0.875  0.375  0.125-   3 2.32  53 2.32  39 2.35  17 2.35
  14  0.875  0.375  0.625-   4 2.32  54 2.32  40 2.35  18 2.35
  15  0.875  0.875  0.125-   1 2.32  55 2.32  37 2.35  19 2.35
  16  0.875  0.875  0.625-   2 2.32  56 2.32  38 2.35  20 2.35
  17  0.000  0.250  0.250-  29 2.32  41 2.32  13 2.35  57 2.35
  18  0.000  0.250  0.750-  30 2.32  42 2.32  14 2.35  58 2.35
  19  0.000  0.750  0.250-  31 2.32  43 2.32  15 2.35  59 2.35
  20  0.000  0.750  0.750-  32 2.32  44 2.32  16 2.35  60 2.35
  21  0.500  0.250  0.250-  25 2.32  45 2.32   9 2.35  61 2.35
  22  0.500  0.250  0.750-  26 2.32  46 2.32  10 2.35  62 2.35
  23  0.500  0.750  0.250-  27 2.32  47 2.32  11 2.35  63 2.35
  24  0.500  0.750  0.750-  28 2.32  48 2.32  12 2.35  64 2.35
  25  0.375  0.125  0.375-  21 2.32  33 2.32   6 2.35  50 2.35
  26  0.375  0.125  0.875-  22 2.32  34 2.32   5 2.35  49 2.35
  27  0.375  0.625  0.375-  23 2.32  35 2.32   8 2.35  52 2.35
  28  0.375  0.625  0.875-  24 2.32  36 2.32   7 2.35  51 2.35
  29  0.875  0.125  0.375-  17 2.32  37 2.32   2 2.35  54 2.35
  30  0.875  0.125  0.875-  18 2.32  38 2.32   1 2.35  53 2.35
  31  0.875  0.625  0.375-  19 2.32  39 2.32   4 2.35  56 2.35
  32  0.875  0.625  0.875-  20 2.32  40 2.32   3 2.35  55 2.35
  33  0.250  0.000  0.250-  25 2.32  43 2.32  11 2.35  57 2.35
  34  0.250  0.000  0.750-  26 2.32  44 2.32  12 2.35  58 2.35
  35  0.250  0.500  0.250-  27 2.32  41 2.32   9 2.35  59 2.35
  36  0.250  0.500  0.750-  28 2.32  42 2.32  10 2.35  60 2.35
  37  0.750  0.000  0.250-  29 2.32  47 2.32  15 2.35  61 2.35
  38  0.750  0.000  0.750-  30 2.32  48 2.32  16 2.35  62 2.35
  39  0.750  0.500  0.250-  31 2.32  45 2.32  13 2.35  63 2.35
  40  0.750  0.500  0.750-  32 2.32  46 2.32  14 2.35  64 2.35
  41  0.125  0.375  0.375-  17 2.32  35 2.32   4 2.35  50 2.35
  42  0.125  0.375  0.875-  18 2.32  36 2.32   3 2.35  49 2.35
  43  0.125  0.875  0.375-  19 2.32  33 2.32   2 2.35  52 2.35
  44  0.125  0.875  0.875-  20 2.32  34 2.32   1 2.35  51 2.35
  45  0.625  0.375  0.375-  21 2.32  39 2.32   8 2.35  54 2.35
  46  0.625  0.375  0.875-  22 2.32  40 2.32   7 2.35  53 2.35
  47  0.625  0.875  0.375-  23 2.32  37 2.32   6 2.35  56 2.35
  48  0.625  0.875  0.875-  24 2.32  38 2.32   5 2.35  55 2.35
  49  0.250  0.250  0.000-   9 2.32  57 2.32  42 2.35  26 2.35
  50  0.250  0.250  0.500-  10 2.32  58 2.32  41 2.35  25 2.35
  51  0.250  0.750  0.000-  11 2.32  59 2.32  44 2.35  28 2.35
  52  0.250  0.750  0.500-  12 2.32  60 2.32  43 2.35  27 2.35
  53  0.750  0.250  0.000-  13 2.32  61 2.32  46 2.35  30 2.35
  54  0.750  0.250  0.500-  14 2.32  62 2.32  45 2.35  29 2.35
  55  0.750  0.750  0.000-  15 2.32  63 2.32  48 2.35  32 2.35
  56  0.750  0.750  0.500-  16 2.32  64 2.32  47 2.35  31 2.35
  57  0.125  0.125  0.125-   1 2.32  49 2.32  33 2.35  17 2.35
  58  0.125  0.125  0.625-   2 2.32  50 2.32  34 2.35  18 2.35
  59  0.125  0.625  0.125-   3 2.32  51 2.32  35 2.35  19 2.35
  60  0.125  0.625  0.625-   4 2.32  52 2.32  36 2.35  20 2.35
  61  0.625  0.125  0.125-   5 2.32  53 2.32  37 2.35  21 2.35
  62  0.625  0.125  0.625-   6 2.32  54 2.32  38 2.35  22 2.35
  63  0.625  0.625  0.125-   7 2.32  55 2.32  39 2.35  23 2.35
  64  0.625  0.625  0.625-   8 2.32  56 2.32  40 2.35  24 2.35
 
  LATTYP: Found a simple monoclinic cell.
 ALAT       =    10.6545932291
 B/A-ratio  =     1.0203550123
 C/A-ratio  =     1.0204060291
 COS(beta)  =    -0.0202020826
  
  Lattice vectors:
  
 A1 = (  10.6540385734,  -0.1087150161,   0.0000000000)
 A2 = (   0.0000000000,   0.0000000000, -10.8714676055)
 A3 = (  -0.1087150161,  10.8714676055,   0.0000000000)


Analysis of symmetry for initial positions (statically):
=====================================================================
 Subroutine PRICEL returns following result:
 
  LATTYP: Found a base centered monoclinic cell.
 ALAT       =     5.3272966146
 B/A-ratio  =     1.0203550123
 C/A-ratio  =     0.7071067477
 COS(beta)  =    -0.6925302837
  
  Lattice vectors:
  
 A1 = (  -2.6635096433,   0.0271787540,  -2.7178669014)
 A2 = (  -2.6635096433,   0.0271787540,   2.7178669014)
 A3 = (   2.6363308893,   2.6906881474,   0.0000000000)
 
  32 primitive cells build up your supercell.
 

 Routine SETGRP: Setting up the symmetry group for a 
 simple monoclinic supercell.


 Subroutine GETGRP returns: Found  4 space group operations
 (whereof  2 operations were pure point group operations)
 out of a pool of  4 trial point group operations.


The static configuration has the point symmetry C_2 .
 The point group associated with its full space group is C_2h.


Analysis of symmetry for dynamics (positions and initial velocities):
=====================================================================
 Subroutine PRICEL returns following result:
 
  LATTYP: Found a base centered monoclinic cell.
 ALAT       =     5.3272966146
 B/A-ratio  =     1.0203550123
 C/A-ratio  =     0.7071067477
 COS(beta)  =    -0.6925302837
  
  Lattice vectors:
  
 A1 = (  -2.6635096433,   0.0271787540,  -2.7178669014)
 A2 = (  -2.6635096433,   0.0271787540,   2.7178669014)
 A3 = (   2.6363308893,   2.6906881474,   0.0000000000)
 
  32 primitive cells build up your supercell.
 

 Routine SETGRP: Setting up the symmetry group for a 
 simple monoclinic supercell.


 Subroutine GETGRP returns: Found  4 space group operations
 (whereof  2 operations were pure point group operations)
 out of a pool of  4 trial point group operations.


The dynamic configuration has the point symmetry C_2 .
 The point group associated with its full space group is C_2h.


 Subroutine INISYM returns: Found  4 space group operations
 (whereof  2 operations are pure point group operations),
 and found    32 'primitive' translations


----------------------------------------------------------------------------------------

                                     Primitive cell                                     

  volume of cell :      39.3456

  direct lattice vectors                    reciprocal lattice vectors
    -2.663509643  0.027178754 -2.717866901    -0.185863979  0.182109156 -0.183967802
    -2.663509643  0.027178754  2.717866901    -0.185863979  0.182109156  0.183967802
     2.636330889  2.690688147  0.000000000     0.003754840  0.367973153  0.000000000

  length of vectors
     3.805499021  3.805499021  3.766967383     0.318674310  0.318674310  0.367992309

  position of ions in fractional coordinates (direct lattice)
     0.000000000  0.000000000  0.000000000
     0.750000000  0.250000000  0.500000000

  ion indices of the primitive-cell ions
   primitive index   ion index
                 1           1
                 2          15

----------------------------------------------------------------------------------------

 
 
 KPOINTS: Automatic mesh                          

Automatic generation of k-mesh.
 Grid dimensions read from file:
 generate k-points for:    2    2    2

 Generating k-lattice:

  Cartesian coordinates                     Fractional coordinates (reciprocal lattice)
     0.046935350  0.000469355  0.000000000     0.500000000  0.000000000  0.000000000
     0.000469355  0.045996644  0.000000000    -0.000000000  0.500000000  0.000000000
     0.000000000  0.000000000  0.045991951     0.000000000  0.000000000  0.500000000

  Length of vectors
     0.046937696  0.045999039  0.045991951

  Shift w.r.t. Gamma in fractional coordinates (k-lattice)
     0.000000000  0.000000000  0.000000000

 
 Subroutine IBZKPT returns following result:
 ===========================================
 
 Found      8 irreducible k-points:
 
 Following reciprocal coordinates:
            Coordinates               Weight
  0.000000  0.000000  0.000000      1.000000
  0.500000  0.000000  0.000000      1.000000
 -0.000000  0.500000  0.000000      1.000000
  0.500000  0.500000  0.000000      1.000000
  0.000000  0.000000  0.500000      1.000000
  0.500000  0.000000  0.500000      1.000000
 -0.000000  0.500000  0.500000      1.000000
  0.500000  0.500000  0.500000      1.000000
 
 Following cartesian coordinates:
            Coordinates               Weight
  0.000000  0.000000  0.000000      1.000000
  0.046935  0.000469  0.000000      1.000000
  0.000469  0.045997  0.000000      1.000000
  0.047405  0.046466  0.000000      1.000000
  0.000000  0.000000  0.045992      1.000000
  0.046935  0.000469  0.045992      1.000000
  0.000469  0.045997  0.045992      1.000000
  0.047405  0.046466  0.045992      1.000000
 


--------------------------------------------------------------------------------------------------------




 Dimension of arrays:
   k-points           NKPTS =      8   k-points in BZ     NKDIM =      8   number of bands    NBANDS=    162
   number of dos      NEDOS =    301   number of ions     NIONS =     64
   non local maximal  LDIM  =      4   non local SUM 2l+1 LMDIM =      8
   total plane-waves  NPLWV = 362880
   max r-space proj   IRMAX =   3226   max aug-charges    IRDMAX=  77282
   dimension x,y,z NGX =    70 NGY =   72 NGZ =   72
   dimension x,y,z NGXF=   140 NGYF=  144 NGZF=  144
   support grid    NGXF=   280 NGYF=  288 NGZF=  288
   ions per type =              64
   NGX,Y,Z   is equivalent  to a cutoff of  10.92, 11.01, 11.01 a.u.
   NGXF,Y,Z  is equivalent  to a cutoff of  21.84, 22.02, 22.02 a.u.

 SYSTEM =  Si64                                    
 POSCAR =  Si8                                     

 Startparameter for this run:
   NWRITE =      2    write-flag & timer
   PREC   = accura    normal or accurate (medium, high low for compatibility)
   ISTART =      0    job   : 0-new  1-cont  2-samecut
   ICHARG =      2    charge: 1-file 2-atom 10-const
   ISPIN  =      1    spin polarized calculation?
   LNONCOLLINEAR =      F non collinear calculations
   LSORBIT =      F    spin-orbit coupling
   INIWAV =      1    electr: 0-lowe 1-rand  2-diag
   LASPH  =      F    aspherical Exc in radial PAW
 Electronic Relaxation 1
   ENCUT  =  400.0 eV  29.40 Ry    5.42 a.u.  17.37 17.73 17.73*2*pi/ulx,y,z
   ENINI  =  400.0     initial cutoff
   ENAUG  =  322.1 eV  augmentation charge cutoff
   NELM   =     60;   NELMIN=  8; NELMDL= -5     # of ELM steps 
   EDIFF  = 0.1E-05   stopping-criterion for ELM
   LREAL  =      T    real-space projection
   NLSPLINE    = F    spline interpolate recip. space projectors
   LCOMPAT=      F    compatible to vasp.4.4
   GGA_COMPAT  = F    GGA compatible to vasp.4.4-vasp.4.6
   LMAXPAW     = -100 max onsite density
   LMAXMIX     =    2 max onsite mixed and CHGCAR
   VOSKOWN=      0    Vosko Wilk Nusair interpolation
   ROPT   =   -0.00025
 Ionic relaxation
   EDIFFG = -.1E-01   stopping-criterion for IOM
   NSW    =     60    number of steps for IOM
   NBLOCK =      1;   KBLOCK =     60    inner block; outer block 
   IBRION =      2    ionic relax: 0-MD 1-quasi-New 2-CG
   NFREE  =      1    steps in history (QN), initial steepest desc. (CG)
   ISIF   =      2    stress and relaxation
   IWAVPR =     11    prediction:  0-non 1-charg 2-wave 3-comb
   ISYM   =      2    0-nonsym 1-usesym 2-fastsym
   LCORR  =      T    Harris-Foulkes like correction to forces

   POTIM  = 0.5000    time-step for ionic-motion
   TEIN   =    0.0    initial temperature
   TEBEG  =    0.0;   TEEND  =   0.0 temperature during run
   SMASS  =  -3.00    Nose mass-parameter (am)
   estimated Nose-frequenzy (Omega)   =  0.10E-29 period in steps = 0.13E+47 mass=  -0.259E-26a.u.
   SCALEE = 1.0000    scale energy and forces
   NPACO  =    256;   APACO  = 10.0  distance and # of slots for P.C.
   PSTRESS=    0.0 pullay stress

  Mass of Ions in am
   POMASS =  28.09
  Ionic Valenz
   ZVAL   =   4.00
  Atomic Wigner-Seitz radii
   RWIGS  =  -1.00
  virtual crystal weights 
   VCA    =   1.00
   NELECT =     256.0000    total number of electrons
   NUPDOWN=      -1.0000    fix difference up-down

 DOS related values:
   EMIN   =  10.00;   EMAX   =-10.00  energy-range for DOS
   EFERMI =   0.00;   METHOD = LEGACY      
   ISMEAR =     1;   SIGMA  =   0.20  broadening in eV -4-tet -1-fermi 0-gaus

 Electronic relaxation 2 (details)
   IALGO  =     68    algorithm
   LDIAG  =      T    sub-space diagonalisation (order eigenvalues)
   LSUBROT=      F    optimize rotation matrix (better conditioning)
   TURBO    =      0    0=normal 1=particle mesh
   IRESTART =      0    0=no restart 2=restart with 2 vectors
   NREBOOT  =      0    no. of reboots
   NMIN     =      0    reboot dimension
   EREF     =   0.00    reference energy to select bands
   IMIX   =      4    mixing-type and parameters
     AMIX     =   0.40;   BMIX     =  1.00
     AMIX_MAG =   1.60;   BMIX_MAG =  1.00
     AMIN     =   0.10
     WC   =   100.;   INIMIX=   1;  MIXPRE=   1;  MAXMIX= -45

 Intra band minimization:
   WEIMIN = 0.0010     energy-eigenvalue tresh-hold
   EBREAK =  0.15E-08  absolut break condition
   DEPER  =   0.30     relativ break condition  

   TIME   =   0.40     timestep for ELM

  volume/ion in A,a.u.               =      19.67       132.76
  Fermi-wavevector in a.u.,A,eV,Ry     =   0.962660  1.819163 12.608701  0.926713
  Thomas-Fermi vector in A             =   2.092138
 
 Write flags
   LWAVE        =      F    write WAVECAR
   LDOWNSAMPLE  =      F    k-point downsampling of WAVECAR
   LCHARG       =      F    write CHGCAR
   LVTOT        =      F    write LOCPOT, total local potential
   LVHAR        =      F    write LOCPOT, Hartree potential only
   WRT_POTENTIAL= false  ! write potential to hdf5 file
   LELF         =      F    write electronic localiz. function (ELF)
   LORBIT       =      0    0 simple, 1 ext, 2 COOP (PROOUT), +10 PAW based schemes


 Dipole corrections
   LMONO      =      F    monopole corrections only (constant potential shift)
   LDIPOL     =      F    correct potential (dipole corrections)
   IDIPOL     =      0    1-x, 2-y, 3-z, 4-all directions 
   EPSILON    =  1.0000000 bulk dielectric constant
   LVACPOTAV  =      F  vacuum potentials using an averaging scheme for the charge density
   VACPOTFLAT =  0.1000000 required flatness to determine vacuum potential
 Exchange correlation treatment:
   GGA     = PS    functional components
   XC_C    = 1    coefficients multiplying the functional components
   LIBXC   =     F    Libxc                    
   VOSKOWN =     0    Vosko Wilk Nusair interpolation
   LHFCALC =     F    Hartree Fock is set to
   LHFONE  =     F    Hartree Fock one center treatment
   AEXX    =    0.0000 exact exchange contribution

 Parameters of functionals:
   PS:
     No parameter
 
 Van der Waals corrections
   IVDW    =     0    specifies the selected vdW correction

 Linear response parameters
   LEPSILON=     F    determine dielectric tensor
   LRPA    =     F    only Hartree local field effects (RPA)
   LNABLA  =     F    use nabla operator in PAW spheres
   LVEL    =     F    velocity operator in full k-point grid
   CSHIFT  =0.1000    complex shift for real part using Kramers Kronig
   OMEGAMAX=  -1.0    maximum frequency
   DEG_THRESHOLD= 0.2000000E-02 threshold for treating states as degnerate
   RTIME   =   -0.100 relaxation time in fs
  (WPLASMAI=    0.000 imaginary part of plasma frequency in eV, 0.658/RTIME)
   DFIELD  = 0.0000000 0.0000000 0.0000000 field for delta impulse in time
 
  Optional k-point grid parameters
   LKPOINTS_OPT  =     F    use optional k-point grid
   KPOINTS_OPT_MODE=     1    mode for optional k-point grid
 
 Orbital magnetization related:
   ORBITALMAG=     F  switch on orbital magnetization
   LCHIMAG   =     F  perturbation theory with respect to B field
   DQ        =  0.001000  dq finite difference perturbation B field
   LLRAUG    =     F  two centre corrections for induced B field
   LBONE     =     F  B-component reconstruction in AE one-centre
   LVGVCALC  =     T  calculate vGv susceptibility
   LVGVAPPL  =     F  apply vGv susceptibility instead of pGv for G=0

 Random number generation:
   RANDOM_GENERATOR = DEFAULT
   PCG_SEED         = not used


--------------------------------------------------------------------------------------------------------


 conjugate gradient relaxation of ions
 charge density and potential will be updated during run
 non-spin polarized calculation
 RMM-DIIS sequential band-by-band and
  variant of blocked Davidson during initial phase
 perform sub-space diagonalisation
    before iterative eigenvector-optimisation
 modified Broyden-mixing scheme, WC =      100.0
 initial mixing is a Kerker type mixing with AMIX =  0.4000 and BMIX =      1.0000
 Hartree-type preconditioning will be used
 using additional bands           34
 real space projection scheme for non local part
 use partial core corrections
 calculate Harris-corrections to forces 
   (improved forces if not selfconsistent)
 use gradient corrections 
 use of overlap-Matrix (Vanderbilt PP)
 Methfessel and Paxton  Order N= 1 SIGMA  =   0.20


--------------------------------------------------------------------------------------------------------


  energy-cutoff  :      400.00
  volume of cell :     1259.06
      direct lattice vectors                 reciprocal lattice vectors
    10.654038573 -0.108715016  0.000000000     0.093870699  0.000938710  0.000000000
    -0.108715016 10.871467606  0.000000000     0.000938710  0.091993288  0.000000000
     0.000000000  0.000000000 10.871467606     0.000000000  0.000000000  0.091983901

  length of vectors
    10.654593229 10.872011169 10.871467606     0.093875393  0.091998077  0.091983901


 
 k-points in units of 2pi/SCALE and weight: Automatic mesh                          
   0.00000000  0.00000000  0.00000000       0.125
   0.04693536  0.00046936  0.00000000       0.125
   0.00046936  0.04599665  0.00000000       0.125
   0.04740471  0.04646601  0.00000000       0.125
   0.00000000  0.00000000  0.04599196       0.125
   0.04693536  0.00046936  0.04599196       0.125
   0.00046936  0.04599665  0.04599196       0.125
   0.04740471  0.04646601  0.04599196       0.125
 
 k-points in reciprocal lattice and weights: Automatic mesh                          
   0.00000000  0.00000000  0.00000000       0.125
   0.50000000  0.00000000  0.00000000       0.125
  -0.00000000  0.50000000  0.00000000       0.125
   0.50000000  0.50000000  0.00000000       0.125
   0.00000000  0.00000000  0.50000000       0.125
   0.50000000  0.00000000  0.50000000       0.125
  -0.00000000  0.50000000  0.50000000       0.125
   0.50000000  0.50000000  0.50000000       0.125
 
 position of ions in fractional coordinates (direct lattice) 
   0.00000000  0.00000000  0.00000000
   0.00000000  0.00000000  0.50000000
   0.00000000  0.50000000  0.00000000
   0.00000000  0.50000000  0.50000000
   0.50000000  0.00000000  0.00000000
   0.50000000  0.00000000  0.50000000
   0.50000000  0.50000000  0.00000000
   0.50000000  0.50000000  0.50000000
   0.37500000  0.37500000  0.12500000
   0.37500000  0.37500000  0.62500000
   0.37500000  0.87500000  0.12500000
   0.37500000  0.87500000  0.62500000
   0.87500000  0.37500000  0.12500000
   0.87500000  0.37500000  0.62500000
   0.87500000  0.87500000  0.12500000
   0.87500000  0.87500000  0.62500000
   0.00000000  0.25000000  0.25000000
   0.00000000  0.25000000  0.75000000
   0.00000000  0.75000000  0.25000000
   0.00000000  0.75000000  0.75000000
   0.50000000  0.25000000  0.25000000
   0.50000000  0.25000000  0.75000000
   0.50000000  0.75000000  0.25000000
   0.50000000  0.75000000  0.75000000
   0.37500000  0.12500000  0.37500000
   0.37500000  0.12500000  0.87500000
   0.37500000  0.62500000  0.37500000
   0.37500000  0.62500000  0.87500000
   0.87500000  0.12500000  0.37500000
   0.87500000  0.12500000  0.87500000
   0.87500000  0.62500000  0.37500000
   0.87500000  0.62500000  0.87500000
   0.25000000  0.00000000  0.25000000
   0.25000000  0.00000000  0.75000000
   0.25000000  0.50000000  0.25000000
   0.25000000  0.50000000  0.75000000
   0.75000000  0.00000000  0.25000000
   0.75000000  0.00000000  0.75000000
   0.75000000  0.50000000  0.25000000
   0.75000000  0.50000000  0.75000000
   0.12500000  0.37500000  0.37500000
   0.12500000  0.37500000  0.87500000
   0.12500000  0.87500000  0.37500000
   0.12500000  0.87500000  0.87500000
   0.62500000  0.37500000  0.37500000
   0.62500000  0.37500000  0.87500000
   0.62500000  0.87500000  0.37500000
   0.62500000  0.87500000  0.87500000
   0.25000000  0.25000000  0.00000000
   0.25000000  0.25000000  0.50000000
   0.25000000  0.75000000  0.00000000
   0.25000000  0.75000000  0.50000000
   0.75000000  0.25000000  0.00000000
   0.75000000  0.25000000  0.50000000
   0.75000000  0.75000000  0.00000000
   0.75000000  0.75000000  0.50000000
   0.12500000  0.12500000  0.12500000
   0.12500000  0.12500000  0.62500000
   0.12500000  0.62500000  0.12500000
   0.12500000  0.62500000  0.62500000
   0.62500000  0.12500000  0.12500000
   0.62500000  0.12500000  0.62500000
   0.62500000  0.62500000  0.12500000
   0.62500000  0.62500000  0.62500000
 
 position of ions in cartesian coordinates  (Angst):
   0.00000000  0.00000000  0.00000000
   0.00000000  0.00000000  5.43573380
  -0.05435751  5.43573380  0.00000000
  -0.05435751  5.43573380  5.43573380
   5.32701929 -0.05435751  0.00000000
   5.32701929 -0.05435751  5.43573380
   5.27266178  5.38137629  0.00000000
   5.27266178  5.38137629  5.43573380
   3.95449633  4.03603222  1.35893345
   3.95449633  4.03603222  6.79466725
   3.90013883  9.47176602  1.35893345
   3.90013883  9.47176602  6.79466725
   9.28151562  3.98167471  1.35893345
   9.28151562  3.98167471  6.79466725
   9.22715811  9.41740852  1.35893345
   9.22715811  9.41740852  6.79466725
  -0.02717875  2.71786690  2.71786690
  -0.02717875  2.71786690  8.15360070
  -0.08153626  8.15360070  2.71786690
  -0.08153626  8.15360070  8.15360070
   5.29984053  2.66350939  2.71786690
   5.29984053  2.66350939  8.15360070
   5.24548302  8.09924320  2.71786690
   5.24548302  8.09924320  8.15360070
   3.98167509  1.31816532  4.07680035
   3.98167509  1.31816532  9.51253415
   3.92731758  6.75389912  4.07680035
   3.92731758  6.75389912  9.51253415
   9.30869437  1.26380781  4.07680035
   9.30869437  1.26380781  9.51253415
   9.25433687  6.69954161  4.07680035
   9.25433687  6.69954161  9.51253415
   2.66350964 -0.02717875  2.71786690
   2.66350964 -0.02717875  8.15360070
   2.60915214  5.40855505  2.71786690
   2.60915214  5.40855505  8.15360070
   7.99052893 -0.08153626  2.71786690
   7.99052893 -0.08153626  8.15360070
   7.93617142  5.35419754  2.71786690
   7.93617142  5.35419754  8.15360070
   1.29098669  4.06321098  4.07680035
   1.29098669  4.06321098  9.51253415
   1.23662918  9.49894478  4.07680035
   1.23662918  9.49894478  9.51253415
   6.61800598  4.00885347  4.07680035
   6.61800598  4.00885347  9.51253415
   6.56364847  9.44458727  4.07680035
   6.56364847  9.44458727  9.51253415
   2.63633089  2.69068815  0.00000000
   2.63633089  2.69068815  5.43573380
   2.58197338  8.12642195  0.00000000
   2.58197338  8.12642195  5.43573380
   7.96335018  2.63633064  0.00000000
   7.96335018  2.63633064  5.43573380
   7.90899267  8.07206444  0.00000000
   7.90899267  8.07206444  5.43573380
   1.31816544  1.34534407  1.35893345
   1.31816544  1.34534407  6.79466725
   1.26380794  6.78107788  1.35893345
   1.26380794  6.78107788  6.79466725
   6.64518473  1.29098657  1.35893345
   6.64518473  1.29098657  6.79466725
   6.59082722  6.72672037  1.35893345
   6.59082722  6.72672037  6.79466725
 


--------------------------------------------------------------------------------------------------------


 k-point     1 :   0.0000 0.0000 0.0000  plane waves:   22865
 k-point     2 :   0.5000 0.0000 0.0000  plane waves:   22878
 k-point     3 :  -0.0000 0.5000 0.0000  plane waves:   22864
 k-point     4 :   0.5000 0.5000 0.0000  plane waves:   22894
 k-point     5 :   0.0000 0.0000 0.5000  plane waves:   22892
 k-point     6 :   0.5000 0.0000 0.5000  plane waves:   22864
 k-point     7 :  -0.0000 0.5000 0.5000  plane waves:   22880
 k-point     8 :   0.5000 0.5000 0.5000  plane waves:   22840

 maximum and minimum number of plane-waves per node :      1928     1881

 maximum number of plane-waves:     22894
 maximum index in each direction: 
   IXMAX=   17   IYMAX=   17   IZMAX=   17
   IXMIN=  -17   IYMIN=  -18   IZMIN=  -18


 real space projection operators:
  total allocation   :      12247.00 KBytes
  max/ min on nodes  :       1066.00        885.50


 parallel 3D FFT for wavefunctions:
    minimum data exchange during FFTs selected (reduces bandwidth)
 parallel 3D FFT for charge:
    minimum data exchange during FFTs selected (reduces bandwidth)


 total amount of memory used by VASP MPI-rank0    81453. kBytes
=======================================================================

   base      :      30000. kBytes
   nonlr-proj:       4710. kBytes
   fftplans  :      19043. kBytes
   grid      :       7278. kBytes
   one-center:         18. kBytes
   wavefun   :      20404. kBytes
 
     INWAV:  cpu time      0.0000: real time      0.0000
 Broyden mixing: mesh for mixing (old mesh)
   NGX = 35   NGY = 35   NGZ = 35
  (NGX  =140   NGY  =144   NGZ  =144)
  gives a total of  42875 points

 initial charge density was supplied:
 charge density of overlapping atoms calculated
 number of electron     256.0000000 magnetization 
 keeping initial charge density in first step


--------------------------------------------------------------------------------------------------------


 Maximum index for non-local projection operator          286
 Maximum index for augmentation-charges         3818 (set IRDMAX)


--------------------------------------------------------------------------------------------------------


 First call to EWALD:  gamma=   0.164
 Maximum number of real-space cells 3x 3x 3
 Maximum number of reciprocal cells 3x 3x 3

    FEWALD:  cpu time      0.0050: real time      0.0050


--------------------------------------- Ionic step        1  -------------------------------------------




--------------------------------------- Iteration      1(   1)  ---------------------------------------


    POTLOK:  cpu time      0.0945: real time      0.1007
    SETDIJ:  cpu time      0.0821: real time      0.0841
     EDDAV:  cpu time      1.3025: real time      1.3677
       DOS:  cpu time      0.0107: real time      0.0127
    --------------------------------------------
      LOOP:  cpu time      1.4898: real time      1.5653

 eigenvalue-minimisations  :  2592
 total energy-change (2. order) : 0.5611065E+03  (-0.8417690E+04)
 number of electron     256.0000000 magnetization 
 augmentation part      256.0000000 magnetization 

 Free energy of the ion-electron system (eV)
  ---------------------------------------------------
  alpha Z        PSCENC =       109.51362477
  Ewald energy   TEWEN  =     -7355.83382745
  -Hartree energ DENC   =      -343.91322994
  -exchange      EXHF   =         0.00000000
  -V(xc)+E(xc)   XCENC  =      -556.54949400
  PAW double counting   =      5598.62625415    -4492.17844134
  entropy T*S    EENTRO =         0.00717323
  eigenvalues    EBANDS =      1036.63857129
  atomic energy  EATOM  =      6564.79586099
  Solvation  Ediel_sol  =         0.00000000
  ---------------------------------------------------
  free energy    TOTEN  =       561.10649170 eV

  energy without entropy =      561.09931847  energy(sigma->0) =      561.10410062


--------------------------------------------------------------------------------------------------------




--------------------------------------- Iteration      1(   2)  ---------------------------------------


     EDDAV:  cpu time      1.3546: real time      1.3702
       DOS:  cpu time      0.0012: real time      0.0015
    --------------------------------------------
      LOOP:  cpu time      1.3558: real time      1.3717

 eigenvalue-minimisations  :  3096
 total energy-change (2. order) :-0.8719102E+03  (-0.8274884E+03)
 number of electron     256.0000000 magnetization 
 augmentation part      256.0000000 magnetization 

 Free energy of the ion-electron system (eV)
  ---------------------------------------------------
  alpha Z        PSCENC =       109.51362477
  Ewald energy   TEWEN  =     -7355.83382745
  -Hartree energ DENC   =      -343.91322994
  -exchange      EXHF   =         0.00000000
  -V(xc)+E(xc)   XCENC  =      -556.54949400
  PAW double counting   =      5598.62625415    -4492.17844134
  entropy T*S    EENTRO =         0.01754738
  eigenvalues    EBANDS =       164.71804022
  atomic energy  EATOM  =      6564.79586099
  Solvation  Ediel_sol  =         0.00000000
  ---------------------------------------------------
  free energy    TOTEN  =      -310.80366523 eV

  energy without entropy =     -310.82121261  energy(sigma->0) =     -310.80951435


--------------------------------------------------------------------------------------------------------




--------------------------------------- Iteration      1(   3)  ---------------------------------------


     EDDAV:  cpu time      1.3830: real time      1.3976
       DOS:  cpu time      0.0016: real time      0.0016
    --------------------------------------------
      LOOP:  cpu time      1.3846: real time      1.3992

 eigenvalue-minimisations  :  3144
 total energy-change (2. order) :-0.6231219E+02  (-0.6118794E+02)
 number of electron     256.0000000 magnetization 
 augmentation part      256.0000000 magnetization 

 Free energy of the ion-electron system (eV)
  ---------------------------------------------------
  alpha Z        PSCENC =       109.51362477
  Ewald energy   TEWEN  =     -7355.83382745
  -Hartree energ DENC   =      -343.91322994
  -exchange      EXHF   =         0.00000000
  -V(xc)+E(xc)   XCENC  =      -556.54949400
  PAW double counting   =      5598.62625415    -4492.17844134
  entropy T*S    EENTRO =         0.00682704
  eigenvalues    EBANDS =       102.41657434
  atomic energy  EATOM  =      6564.79586099
  Solvation  Ediel_sol  =         0.00000000
  ---------------------------------------------------
  free energy    TOTEN  =      -373.11585145 eV

  energy without entropy =     -373.12267848  energy(sigma->0) =     -373.11812712


--------------------------------------------------------------------------------------------------------




--------------------------------------- Iteration      1(   4)  ---------------------------------------


     EDDAV:  cpu time      1.3691: real time      1.3824
       DOS:  cpu time      0.0014: real time      0.0014
    --------------------------------------------
      LOOP:  cpu time      1.3704: real time      1.3837

 eigenvalue-minimisations  :  3136
 total energy-change (2. order) :-0.1611279E+01  (-0.1599265E+01)
 number of electron     256.0000000 magnetization 
 augmentation part      256.0000000 magnetization 

 Free energy of the ion-electron system (eV)
  ---------------------------------------------------
  alpha Z        PSCENC =       109.51362477
  Ewald energy   TEWEN  =     -7355.83382745
  -Hartree energ DENC   =      -343.91322994
  -exchange      EXHF   =         0.00000000
  -V(xc)+E(xc)   XCENC  =      -556.54949400
  PAW double counting   =      5598.62625415    -4492.17844134
  entropy T*S    EENTRO =         0.00734965
  eigenvalues    EBANDS =       100.80477255
  atomic energy  EATOM  =      6564.79586099
  Solvation  Ediel_sol  =         0.00000000
  ---------------------------------------------------
  free energy    TOTEN  =      -374.72713062 eV

  energy without entropy =     -374.73448028  energy(sigma->0) =     -374.72958051


--------------------------------------------------------------------------------------------------------




--------------------------------------- Iteration      1(   5)  ---------------------------------------


     EDDAV:  cpu time      1.3742: real time      1.3916
       DOS:  cpu time      0.0011: real time      0.0011
    CHARGE:  cpu time      0.2622: real time      0.2658
    MIXING:  cpu time      0.0111: real time      0.0124
    --------------------------------------------
      LOOP:  cpu time      1.6487: real time      1.6710

 eigenvalue-minimisations  :  3126
 total energy-change (2. order) :-0.5359069E-01  (-0.5346429E-01)
 number of electron     255.9999997 magnetization 
 augmentation part      -15.0069435 magnetization 

 Broyden mixing:
  rms(total) = 0.28779E+01    rms(broyden)= 0.28779E+01
  rms(prec ) = 0.31707E+01
  weight for this iteration     100.00

 Free energy of the ion-electron system (eV)
  ---------------------------------------------------
  alpha Z        PSCENC =       109.51362477
  Ewald energy   TEWEN  =     -7355.83382745
  -Hartree energ DENC   =      -343.91322994
  -exchange      EXHF   =         0.00000000
  -V(xc)+E(xc)   XCENC  =      -556.54949400
  PAW double counting   =      5598.62625415    -4492.17844134
  entropy T*S    EENTRO =         0.00732778
  eigenvalues    EBANDS =       100.75120373
  atomic energy  EATOM  =      6564.79586099
  Solvation  Ediel_sol  =         0.00000000
  ---------------------------------------------------
  free energy    TOTEN  =      -374.78072132 eV

  energy without entropy =     -374.78804909  energy(sigma->0) =     -374.78316391


--------------------------------------------------------------------------------------------------------




--------------------------------------- Iteration      1(   6)  ---------------------------------------


    POTLOK:  cpu time      0.0773: real time      0.0917
    SETDIJ:  cpu time      0.0673: real time      0.0674
    EDDIAG:  cpu time      0.1348: real time      0.1395
  RMM-DIIS:  cpu time      0.7332: real time      0.7366
    ORTHCH:  cpu time      0.0217: real time      0.0218
       DOS:  cpu time      0.0012: real time      0.0012
    CHARGE:  cpu time      0.2478: real time      0.2482
    MIXING:  cpu time      0.0070: real time      0.0088
    --------------------------------------------
      LOOP:  cpu time      1.2903: real time      1.3153

 eigenvalue-minimisations  :  2592
 total energy-change (2. order) : 0.5272525E+01  (-0.2679000E+00)
 number of electron     255.9999997 magnetization 
 augmentation part      -14.8411604 magnetization 

 Broyden mixing:
  rms(total) = 0.17319E+01    rms(broyden)= 0.17319E+01
  rms(prec ) = 0.18988E+01
  weight for this iteration     100.00

 eigenvalues of (default mixing * dielectric matrix)
  average eigenvalue GAMMA=   2.5059
  2.5059

 Free energy of the ion-electron system (eV)
  ---------------------------------------------------
  alpha Z        PSCENC =       109.51362477
  Ewald energy   TEWEN  =     -7355.83382745
  -Hartree energ DENC   =      -391.01147423
  -exchange      EXHF   =         0.00000000
  -V(xc)+E(xc)   XCENC  =      -549.11178198
  PAW double counting   =     12567.13071189   -11464.12608325
  entropy T*S    EENTRO =         0.02065269
  eigenvalues    EBANDS =       149.11412075
  atomic energy  EATOM  =      6564.79586099
  Solvation  Ediel_sol  =         0.00000000
  ---------------------------------------------------
  free energy    TOTEN  =      -369.50819583 eV

  energy without entropy =     -369.52884851  energy(sigma->0) =     -369.51508006


--------------------------------------------------------------------------------------------------------




--------------------------------------- Iteration      1(   7)  ---------------------------------------


    POTLOK:  cpu time      0.0793: real time      0.0927
    SETDIJ:  cpu time      0.0660: real time      0.0661
    EDDIAG:  cpu time      0.1338: real time      0.1340
  RMM-DIIS:  cpu time      0.7352: real time      0.7368
    ORTHCH:  cpu time      0.0219: real time      0.0220
       DOS:  cpu time      0.0016: real time      0.0016
    CHARGE:  cpu time      0.2512: real time      0.2517
    MIXING:  cpu time      0.0052: real time      0.0057
    --------------------------------------------
      LOOP:  cpu time      1.2942: real time      1.3106

 eigenvalue-minimisations  :  2635
 total energy-change (2. order) : 0.2370794E+01  (-0.6835705E+00)
 number of electron     255.9999997 magnetization 
 augmentation part      -14.6087834 magnetization 

 Broyden mixing:
  rms(total) = 0.99972E-01    rms(broyden)= 0.99972E-01
  rms(prec ) = 0.12613E+00
  weight for this iteration     100.00

 eigenvalues of (default mixing * dielectric matrix)
  average eigenvalue GAMMA=   2.2800
  2.2800  2.2800

 Free energy of the ion-electron system (eV)
  ---------------------------------------------------
  alpha Z        PSCENC =       109.51362477
  Ewald energy   TEWEN  =     -7355.83382745
  -Hartree energ DENC   =      -468.77991040
  -exchange      EXHF   =         0.00000000
  -V(xc)+E(xc)   XCENC  =      -536.25888951
  PAW double counting   =     29334.09050999   -28235.85445057
  entropy T*S    EENTRO =         0.02396120
  eigenvalues    EBANDS =       221.16571945
  atomic energy  EATOM  =      6564.79586099
  Solvation  Ediel_sol  =         0.00000000
  ---------------------------------------------------
  free energy    TOTEN  =      -367.13740155 eV

  energy without entropy =     -367.16136274  energy(sigma->0) =     -367.14538861


--------------------------------------------------------------------------------------------------------




--------------------------------------- Iteration      1(   8)  ---------------------------------------


    POTLOK:  cpu time      0.0788: real time      0.0935
    SETDIJ:  cpu time      0.0676: real time      0.0682
    EDDIAG:  cpu time      0.1329: real time      0.1331
  RMM-DIIS:  cpu time      0.7246: real time      0.7261
    ORTHCH:  cpu time      0.0213: real time      0.0214
       DOS:  cpu time      0.0016: real time      0.0016
    CHARGE:  cpu time      0.2785: real time      0.2839
    MIXING:  cpu time      0.0046: real time      0.0049
    --------------------------------------------
      LOOP:  cpu time      1.3099: real time      1.3327

 eigenvalue-minimisations  :  2628
 total energy-change (2. order) :-0.4224452E-01  (-0.6705534E-01)
 number of electron     255.9999997 magnetization 
 augmentation part      -14.6615677 magnetization 

 Broyden mixing:
  rms(total) = 0.50909E-01    rms(broyden)= 0.50909E-01
  rms(prec ) = 0.54474E-01
  weight for this iteration     100.00

 eigenvalues of (default mixing * dielectric matrix)
  average eigenvalue GAMMA=   2.1062
  2.5520  1.8833  1.8833

 Free energy of the ion-electron system (eV)
  ---------------------------------------------------
  alpha Z        PSCENC =       109.51362477
  Ewald energy   TEWEN  =     -7355.83382745
  -Hartree energ DENC   =      -461.09123822
  -exchange      EXHF   =         0.00000000
  -V(xc)+E(xc)   XCENC  =      -536.89234670
  PAW double counting   =     28962.97302967   -27863.81127258
  entropy T*S    EENTRO =         0.02528600
  eigenvalues    EBANDS =       213.14123747
  atomic energy  EATOM  =      6564.79586099
  Solvation  Ediel_sol  =         0.00000000
  ---------------------------------------------------
  free energy    TOTEN  =      -367.17964606 eV

  energy without entropy =     -367.20493207  energy(sigma->0) =     -367.18807473


--------------------------------------------------------------------------------------------------------




--------------------------------------- Iteration      1(   9)  ---------------------------------------


    POTLOK:  cpu time      0.0794: real time      0.0937
    SETDIJ:  cpu time      0.0663: real time      0.0665
    EDDIAG:  cpu time      0.1417: real time      0.1420
  RMM-DIIS:  cpu time      0.7481: real time      0.7496
    ORTHCH:  cpu time      0.0209: real time      0.0210
       DOS:  cpu time      0.0016: real time      0.0016
    CHARGE:  cpu time      0.2524: real time      0.2529
    MIXING:  cpu time      0.0053: real time      0.0053
    --------------------------------------------
      LOOP:  cpu time      1.3159: real time      1.3326

 eigenvalue-minimisations  :  2675
 total energy-change (2. order) :-0.2048022E-01  (-0.1923747E-01)
 number of electron     255.9999997 magnetization 
 augmentation part      -14.6504746 magnetization 

 Broyden mixing:
  rms(total) = 0.58507E-01    rms(broyden)= 0.58507E-01
  rms(prec ) = 0.65455E-01
  weight for this iteration     100.00

 eigenvalues of (default mixing * dielectric matrix)
  average eigenvalue GAMMA=   1.6671
  2.5497  1.9911  1.9911  0.1365

 Free energy of the ion-electron system (eV)
  ---------------------------------------------------
  alpha Z        PSCENC =       109.51362477
  Ewald energy   TEWEN  =     -7355.83382745
  -Hartree energ DENC   =      -463.94433593
  -exchange      EXHF   =         0.00000000
  -V(xc)+E(xc)   XCENC  =      -536.49949351
  PAW double counting   =     29333.28737363   -28234.35437012
  entropy T*S    EENTRO =         0.02505699
  eigenvalues    EBANDS =       215.80998435
  atomic energy  EATOM  =      6564.79586099
  Solvation  Ediel_sol  =         0.00000000
  ---------------------------------------------------
  free energy    TOTEN  =      -367.20012628 eV

  energy without entropy =     -367.22518328  energy(sigma->0) =     -367.20847861


--------------------------------------------------------------------------------------------------------




--------------------------------------- Iteration      1(  10)  ---------------------------------------


    POTLOK:  cpu time      0.0904: real time      0.0912
    SETDIJ:  cpu time      0.0669: real time      0.0670
    EDDIAG:  cpu time      0.1324: real time      0.1327
  RMM-DIIS:  cpu time      0.7480: real time      0.7495
    ORTHCH:  cpu time      0.0210: real time      0.0211
       DOS:  cpu time      0.0011: real time      0.0011
    CHARGE:  cpu time      0.2480: real time      0.2484
    MIXING:  cpu time      0.0049: real time      0.0049
    --------------------------------------------
      LOOP:  cpu time      1.3127: real time      1.3158

 eigenvalue-minimisations  :  2732
 total energy-change (2. order) :-0.3805707E-02  (-0.3297144E-02)
 number of electron     255.9999997 magnetization 
 augmentation part      -14.6564268 magnetization 

 Broyden mixing:
  rms(total) = 0.82524E-01    rms(broyden)= 0.82524E-01
  rms(prec ) = 0.88921E-01
  weight for this iteration     100.00

 eigenvalues of (default mixing * dielectric matrix)
  average eigenvalue GAMMA=   1.6203
  2.6938  2.1522  1.9016  0.6770  0.6770

 Free energy of the ion-electron system (eV)
  ---------------------------------------------------
  alpha Z        PSCENC =       109.51362477
  Ewald energy   TEWEN  =     -7355.83382745
  -Hartree energ DENC   =      -464.16154721
  -exchange      EXHF   =         0.00000000
  -V(xc)+E(xc)   XCENC  =      -536.47443509
  PAW double counting   =     29386.29518605   -28287.37040431
  entropy T*S    EENTRO =         0.02502363
  eigenvalues    EBANDS =       216.00658663
  atomic energy  EATOM  =      6564.79586099
  Solvation  Ediel_sol  =         0.00000000
  ---------------------------------------------------
  free energy    TOTEN  =      -367.20393199 eV

  energy without entropy =     -367.22895562  energy(sigma->0) =     -367.21227320


--------------------------------------------------------------------------------------------------------




--------------------------------------- Iteration      1(  11)  ---------------------------------------


    POTLOK:  cpu time      0.0759: real time      0.0917
    SETDIJ:  cpu time      0.0670: real time      0.0671
    EDDIAG:  cpu time      0.1322: real time      0.1325
  RMM-DIIS:  cpu time      0.7118: real time      0.7133
    ORTHCH:  cpu time      0.0213: real time      0.0214
       DOS:  cpu time      0.0013: real time      0.0013
    CHARGE:  cpu time      0.2475: real time      0.2479
    MIXING:  cpu time      0.0065: real time      0.0065
    --------------------------------------------
      LOOP:  cpu time      1.2635: real time      1.2816

 eigenvalue-minimisations  :  2592
 total energy-change (2. order) : 0.2991916E-02  (-0.1258475E-02)
 number of electron     255.9999997 magnetization 
 augmentation part      -14.6700293 magnetization 

 Broyden mixing:
  rms(total) = 0.57293E-01    rms(broyden)= 0.57293E-01
  rms(prec ) = 0.57768E-01
  weight for this iteration     100.00

 eigenvalues of (default mixing * dielectric matrix)
  average eigenvalue GAMMA=   1.4949
  2.5997  2.5997  1.3150  1.3150  0.7983  0.3415

 Free energy of the ion-electron system (eV)
  ---------------------------------------------------
  alpha Z        PSCENC =       109.51362477
  Ewald energy   TEWEN  =     -7355.83382745
  -Hartree energ DENC   =      -461.74014535
  -exchange      EXHF   =         0.00000000
  -V(xc)+E(xc)   XCENC  =      -536.64821899
  PAW double counting   =     29260.88354254   -28161.72214661
  entropy T*S    EENTRO =         0.02537119
  eigenvalues    EBANDS =       213.52499884
  atomic energy  EATOM  =      6564.79586099
  Solvation  Ediel_sol  =         0.00000000
  ---------------------------------------------------
  free energy    TOTEN  =      -367.20094007 eV

  energy without entropy =     -367.22631126  energy(sigma->0) =     -367.20939713


--------------------------------------------------------------------------------------------------------




--------------------------------------- Iteration      1(  12)  ---------------------------------------


    POTLOK:  cpu time      0.0754: real time      0.0928
    SETDIJ:  cpu time      0.0660: real time      0.0666
    EDDIAG:  cpu time      0.1300: real time      0.1307
  RMM-DIIS:  cpu time      0.7174: real time      0.7234
    ORTHCH:  cpu time      0.0210: real time      0.0210
       DOS:  cpu time      0.0013: real time      0.0013
    CHARGE:  cpu time      0.2474: real time      0.2479
    MIXING:  cpu time      0.0061: real time      0.0061
    --------------------------------------------
      LOOP:  cpu time      1.2647: real time      1.2898

 eigenvalue-minimisations  :  2608
 total energy-change (2. order) :-0.1756655E-03  (-0.1810198E-03)
 number of electron     255.9999997 magnetization 
 augmentation part      -14.6733157 magnetization 

 Broyden mixing:
  rms(total) = 0.54036E-01    rms(broyden)= 0.54036E-01
  rms(prec ) = 0.54298E-01
  weight for this iteration     100.00

 eigenvalues of (default mixing * dielectric matrix)
  average eigenvalue GAMMA=   1.4178
  2.5963  2.5963  1.6044  1.1309  0.8272  0.4591  0.7106

 Free energy of the ion-electron system (eV)
  ---------------------------------------------------
  alpha Z        PSCENC =       109.51362477
  Ewald energy   TEWEN  =     -7355.83382745
  -Hartree energ DENC   =      -461.57116300
  -exchange      EXHF   =         0.00000000
  -V(xc)+E(xc)   XCENC  =      -536.67747393
  PAW double counting   =     29177.16216876   -28078.01036989
  entropy T*S    EENTRO =         0.02538032
  eigenvalues    EBANDS =       213.39468371
  atomic energy  EATOM  =      6564.79586099
  Solvation  Ediel_sol  =         0.00000000
  ---------------------------------------------------
  free energy    TOTEN  =      -367.20111574 eV

  energy without entropy =     -367.22649605  energy(sigma->0) =     -367.20957584


--------------------------------------------------------------------------------------------------------




--------------------------------------- Iteration      1(  13)  ---------------------------------------


    POTLOK:  cpu time      0.0759: real time      0.0916
    SETDIJ:  cpu time      0.0669: real time      0.0670
    EDDIAG:  cpu time      0.1331: real time      0.1333
  RMM-DIIS:  cpu time      0.7565: real time      0.7581
    ORTHCH:  cpu time      0.0214: real time      0.0215
       DOS:  cpu time      0.0013: real time      0.0013
    CHARGE:  cpu time      0.2484: real time      0.2488
    MIXING:  cpu time      0.0072: real time      0.0072
    --------------------------------------------
      LOOP:  cpu time      1.3107: real time      1.3287

 eigenvalue-minimisations  :  2767
 total energy-change (2. order) :-0.5492894E-04  (-0.3444745E-04)
 number of electron     255.9999997 magnetization 
 augmentation part      -14.6738142 magnetization 

 Broyden mixing:
  rms(total) = 0.64239E-01    rms(broyden)= 0.64239E-01
  rms(prec ) = 0.64497E-01
  weight for this iteration     100.00

 eigenvalues of (default mixing * dielectric matrix)
  average eigenvalue GAMMA=   1.6456
  2.7925  2.7925  2.3537  2.0808  0.9489  0.8395  0.8395  0.5173

 Free energy of the ion-electron system (eV)
  ---------------------------------------------------
  alpha Z        PSCENC =       109.51362477
  Ewald energy   TEWEN  =     -7355.83382745
  -Hartree energ DENC   =      -461.62790348
  -exchange      EXHF   =         0.00000000
  -V(xc)+E(xc)   XCENC  =      -536.66318097
  PAW double counting   =     29248.81033078   -28149.65833539
  entropy T*S    EENTRO =         0.02538130
  eigenvalues    EBANDS =       213.43687879
  atomic energy  EATOM  =      6564.79586099
  Solvation  Ediel_sol  =         0.00000000
  ---------------------------------------------------
  free energy    TOTEN  =      -367.20117067 eV

  energy without entropy =     -367.22655197  energy(sigma->0) =     -367.20963110


--------------------------------------------------------------------------------------------------------




--------------------------------------- Iteration      1(  14)  ---------------------------------------


    POTLOK:  cpu time      0.0911: real time      0.0918
    SETDIJ:  cpu time      0.0681: real time      0.0682
    EDDIAG:  cpu time      0.1348: real time      0.1352
  RMM-DIIS:  cpu time      0.7193: real time      0.7206
    ORTHCH:  cpu time      0.0209: real time      0.0210
       DOS:  cpu time      0.0015: real time      0.0015
    CHARGE:  cpu time      0.2492: real time      0.2497
    MIXING:  cpu time      0.0065: real time      0.0065
    --------------------------------------------
      LOOP:  cpu time      1.2914: real time      1.2945

 eigenvalue-minimisations  :  2600
 total energy-change (2. order) :-0.3655751E-04  (-0.8765726E-05)
 number of electron     255.9999997 magnetization 
 augmentation part      -14.6738969 magnetization 

 Broyden mixing:
  rms(total) = 0.23704E-01    rms(broyden)= 0.23704E-01
  rms(prec ) = 0.23910E-01
  weight for this iteration     100.00

 eigenvalues of (default mixing * dielectric matrix)
  average eigenvalue GAMMA=   1.4757
  2.6082  2.6082  2.3490  1.9317  0.9729  0.9729  0.8550  0.4917  0.4917

 Free energy of the ion-electron system (eV)
  ---------------------------------------------------
  alpha Z        PSCENC =       109.51362477
  Ewald energy   TEWEN  =     -7355.83382745
  -Hartree energ DENC   =      -461.47819048
  -exchange      EXHF   =         0.00000000
  -V(xc)+E(xc)   XCENC  =      -536.70348266
  PAW double counting   =     28947.43193185   -27848.30307651
  entropy T*S    EENTRO =         0.02538335
  eigenvalues    EBANDS =       213.35056892
  atomic energy  EATOM  =      6564.79586099
  Solvation  Ediel_sol  =         0.00000000
  ---------------------------------------------------
  free energy    TOTEN  =      -367.20120722 eV

  energy without entropy =     -367.22659057  energy(sigma->0) =     -367.20966834


--------------------------------------------------------------------------------------------------------




--------------------------------------- Iteration      1(  15)  ---------------------------------------


    POTLOK:  cpu time      0.0759: real time      0.0917
    SETDIJ:  cpu time      0.0645: real time      0.0674
    EDDIAG:  cpu time      0.1309: real time      0.1326
  RMM-DIIS:  cpu time      0.7152: real time      0.7234
    ORTHCH:  cpu time      0.0227: real time      0.0227
       DOS:  cpu time      0.0015: real time      0.0015
    CHARGE:  cpu time      0.2497: real time      0.2501
    MIXING:  cpu time      0.0058: real time      0.0058
    --------------------------------------------
      LOOP:  cpu time      1.2662: real time      1.2952

 eigenvalue-minimisations  :  2639
 total energy-change (2. order) :-0.3933517E-04  (-0.2753160E-05)
 number of electron     255.9999997 magnetization 
 augmentation part      -14.6740806 magnetization 

 Broyden mixing:
  rms(total) = 0.18892E-01    rms(broyden)= 0.18892E-01
  rms(prec ) = 0.19036E-01
  weight for this iteration     100.00

 eigenvalues of (default mixing * dielectric matrix)
  average eigenvalue GAMMA=   1.4447
  2.6932  2.6932  2.3217  1.7887  0.8116  0.8116  0.9767  0.9767  0.8488  0.5248

 Free energy of the ion-electron system (eV)
  ---------------------------------------------------
  alpha Z        PSCENC =       109.51362477
  Ewald energy   TEWEN  =     -7355.83382745
  -Hartree energ DENC   =      -461.47124170
  -exchange      EXHF   =         0.00000000
  -V(xc)+E(xc)   XCENC  =      -536.70067161
  PAW double counting   =     28933.69189641   -27834.56009208
  entropy T*S    EENTRO =         0.02539358
  eigenvalues    EBANDS =       213.33781054
  atomic energy  EATOM  =      6564.79586099
  Solvation  Ediel_sol  =         0.00000000
  ---------------------------------------------------
  free energy    TOTEN  =      -367.20124656 eV

  energy without entropy =     -367.22664014  energy(sigma->0) =     -367.20971109


--------------------------------------------------------------------------------------------------------




--------------------------------------- Iteration      1(  16)  ---------------------------------------


    POTLOK:  cpu time      0.0770: real time      0.0936
    SETDIJ:  cpu time      0.0692: real time      0.0693
    EDDIAG:  cpu time      0.1359: real time      0.1364
  RMM-DIIS:  cpu time      0.7223: real time      0.7236
    ORTHCH:  cpu time      0.0209: real time      0.0209
       DOS:  cpu time      0.0015: real time      0.0015
    CHARGE:  cpu time      0.2489: real time      0.2493
    MIXING:  cpu time      0.0057: real time      0.0061
    --------------------------------------------
      LOOP:  cpu time      1.2814: real time      1.3007

 eigenvalue-minimisations  :  2592
 total energy-change (2. order) :-0.2427847E-04  (-0.2093885E-05)
 number of electron     255.9999997 magnetization 
 augmentation part      -14.6736951 magnetization 

 Broyden mixing:
  rms(total) = 0.86576E-02    rms(broyden)= 0.86576E-02
  rms(prec ) = 0.87132E-02
  weight for this iteration     100.00

 eigenvalues of (default mixing * dielectric matrix)
  average eigenvalue GAMMA=   1.3746
  2.6793  2.6793  2.3555  1.7200  0.9923  0.9923  0.8620  0.8632  0.8632  0.5309
  0.5824

 Free energy of the ion-electron system (eV)
  ---------------------------------------------------
  alpha Z        PSCENC =       109.51362477
  Ewald energy   TEWEN  =     -7355.83382745
  -Hartree energ DENC   =      -461.56932761
  -exchange      EXHF   =         0.00000000
  -V(xc)+E(xc)   XCENC  =      -536.69367936
  PAW double counting   =     28889.67694038   -27790.54804996
  entropy T*S    EENTRO =         0.02539832
  eigenvalues    EBANDS =       213.43178909
  atomic energy  EATOM  =      6564.79586099
  Solvation  Ediel_sol  =         0.00000000
  ---------------------------------------------------
  free energy    TOTEN  =      -367.20127084 eV

  energy without entropy =     -367.22666916  energy(sigma->0) =     -367.20973694


--------------------------------------------------------------------------------------------------------




--------------------------------------- Iteration      1(  17)  ---------------------------------------


    POTLOK:  cpu time      0.0778: real time      0.0915
    SETDIJ:  cpu time      0.0684: real time      0.0689
    EDDIAG:  cpu time      0.1306: real time      0.1308
  RMM-DIIS:  cpu time      0.6509: real time      0.6693
    ORTHCH:  cpu time      0.0206: real time      0.0206
       DOS:  cpu time      0.0017: real time      0.0017
    CHARGE:  cpu time      0.2467: real time      0.2471
    MIXING:  cpu time      0.0073: real time      0.0073
    --------------------------------------------
      LOOP:  cpu time      1.2039: real time      1.2372

 eigenvalue-minimisations  :  2437
 total energy-change (2. order) :-0.3704500E-05  (-0.6402995E-06)
 number of electron     255.9999997 magnetization 
 augmentation part      -14.6735036 magnetization 

 Broyden mixing:
  rms(total) = 0.20326E-02    rms(broyden)= 0.20326E-02
  rms(prec ) = 0.20722E-02
  weight for this iteration     100.00

 eigenvalues of (default mixing * dielectric matrix)
  average eigenvalue GAMMA=   1.6757
  2.5486  2.5486  2.7234  2.7234  2.4984  1.9117  1.0317  1.0317  0.9155  0.8185
  0.8185  0.5386

 Free energy of the ion-electron system (eV)
  ---------------------------------------------------
  alpha Z        PSCENC =       109.51362477
  Ewald energy   TEWEN  =     -7355.83382745
  -Hartree energ DENC   =      -461.59412453
  -exchange      EXHF   =         0.00000000
  -V(xc)+E(xc)   XCENC  =      -536.69502213
  PAW double counting   =     28849.82364102   -27750.69493064
  entropy T*S    EENTRO =         0.02540061
  eigenvalues    EBANDS =       213.45810282
  atomic energy  EATOM  =      6564.79586099
  Solvation  Ediel_sol  =         0.00000000
  ---------------------------------------------------
  free energy    TOTEN  =      -367.20127454 eV

  energy without entropy =     -367.22667516  energy(sigma->0) =     -367.20974141


--------------------------------------------------------------------------------------------------------




--------------------------------------- Iteration      1(  18)  ---------------------------------------


    POTLOK:  cpu time      0.0774: real time      0.0922
    SETDIJ:  cpu time      0.0679: real time      0.0683
    EDDIAG:  cpu time      0.1316: real time      0.1318
  RMM-DIIS:  cpu time      0.4681: real time      0.4690
    ORTHCH:  cpu time      0.0207: real time      0.0207
       DOS:  cpu time      0.0014: real time      0.0014
    --------------------------------------------
      LOOP:  cpu time      0.7670: real time      0.7835

 eigenvalue-minimisations  :  1592
 total energy-change (2. order) :-0.5378879E-06  (-0.1695268E-06)
 number of electron     255.9999997 magnetization 
 augmentation part      -14.6735036 magnetization 

 Free energy of the ion-electron system (eV)
  ---------------------------------------------------
  alpha Z        PSCENC =       109.51362477
  Ewald energy   TEWEN  =     -7355.83382745
  -Hartree energ DENC   =      -461.62016355
  -exchange      EXHF   =         0.00000000
  -V(xc)+E(xc)   XCENC  =      -536.69374566
  PAW double counting   =     28838.40430161   -27739.27607356
  entropy T*S    EENTRO =         0.02539978
  eigenvalues    EBANDS =       213.48334800
  atomic energy  EATOM  =      6564.79586099
  Solvation  Ediel_sol  =         0.00000000
  ---------------------------------------------------
  free energy    TOTEN  =      -367.20127508 eV

  energy without entropy =     -367.22667486  energy(sigma->0) =     -367.20974167


--------------------------------------------------------------------------------------------------------




 average (electrostatic) potential at core
  the test charge radii are     0.9892
  (the norm of the test charge is              1.0000)
       1 -82.8353       2 -82.8353       3 -82.8353       4 -82.8353       5 -82.8353
       6 -82.8353       7 -82.8353       8 -82.8353       9 -82.8353      10 -82.8353
      11 -82.8353      12 -82.8353      13 -82.8353      14 -82.8353      15 -82.8353
      16 -82.8353      17 -82.8353      18 -82.8353      19 -82.8353      20 -82.8353
      21 -82.8353      22 -82.8353      23 -82.8353      24 -82.8353      25 -82.8353
      26 -82.8353      27 -82.8353      28 -82.8353      29 -82.8353      30 -82.8353
      31 -82.8353      32 -82.8353      33 -82.8353      34 -82.8353      35 -82.8353
      36 -82.8353      37 -82.8353      38 -82.8353      39 -82.8353      40 -82.8353
      41 -82.8353      42 -82.8353      43 -82.8353      44 -82.8353      45 -82.8353
      46 -82.8353      47 -82.8353      48 -82.8353      49 -82.8353      50 -82.8353
      51 -82.8353      52 -82.8353      53 -82.8353      54 -82.8353      55 -82.8353
      56 -82.8353      57 -82.8353      58 -82.8353      59 -82.8353      60 -82.8353
      61 -82.8353      62 -82.8353      63 -82.8353      64 -82.8353
 
 
 
 E-fermi :   6.2137     XC(G=0):  -9.6203     alpha+bet :-12.1917

 val. band max:        6.0729421845   @ k =   0.0000   0.0000   0.0000
 cond. band min:       6.3238979010   @ k =   0.5000   0.0000   0.0000
 fundamental gap:      0.2509557165
 Fermi energy:         6.2136899304

 k-point     1 :       0.0000    0.0000    0.0000
  band No.  band energies     occupation 
      1      -6.1421      2.00000
      2      -5.0524      2.00000
      3      -5.0524      2.00000
      4      -5.0516      2.00000
      5      -5.0516      2.00000
      6      -5.0135      2.00000
      7      -5.0135      2.00000
      8      -4.1047      2.00000
      9      -4.1047      2.00000
     10      -4.0721      2.00000
     11      -4.0721      2.00000
     12      -4.0721      2.00000
     13      -4.0721      2.00000
     14      -4.0451      2.00000
     15      -4.0451      2.00000
     16      -4.0450      2.00000
     17      -4.0450      2.00000
     18      -3.9833      2.00000
     19      -3.9833      2.00000
     20      -3.8150      2.00000
     21      -3.8150      2.00000
     22      -3.6765      2.00000
     23      -3.6765      2.00000
     24      -2.0397      2.00000
     25      -1.9561      2.00000
     26      -1.9561      2.00000
     27      -1.8763      2.00000
     28      -1.8572      2.00000
     29      -1.8572      2.00000
     30      -1.8330      2.00000
     31      -1.8330      2.00000
     32      -1.8156      2.00000
     33      -1.8156      2.00000
     34      -1.7240      2.00000
     35      -1.7240      2.00000
     36      -1.7240      2.00000
     37      -1.7240      2.00000
     38      -1.6717      2.00000
     39      -1.6717      2.00000
     40      -1.6324      2.00000
     41      -1.6324      2.00000
     42      -1.1426      2.00000
     43      -1.1426      2.00000
     44      -1.1141      2.00000
     45      -1.1141      2.00000
     46       0.3838      2.00000
     47       0.3838      2.00000
     48       0.4216      2.00000
     49       0.4216      2.00000
     50       0.4216      2.00000
     51       0.4216      2.00000
     52       0.4560      2.00000
     53       0.4560      2.00000
     54       0.4956      2.00000
     55       0.4956      2.00000
     56       0.4956      2.00000
     57       0.4956      2.00000
     58       1.9789      2.00000
     59       1.9789      2.00000
     60       1.9814      2.00000
     61       1.9814      2.00000
     62       1.9912      2.00000
     63       1.9912      2.00000
     64       1.9946      2.00000
     65       1.9946      2.00000
     66       1.9946      2.00000
     67       1.9946      2.00000
     68       1.9956      2.00000
     69       1.9956      2.00000
     70       2.0382      2.00000
     71       2.0382      2.00000
     72       2.0614      2.00000
     73       2.0614      2.00000
     74       2.0614      2.00000
     75       2.0614      2.00000
     76       2.0823      2.00000
     77       2.0823      2.00000
     78       2.1755      2.00000
     79       2.1755      2.00000
     80       2.1755      2.00000
     81       2.1755      2.00000
     82       2.4028      2.00000
     83       2.4028      2.00000
     84       2.4087      2.00000
     85       2.4087      2.00000
     86       2.5507      2.00000
     87       2.5507      2.00000
     88       2.9478      2.00000
     89       2.9478      2.00000
     90       2.9937      2.00000
     91       3.1052      2.00000
     92       3.1052      2.00000
     93       3.2185      2.00000
     94       3.9491      2.00000
     95       3.9491      2.00000
     96       3.9492      2.00000
     97       3.9492      2.00000
     98       3.9723      2.00000
     99       3.9723      2.00000
    100       4.0485      2.00000
    101       4.0485      2.00000
    102       4.0931      2.00000
    103       4.0931      2.00000
    104       4.1741      2.00000
    105       4.1741      2.00000
    106       4.5081      2.00000
    107       4.5081      2.00000
    108       4.5081      2.00000
    109       4.5081      2.00000
    110       4.6047      2.00000
    111       4.6047      2.00000
    112       4.6170      2.00000
    113       4.6170      2.00000
    114       4.6680      2.00000
    115       4.6680      2.00000
    116       4.6680      2.00000
    117       4.6680      2.00000
    118       4.7084      2.00000
    119       4.7084      2.00000
    120       4.7234      2.00000
    121       4.7234      2.00000
    122       4.8046      2.00000
    123       4.8046      2.00000
    124       4.8980      2.00000
    125       4.8980      2.00000
    126       5.9214      2.05868
    127       5.9226      2.05917
    128       6.0729      1.92234
    129       6.4179     -0.05433
    130       6.4179     -0.05434
    131       6.4630     -0.07077
    132       6.5805     -0.02631
    133       6.5805     -0.02631
    134       6.7017     -0.00301
    135       6.8822     -0.00002
    136       6.8822     -0.00002
    137       7.0443     -0.00000
    138       7.0443     -0.00000
    139       7.0455     -0.00000
    140       7.0455     -0.00000
    141       7.3918     -0.00000
    142       7.3918     -0.00000
    143       7.5704     -0.00000
    144       7.5704     -0.00000
    145       8.2176     -0.00000
    146       8.2179     -0.00000
    147       8.2183     -0.00000
    148       8.2186     -0.00000
    149       8.3247     -0.00000
    150       8.3397     -0.00000
    151       8.3415     -0.00000
    152       8.4066     -0.00000
    153       8.4069     -0.00000
    154       8.4083     -0.00000
    155       8.4147     -0.00000
    156       8.4793     -0.00000
    157       8.4838     -0.00000
    158       8.4877     -0.00000
    159       8.6585     -0.00000
    160       9.0034     -0.00000
    161       9.0404     -0.00000
    162       9.0979     -0.00000

 k-point     2 :       0.5000    0.0000    0.0000
  band No.  band energies     occupation 
      1      -5.8573      2.00000
      2      -5.8573      2.00000
      3      -4.8225      2.00000
      4      -4.8225      2.00000
      5      -4.7930      2.00000
      6      -4.7930      2.00000
      7      -4.7930      2.00000
      8      -4.7930      2.00000
      9      -4.7617      2.00000
     10      -4.7617      2.00000
     11      -3.9684      2.00000
     12      -3.9684      2.00000
     13      -3.9684      2.00000
     14      -3.9684      2.00000
     15      -3.8852      2.00000
     16      -3.8852      2.00000
     17      -3.8852      2.00000
     18      -3.8852      2.00000
     19      -3.6470      2.00000
     20      -3.6470      2.00000
     21      -3.0152      2.00000
     22      -3.0152      2.00000
     23      -2.9293      2.00000
     24      -2.9293      2.00000
     25      -2.9293      2.00000
     26      -2.9293      2.00000
     27      -2.8410      2.00000
     28      -2.8410      2.00000
     29      -1.9553      2.00000
     30      -1.9553      2.00000
     31      -1.9239      2.00000
     32      -1.9239      2.00000
     33      -1.8068      2.00000
     34      -1.8068      2.00000
     35      -1.7787      2.00000
     36      -1.7787      2.00000
     37      -0.7283      2.00000
     38      -0.7283      2.00000
     39      -0.6619      2.00000
     40      -0.6619      2.00000
     41      -0.6619      2.00000
     42      -0.6619      2.00000
     43      -0.6010      2.00000
     44      -0.6010      2.00000
     45      -0.4937      2.00000
     46      -0.4937      2.00000
     47      -0.4937      2.00000
     48      -0.4937      2.00000
     49      -0.4781      2.00000
     50      -0.4781      2.00000
     51      -0.4781      2.00000
     52      -0.4781      2.00000
     53       0.2950      2.00000
     54       0.2950      2.00000
     55       1.5636      2.00000
     56       1.5636      2.00000
     57       1.5651      2.00000
     58       1.5651      2.00000
     59       1.5651      2.00000
     60       1.5651      2.00000
     61       1.5669      2.00000
     62       1.5669      2.00000
     63       1.6073      2.00000
     64       1.6073      2.00000
     65       1.6275      2.00000
     66       1.6275      2.00000
     67       1.6275      2.00000
     68       1.6275      2.00000
     69       1.6549      2.00000
     70       1.6549      2.00000
     71       2.4027      2.00000
     72       2.4027      2.00000
     73       2.4467      2.00000
     74       2.4467      2.00000
     75       2.4838      2.00000
     76       2.4838      2.00000
     77       2.5298      2.00000
     78       2.5298      2.00000
     79       3.1232      2.00000
     80       3.1232      2.00000
     81       3.1661      2.00000
     82       3.1661      2.00000
     83       3.1661      2.00000
     84       3.1661      2.00000
     85       3.1998      2.00000
     86       3.1998      2.00000
     87       3.2029      2.00000
     88       3.2029      2.00000
     89       3.2037      2.00000
     90       3.2037      2.00000
     91       3.3439      2.00000
     92       3.3439      2.00000
     93       3.3813      2.00000
     94       3.3813      2.00000
     95       3.3813      2.00000
     96       3.3813      2.00000
     97       3.4175      2.00000
     98       3.4175      2.00000
     99       3.4946      2.00000
    100       3.4946      2.00000
    101       3.4946      2.00000
    102       3.4946      2.00000
    103       3.5956      2.00000
    104       3.5956      2.00000
    105       3.5956      2.00000
    106       3.5956      2.00000
    107       4.5260      2.00000
    108       4.5260      2.00000
    109       4.5260      2.00000
    110       4.5260      2.00000
    111       4.5289      2.00000
    112       4.5289      2.00000
    113       4.5306      2.00000
    114       4.5306      2.00000
    115       4.5447      2.00000
    116       4.5447      2.00000
    117       4.5447      2.00000
    118       4.5447      2.00000
    119       4.6138      2.00000
    120       4.6138      2.00000
    121       4.6138      2.00000
    122       4.6138      2.00000
    123       4.7335      2.00000
    124       4.7335      2.00000
    125       5.0770      2.00000
    126       5.0770      2.00000
    127       5.0822      2.00000
    128       5.0822      2.00000
    129       6.3239      0.20633
    130       6.3239      0.20633
    131       7.3036     -0.00000
    132       7.3036     -0.00000
    133       7.7795     -0.00000
    134       7.7796     -0.00000
    135       7.8370     -0.00000
    136       7.8372     -0.00000
    137       7.9219     -0.00000
    138       7.9221     -0.00000
    139       7.9466     -0.00000
    140       7.9468     -0.00000
    141       8.0919     -0.00000
    142       8.0927     -0.00000
    143       8.1301     -0.00000
    144       8.1302     -0.00000
    145       8.1315     -0.00000
    146       8.1325     -0.00000
    147       8.2408     -0.00000
    148       8.2412     -0.00000
    149       8.2432     -0.00000
    150       8.2459     -0.00000
    151       8.3626     -0.00000
    152       8.3659     -0.00000
    153       8.4293     -0.00000
    154       8.4362     -0.00000
    155       8.4513     -0.00000
    156       8.4832     -0.00000
    157       8.5252     -0.00000
    158       8.5559     -0.00000
    159       8.6397     -0.00000
    160       8.7066     -0.00000
    161       8.7550     -0.00000
    162       8.8500     -0.00000

 k-point     3 :      -0.0000    0.5000    0.0000
  band No.  band energies     occupation 
[...]
  0.000   0.000   4.175   0.000   0.000   7.777   0.000   0.000
 -0.001  -0.002   0.000   4.175   0.000   0.000   7.777   0.000
  0.000   0.000   0.000   0.000   4.175   0.000   0.000   7.777
  0.000   0.000   7.777   0.000   0.000  14.499   0.000   0.000
 -0.002  -0.003   0.000   7.777   0.000   0.000  14.499   0.000
  0.000   0.000   0.000   0.000   7.777   0.000   0.000  14.499
 total augmentation occupancy for first ion, spin component:           1
  6.064  -2.355   0.000   0.054   0.000   0.000  -0.020   0.000
 -2.355   1.024   0.000  -0.027   0.000   0.000   0.010   0.000
  0.000   0.000   3.010   0.000   0.009  -0.679   0.000   0.000
  0.054  -0.027   0.000   3.011   0.000  -0.000  -0.679   0.000
  0.000   0.000   0.009   0.000   2.971   0.000   0.000  -0.664
  0.000   0.000  -0.679  -0.000   0.000   0.162   0.000  -0.000
 -0.020   0.010   0.000  -0.679   0.000   0.000   0.162   0.000
  0.000   0.000   0.000   0.000  -0.664  -0.000   0.000   0.158


------------------------ aborting loop because EDIFF is reached ----------------------------------------


    CHARGE:  cpu time      0.2395: real time      0.2402
    FORLOC:  cpu time      0.0216: real time      0.0217
    FORNL :  cpu time      0.6603: real time      0.6623
    STRESS:  cpu time      2.0428: real time      2.0480
    FORCOR:  cpu time      0.0903: real time      0.0905
    FORHAR:  cpu time      0.0358: real time      0.0359
    MIXING:  cpu time      0.0083: real time      0.0083
    OFIELD:  cpu time      0.0000: real time      0.0000

  FORCE on cell =-STRESS in cart. coord.  units (eV):
  Direction    XX          YY          ZZ          XY          YZ          ZX
  --------------------------------------------------------------------------------------
  Alpha Z   109.51362   109.51362   109.51362
  Ewald   -2497.66802 -2429.55064 -2429.36383    16.21337    -0.00000    -0.00000
  Hartree   146.19711   157.59496   157.36875     9.22798    -0.00000    -0.00000
  E(xc)    -820.63087  -821.22355  -821.23864    -0.12303    -0.00000    -0.00000
  Local    -866.62860  -949.23689  -949.08956   -27.37087    -0.00000    -0.00000
  n-local  2487.71906  2497.67371  2497.91380     1.13460     0.00000     0.00000
  augment  -368.65817  -368.67947  -368.67457    -0.75676     0.00000     0.00000
  Kinetic  1834.68869  1814.96053  1814.46717    13.69058     0.00001     0.00000
  Fock        0.00000     0.00000     0.00000     0.00000     0.00000     0.00000
  -------------------------------------------------------------------------------------
  Total      24.53283    11.05228    10.89675    12.01588     0.00000     0.00000
  in kB      31.21849    14.06423    13.86632    15.29044     0.00000     0.00000
  external pressure =       19.72 kB  Pullay stress =        0.00 kB


 VOLUME and BASIS-vectors are now :
 -----------------------------------------------------------------------------
  energy-cutoff  :      400.00
  volume of cell :     1259.06
      direct lattice vectors                 reciprocal lattice vectors
    10.654038573 -0.108715016  0.000000000     0.093870699  0.000938710  0.000000000
    -0.108715016 10.871467606  0.000000000     0.000938710  0.091993288  0.000000000
     0.000000000  0.000000000 10.871467606     0.000000000  0.000000000  0.091983901

  length of vectors
    10.654593229 10.872011169 10.871467606     0.093875393  0.091998077  0.091983901


 FORCES acting on ions
    electron-ion (+dipol)            ewald-force                    non-local-force                 convergence-correction
 -----------------------------------------------------------------------------------------------
   0.526E-09 0.172E-08 0.170E+01   0.269E-13 -.977E-14 -.121E+01   0.121E-20 0.517E-21 -.489E+00   -.382E-13 -.897E-13 -.150E-04
   0.525E-09 0.172E-08 0.170E+01   0.298E-13 -.169E-13 -.121E+01   -.103E-20 0.677E-21 -.489E+00   -.115E-13 0.459E-13 -.150E-04
   0.526E-09 0.172E-08 0.170E+01   0.200E-13 -.131E-13 -.121E+01   -.758E-21 0.199E-21 -.489E+00   0.767E-14 0.860E-13 -.150E-04
   0.526E-09 0.172E-08 0.170E+01   0.142E-13 -.169E-13 -.121E+01   0.405E-20 -.272E-21 -.489E+00   -.447E-13 -.397E-13 -.150E-04
   0.525E-09 0.172E-08 0.170E+01   0.209E-13 -.178E-13 -.121E+01   -.214E-20 -.212E-21 -.489E+00   0.193E-13 -.130E-12 -.150E-04
   0.525E-09 0.172E-08 0.170E+01   0.155E-13 -.178E-13 -.121E+01   0.300E-20 -.512E-21 -.489E+00   0.176E-13 0.687E-13 -.150E-04
   0.525E-09 0.172E-08 0.170E+01   0.373E-13 -.107E-13 -.121E+01   0.124E-20 0.118E-21 -.489E+00   -.199E-13 0.129E-12 -.150E-04
   0.525E-09 0.172E-08 0.170E+01   0.213E-13 -.355E-14 -.121E+01   -.104E-20 0.156E-21 -.489E+00   0.465E-13 -.591E-13 -.150E-04
   -.142E-09 -.475E-09 -.170E+01   0.622E-14 -.666E-14 0.121E+01   -.290E-20 0.330E-21 0.489E+00   -.937E-13 -.443E-13 0.150E-04
   -.142E-09 -.474E-09 -.170E+01   0.231E-13 -.107E-13 0.121E+01   0.102E-20 0.166E-21 0.489E+00   0.122E-12 0.591E-13 0.150E-04
   -.142E-09 -.473E-09 -.170E+01   0.198E-13 -.129E-13 0.121E+01   0.244E-20 0.228E-21 0.489E+00   -.178E-13 0.393E-13 0.150E-04
   -.142E-09 -.474E-09 -.170E+01   0.249E-13 -.533E-14 0.121E+01   -.646E-21 -.584E-21 0.489E+00   0.553E-13 -.523E-13 0.150E-04
   -.142E-09 -.475E-09 -.170E+01   0.326E-13 -.129E-13 0.121E+01   0.458E-21 -.208E-21 0.489E+00   0.860E-13 -.770E-14 0.150E-04
   -.142E-09 -.473E-09 -.170E+01   0.142E-13 -.124E-13 0.121E+01   -.129E-20 0.782E-22 0.489E+00   -.120E-12 0.243E-13 0.150E-04
   -.142E-09 -.473E-09 -.170E+01   0.320E-13 -.111E-13 0.121E+01   -.124E-20 0.312E-21 0.489E+00   0.132E-13 0.184E-13 0.150E-04
   -.142E-09 -.475E-09 -.170E+01   0.213E-13 -.888E-14 0.121E+01   -.672E-21 0.269E-21 0.489E+00   -.588E-13 -.283E-13 0.150E-04
   0.525E-09 0.172E-08 0.170E+01   0.220E-13 -.777E-14 -.121E+01   0.570E-20 -.671E-21 -.489E+00   0.267E-13 -.728E-13 -.150E-04
   0.525E-09 0.172E-08 0.170E+01   0.209E-13 -.799E-14 -.121E+01   -.810E-21 -.246E-21 -.489E+00   -.519E-13 0.238E-13 -.150E-04
   0.526E-09 0.172E-08 0.170E+01   0.178E-13 -.533E-14 -.121E+01   -.775E-21 -.185E-21 -.489E+00   -.370E-13 0.743E-13 -.150E-04
   0.525E-09 0.172E-08 0.170E+01   0.178E-13 -.533E-14 -.121E+01   0.235E-20 0.112E-21 -.489E+00   -.115E-13 -.195E-13 -.150E-04
   0.525E-09 0.172E-08 0.170E+01   0.211E-13 -.622E-14 -.121E+01   -.533E-21 -.326E-22 -.489E+00   -.418E-13 -.894E-13 -.150E-04
   0.526E-09 0.172E-08 0.170E+01   0.235E-13 -.622E-14 -.121E+01   0.469E-20 0.434E-21 -.489E+00   0.479E-13 0.493E-13 -.150E-04
   0.525E-09 0.172E-08 0.170E+01   0.187E-13 -.107E-13 -.121E+01   0.246E-20 -.173E-21 -.489E+00   0.255E-13 0.879E-13 -.150E-04
   0.525E-09 0.172E-08 0.170E+01   0.178E-13 -.107E-13 -.121E+01   -.266E-20 -.915E-21 -.489E+00   0.894E-14 -.475E-13 -.150E-04
   -.142E-09 -.474E-09 -.170E+01   0.220E-13 0.117E-14 0.121E+01   0.251E-20 -.163E-21 0.489E+00   0.367E-13 0.326E-13 0.150E-04
   -.142E-09 -.474E-09 -.170E+01   0.220E-13 0.139E-14 0.121E+01   -.231E-20 -.199E-21 0.489E+00   -.213E-13 -.102E-12 0.150E-04
   -.142E-09 -.474E-09 -.170E+01   0.142E-13 0.182E-14 0.121E+01   -.234E-20 -.120E-21 0.489E+00   0.324E-13 -.310E-13 0.150E-04
   -.142E-09 -.474E-09 -.170E+01   0.178E-13 -.597E-15 0.121E+01   0.246E-20 -.653E-21 0.489E+00   0.565E-14 0.100E-12 0.150E-04
   -.142E-09 -.474E-09 -.170E+01   0.158E-13 0.297E-14 0.121E+01   -.129E-20 -.174E-22 0.489E+00   -.263E-13 0.560E-14 0.150E-04
   -.142E-09 -.474E-09 -.170E+01   0.122E-13 -.103E-14 0.121E+01   0.223E-20 0.282E-22 0.489E+00   0.237E-14 -.932E-13 0.150E-04
   -.142E-09 -.474E-09 -.170E+01   0.711E-14 0.486E-15 0.121E+01   0.264E-20 0.662E-22 0.489E+00   -.381E-13 -.224E-14 0.150E-04
   -.142E-09 -.474E-09 -.170E+01   0.711E-14 -.573E-14 0.121E+01   -.417E-20 -.253E-21 0.489E+00   -.790E-14 0.850E-13 0.150E-04
   0.525E-09 0.172E-08 0.170E+01   -.133E-13 0.111E-14 -.121E+01   -.133E-20 -.632E-21 -.489E+00   -.232E-13 0.233E-13 -.150E-04
   0.525E-09 0.172E-08 0.170E+01   -.200E-13 -.355E-14 -.121E+01   0.290E-20 -.510E-21 -.489E+00   0.300E-13 -.595E-13 -.150E-04
   0.526E-09 0.172E-08 0.170E+01   -.138E-13 0.955E-14 -.121E+01   0.248E-20 -.422E-21 -.489E+00   -.389E-13 -.147E-13 -.150E-04
   0.525E-09 0.172E-08 0.170E+01   -.133E-13 0.133E-14 -.121E+01   -.101E-20 0.281E-22 -.489E+00   0.590E-13 0.675E-13 -.150E-04
   0.525E-09 0.172E-08 0.170E+01   -.211E-13 -.533E-14 -.121E+01   0.230E-20 -.111E-21 -.489E+00   0.273E-13 -.410E-13 -.150E-04
   0.525E-09 0.172E-08 0.170E+01   -.124E-13 0.178E-14 -.121E+01   -.962E-21 -.147E-21 -.489E+00   -.378E-13 -.221E-13 -.150E-04
   0.525E-09 0.172E-08 0.170E+01   -.226E-13 0.888E-15 -.121E+01   -.309E-20 -.334E-21 -.489E+00   0.424E-13 0.482E-13 -.150E-04
   0.525E-09 0.172E-08 0.170E+01   -.355E-14 -.711E-14 -.121E+01   0.436E-20 0.236E-21 -.489E+00   -.640E-13 0.265E-13 -.150E-04
   -.142E-09 -.474E-09 -.170E+01   -.182E-13 0.533E-14 0.121E+01   -.120E-20 -.340E-21 0.489E+00   0.227E-13 -.350E-13 0.150E-04
   -.142E-09 -.474E-09 -.170E+01   -.248E-13 0.888E-14 0.121E+01   0.473E-20 -.643E-21 0.489E+00   -.331E-13 0.378E-13 0.150E-04
   -.142E-09 -.474E-09 -.170E+01   -.115E-13 0.488E-14 0.121E+01   0.269E-20 0.389E-21 0.489E+00   -.420E-14 0.359E-13 0.150E-04
   -.142E-09 -.474E-09 -.170E+01   -.182E-13 0.488E-14 0.121E+01   -.795E-21 -.782E-23 0.489E+00   -.224E-13 -.343E-13 0.150E-04
   -.142E-09 -.473E-09 -.170E+01   -.184E-13 0.178E-14 0.121E+01   0.435E-20 0.137E-21 0.489E+00   -.325E-13 -.345E-13 0.150E-04
   -.142E-09 -.475E-09 -.170E+01   -.175E-13 0.888E-14 0.121E+01   -.601E-21 0.982E-22 0.489E+00   0.374E-13 0.572E-13 0.150E-04
   -.142E-09 -.474E-09 -.170E+01   -.175E-13 0.533E-14 0.121E+01   -.267E-20 -.661E-21 0.489E+00   -.317E-14 0.286E-13 0.150E-04
   -.142E-09 -.474E-09 -.170E+01   -.308E-13 0.533E-14 0.121E+01   0.140E-20 -.109E-21 0.489E+00   0.237E-13 -.521E-13 0.150E-04
   0.526E-09 0.172E-08 0.170E+01   -.355E-13 0.377E-14 -.121E+01   0.226E-20 0.825E-21 -.489E+00   -.839E-13 -.740E-13 -.150E-04
   0.525E-09 0.172E-08 0.170E+01   -.160E-13 0.444E-14 -.121E+01   -.765E-21 -.212E-22 -.489E+00   0.875E-13 0.404E-13 -.150E-04
   0.525E-09 0.172E-08 0.170E+01   -.213E-13 0.777E-14 -.121E+01   -.139E-20 0.365E-21 -.489E+00   -.437E-13 0.775E-13 -.150E-04
   0.526E-09 0.172E-08 0.170E+01   -.160E-13 0.155E-13 -.121E+01   0.226E-20 -.463E-21 -.489E+00   0.680E-13 -.333E-13 -.150E-04
   0.525E-09 0.172E-08 0.170E+01   -.291E-13 0.622E-14 -.121E+01   -.300E-20 -.505E-21 -.489E+00   0.901E-13 -.111E-12 -.150E-04
   0.525E-09 0.172E-08 0.170E+01   -.293E-13 0.622E-14 -.121E+01   0.399E-20 -.181E-21 -.489E+00   -.103E-12 0.637E-13 -.150E-04
   0.525E-09 0.172E-08 0.170E+01   -.218E-13 0.266E-14 -.121E+01   0.273E-20 0.578E-21 -.489E+00   0.474E-13 0.126E-12 -.150E-04
   0.525E-09 0.172E-08 0.170E+01   -.142E-13 0.107E-13 -.121E+01   -.283E-20 0.173E-21 -.489E+00   -.793E-13 -.709E-13 -.150E-04
   -.142E-09 -.474E-09 -.170E+01   -.144E-13 0.100E-13 0.121E+01   -.226E-20 0.204E-22 0.489E+00   -.336E-13 -.995E-13 0.150E-04
   -.142E-09 -.474E-09 -.170E+01   -.906E-14 0.164E-13 0.121E+01   0.247E-20 0.444E-21 0.489E+00   0.207E-13 0.281E-13 0.150E-04
   -.142E-09 -.474E-09 -.170E+01   -.286E-13 0.105E-13 0.121E+01   0.140E-20 0.475E-21 0.489E+00   -.623E-13 0.952E-13 0.150E-04
   -.142E-09 -.474E-09 -.170E+01   -.268E-13 0.135E-13 0.121E+01   -.568E-21 0.380E-22 0.489E+00   0.542E-13 -.282E-13 0.150E-04
   -.142E-09 -.474E-09 -.170E+01   -.634E-14 0.145E-13 0.121E+01   0.132E-20 -.352E-21 0.489E+00   0.342E-13 -.169E-12 0.150E-04
   -.142E-09 -.474E-09 -.170E+01   -.203E-13 0.145E-13 0.121E+01   -.596E-21 -.668E-21 0.489E+00   -.292E-13 0.897E-13 0.150E-04
   -.142E-09 -.473E-09 -.170E+01   -.349E-13 0.120E-13 0.121E+01   -.272E-20 -.153E-21 0.489E+00   0.624E-13 0.170E-12 0.150E-04
   -.142E-09 -.474E-09 -.170E+01   -.282E-13 0.111E-13 0.121E+01   0.113E-20 0.672E-21 0.489E+00   -.550E-13 -.930E-13 0.150E-04
 -----------------------------------------------------------------------------------------------
   0.123E-07 0.400E-07 -.228E-04   0.875E-14 -.431E-13 -.293E-13   0.288E-19 -.351E-20 -.161E-13   -.129E-12 0.635E-13 -.282E-10
 
 
 POSITION                                       TOTAL-FORCE (eV/Angst)
 -----------------------------------------------------------------------------------
     -0.00000      0.00000     10.86368        -0.000000      0.000000     -0.000155
     -0.00000      0.00000      5.42794        -0.000000     -0.000000     -0.000155
     -0.05436      5.43573     10.86368         0.000000     -0.000000     -0.000155
     -0.05436      5.43573      5.42794         0.000000     -0.000000     -0.000155
      5.32702     -0.05436     10.86368        -0.000000      0.000000     -0.000155
      5.32702     -0.05436      5.42794        -0.000000      0.000000     -0.000155
      5.27266      5.38138     10.86368         0.000000     -0.000000     -0.000155
      5.27266      5.38138      5.42794         0.000000     -0.000000     -0.000155
      3.95450      4.03603      1.36672        -0.000000      0.000000      0.000155
      3.95450      4.03603      6.80246        -0.000000      0.000000      0.000155
      3.90014      9.47177      1.36672         0.000000     -0.000000      0.000155
      3.90014      9.47177      6.80246         0.000000     -0.000000      0.000155
      9.28152      3.98167      1.36672        -0.000000      0.000000      0.000155
      9.28152      3.98167      6.80246        -0.000000      0.000000      0.000155
      9.22716      9.41741      1.36672        -0.000000     -0.000000      0.000155
      9.22716      9.41741      6.80246         0.000000     -0.000000      0.000155
     -0.02718      2.71787      2.71008        -0.000000     -0.000000     -0.000155
     -0.02718      2.71787      8.14581        -0.000000      0.000000     -0.000155
     -0.08154      8.15360      2.71008         0.000000     -0.000000     -0.000155
     -0.08154      8.15360      8.14581         0.000000      0.000000     -0.000155
      5.29984      2.66351      2.71008        -0.000000     -0.000000     -0.000155
      5.29984      2.66351      8.14581        -0.000000      0.000000     -0.000155
      5.24548      8.09924      2.71008        -0.000000      0.000000     -0.000155
      5.24548      8.09924      8.14581        -0.000000      0.000000     -0.000155
      3.98168      1.31817      4.08459        -0.000000     -0.000000      0.000155
      3.98168      1.31817      9.52032         0.000000     -0.000000      0.000155
      3.92732      6.75390      4.08459         0.000000      0.000000      0.000155
      3.92732      6.75390      9.52032         0.000000      0.000000      0.000155
      9.30869      1.26381      4.08459         0.000000     -0.000000      0.000155
      9.30869      1.26381      9.52032         0.000000     -0.000000      0.000155
      9.25434      6.69954      4.08459        -0.000000      0.000000      0.000155
      9.25434      6.69954      9.52032         0.000000      0.000000      0.000155
      2.66351     -0.02718      2.71008         0.000000      0.000000     -0.000155
      2.66351     -0.02718      8.14581        -0.000000     -0.000000     -0.000155
      2.60915      5.40856      2.71008         0.000000     -0.000000     -0.000155
      2.60915      5.40856      8.14581         0.000000     -0.000000     -0.000155
      7.99053     -0.08154      2.71008        -0.000000      0.000000     -0.000155
      7.99053     -0.08154      8.14581        -0.000000      0.000000     -0.000155
      7.93617      5.35420      2.71008         0.000000     -0.000000     -0.000155
      7.93617      5.35420      8.14581         0.000000     -0.000000     -0.000155
      1.29099      4.06321      4.08459         0.000000      0.000000      0.000155
      1.29099      4.06321      9.52032        -0.000000     -0.000000      0.000155
      1.23663      9.49894      4.08459        -0.000000     -0.000000      0.000155
      1.23663      9.49894      9.52032        -0.000000     -0.000000      0.000155
      6.61801      4.00885      4.08459        -0.000000      0.000000      0.000155
      6.61801      4.00885      9.52032        -0.000000      0.000000      0.000155
      6.56365      9.44459      4.08459         0.000000     -0.000000      0.000155
      6.56365      9.44459      9.52032         0.000000     -0.000000      0.000155
      2.63633      2.69069     10.86368        -0.000000      0.000000     -0.000155
      2.63633      2.69069      5.42794        -0.000000     -0.000000     -0.000155
      2.58197      8.12642     10.86368         0.000000      0.000000     -0.000155
      2.58197      8.12642      5.42794         0.000000      0.000000     -0.000155
      7.96335      2.63633     10.86368        -0.000000      0.000000     -0.000155
      7.96335      2.63633      5.42794        -0.000000      0.000000     -0.000155
      7.90899      8.07206     10.86368         0.000000      0.000000     -0.000155
      7.90899      8.07206      5.42794        -0.000000      0.000000     -0.000155
      1.31817      1.34534      1.36672         0.000000     -0.000000      0.000155
      1.31817      1.34534      6.80246         0.000000     -0.000000      0.000155
      1.26381      6.78108      1.36672        -0.000000      0.000000      0.000155
      1.26381      6.78108      6.80246         0.000000      0.000000      0.000155
      6.64518      1.29099      1.36672         0.000000     -0.000000      0.000155
      6.64518      1.29099      6.80246         0.000000     -0.000000      0.000155
      6.59083      6.72672      1.36672        -0.000000      0.000000      0.000155
      6.59083      6.72672      6.80246         0.000000      0.000000      0.000155
 -----------------------------------------------------------------------------------
    total drift:                                0.000000      0.000000     -0.000023


--------------------------------------------------------------------------------------------------------



  FREE ENERGIE OF THE ION-ELECTRON SYSTEM (eV)
  ---------------------------------------------------
  free  energy   TOTEN  =      -367.25474792 eV

  energy  without entropy=     -367.27467915  energy(sigma->0) =     -367.26139167
 
 d Force = 0.5851861E-02[-0.257E-04, 0.117E-01]  d Energy = 0.5892958E-02-0.411E-04
 d Force =-0.1903727E+00[-0.201E+00,-0.179E+00]  d Ewald  =-0.1903629E+00-0.973E-05


--------------------------------------------------------------------------------------------------------


    POTLOK:  cpu time      0.1423: real time      0.1430


--------------------------------------------------------------------------------------------------------




--------------------------------------------------------------------------------------------------------


  
 reached required accuracy - stopping structural energy minimisation
     LOOP+:  cpu time     13.0569: real time     13.1915
    4ORBIT:  cpu time      0.0000: real time      0.0000

 total amount of memory used by VASP MPI-rank0    81453. kBytes
=======================================================================

   base      :      30000. kBytes
   nonlr-proj:       4710. kBytes
   fftplans  :      19043. kBytes
   grid      :       7278. kBytes
   one-center:         18. kBytes
   wavefun   :      20404. kBytes
 
  
  
 General timing and accounting informations for this job:
 ========================================================
  
                  Total CPU time used (sec):       59.487
                            User time (sec):       56.189
                          System time (sec):        3.298
                         Elapsed time (sec):       62.959
  
                   Maximum memory used (kb):      404472.
                   Average memory used (kb):          N/A
  
                          Minor page faults:        91265
                          Major page faults:            0
                 Voluntary context switches:         9064
