Si64                                    
           1
    10.654039   -0.108715    0.000000
    -0.108715   10.871468    0.000000
     0.000000    0.000000   10.871468
   Si
    64
Direct configuration=     1
   0.00000000  0.00000000  0.00000000
   0.00000000  0.00000000  0.50000000
   0.00000000  0.50000000  0.00000000
   0.00000000  0.50000000  0.50000000
   0.50000000  0.00000000  0.00000000
   0.50000000  0.00000000  0.50000000
   0.50000000  0.50000000  0.00000000
   0.50000000  0.50000000  0.50000000
   0.37500000  0.37500000  0.12500000
   0.37500000  0.37500000  0.62500000
   0.37500000  0.87500000  0.12500000
   0.37500000  0.87500000  0.62500000
   0.87500000  0.37500000  0.12500000
   0.87500000  0.37500000  0.62500000
   0.87500000  0.87500000  0.12500000
   0.87500000  0.87500000  0.62500000
   0.00000000  0.25000000  0.25000000
   0.00000000  0.25000000  0.75000000
   0.00000000  0.75000000  0.25000000
   0.00000000  0.75000000  0.75000000
   0.50000000  0.25000000  0.25000000
   0.50000000  0.25000000  0.75000000
   0.50000000  0.75000000  0.25000000
   0.50000000  0.75000000  0.75000000
   0.37500000  0.12500000  0.37500000
   0.37500000  0.12500000  0.87500000
   0.37500000  0.62500000  0.37500000
   0.37500000  0.62500000  0.87500000
   0.87500000  0.12500000  0.37500000
   0.87500000  0.12500000  0.87500000
   0.87500000  0.62500000  0.37500000
   0.87500000  0.62500000  0.87500000
   0.25000000  0.00000000  0.25000000
   0.25000000  0.00000000  0.75000000
   0.25000000  0.50000000  0.25000000
   0.25000000  0.50000000  0.75000000
   0.75000000  0.00000000  0.25000000
   0.75000000  0.00000000  0.75000000
   0.75000000  0.50000000  0.25000000
   0.75000000  0.50000000  0.75000000
   0.12500000  0.37500000  0.37500000
   0.12500000  0.37500000  0.87500000
   0.12500000  0.87500000  0.37500000
   0.12500000  0.87500000  0.87500000
   0.62500000  0.37500000  0.37500000
   0.62500000  0.37500000  0.87500000
   0.62500000  0.87500000  0.37500000
   0.62500000  0.87500000  0.87500000
   0.25000000  0.25000000  0.00000000
   0.25000000  0.25000000  0.50000000
   0.25000000  0.75000000  0.00000000
   0.25000000  0.75000000  0.50000000
   0.75000000  0.25000000  0.00000000
   0.75000000  0.25000000  0.50000000
   0.75000000  0.75000000  0.00000000
   0.75000000  0.75000000  0.50000000
   0.12500000  0.12500000  0.12500000
   0.12500000  0.12500000  0.62500000
   0.12500000  0.62500000  0.12500000
   0.12500000  0.62500000  0.62500000
   0.62500000  0.12500000  0.12500000
   0.62500000  0.12500000  0.62500000
   0.62500000  0.62500000  0.12500000
   0.62500000  0.62500000  0.62500000
Direct configuration=     2
   1.00000000  0.00000000  0.99904481
   1.00000000  0.00000000  0.49904481
   0.00000000  0.50000000  0.99904481
   0.00000000  0.50000000  0.49904481
   0.50000000  0.00000000  0.99904481
   0.50000000  1.00000000  0.49904481
   0.50000000  0.50000000  0.99904481
   0.50000000  0.50000000  0.49904481
   0.37500000  0.37500000  0.12595519
   0.37500000  0.37500000  0.62595519
   0.37500000  0.87500000  0.12595519
   0.37500000  0.87500000  0.62595519
   0.87500000  0.37500000  0.12595519
   0.87500000  0.37500000  0.62595519
   0.87500000  0.87500000  0.12595519
   0.87500000  0.87500000  0.62595519
   1.00000000  0.25000000  0.24904481
   1.00000000  0.25000000  0.74904481
   1.00000000  0.75000000  0.24904481
   0.00000000  0.75000000  0.74904481
   0.50000000  0.25000000  0.24904481
   0.50000000  0.25000000  0.74904481
   0.50000000  0.75000000  0.24904481
   0.50000000  0.75000000  0.74904481
   0.37500000  0.12500000  0.37595519
   0.37500000  0.12500000  0.87595519
   0.37500000  0.62500000  0.37595519
   0.37500000  0.62500000  0.87595519
   0.87500000  0.12500000  0.37595519
   0.87500000  0.12500000  0.87595519
   0.87500000  0.62500000  0.37595519
   0.87500000  0.62500000  0.87595519
   0.25000000  0.00000000  0.24904481
   0.25000000  0.00000000  0.74904481
   0.25000000  0.50000000  0.24904481
   0.25000000  0.50000000  0.74904481
   0.75000000  0.00000000  0.24904481
   0.75000000  1.00000000  0.74904481
   0.75000000  0.50000000  0.24904481
   0.75000000  0.50000000  0.74904481
   0.12500000  0.37500000  0.37595519
   0.12500000  0.37500000  0.87595519
   0.12500000  0.87500000  0.37595519
   0.12500000  0.87500000  0.87595519
   0.62500000  0.37500000  0.37595519
   0.62500000  0.37500000  0.87595519
   0.62500000  0.87500000  0.37595519
   0.62500000  0.87500000  0.87595519
   0.25000000  0.25000000  0.99904481
   0.25000000  0.25000000  0.49904481
   0.25000000  0.75000000  0.99904481
   0.25000000  0.75000000  0.49904481
   0.75000000  0.25000000  0.99904481
   0.75000000  0.25000000  0.49904481
   0.75000000  0.75000000  0.99904481
   0.75000000  0.75000000  0.49904481
   0.12500000  0.12500000  0.12595519
   0.12500000  0.12500000  0.62595519
   0.12500000  0.62500000  0.12595519
   0.12500000  0.62500000  0.62595519
   0.62500000  0.12500000  0.12595519
   0.62500000  0.12500000  0.62595519
   0.62500000  0.62500000  0.12595519
   0.62500000  0.62500000  0.62595519
Direct configuration=     3
   0.00000000  0.00000000  0.99928350
   0.00000000  0.00000000  0.49928350
   0.00000000  0.50000000  0.99928350
   0.00000000  0.50000000  0.49928350
   0.50000000  0.00000000  0.99928350
   0.50000000  0.00000000  0.49928350
   0.50000000  0.50000000  0.99928350
   0.50000000  0.50000000  0.49928350
   0.37500000  0.37500000  0.12571650
   0.37500000  0.37500000  0.62571650
   0.37500000  0.87500000  0.12571650
   0.37500000  0.87500000  0.62571650
   0.87500000  0.37500000  0.12571650
   0.87500000  0.37500000  0.62571650
   0.87500000  0.87500000  0.12571650
   0.87500000  0.87500000  0.62571650
   0.00000000  0.25000000  0.24928350
   0.00000000  0.25000000  0.74928350
   0.00000000  0.75000000  0.24928350
   0.00000000  0.75000000  0.74928350
   0.50000000  0.25000000  0.24928350
   0.50000000  0.25000000  0.74928350
   0.50000000  0.75000000  0.24928350
   0.50000000  0.75000000  0.74928350
   0.37500000  0.12500000  0.37571650
   0.37500000  0.12500000  0.87571650
   0.37500000  0.62500000  0.37571650
   0.37500000  0.62500000  0.87571650
   0.87500000  0.12500000  0.37571650
   0.87500000  0.12500000  0.87571650
   0.87500000  0.62500000  0.37571650
   0.87500000  0.62500000  0.87571650
   0.25000000  0.00000000  0.24928350
   0.25000000  0.00000000  0.74928350
   0.25000000  0.50000000  0.24928350
   0.25000000  0.50000000  0.74928350
   0.75000000  0.00000000  0.24928350
   0.75000000  0.00000000  0.74928350
   0.75000000  0.50000000  0.24928350
   0.75000000  0.50000000  0.74928350
   0.12500000  0.37500000  0.37571650
   0.12500000  0.37500000  0.87571650
   0.12500000  0.87500000  0.37571650
   0.12500000  0.87500000  0.87571650
   0.62500000  0.37500000  0.37571650
   0.62500000  0.37500000  0.87571650
   0.62500000  0.87500000  0.37571650
   0.62500000  0.87500000  0.87571650
   0.25000000  0.25000000  0.99928350
   0.25000000  0.25000000  0.49928350
   0.25000000  0.75000000  0.99928350
   0.25000000  0.75000000  0.49928350
   0.75000000  0.25000000  0.99928350
   0.75000000  0.25000000  0.49928350
   0.75000000  0.75000000  0.99928350
   0.75000000  0.75000000  0.49928350
   0.12500000  0.12500000  0.12571650
   0.12500000  0.12500000  0.62571650
   0.12500000  0.62500000  0.12571650
   0.12500000  0.62500000  0.62571650
   0.62500000  0.12500000  0.12571650
   0.62500000  0.12500000  0.62571650
   0.62500000  0.62500000  0.12571650
   0.62500000  0.62500000  0.62571650
