  64  64   0   0
  0.1879341E+02  0.1056399E-08  0.1067069E-08  0.1067056E-08  0.5000000E-15
  1.000000000000000E-004
  CAR 
 Si64                                    
     11.93621165     -7.98771495  301      6.67168457      1.00000000
     -7.988  0.0000E+00  0.0000E+00
     -7.921  0.0000E+00  0.0000E+00
     -7.855  0.0000E+00  0.0000E+00
     -7.788  0.0000E+00  0.0000E+00
     -7.722  0.0000E+00  0.0000E+00
     -7.656  0.0000E+00  0.0000E+00
     -7.589 -0.2012E-28 -0.1336E-29
     -7.523 -0.3504E-26 -0.2340E-27
     -7.456 -0.4905E-24 -0.3281E-25
     -7.390 -0.5495E-22 -0.3682E-23
     -7.324 -0.4924E-20 -0.3307E-21
     -7.257 -0.3529E-18 -0.2376E-19
     -7.191 -0.2021E-16 -0.1366E-17
     -7.124 -0.8969E-15 -0.6093E-16
     -7.058 -0.3262E-13 -0.2227E-14
     -6.992 -0.9464E-12 -0.6508E-13
     -6.925 -0.2186E-10 -0.1517E-11
     -6.859 -0.4014E-09 -0.2817E-10
     -6.792 -0.5847E-08 -0.4165E-09
     -6.726 -0.6739E-07 -0.4892E-08
     -6.659 -0.6123E-06 -0.4556E-07
     -6.593 -0.4360E-05 -0.3351E-06
     -6.527 -0.2413E-04 -0.1938E-05
     -6.460 -0.1024E-03 -0.8735E-05
     -6.394 -0.3244E-03 -0.3028E-04
     -6.327 -0.7276E-03 -0.7860E-04
     -6.261 -0.9795E-03 -0.1437E-03
     -6.195 -0.9170E-04 -0.1497E-03
     -6.128  0.2907E-02  0.4332E-04
     -6.062  0.7251E-02  0.5249E-03
     -5.995  0.1065E-01  0.1232E-02
     -5.929  0.1408E-01  0.2167E-02
     -5.862  0.2517E-01  0.3839E-02
     -5.796  0.4971E-01  0.7140E-02
     -5.730  0.7851E-01  0.1235E-01
     -5.663  0.9470E-01  0.1864E-01
     -5.597  0.1007E+00  0.2533E-01
     -5.530  0.1211E+00  0.3337E-01
     -5.464  0.1636E+00  0.4424E-01
     -5.398  0.1966E+00  0.5729E-01
     -5.331  0.1889E+00  0.6984E-01
     -5.265  0.1554E+00  0.8016E-01
     -5.198  0.1335E+00  0.8902E-01
     -5.132  0.1282E+00  0.9754E-01
     -5.066  0.1158E+00  0.1052E+00
     -4.999  0.8985E-01  0.1112E+00
     -4.933  0.7003E-01  0.1158E+00
     -4.866  0.6961E-01  0.1205E+00
     -4.800  0.8889E-01  0.1264E+00
     -4.733  0.1405E+00  0.1357E+00
     -4.667  0.2383E+00  0.1515E+00
     -4.601  0.3521E+00  0.1749E+00
     -4.534  0.4211E+00  0.2029E+00
     -4.468  0.4329E+00  0.2316E+00
     -4.401  0.4328E+00  0.2604E+00
     -4.335  0.4335E+00  0.2892E+00
     -4.269  0.3843E+00  0.3147E+00
     -4.202  0.2573E+00  0.3318E+00
     -4.136  0.1039E+00  0.3387E+00
     -4.069 -0.1406E-02  0.3386E+00
     -4.003 -0.2583E-01  0.3369E+00
     -3.937  0.2574E-01  0.3386E+00
     -3.870  0.1385E+00  0.3478E+00
     -3.804  0.2883E+00  0.3669E+00
     -3.737  0.4301E+00  0.3955E+00
     -3.671  0.5061E+00  0.4291E+00
     -3.604  0.4816E+00  0.4611E+00
     -3.538  0.3786E+00  0.4862E+00
     -3.472  0.2662E+00  0.5039E+00
     -3.405  0.2149E+00  0.5182E+00
     -3.339  0.2607E+00  0.5355E+00
     -3.272  0.3898E+00  0.5614E+00
     -3.206  0.5400E+00  0.5972E+00
     -3.140  0.6384E+00  0.6396E+00
     -3.073  0.6556E+00  0.6832E+00
     -3.007  0.6154E+00  0.7240E+00
     -2.940  0.5524E+00  0.7607E+00
     -2.874  0.4821E+00  0.7928E+00
     -2.807  0.4227E+00  0.8208E+00
     -2.741  0.4033E+00  0.8476E+00
     -2.675  0.4151E+00  0.8752E+00
     -2.608  0.3931E+00  0.9013E+00
     -2.542  0.2913E+00  0.9206E+00
     -2.475  0.1460E+00  0.9303E+00
     -2.409  0.3050E-01  0.9324E+00
     -2.343 -0.2319E-01  0.9308E+00
     -2.276 -0.3069E-01  0.9288E+00
     -2.210 -0.1042E-01  0.9281E+00
     -2.143  0.3838E-01  0.9306E+00
     -2.077  0.1132E+00  0.9382E+00
     -2.011  0.1813E+00  0.9502E+00
     -1.944  0.1947E+00  0.9631E+00
     -1.878  0.1393E+00  0.9724E+00
     -1.811  0.5783E-01  0.9762E+00
     -1.745  0.2029E-01  0.9776E+00
     -1.678  0.7885E-01  0.9828E+00
     -1.612  0.2380E+00  0.9986E+00
     -1.546  0.4402E+00  0.1028E+01
     -1.479  0.5831E+00  0.1067E+01
     -1.413  0.5829E+00  0.1105E+01
     -1.346  0.4400E+00  0.1134E+01
     -1.280  0.2382E+00  0.1150E+01
     -1.214  0.8036E-01  0.1156E+01
     -1.147  0.2582E-01  0.1157E+01
     -1.081  0.7038E-01  0.1162E+01
     -1.014  0.1589E+00  0.1173E+01
     -0.948  0.2190E+00  0.1187E+01
     -0.882  0.2137E+00  0.1201E+01
     -0.815  0.1785E+00  0.1213E+01
     -0.749  0.1906E+00  0.1226E+01
     -0.682  0.2760E+00  0.1244E+01
     -0.616  0.3600E+00  0.1268E+01
     -0.549  0.3462E+00  0.1291E+01
     -0.483  0.2515E+00  0.1308E+01
     -0.417  0.2217E+00  0.1323E+01
     -0.350  0.3863E+00  0.1348E+01
     -0.284  0.7082E+00  0.1395E+01
     -0.217  0.9921E+00  0.1461E+01
     -0.151  0.1042E+01  0.1530E+01
     -0.085  0.8202E+00  0.1585E+01
     -0.018  0.4611E+00  0.1615E+01
      0.048  0.1469E+00  0.1625E+01
      0.115 -0.1723E-01  0.1624E+01
      0.181 -0.2157E-01  0.1623E+01
      0.248  0.9546E-01  0.1629E+01
      0.314  0.2655E+00  0.1647E+01
      0.380  0.3915E+00  0.1673E+01
      0.447  0.3986E+00  0.1699E+01
      0.513  0.2994E+00  0.1719E+01
      0.580  0.1763E+00  0.1731E+01
      0.646  0.1049E+00  0.1738E+01
      0.712  0.1169E+00  0.1745E+01
      0.779  0.2128E+00  0.1759E+01
      0.845  0.3611E+00  0.1783E+01
      0.912  0.4900E+00  0.1816E+01
      0.978  0.5171E+00  0.1850E+01
      1.044  0.4147E+00  0.1878E+01
      1.111  0.2395E+00  0.1894E+01
      1.177  0.8332E-01  0.1899E+01
      1.244 -0.1676E-02  0.1899E+01
      1.310 -0.2487E-01  0.1898E+01
      1.377 -0.2273E-01  0.1896E+01
      1.443 -0.2192E-01  0.1895E+01
      1.509 -0.2669E-01  0.1893E+01
      1.576 -0.1771E-01  0.1892E+01
      1.642  0.4255E-01  0.1894E+01
      1.709  0.1814E+00  0.1907E+01
      1.775  0.3713E+00  0.1931E+01
      1.841  0.5270E+00  0.1966E+01
      1.908  0.5796E+00  0.2005E+01
      1.974  0.5475E+00  0.2041E+01
      2.041  0.5024E+00  0.2074E+01
      2.107  0.4791E+00  0.2106E+01
      2.173  0.4657E+00  0.2137E+01
      2.240  0.4556E+00  0.2167E+01
      2.306  0.4490E+00  0.2197E+01
      2.373  0.4185E+00  0.2225E+01
      2.439  0.3431E+00  0.2248E+01
      2.506  0.2818E+00  0.2267E+01
      2.572  0.3630E+00  0.2291E+01
      2.638  0.6614E+00  0.2335E+01
      2.705  0.1081E+01  0.2406E+01
      2.771  0.1385E+01  0.2498E+01
      2.838  0.1370E+01  0.2589E+01
      2.904  0.1035E+01  0.2658E+01
      2.970  0.5734E+00  0.2696E+01
      3.037  0.1969E+00  0.2709E+01
      3.103 -0.1015E-01  0.2709E+01
      3.170 -0.8042E-01  0.2703E+01
      3.236 -0.5847E-01  0.2699E+01
      3.303  0.6391E-01  0.2704E+01
      3.369  0.3128E+00  0.2724E+01
      3.435  0.6502E+00  0.2768E+01
      3.502  0.9579E+00  0.2831E+01
      3.568  0.1131E+01  0.2906E+01
      3.635  0.1164E+01  0.2984E+01
      3.701  0.1116E+01  0.3058E+01
      3.767  0.1023E+01  0.3126E+01
      3.834  0.8864E+00  0.3185E+01
      3.900  0.7385E+00  0.3234E+01
      3.967  0.6573E+00  0.3277E+01
      4.033  0.6875E+00  0.3323E+01
      4.099  0.7557E+00  0.3373E+01
      4.166  0.7248E+00  0.3421E+01
      4.232  0.5532E+00  0.3458E+01
      4.299  0.3551E+00  0.3482E+01
      4.365  0.2773E+00  0.3500E+01
      4.432  0.3512E+00  0.3523E+01
      4.498  0.4889E+00  0.3556E+01
      4.564  0.5935E+00  0.3595E+01
      4.631  0.6373E+00  0.3637E+01
      4.697  0.6429E+00  0.3680E+01
      4.764  0.6358E+00  0.3722E+01
      4.830  0.6376E+00  0.3765E+01
      4.896  0.6716E+00  0.3809E+01
      4.963  0.7425E+00  0.3859E+01
      5.029  0.8190E+00  0.3913E+01
      5.096  0.8434E+00  0.3969E+01
      5.162  0.7620E+00  0.4020E+01
      5.228  0.5672E+00  0.4057E+01
      5.295  0.3231E+00  0.4079E+01
      5.361  0.1353E+00  0.4088E+01
      5.428  0.8253E-01  0.4093E+01
      5.494  0.1661E+00  0.4104E+01
      5.561  0.3085E+00  0.4125E+01
      5.627  0.4023E+00  0.4152E+01
      5.693  0.3824E+00  0.4177E+01
      5.760  0.2665E+00  0.4195E+01
      5.826  0.1271E+00  0.4203E+01
      5.893  0.3126E-01  0.4205E+01
      5.959  0.8430E-02  0.4206E+01
      6.025  0.5182E-01  0.4209E+01
      6.092  0.1267E+00  0.4218E+01
      6.158  0.1830E+00  0.4230E+01
      6.225  0.1852E+00  0.4242E+01
      6.291  0.1404E+00  0.4251E+01
      6.358  0.8596E-01  0.4257E+01
      6.424  0.5019E-01  0.4260E+01
      6.490  0.3272E-01  0.4263E+01
      6.557  0.2185E-01  0.4264E+01
      6.623  0.1797E-01  0.4265E+01
      6.690  0.3522E-01  0.4268E+01
      6.756  0.8206E-01  0.4273E+01
      6.822  0.1419E+00  0.4282E+01
      6.889  0.1782E+00  0.4294E+01
      6.955  0.1647E+00  0.4305E+01
      7.022  0.1091E+00  0.4312E+01
      7.088  0.4440E-01  0.4315E+01
      7.154  0.4186E-02  0.4316E+01
      7.221  0.1095E-01  0.4316E+01
      7.287  0.7149E-01  0.4321E+01
      7.354  0.1647E+00  0.4332E+01
      7.420  0.2396E+00  0.4348E+01
      7.487  0.2531E+00  0.4365E+01
      7.553  0.2228E+00  0.4380E+01
      7.619  0.2221E+00  0.4394E+01
      7.686  0.2994E+00  0.4414E+01
      7.752  0.4090E+00  0.4441E+01
      7.819  0.4467E+00  0.4471E+01
      7.885  0.3607E+00  0.4495E+01
      7.951  0.2092E+00  0.4509E+01
      8.018  0.1128E+00  0.4516E+01
      8.084  0.1614E+00  0.4527E+01
      8.151  0.3546E+00  0.4551E+01
      8.217  0.5974E+00  0.4590E+01
      8.283  0.7532E+00  0.4640E+01
      8.350  0.7340E+00  0.4689E+01
      8.416  0.5703E+00  0.4727E+01
      8.483  0.3940E+00  0.4753E+01
      8.549  0.3379E+00  0.4776E+01
      8.616  0.4424E+00  0.4805E+01
      8.682  0.6605E+00  0.4849E+01
      8.748  0.9251E+00  0.4910E+01
      8.815  0.1168E+01  0.4988E+01
      8.881  0.1291E+01  0.5074E+01
      8.948  0.1208E+01  0.5154E+01
      9.014  0.9309E+00  0.5216E+01
      9.080  0.5933E+00  0.5255E+01
      9.147  0.3360E+00  0.5277E+01
      9.213  0.2116E+00  0.5291E+01
      9.280  0.1977E+00  0.5304E+01
      9.346  0.2509E+00  0.5321E+01
      9.413  0.3156E+00  0.5342E+01
      9.479  0.3271E+00  0.5364E+01
      9.545  0.2574E+00  0.5381E+01
      9.612  0.1432E+00  0.5390E+01
      9.678  0.4658E-01  0.5394E+01
      9.745  0.4334E-03  0.5394E+01
      9.811 -0.2111E-02  0.5393E+01
      9.877  0.1479E-01  0.5394E+01
      9.944  0.2929E-01  0.5396E+01
     10.010  0.3048E-01  0.5398E+01
     10.077  0.2029E-01  0.5400E+01
     10.143  0.7930E-02  0.5400E+01
     10.209  0.3620E-03  0.5400E+01
     10.276 -0.1814E-02  0.5400E+01
     10.342 -0.1392E-02  0.5400E+01
     10.409 -0.6182E-03  0.5400E+01
     10.475 -0.1932E-03  0.5400E+01
     10.542 -0.4508E-04  0.5400E+01
     10.608 -0.8064E-05  0.5400E+01
     10.674 -0.1121E-05  0.5400E+01
     10.741 -0.1223E-06  0.5400E+01
     10.807 -0.1051E-07  0.5400E+01
     10.874 -0.7149E-09  0.5400E+01
     10.940 -0.3859E-10  0.5400E+01
     11.006 -0.1656E-11  0.5400E+01
     11.073 -0.5661E-13  0.5400E+01
     11.139 -0.1546E-14  0.5400E+01
     11.206 -0.2786E-16  0.5400E+01
     11.272  0.0000E+00  0.5400E+01
     11.338  0.0000E+00  0.5400E+01
     11.405  0.0000E+00  0.5400E+01
     11.471  0.0000E+00  0.5400E+01
     11.538  0.0000E+00  0.5400E+01
     11.604  0.0000E+00  0.5400E+01
     11.671  0.0000E+00  0.5400E+01
     11.737  0.0000E+00  0.5400E+01
     11.803  0.0000E+00  0.5400E+01
     11.870  0.0000E+00  0.5400E+01
     11.936  0.0000E+00  0.5400E+01
