       N       E                     dE             d eps       ncg     rms          rms(c)
DAV:   1     0.572656565745E+03    0.57266E+03   -0.84909E+04  2592   0.107E+03
DAV:   2    -0.308632246828E+03   -0.88129E+03   -0.83579E+03  3088   0.175E+02
DAV:   3    -0.372628163634E+03   -0.63996E+02   -0.62719E+02  3144   0.414E+01
DAV:   4    -0.374302706747E+03   -0.16745E+01   -0.16623E+01  3120   0.808E+00
DAV:   5    -0.374354785998E+03   -0.52079E-01   -0.51979E-01  3060   0.133E+00    0.305E+01
RMM:   6    -0.368368793826E+03    0.59860E+01   -0.31356E+00  2592   0.278E+00    0.184E+01
RMM:   7    -0.365763478201E+03    0.26053E+01   -0.79356E+00  2657   0.441E+00    0.116E+00
RMM:   8    -0.365796942122E+03   -0.33464E-01   -0.71930E-01  2611   0.167E+00    0.534E-01
RMM:   9    -0.365819838169E+03   -0.22896E-01   -0.21894E-01  2667   0.817E-01    0.606E-01
RMM:  10    -0.365824096911E+03   -0.42587E-02   -0.39164E-02  2739   0.386E-01    0.802E-01
RMM:  11    -0.365819860983E+03    0.42359E-02   -0.13319E-02  2592   0.232E-01    0.670E-01
RMM:  12    -0.365820014831E+03   -0.15385E-03   -0.18840E-03  2612   0.103E-01    0.671E-01
RMM:  13    -0.365820086806E+03   -0.71976E-04   -0.36766E-04  2743   0.422E-02    0.748E-01
RMM:  14    -0.365820051194E+03    0.35612E-04   -0.10547E-04  2602   0.253E-02    0.333E-01
RMM:  15    -0.365820161048E+03   -0.10985E-03   -0.47176E-05  2631   0.144E-02    0.320E-01
RMM:  16    -0.365820238906E+03   -0.77858E-04   -0.35503E-05  2592   0.134E-02    0.252E-01
RMM:  17    -0.365820252553E+03   -0.13647E-04   -0.10264E-05  2592   0.821E-03    0.908E-02
RMM:  18    -0.365820261956E+03   -0.94033E-05   -0.53696E-06  2373   0.550E-03    0.260E-02
RMM:  19    -0.365820264207E+03   -0.22507E-05   -0.19268E-06  1571   0.324E-03    0.555E-03
RMM:  20    -0.365820264484E+03   -0.27660E-06   -0.40729E-07  1558   0.134E-03
   1 F= -.36582026E+03 E0= -.36583091E+03  d E =-.365820E+03
       N       E                     dE             d eps       ncg     rms          rms(c)
DAV:   1    -0.365830696127E+03   -0.10432E-01   -0.70121E-01  2960   0.161E+00    0.386E-01
RMM:   2    -0.365834069337E+03   -0.33732E-02   -0.34955E-02  2592   0.399E-01    0.157E-01
RMM:   3    -0.365834485515E+03   -0.41618E-03   -0.54235E-03  2638   0.176E-01    0.649E-02
RMM:   4    -0.365834470154E+03    0.15361E-04   -0.73083E-04  2635   0.730E-02    0.239E-02
RMM:   5    -0.365834476508E+03   -0.63540E-05   -0.13777E-04  2689   0.290E-02    0.534E-03
RMM:   6    -0.365834479492E+03   -0.29840E-05   -0.29649E-05  2702   0.124E-02    0.120E-03
RMM:   7    -0.365834479897E+03   -0.40539E-06   -0.44135E-06  1906   0.467E-03    0.835E-04
RMM:   8    -0.365834479943E+03   -0.46307E-07   -0.79218E-07  1537   0.196E-03
   2 F= -.36583448E+03 E0= -.36584321E+03  d E =-.142155E-01
       N       E                     dE             d eps       ncg     rms          rms(c)
DAV:   1    -0.365837841038E+03   -0.33611E-02   -0.68864E-02  2936   0.504E-01    0.121E-01
RMM:   2    -0.365838166605E+03   -0.32557E-03   -0.33608E-03  2592   0.124E-01    0.492E-02
RMM:   3    -0.365838205336E+03   -0.38731E-04   -0.50829E-04  2640   0.546E-02    0.200E-02
RMM:   4    -0.365838204023E+03    0.13127E-05   -0.68008E-05  2624   0.226E-02    0.737E-03
RMM:   5    -0.365838204641E+03   -0.61785E-06   -0.13175E-05  2527   0.900E-03    0.167E-03
RMM:   6    -0.365838204863E+03   -0.22143E-06   -0.26531E-06  1766   0.385E-03    0.421E-04
RMM:   7    -0.365838204920E+03   -0.57034E-07   -0.48662E-07  1495   0.158E-03    0.224E-04
RMM:   8    -0.365838204939E+03   -0.19127E-07   -0.11900E-07  1045   0.798E-04
   3 F= -.36583820E+03 E0= -.36584773E+03  d E =-.179405E-01
