<?xml version="1.0" encoding="ISO-8859-1"?>
<modeling>
 <generator>
  <i name="program" type="string">vasp </i>
  <i name="version" type="string">6.4.3  </i>
  <i name="subversion" type="string">19Mar24 (build Oct 21 2024 22:36:34) complex                          parallel </i>
  <i name="platform" type="string">LinuxIFC </i>
  <i name="date" type="string">2024 11 01 </i>
  <i name="time" type="string">22:53:55 </i>
 </generator>
 <incar>
  <i type="string" name="SYSTEM">Si64</i>
  <i type="int" name="ISTART">     0</i>
  <i type="string" name="PREC">Accurate</i>
  <i type="string" name="ALGO">Fast</i>
  <i type="logical" name="ADDGRID"> T  </i>
  <i type="int" name="ICHARG">     2</i>
  <i type="int" name="NELM">    60</i>
  <i type="int" name="NELMIN">     8</i>
  <i type="int" name="IBRION">     2</i>
  <i name="EDIFF">      0.00000100</i>
  <i name="EDIFFG">     -0.01000000</i>
  <i type="int" name="NSW">    60</i>
  <i type="int" name="ISIF">     2</i>
  <i name="ENCUT">    400.00000000</i>
  <i type="string" name="LREAL">Auto</i>
  <i type="int" name="ISMEAR">     1</i>
  <i name="SIGMA">      0.20000000</i>
  <i type="logical" name="LWAVE"> F  </i>
  <i type="logical" name="LCHARG"> F  </i>
  <i type="logical" name="GGA_COMPAT"> F  </i>
  <i type="string" name="GGA">PS</i>
 </incar>
 <primitive_cell>
  <structure name="primitive_cell" >
   <crystal>
    <varray name="basis" >
     <v>      -2.64096289       0.01333825      -2.66763914 </v>
     <v>      -2.64096289       0.01333825       2.66763914 </v>
     <v>       2.62762464       2.65430089       0.00000000 </v>
    </varray>
    <i name="volume">     37.58681185 </i>
    <varray name="rec_basis" >
     <v>      -0.18838302       0.18648973      -0.18743165 </v>
     <v>      -0.18838302       0.18648973       0.18743165 </v>
     <v>       0.00189330       0.37487276      -0.00000000 </v>
    </varray>
   </crystal>
   <varray name="positions" >
    <v>       0.00000000       0.00000000       0.00000000 </v>
    <v>       0.75000000       0.25000000       0.50000000 </v>
   </varray>
  </structure>
  <varray name="primitive_index" >
   <v type="int" >        1 </v>
   <v type="int" >       15 </v>
  </varray>
 </primitive_cell>
 <kpoints>
  <generation param="Gamma">
   <v type="int" name="divisions">       2        2        2 </v>
   <v name="usershift">      0.00000000       0.00000000       0.00000000 </v>
   <v name="genvec1">      0.50000000      -0.00000000       0.00000000 </v>
   <v name="genvec2">     -0.00000000       0.50000000       0.00000000 </v>
   <v name="genvec3">      0.00000000       0.00000000       0.50000000 </v>
   <v name="shift">      0.00000000       0.00000000       0.00000000 </v>
  </generation>
  <varray name="kpointlist" >
   <v>       0.00000000       0.00000000       0.00000000 </v>
   <v>       0.50000000      -0.00000000       0.00000000 </v>
   <v>      -0.00000000       0.50000000       0.00000000 </v>
   <v>       0.50000000       0.50000000       0.00000000 </v>
   <v>       0.00000000       0.00000000       0.50000000 </v>
   <v>       0.50000000      -0.00000000       0.50000000 </v>
   <v>      -0.00000000       0.50000000       0.50000000 </v>
   <v>       0.50000000       0.50000000       0.50000000 </v>
  </varray>
  <varray name="weights" >
   <v>       0.12500000 </v>
   <v>       0.12500000 </v>
   <v>       0.12500000 </v>
   <v>       0.12500000 </v>
   <v>       0.12500000 </v>
   <v>       0.12500000 </v>
   <v>       0.12500000 </v>
   <v>       0.12500000 </v>
  </varray>
 </kpoints>
 <parameters>
  <separator name="general" >
   <i type="string" name="SYSTEM">Si64</i>
   <i type="logical" name="LCOMPAT"> F  </i>
  </separator>
  <separator name="electronic" >
   <i type="string" name="PREC">accura</i>
   <i name="ENMAX">    400.00000000</i>
   <i name="ENAUG">    322.06900000</i>
   <i name="EDIFF">      0.00000100</i>
   <i type="int" name="IALGO">    68</i>
   <i type="int" name="IWAVPR">    11</i>
   <i type="int" name="NBANDS">   162</i>
   <i type="int" name="NBANDSLOW">    -1</i>
   <i type="int" name="NBANDSHIGH">    -1</i>
   <i name="NELECT">    256.00000000</i>
   <i type="int" name="TURBO">     0</i>
   <i type="int" name="IRESTART">     0</i>
   <i type="int" name="NREBOOT">     0</i>
   <i type="int" name="NMIN">     0</i>
   <i name="EREF">      0.00000000</i>
   <separator name="electronic smearing" >
    <i type="int" name="ISMEAR">     1</i>
    <i name="SIGMA">      0.20000000</i>
    <i name="KSPACING">      0.50000000</i>
    <i type="logical" name="KGAMMA"> T  </i>
    <i type="logical" name="KBLOWUP"> T  </i>
   </separator>
   <separator name="electronic projectors" >
    <i type="logical" name="LREAL"> T  </i>
    <v name="ROPT">     -0.00025000</v>
    <i type="int" name="LMAXPAW">  -100</i>
    <i type="int" name="LMAXMIX">     2</i>
    <i type="logical" name="NLSPLINE"> F  </i>
   </separator>
   <separator name="electronic startup" >
    <i type="int" name="ISTART">     0</i>
    <i type="int" name="ICHARG">     2</i>
    <i type="int" name="INIWAV">     1</i>
   </separator>
   <separator name="electronic spin" >
    <i type="int" name="ISPIN">     1</i>
    <i type="logical" name="LNONCOLLINEAR"> F  </i>
    <v name="MAGMOM">      1.00000000      1.00000000      1.00000000      1.00000000      1.00000000      1.00000000      1.00000000      1.00000000      1.00000000      1.00000000      1.00000000      1.00000000      1.00000000      1.00000000      1.00000000      1.00000000      1.00000000      1.00000000      1.00000000      1.00000000
      1.00000000      1.00000000      1.00000000      1.00000000      1.00000000      1.00000000      1.00000000      1.00000000      1.00000000      1.00000000      1.00000000      1.00000000      1.00000000      1.00000000      1.00000000      1.00000000      1.00000000      1.00000000      1.00000000      1.00000000
      1.00000000      1.00000000      1.00000000      1.00000000      1.00000000      1.00000000      1.00000000      1.00000000      1.00000000      1.00000000      1.00000000      1.00000000      1.00000000      1.00000000      1.00000000      1.00000000      1.00000000      1.00000000      1.00000000      1.00000000
      1.00000000      1.00000000      1.00000000      1.00000000</v>
    <i name="NUPDOWN">     -1.00000000</i>
    <i type="logical" name="LSORBIT"> F  </i>
    <v name="SAXIS">      0.00000000      0.00000000      1.00000000</v>
    <i type="logical" name="LSPIRAL"> F  </i>
    <v name="QSPIRAL">      0.00000000      0.00000000      0.00000000</v>
    <i type="logical" name="LZEROZ"> F  </i>
   </separator>
   <separator name="electronic exchange-correlation" >
    <i type="logical" name="LASPH"> F  </i>
   </separator>
   <separator name="electronic convergence" >
    <i type="int" name="NELM">    60</i>
    <i type="int" name="NELMDL">    -5</i>
    <i type="int" name="NELMIN">     8</i>
    <i name="ENINI">    400.00000000</i>
    <separator name="electronic convergence detail" >
     <i type="logical" name="LDIAG"> T  </i>
     <i type="logical" name="LSUBROT"> F  </i>
     <i name="WEIMIN">      0.00100000</i>
     <i name="EBREAK">      0.00000000</i>
     <i name="DEPER">      0.30000000</i>
     <i type="int" name="NRMM">     4</i>
     <i name="TIME">      0.40000000</i>
    </separator>
   </separator>
   <separator name="electronic mixer" >
    <i name="AMIX">      0.40000000</i>
    <i name="BMIX">      1.00000000</i>
    <i name="AMIN">      0.10000000</i>
    <i name="AMIX_MAG">      1.60000000</i>
    <i name="BMIX_MAG">      1.00000000</i>
    <separator name="electronic mixer details" >
     <i type="int" name="IMIX">     4</i>
     <i type="logical" name="MIXFIRST"> F  </i>
     <i type="int" name="MAXMIX">   -45</i>
     <i name="WC">    100.00000000</i>
     <i type="int" name="INIMIX">     1</i>
     <i type="int" name="MIXPRE">     1</i>
     <i type="int" name="MREMOVE">     5</i>
    </separator>
   </separator>
   <separator name="electronic dipolcorrection" >
    <i type="logical" name="LDIPOL"> F  </i>
    <i type="logical" name="LMONO"> F  </i>
    <i type="int" name="IDIPOL">     0</i>
    <i name="EPSILON">      1.00000000</i>
    <v name="DIPOL">   -100.00000000   -100.00000000   -100.00000000</v>
    <i name="EFIELD">      0.00000000</i>
    <i type="logical" name="LVACPOTAV"> F  </i>
   </separator>
  </separator>
  <separator name="grids" >
   <i type="int" name="NGX">    70</i>
   <i type="int" name="NGY">    70</i>
   <i type="int" name="NGZ">    70</i>
   <i type="int" name="NGXF">   140</i>
   <i type="int" name="NGYF">   140</i>
   <i type="int" name="NGZF">   140</i>
   <i type="logical" name="ADDGRID"> T  </i>
  </separator>
  <separator name="ionic" >
   <i type="int" name="NSW">    60</i>
   <i type="int" name="IBRION">     2</i>
   <i type="int" name="MDALGO">     0</i>
   <i type="int" name="ISIF">     2</i>
   <i name="PSTRESS">      0.00000000</i>
   <i name="EDIFFG">     -0.01000000</i>
   <i type="int" name="NFREE">     1</i>
   <i name="POTIM">      0.50000000</i>
   <i name="SMASS">     -3.00000000</i>
   <i name="SCALEE">      1.00000000</i>
  </separator>
  <separator name="ionic md" >
   <i name="TEBEG">      0.00010000</i>
   <i name="TEEND">      0.00010000</i>
   <i type="int" name="NBLOCK">     1</i>
   <i type="int" name="KBLOCK">    60</i>
   <i type="int" name="NPACO">   256</i>
   <i name="APACO">     10.00000000</i>
  </separator>
  <separator name="symmetry" >
   <i type="int" name="ISYM">     2</i>
   <i name="SYMPREC">      0.00001000</i>
  </separator>
  <separator name="dos" >
   <i type="int" name="LORBIT">     0</i>
   <v name="RWIGS">     -1.00000000</v>
   <i type="int" name="NEDOS">   301</i>
   <i name="EMIN">     10.00000000</i>
   <i name="EMAX">    -10.00000000</i>
   <i name="EFERMI">      0.00000000</i>
  </separator>
  <separator name="writing" >
   <i type="int" name="NWRITE">     2</i>
   <i type="logical" name="LWAVE"> F  </i>
   <i type="logical" name="LDOWNSAMPLE"> F  </i>
   <i type="logical" name="LCHARG"> F  </i>
   <i type="logical" name="LPARD"> F  </i>
   <i type="logical" name="LVTOT"> F  </i>
   <i type="logical" name="LVHAR"> F  </i>
   <i type="logical" name="LELF"> F  </i>
   <i type="logical" name="LOPTICS"> F  </i>
   <v name="STM">      0.00000000      0.00000000      0.00000000      0.00000000      0.00000000      0.00000000      0.00000000</v>
  </separator>
  <separator name="performance" >
   <i type="int" name="NPAR">     2</i>
   <i type="int" name="NSIM">     4</i>
   <i type="int" name="NBLK">    -1</i>
   <i type="logical" name="LPLANE"> T  </i>
   <i type="logical" name="LSCALAPACK"> T  </i>
   <i type="logical" name="LSCAAWARE"> F  </i>
   <i type="logical" name="LSCALU"> F  </i>
   <i type="logical" name="LASYNC"> F  </i>
   <i type="logical" name="LORBITALREAL"> F  </i>
  </separator>
  <separator name="miscellaneous" >
   <i type="int" name="IDIOT">     3</i>
   <i type="int" name="PHON_NSTRUCT">    -1</i>
   <i type="logical" name="LMUSIC"> F  </i>
   <v name="POMASS">     28.08500000</v>
   <v name="DARWINR">      0.00000000</v>
   <v name="DARWINV">      1.00000000</v>
   <i type="logical" name="LCORR"> T  </i>
  </separator>
  <i type="logical" name="GGA_COMPAT"> F  </i>
  <i type="logical" name="LBERRY"> F  </i>
  <i type="int" name="ICORELEVEL">     0</i>
  <i type="logical" name="LDAU"> F  </i>
  <i type="int" name="I_CONSTRAINED_M">     0</i>
  <separator name="electronic exchange-correlation" >
   <i type="string" name="GGA    ">PS</i>
   <i type="string" name="XC_C">1</i>
   <i type="int" name="VOSKOWN">     0</i>
   <i type="logical" name="LHFCALC"> F  </i>
   <i type="string" name="PRECFOCK"></i>
   <i type="logical" name="LSYMGRAD"> F  </i>
   <i type="logical" name="LHFONE"> F  </i>
   <i type="logical" name="LRHFCALC"> F  </i>
   <i type="logical" name="LTHOMAS"> F  </i>
   <i type="logical" name="LMODELHF"> F  </i>
   <i type="logical" name="LFOCKACE"> F  </i>
   <i name="ENCUT4O">     -1.00000000</i>
   <i type="int" name="EXXOEP">     0</i>
   <i type="int" name="FOURORBIT">     0</i>
   <i name="AEXX">      0.00000000</i>
   <i name="HFALPHA">      0.00000000</i>
   <i name="MCALPHA">      0.00000000</i>
   <i name="ALDAX">      1.00000000</i>
   <i name="AGGAX">      1.00000000</i>
   <i name="AMGGAX">      1.00000000</i>
   <i name="ALDAC">      1.00000000</i>
   <i name="AGGAC">      1.00000000</i>
   <i name="AMGGAC">      1.00000000</i>
   <i type="int" name="NKREDX">     1</i>
   <i type="int" name="NKREDY">     1</i>
   <i type="int" name="NKREDZ">     1</i>
   <i type="logical" name="SHIFTRED"> F  </i>
   <i type="logical" name="ODDONLY"> F  </i>
   <i type="logical" name="EVENONLY"> F  </i>
   <i type="int" name="LMAXFOCK">     0</i>
   <i type="int" name="NMAXFOCKAE">     0</i>
   <i type="logical" name="LFOCKAEDFT"> F  </i>
   <i name="HFSCREEN">      0.00000000</i>
   <i name="HFSCREENC">      0.00000000</i>
   <i type="int" name="NBANDSGWLOW">     0</i>
  </separator>
  <separator name="vdW DFT" >
   <i type="logical" name="LUSE_VDW"> F  </i>
   <i type="int" name="IVDW_NL">    -1</i>
   <i type="logical" name="LSPIN_VDW"> F  </i>
   <i name="ZAB_VDW">     -0.84910000</i>
   <i name="GAMMA_VDW">      1.39626340</i>
   <i name="ALPHA_VDW">      0.00000000</i>
   <i name="PARAM1">      0.12340000</i>
   <i name="PARAM2">      1.00000000</i>
   <i name="BPARAM">      6.30000000</i>
   <i name="CPARAM">      0.00930000</i>
  </separator>
  <separator name="model GW" >
   <i type="int" name="MODEL_GW">     0</i>
   <i name="MODEL_EPS0">     11.27604356</i>
   <i name="MODEL_ALPHA">      1.00000000</i>
  </separator>
  <separator name="linear response parameters" >
   <i type="logical" name="LEPSILON"> F  </i>
   <i type="logical" name="LRPA"> F  </i>
   <i type="logical" name="LNABLA"> F  </i>
   <i type="logical" name="LVEL"> F  </i>
   <i name="CSHIFT">      0.10000000</i>
   <i name="OMEGAMAX">     -1.00000000</i>
   <i name="DEG_THRESHOLD">      0.00200000</i>
   <i name="RTIME">     -0.10000000</i>
   <i name="WPLASMAI">      0.00000000</i>
   <v name="DFIELD">      0.00000000      0.00000000      0.00000000</v>
   <v name="WPLASMA">      0.00000000      0.00000000      0.00000000      0.00000000      0.00000000      0.00000000      0.00000000      0.00000000      0.00000000</v>
  </separator>
  <separator name="orbital magnetization" >
   <i type="logical" name="NUCIND"> F  </i>
   <v name="MAGPOS">      0.00000000      0.00000000      0.00000000</v>
   <i type="logical" name="LNICSALL"> T  </i>
   <i type="logical" name="ORBITALMAG"> F  </i>
   <i type="logical" name="LMAGBLOCH"> F  </i>
   <i type="logical" name="LCHIMAG"> F  </i>
   <i type="logical" name="LGAUGE"> T  </i>
   <i type="int" name="MAGATOM">     0</i>
   <v name="MAGDIPOL">      0.00000000      0.00000000      0.00000000</v>
   <v name="AVECCONST">      0.00000000      0.00000000      0.00000000</v>
  </separator>
  <separator name="response functions" >
   <i type="logical" name="LALL_IN_ONE"> F  </i>
   <i type="int" name="IALL_IN_ONE">    -1</i>
   <i type="int" name="NBANDS_WAVE">    -1</i>
   <i type="logical" name="LFINITE_TEMPERATURE"> F  </i>
   <i type="logical" name="LADDER"> F  </i>
   <i type="logical" name="LRPAFORCE"> F  </i>
   <i type="logical" name="LFXC"> F  </i>
   <i type="logical" name="LHARTREE"> T  </i>
   <i type="int" name="IBSE">     0</i>
   <v type="int" name="KPOINT">    -1     0     0     0</v>
   <i type="logical" name="LTCTC"> F  </i>
   <i type="logical" name="LTCTE"> F  </i>
   <i type="logical" name="LTETE"> F  </i>
   <i type="logical" name="LTRIPLET"> F  </i>
   <i type="logical" name="LFXCEPS"> F  </i>
   <i type="logical" name="LFXHEG"> F  </i>
   <i type="int" name="NATURALO">     2</i>
   <i type="logical" name="LHOLEGF"> F  </i>
   <i type="logical" name="L2ORDER"> F  </i>
   <i type="logical" name="LDMP1"> F  </i>
   <i type="logical" name="LMP2LT"> F  </i>
   <i type="logical" name="LSMP2LT"> F  </i>
   <i type="logical" name="LGWLF"> F  </i>
   <i name="ENCUTGW">     -1.60000002</i>
   <i name="ENCUTGWSOFT">     -1.60000002</i>
   <i name="ENCUTLF">     -1.00000000</i>
   <i type="logical" name="ESF_SPLINES"> F  </i>
   <i name="ESF_CONV">      0.01000000</i>
   <i type="int" name="ESF_NINTER">    15</i>
   <i type="int" name="LMAXMP2">    -1</i>
   <i name="SCISSOR">      0.00000000</i>
   <i type="int" name="NOMEGA">     0</i>
   <i type="int" name="NOMEGAR">     0</i>
   <i type="int" name="NBANDSGW">    -1</i>
   <i type="int" name="NBANDSO">    -1</i>
   <i type="int" name="NBANDSV">    -1</i>
   <i type="int" name="NELMGW">     1</i>
   <i type="int" name="NELMHF">     1</i>
   <i type="int" name="DIM">     3</i>
   <i type="int" name="IESPILON">     4</i>
   <i type="int" name="ANTIRES">     0</i>
   <i name="OMEGAMAX">    -30.00000000</i>
   <i name="OMEGAMIN">    -30.00000000</i>
   <i name="OMEGATL">   -200.00000000</i>
   <i type="int" name="OMEGAGRID">     0</i>
   <i name="CSHIFT">     -0.10000000</i>
   <i type="logical" name="LSELFENERGY"> F  </i>
   <i type="logical" name="LSPECTRAL"> F  </i>
   <i type="logical" name="LSPECTRALGW"> F  </i>
   <i type="logical" name="LSINGLES"> F  </i>
   <i type="logical" name="LFERMIGW"> F  </i>
   <i type="logical" name="ODDONLYGW"> F  </i>
   <i type="logical" name="EVENONLYGW"> F  </i>
   <i type="int" name="NKREDLFX">     1</i>
   <i type="int" name="NKREDLFY">     1</i>
   <i type="int" name="NKREDLFZ">     1</i>
   <i type="int" name="MAXMEM">  2800</i>
   <i type="int" name="TELESCOPE">     0</i>
   <i type="int" name="NTAUPAR">    -1</i>
   <i type="int" name="NOMEGAPAR">    -1</i>
   <i name="DAMP_NEWTON">      0.80000001</i>
   <i name="LAMBDA">      1.00000000</i>
  </separator>
  <separator name="External order field" >
   <i name="OFIELD_KAPPA">      0.00000000</i>
   <v name="OFIELD_K">      0.00000000      0.00000000      0.00000000</v>
   <i name="OFIELD_Q6_NEAR">      0.00000000</i>
   <i name="OFIELD_Q6_FAR">      0.00000000</i>
   <i name="OFIELD_A">      0.00000000</i>
  </separator>
  <separator name="optional k-points parameters" >
   <i type="int" name="KPOINTS_OPT_MODE">     1</i>
   <i type="logical" name="LKPOINTS_OPT"> F  </i>
  </separator>
 </parameters>
 <atominfo>
  <atoms>      64 </atoms>
  <types>       1 </types>
  <array name="atoms" >
   <dimension dim="1">ion</dimension>
   <field type="string">element</field>
   <field type="int">atomtype</field>
   <set>
    <rc><c>Si</c><c>   1</c></rc>
    <rc><c>Si</c><c>   1</c></rc>
    <rc><c>Si</c><c>   1</c></rc>
    <rc><c>Si</c><c>   1</c></rc>
    <rc><c>Si</c><c>   1</c></rc>
    <rc><c>Si</c><c>   1</c></rc>
    <rc><c>Si</c><c>   1</c></rc>
    <rc><c>Si</c><c>   1</c></rc>
    <rc><c>Si</c><c>   1</c></rc>
    <rc><c>Si</c><c>   1</c></rc>
    <rc><c>Si</c><c>   1</c></rc>
    <rc><c>Si</c><c>   1</c></rc>
    <rc><c>Si</c><c>   1</c></rc>
    <rc><c>Si</c><c>   1</c></rc>
    <rc><c>Si</c><c>   1</c></rc>
    <rc><c>Si</c><c>   1</c></rc>
    <rc><c>Si</c><c>   1</c></rc>
    <rc><c>Si</c><c>   1</c></rc>
    <rc><c>Si</c><c>   1</c></rc>
    <rc><c>Si</c><c>   1</c></rc>
    <rc><c>Si</c><c>   1</c></rc>
    <rc><c>Si</c><c>   1</c></rc>
    <rc><c>Si</c><c>   1</c></rc>
    <rc><c>Si</c><c>   1</c></rc>
    <rc><c>Si</c><c>   1</c></rc>
    <rc><c>Si</c><c>   1</c></rc>
    <rc><c>Si</c><c>   1</c></rc>
    <rc><c>Si</c><c>   1</c></rc>
    <rc><c>Si</c><c>   1</c></rc>
    <rc><c>Si</c><c>   1</c></rc>
    <rc><c>Si</c><c>   1</c></rc>
    <rc><c>Si</c><c>   1</c></rc>
    <rc><c>Si</c><c>   1</c></rc>
    <rc><c>Si</c><c>   1</c></rc>
    <rc><c>Si</c><c>   1</c></rc>
    <rc><c>Si</c><c>   1</c></rc>
    <rc><c>Si</c><c>   1</c></rc>
    <rc><c>Si</c><c>   1</c></rc>
    <rc><c>Si</c><c>   1</c></rc>
    <rc><c>Si</c><c>   1</c></rc>
    <rc><c>Si</c><c>   1</c></rc>
    <rc><c>Si</c><c>   1</c></rc>
    <rc><c>Si</c><c>   1</c></rc>
    <rc><c>Si</c><c>   1</c></rc>
    <rc><c>Si</c><c>   1</c></rc>
    <rc><c>Si</c><c>   1</c></rc>
    <rc><c>Si</c><c>   1</c></rc>
    <rc><c>Si</c><c>   1</c></rc>
    <rc><c>Si</c><c>   1</c></rc>
    <rc><c>Si</c><c>   1</c></rc>
    <rc><c>Si</c><c>   1</c></rc>
    <rc><c>Si</c><c>   1</c></rc>
    <rc><c>Si</c><c>   1</c></rc>
    <rc><c>Si</c><c>   1</c></rc>
    <rc><c>Si</c><c>   1</c></rc>
    <rc><c>Si</c><c>   1</c></rc>
    <rc><c>Si</c><c>   1</c></rc>
    <rc><c>Si</c><c>   1</c></rc>
    <rc><c>Si</c><c>   1</c></rc>
    <rc><c>Si</c><c>   1</c></rc>
    <rc><c>Si</c><c>   1</c></rc>
    <rc><c>Si</c><c>   1</c></rc>
    <rc><c>Si</c><c>   1</c></rc>
    <rc><c>Si</c><c>   1</c></rc>
   </set>
  </array>
  <array name="atomtypes" >
   <dimension dim="1">type</dimension>
   <field type="int">atomspertype</field>
   <field type="string">element</field>
   <field>mass</field>
   <field>valence</field>
   <field type="string">pseudopotential</field>
   <set>
    <rc><c>  64</c><c>Si</c><c>     28.08500000</c><c>      4.00000000</c><c>  PAW_PBE Si 05Jan2001                  </c></rc>
   </set>
  </array>
 </atominfo>
 <structure name="initialpos" >
  <crystal>
   <varray name="basis" >
    <v>      10.56385156      -0.05335301       0.00000000 </v>
    <v>      -0.05335301      10.67055658       0.00000000 </v>
    <v>       0.00000000       0.00000000      10.67055658 </v>
   </varray>
   <i name="volume">   1202.77797928 </i>
   <varray name="rec_basis" >
    <v>       0.09466483       0.00047333       0.00000000 </v>
    <v>       0.00047333       0.09371819       0.00000000 </v>
    <v>       0.00000000       0.00000000       0.09371582 </v>
   </varray>
  </crystal>
  <varray name="positions" >
   <v>       0.00000000       0.00000000       0.00000000 </v>
   <v>       0.00000000       0.00000000       0.50000000 </v>
   <v>       0.00000000       0.50000000       0.00000000 </v>
   <v>       0.00000000       0.50000000       0.50000000 </v>
   <v>       0.50000000       0.00000000       0.00000000 </v>
   <v>       0.50000000       0.00000000       0.50000000 </v>
   <v>       0.50000000       0.50000000       0.00000000 </v>
   <v>       0.50000000       0.50000000       0.50000000 </v>
   <v>       0.37500000       0.37500000       0.12500000 </v>
   <v>       0.37500000       0.37500000       0.62500000 </v>
   <v>       0.37500000       0.87500000       0.12500000 </v>
   <v>       0.37500000       0.87500000       0.62500000 </v>
   <v>       0.87500000       0.37500000       0.12500000 </v>
   <v>       0.87500000       0.37500000       0.62500000 </v>
   <v>       0.87500000       0.87500000       0.12500000 </v>
   <v>       0.87500000       0.87500000       0.62500000 </v>
   <v>       0.00000000       0.25000000       0.25000000 </v>
   <v>       0.00000000       0.25000000       0.75000000 </v>
   <v>       0.00000000       0.75000000       0.25000000 </v>
   <v>       0.00000000       0.75000000       0.75000000 </v>
   <v>       0.50000000       0.25000000       0.25000000 </v>
   <v>       0.50000000       0.25000000       0.75000000 </v>
   <v>       0.50000000       0.75000000       0.25000000 </v>
   <v>       0.50000000       0.75000000       0.75000000 </v>
   <v>       0.37500000       0.12500000       0.37500000 </v>
   <v>       0.37500000       0.12500000       0.87500000 </v>
   <v>       0.37500000       0.62500000       0.37500000 </v>
   <v>       0.37500000       0.62500000       0.87500000 </v>
   <v>       0.87500000       0.12500000       0.37500000 </v>
   <v>       0.87500000       0.12500000       0.87500000 </v>
   <v>       0.87500000       0.62500000       0.37500000 </v>
   <v>       0.87500000       0.62500000       0.87500000 </v>
   <v>       0.25000000       0.00000000       0.25000000 </v>
   <v>       0.25000000       0.00000000       0.75000000 </v>
   <v>       0.25000000       0.50000000       0.25000000 </v>
   <v>       0.25000000       0.50000000       0.75000000 </v>
   <v>       0.75000000       0.00000000       0.25000000 </v>
   <v>       0.75000000       0.00000000       0.75000000 </v>
   <v>       0.75000000       0.50000000       0.25000000 </v>
   <v>       0.75000000       0.50000000       0.75000000 </v>
   <v>       0.12500000       0.37500000       0.37500000 </v>
   <v>       0.12500000       0.37500000       0.87500000 </v>
   <v>       0.12500000       0.87500000       0.37500000 </v>
   <v>       0.12500000       0.87500000       0.87500000 </v>
   <v>       0.62500000       0.37500000       0.37500000 </v>
   <v>       0.62500000       0.37500000       0.87500000 </v>
   <v>       0.62500000       0.87500000       0.37500000 </v>
   <v>       0.62500000       0.87500000       0.87500000 </v>
   <v>       0.25000000       0.25000000       0.00000000 </v>
   <v>       0.25000000       0.25000000       0.50000000 </v>
   <v>       0.25000000       0.75000000       0.00000000 </v>
   <v>       0.25000000       0.75000000       0.50000000 </v>
   <v>       0.75000000       0.25000000       0.00000000 </v>
   <v>       0.75000000       0.25000000       0.50000000 </v>
   <v>       0.75000000       0.75000000       0.00000000 </v>
   <v>       0.75000000       0.75000000       0.50000000 </v>
   <v>       0.12500000       0.12500000       0.12500000 </v>
   <v>       0.12500000       0.12500000       0.62500000 </v>
   <v>       0.12500000       0.62500000       0.12500000 </v>
   <v>       0.12500000       0.62500000       0.62500000 </v>
   <v>       0.62500000       0.12500000       0.12500000 </v>
   <v>       0.62500000       0.12500000       0.62500000 </v>
   <v>       0.62500000       0.62500000       0.12500000 </v>
   <v>       0.62500000       0.62500000       0.62500000 </v>
  </varray>
 </structure>
 <calculation>
  <scstep>
   <time name="dav">    1.31    1.38</time>
   <time name="total">    1.50    1.58</time>
   <energy>
    <i name="alphaZ">    114.63810124 </i>
    <i name="ewald">  -7468.90250911 </i>
    <i name="hartreedc">   -322.51224452 </i>
    <i name="XCdc">   -551.07162606 </i>
    <i name="pawpsdc">   5598.62625415 </i>
    <i name="pawaedc">  -4492.17844134 </i>
    <i name="eentropy">     -0.01470786 </i>
    <i name="bandstr">   1129.27587826 </i>
    <i name="atom">   6564.79586099 </i>
    <i name="e_fr_energy">    572.65656575 </i>
    <i name="e_wo_entrp">    572.67127360 </i>
    <i name="e_0_energy">    572.66146836 </i>
   </energy>
  </scstep>
  <scstep>
   <time name="dav">    1.35    1.39</time>
   <time name="total">    1.35    1.39</time>
   <energy>
    <i name="e_fr_energy">   -308.63224683 </i>
    <i name="e_wo_entrp">   -308.64580962 </i>
    <i name="e_0_energy">   -308.63676776 </i>
   </energy>
  </scstep>
  <scstep>
   <time name="dav">    1.33    1.35</time>
   <time name="total">    1.33    1.35</time>
   <energy>
    <i name="e_fr_energy">   -372.62816363 </i>
    <i name="e_wo_entrp">   -372.63552216 </i>
    <i name="e_0_energy">   -372.63061648 </i>
   </energy>
  </scstep>
  <scstep>
   <time name="dav">    1.32    1.34</time>
   <time name="total">    1.32    1.34</time>
   <energy>
    <i name="e_fr_energy">   -374.30270675 </i>
    <i name="e_wo_entrp">   -374.31097761 </i>
    <i name="e_0_energy">   -374.30546370 </i>
   </energy>
  </scstep>
  <scstep>
   <time name="dav">    1.31    1.33</time>
   <time name="total">    1.57    1.59</time>
   <energy>
    <i name="e_fr_energy">   -374.35478600 </i>
    <i name="e_wo_entrp">   -374.36303936 </i>
    <i name="e_0_energy">   -374.35753712 </i>
   </energy>
  </scstep>
  <scstep>
   <time name="diag">    0.14    0.14</time>
   <time name="diis">    0.68    0.71</time>
   <time name="orth">    0.02    0.02</time>
   <time name="total">    1.23    1.28</time>
   <energy>
    <i name="e_fr_energy">   -368.36879383 </i>
    <i name="e_wo_entrp">   -368.39111968 </i>
    <i name="e_0_energy">   -368.37623578 </i>
   </energy>
  </scstep>
  <scstep>
   <time name="diag">    0.14    0.14</time>
   <time name="diis">    0.71    0.71</time>
   <time name="orth">    0.02    0.02</time>
   <time name="total">    1.25    1.28</time>
   <energy>
    <i name="e_fr_energy">   -365.76347820 </i>
    <i name="e_wo_entrp">   -365.79161356 </i>
    <i name="e_0_energy">   -365.77285665 </i>
   </energy>
  </scstep>
  <scstep>
   <time name="diag">    0.14    0.14</time>
   <time name="diis">    0.71    0.71</time>
   <time name="orth">    0.02    0.02</time>
   <time name="total">    1.26    1.28</time>
   <energy>
    <i name="e_fr_energy">   -365.79694212 </i>
    <i name="e_wo_entrp">   -365.82869596 </i>
    <i name="e_0_energy">   -365.80752674 </i>
   </energy>
  </scstep>
  <scstep>
   <time name="diag">    0.13    0.14</time>
   <time name="diis">    0.67    0.72</time>
   <time name="orth">    0.02    0.02</time>
   <time name="total">    1.20    1.29</time>
   <energy>
    <i name="e_fr_energy">   -365.81983817 </i>
    <i name="e_wo_entrp">   -365.85089735 </i>
    <i name="e_0_energy">   -365.83019123 </i>
   </energy>
  </scstep>
  <scstep>
   <time name="diag">    0.14    0.14</time>
   <time name="diis">    0.73    0.74</time>
   <time name="orth">    0.02    0.02</time>
   <time name="total">    1.29    1.30</time>
   <energy>
    <i name="e_fr_energy">   -365.82409691 </i>
    <i name="e_wo_entrp">   -365.85511395 </i>
    <i name="e_0_energy">   -365.83443592 </i>
   </energy>
  </scstep>
  <scstep>
   <time name="diag">    0.13    0.13</time>
   <time name="diis">    0.70    0.70</time>
   <time name="orth">    0.02    0.02</time>
   <time name="total">    1.24    1.27</time>
   <energy>
    <i name="e_fr_energy">   -365.81986098 </i>
    <i name="e_wo_entrp">   -365.85170599 </i>
    <i name="e_0_energy">   -365.83047599 </i>
   </energy>
  </scstep>
  <scstep>
   <time name="diag">    0.13    0.13</time>
   <time name="diis">    0.69    0.70</time>
   <time name="orth">    0.02    0.02</time>
   <time name="total">    1.24    1.26</time>
   <energy>
    <i name="e_fr_energy">   -365.82001483 </i>
    <i name="e_wo_entrp">   -365.85187697 </i>
    <i name="e_0_energy">   -365.83063554 </i>
   </energy>
  </scstep>
  <scstep>
   <time name="diag">    0.17    0.17</time>
   <time name="diis">    0.72    0.72</time>
   <time name="orth">    0.02    0.02</time>
   <time name="total">    1.30    1.33</time>
   <energy>
    <i name="e_fr_energy">   -365.82008681 </i>
    <i name="e_wo_entrp">   -365.85195081 </i>
    <i name="e_0_energy">   -365.83070814 </i>
   </energy>
  </scstep>
  <scstep>
   <time name="diag">    0.13    0.13</time>
   <time name="diis">    0.69    0.70</time>
   <time name="orth">    0.02    0.02</time>
   <time name="total">    1.24    1.26</time>
   <energy>
    <i name="e_fr_energy">   -365.82005119 </i>
    <i name="e_wo_entrp">   -365.85193027 </i>
    <i name="e_0_energy">   -365.83067755 </i>
   </energy>
  </scstep>
  <scstep>
   <time name="diag">    0.13    0.13</time>
   <time name="diis">    0.71    0.71</time>
   <time name="orth">    0.02    0.02</time>
   <time name="total">    1.27    1.27</time>
   <energy>
    <i name="e_fr_energy">   -365.82016105 </i>
    <i name="e_wo_entrp">   -365.85206662 </i>
    <i name="e_0_energy">   -365.83079624 </i>
   </energy>
  </scstep>
  <scstep>
   <time name="diag">    0.14    0.14</time>
   <time name="diis">    0.70    0.71</time>
   <time name="orth">    0.02    0.02</time>
   <time name="total">    1.25    1.28</time>
   <energy>
    <i name="e_fr_energy">   -365.82023891 </i>
    <i name="e_wo_entrp">   -365.85214565 </i>
    <i name="e_0_energy">   -365.83087449 </i>
   </energy>
  </scstep>
  <scstep>
   <time name="diag">    0.13    0.13</time>
   <time name="diis">    0.69    0.70</time>
   <time name="orth">    0.02    0.02</time>
   <time name="total">    1.25    1.26</time>
   <energy>
    <i name="e_fr_energy">   -365.82025255 </i>
    <i name="e_wo_entrp">   -365.85216995 </i>
    <i name="e_0_energy">   -365.83089169 </i>
   </energy>
  </scstep>
  <scstep>
   <time name="diag">    0.13    0.13</time>
   <time name="diis">    0.65    0.66</time>
   <time name="orth">    0.02    0.02</time>
   <time name="total">    1.20    1.22</time>
   <energy>
    <i name="e_fr_energy">   -365.82026196 </i>
    <i name="e_wo_entrp">   -365.85218447 </i>
    <i name="e_0_energy">   -365.83090279 </i>
   </energy>
  </scstep>
  <scstep>
   <time name="diag">    0.13    0.13</time>
   <time name="diis">    0.46    0.46</time>
   <time name="orth">    0.02    0.02</time>
   <time name="total">    1.01    1.03</time>
   <energy>
    <i name="e_fr_energy">   -365.82026421 </i>
    <i name="e_wo_entrp">   -365.85218822 </i>
    <i name="e_0_energy">   -365.83090555 </i>
   </energy>
  </scstep>
  <scstep>
   <time name="diag">    0.13    0.13</time>
   <time name="diis">    0.45    0.45</time>
   <time name="orth">    0.02    0.02</time>
   <time name="total">    0.75    0.77</time>
   <energy>
    <i name="alphaZ">    114.63810124 </i>
    <i name="ewald">  -7468.90250911 </i>
    <i name="hartreedc">   -444.87447852 </i>
    <i name="XCdc">   -530.31110984 </i>
    <i name="pawpsdc">  31885.73469952 </i>
    <i name="pawaedc"> -30787.82006842 </i>
    <i name="eentropy">      0.03192416 </i>
    <i name="bandstr">    300.88731551 </i>
    <i name="atom">   6564.79586099 </i>
    <i name="e_fr_energy">   -365.82026448 </i>
    <i name="e_wo_entrp">   -365.85218864 </i>
    <i name="e_0_energy">   -365.83090587 </i>
   </energy>
  </scstep>
  <structure>
   <crystal>
    <varray name="basis" >
     <v>      10.56385156      -0.05335301       0.00000000 </v>
     <v>      -0.05335301      10.67055658       0.00000000 </v>
     <v>       0.00000000       0.00000000      10.67055658 </v>
    </varray>
    <i name="volume">   1202.77797928 </i>
    <varray name="rec_basis" >
     <v>       0.09466483       0.00047333       0.00000000 </v>
     <v>       0.00047333       0.09371819       0.00000000 </v>
     <v>       0.00000000       0.00000000       0.09371582 </v>
    </varray>
   </crystal>
   <varray name="positions" >
    <v>       0.00000000       0.00000000       0.00000000 </v>
    <v>       0.00000000       0.00000000       0.50000000 </v>
    <v>       0.00000000       0.50000000       0.00000000 </v>
    <v>       0.00000000       0.50000000       0.50000000 </v>
    <v>       0.50000000       0.00000000       0.00000000 </v>
    <v>       0.50000000       0.00000000       0.50000000 </v>
    <v>       0.50000000       0.50000000       0.00000000 </v>
    <v>       0.50000000       0.50000000       0.50000000 </v>
    <v>       0.37500000       0.37500000       0.12500000 </v>
    <v>       0.37500000       0.37500000       0.62500000 </v>
    <v>       0.37500000       0.87500000       0.12500000 </v>
    <v>       0.37500000       0.87500000       0.62500000 </v>
    <v>       0.87500000       0.37500000       0.12500000 </v>
    <v>       0.87500000       0.37500000       0.62500000 </v>
    <v>       0.87500000       0.87500000       0.12500000 </v>
    <v>       0.87500000       0.87500000       0.62500000 </v>
    <v>       0.00000000       0.25000000       0.25000000 </v>
    <v>       0.00000000       0.25000000       0.75000000 </v>
    <v>       0.00000000       0.75000000       0.25000000 </v>
    <v>       0.00000000       0.75000000       0.75000000 </v>
    <v>       0.50000000       0.25000000       0.25000000 </v>
    <v>       0.50000000       0.25000000       0.75000000 </v>
    <v>       0.50000000       0.75000000       0.25000000 </v>
    <v>       0.50000000       0.75000000       0.75000000 </v>
    <v>       0.37500000       0.12500000       0.37500000 </v>
    <v>       0.37500000       0.12500000       0.87500000 </v>
    <v>       0.37500000       0.62500000       0.37500000 </v>
    <v>       0.37500000       0.62500000       0.87500000 </v>
    <v>       0.87500000       0.12500000       0.37500000 </v>
    <v>       0.87500000       0.12500000       0.87500000 </v>
    <v>       0.87500000       0.62500000       0.37500000 </v>
    <v>       0.87500000       0.62500000       0.87500000 </v>
    <v>       0.25000000       0.00000000       0.25000000 </v>
    <v>       0.25000000       0.00000000       0.75000000 </v>
    <v>       0.25000000       0.50000000       0.25000000 </v>
    <v>       0.25000000       0.50000000       0.75000000 </v>
    <v>       0.75000000       0.00000000       0.25000000 </v>
    <v>       0.75000000       0.00000000       0.75000000 </v>
    <v>       0.75000000       0.50000000       0.25000000 </v>
    <v>       0.75000000       0.50000000       0.75000000 </v>
    <v>       0.12500000       0.37500000       0.37500000 </v>
    <v>       0.12500000       0.37500000       0.87500000 </v>
    <v>       0.12500000       0.87500000       0.37500000 </v>
    <v>       0.12500000       0.87500000       0.87500000 </v>
    <v>       0.62500000       0.37500000       0.37500000 </v>
    <v>       0.62500000       0.37500000       0.87500000 </v>
    <v>       0.62500000       0.87500000       0.37500000 </v>
    <v>       0.62500000       0.87500000       0.87500000 </v>
    <v>       0.25000000       0.25000000       0.00000000 </v>
    <v>       0.25000000       0.25000000       0.50000000 </v>
    <v>       0.25000000       0.75000000       0.00000000 </v>
    <v>       0.25000000       0.75000000       0.50000000 </v>
    <v>       0.75000000       0.25000000       0.00000000 </v>
    <v>       0.75000000       0.25000000       0.50000000 </v>
    <v>       0.75000000       0.75000000       0.00000000 </v>
    <v>       0.75000000       0.75000000       0.50000000 </v>
    <v>       0.12500000       0.12500000       0.12500000 </v>
    <v>       0.12500000       0.12500000       0.62500000 </v>
    <v>       0.12500000       0.62500000       0.12500000 </v>
    <v>       0.12500000       0.62500000       0.62500000 </v>
    <v>       0.62500000       0.12500000       0.12500000 </v>
    <v>       0.62500000       0.12500000       0.62500000 </v>
    <v>       0.62500000       0.62500000       0.12500000 </v>
    <v>       0.62500000       0.62500000       0.62500000 </v>
   </varray>
  </structure>
  <varray name="forces" >
   <v>      -0.00000000       0.00000000      -0.13016799 </v>
   <v>      -0.00000000      -0.00000000      -0.13016799 </v>
   <v>       0.00000000      -0.00000000      -0.13016799 </v>
   <v>       0.00000000      -0.00000000      -0.13016799 </v>
   <v>      -0.00000000       0.00000000      -0.13016799 </v>
   <v>      -0.00000000       0.00000000      -0.13016799 </v>
   <v>       0.00000000       0.00000000      -0.13016799 </v>
   <v>       0.00000000      -0.00000000      -0.13016799 </v>
   <v>       0.00000000      -0.00000000       0.13016799 </v>
   <v>      -0.00000000       0.00000000       0.13016799 </v>
   <v>       0.00000000      -0.00000000       0.13016799 </v>
   <v>      -0.00000000      -0.00000000       0.13016799 </v>
   <v>      -0.00000000       0.00000000       0.13016799 </v>
   <v>       0.00000000       0.00000000       0.13016799 </v>
   <v>      -0.00000000      -0.00000000       0.13016799 </v>
   <v>       0.00000000      -0.00000000       0.13016799 </v>
   <v>       0.00000000      -0.00000000      -0.13016799 </v>
   <v>      -0.00000000      -0.00000000      -0.13016799 </v>
   <v>      -0.00000000       0.00000000      -0.13016799 </v>
   <v>      -0.00000000       0.00000000      -0.13016799 </v>
   <v>      -0.00000000       0.00000000      -0.13016799 </v>
   <v>       0.00000000       0.00000000      -0.13016799 </v>
   <v>      -0.00000000      -0.00000000      -0.13016799 </v>
   <v>       0.00000000      -0.00000000      -0.13016799 </v>
   <v>      -0.00000000      -0.00000000       0.13016799 </v>
   <v>      -0.00000000      -0.00000000       0.13016799 </v>
   <v>       0.00000000       0.00000000       0.13016799 </v>
   <v>       0.00000000       0.00000000       0.13016799 </v>
   <v>      -0.00000000       0.00000000       0.13016799 </v>
   <v>      -0.00000000      -0.00000000       0.13016799 </v>
   <v>       0.00000000      -0.00000000       0.13016799 </v>
   <v>       0.00000000      -0.00000000       0.13016799 </v>
   <v>      -0.00000000       0.00000000      -0.13016799 </v>
   <v>      -0.00000000       0.00000000      -0.13016799 </v>
   <v>       0.00000000       0.00000000      -0.13016799 </v>
   <v>       0.00000000      -0.00000000      -0.13016799 </v>
   <v>      -0.00000000       0.00000000      -0.13016799 </v>
   <v>      -0.00000000       0.00000000      -0.13016799 </v>
   <v>       0.00000000      -0.00000000      -0.13016799 </v>
   <v>       0.00000000      -0.00000000      -0.13016799 </v>
   <v>      -0.00000000       0.00000000       0.13016799 </v>
   <v>       0.00000000       0.00000000       0.13016799 </v>
   <v>       0.00000000       0.00000000       0.13016799 </v>
   <v>       0.00000000       0.00000000       0.13016799 </v>
   <v>      -0.00000000       0.00000000       0.13016799 </v>
   <v>       0.00000000      -0.00000000       0.13016799 </v>
   <v>      -0.00000000      -0.00000000       0.13016799 </v>
   <v>      -0.00000000      -0.00000000       0.13016799 </v>
   <v>      -0.00000000      -0.00000000      -0.13016799 </v>
   <v>       0.00000000       0.00000000      -0.13016799 </v>
   <v>      -0.00000000       0.00000000      -0.13016799 </v>
   <v>       0.00000000       0.00000000      -0.13016799 </v>
   <v>       0.00000000       0.00000000      -0.13016799 </v>
   <v>       0.00000000       0.00000000      -0.13016799 </v>
   <v>       0.00000000       0.00000000      -0.13016799 </v>
   <v>      -0.00000000      -0.00000000      -0.13016799 </v>
   <v>      -0.00000000      -0.00000000       0.13016799 </v>
   <v>      -0.00000000      -0.00000000       0.13016799 </v>
   <v>       0.00000000      -0.00000000       0.13016799 </v>
   <v>       0.00000000       0.00000000       0.13016799 </v>
   <v>      -0.00000000       0.00000000       0.13016799 </v>
   <v>      -0.00000000      -0.00000000       0.13016799 </v>
   <v>       0.00000000      -0.00000000       0.13016799 </v>
   <v>      -0.00000000      -0.00000000       0.13016799 </v>
  </varray>
  <varray name="stress" >
   <v>      76.98330398      12.44362953       0.00000000 </v>
   <v>      12.44362939      68.80352581       0.00000000 </v>
   <v>       0.00000000       0.00000000      68.71083437 </v>
  </varray>
  <energy>
   <i name="e_fr_energy">   -365.82026448 </i>
   <i name="e_wo_entrp">   -365.85218864 </i>
   <i name="e_0_energy">   -365.83090587 </i>
  </energy>
  <time name="totalsc">   28.73   29.36</time>
 </calculation>
 <calculation>
  <scstep>
   <time name="dav">    1.28    1.29</time>
   <time name="total">    1.67    1.68</time>
   <energy>
    <i name="alphaZ">    114.63810124 </i>
    <i name="ewald">  -7469.16776015 </i>
    <i name="hartreedc">   -444.73180915 </i>
    <i name="XCdc">   -530.31673832 </i>
    <i name="pawpsdc">  31888.47623019 </i>
    <i name="pawaedc"> -30790.56147806 </i>
    <i name="eentropy">      0.02562835 </i>
    <i name="bandstr">    301.01126878 </i>
    <i name="atom">   6564.79586099 </i>
    <i name="e_fr_energy">   -365.83069613 </i>
    <i name="e_wo_entrp">   -365.85632448 </i>
    <i name="e_0_energy">   -365.83923891 </i>
   </energy>
  </scstep>
  <scstep>
   <time name="diag">    0.13    0.13</time>
   <time name="diis">    0.72    0.72</time>
   <time name="orth">    0.02    0.02</time>
   <time name="total">    1.27    1.28</time>
   <energy>
    <i name="e_fr_energy">   -365.83406934 </i>
    <i name="e_wo_entrp">   -365.85972669 </i>
    <i name="e_0_energy">   -365.84262179 </i>
   </energy>
  </scstep>
  <scstep>
   <time name="diag">    0.13    0.14</time>
   <time name="diis">    0.71    0.71</time>
   <time name="orth">    0.02    0.02</time>
   <time name="total">    1.26    1.27</time>
   <energy>
    <i name="e_fr_energy">   -365.83448552 </i>
    <i name="e_wo_entrp">   -365.86040750 </i>
    <i name="e_0_energy">   -365.84312618 </i>
   </energy>
  </scstep>
  <scstep>
   <time name="diag">    0.13    0.13</time>
   <time name="diis">    0.67    0.72</time>
   <time name="orth">    0.02    0.02</time>
   <time name="total">    1.22    1.28</time>
   <energy>
    <i name="e_fr_energy">   -365.83447015 </i>
    <i name="e_wo_entrp">   -365.86059991 </i>
    <i name="e_0_energy">   -365.84318007 </i>
   </energy>
  </scstep>
  <scstep>
   <time name="diag">    0.13    0.13</time>
   <time name="diis">    0.72    0.72</time>
   <time name="orth">    0.02    0.02</time>
   <time name="total">    1.27    1.29</time>
   <energy>
    <i name="e_fr_energy">   -365.83447651 </i>
    <i name="e_wo_entrp">   -365.86068040 </i>
    <i name="e_0_energy">   -365.84321114 </i>
   </energy>
  </scstep>
  <scstep>
   <time name="diag">    0.13    0.13</time>
   <time name="diis">    0.73    0.73</time>
   <time name="orth">    0.02    0.02</time>
   <time name="total">    1.27    1.29</time>
   <energy>
    <i name="e_fr_energy">   -365.83447949 </i>
    <i name="e_wo_entrp">   -365.86067992 </i>
    <i name="e_0_energy">   -365.84321297 </i>
   </energy>
  </scstep>
  <scstep>
   <time name="diag">    0.13    0.13</time>
   <time name="diis">    0.58    0.58</time>
   <time name="orth">    0.02    0.02</time>
   <time name="total">    1.13    1.15</time>
   <energy>
    <i name="e_fr_energy">   -365.83447990 </i>
    <i name="e_wo_entrp">   -365.86067829 </i>
    <i name="e_0_energy">   -365.84321269 </i>
   </energy>
  </scstep>
  <scstep>
   <time name="diag">    0.13    0.13</time>
   <time name="diis">    0.45    0.45</time>
   <time name="orth">    0.02    0.02</time>
   <time name="total">    0.75    0.77</time>
   <energy>
    <i name="alphaZ">    114.63810124 </i>
    <i name="ewald">  -7469.16776015 </i>
    <i name="hartreedc">   -444.64294659 </i>
    <i name="XCdc">   -530.32988882 </i>
    <i name="pawpsdc">  31872.63573112 </i>
    <i name="pawaedc"> -30774.71384876 </i>
    <i name="eentropy">      0.02619904 </i>
    <i name="bandstr">    300.92407197 </i>
    <i name="atom">   6564.79586099 </i>
    <i name="e_fr_energy">   -365.83447994 </i>
    <i name="e_wo_entrp">   -365.86067899 </i>
    <i name="e_0_energy">   -365.84321296 </i>
   </energy>
  </scstep>
  <structure>
   <crystal>
    <varray name="basis" >
     <v>      10.56385156      -0.05335301       0.00000000 </v>
     <v>      -0.05335301      10.67055658       0.00000000 </v>
     <v>       0.00000000       0.00000000      10.67055658 </v>
    </varray>
    <i name="volume">   1202.77797928 </i>
    <varray name="rec_basis" >
     <v>       0.09466483       0.00047333       0.00000000 </v>
     <v>       0.00047333       0.09371819       0.00000000 </v>
     <v>       0.00000000       0.00000000       0.09371582 </v>
    </varray>
   </crystal>
   <varray name="positions" >
    <v>       1.00000000       0.00000000       0.99941150 </v>
    <v>       1.00000000       1.00000000       0.49941150 </v>
    <v>       0.00000000       0.50000000       0.99941150 </v>
    <v>       0.00000000       0.50000000       0.49941150 </v>
    <v>       0.50000000       0.00000000       0.99941150 </v>
    <v>       0.50000000       0.00000000       0.49941150 </v>
    <v>       0.50000000       0.50000000       0.99941150 </v>
    <v>       0.50000000       0.50000000       0.49941150 </v>
    <v>       0.37500000       0.37500000       0.12558850 </v>
    <v>       0.37500000       0.37500000       0.62558850 </v>
    <v>       0.37500000       0.87500000       0.12558850 </v>
    <v>       0.37500000       0.87500000       0.62558850 </v>
    <v>       0.87500000       0.37500000       0.12558850 </v>
    <v>       0.87500000       0.37500000       0.62558850 </v>
    <v>       0.87500000       0.87500000       0.12558850 </v>
    <v>       0.87500000       0.87500000       0.62558850 </v>
    <v>       0.00000000       0.25000000       0.24941150 </v>
    <v>       1.00000000       0.25000000       0.74941150 </v>
    <v>       1.00000000       0.75000000       0.24941150 </v>
    <v>       1.00000000       0.75000000       0.74941150 </v>
    <v>       0.50000000       0.25000000       0.24941150 </v>
    <v>       0.50000000       0.25000000       0.74941150 </v>
    <v>       0.50000000       0.75000000       0.24941150 </v>
    <v>       0.50000000       0.75000000       0.74941150 </v>
    <v>       0.37500000       0.12500000       0.37558850 </v>
    <v>       0.37500000       0.12500000       0.87558850 </v>
    <v>       0.37500000       0.62500000       0.37558850 </v>
    <v>       0.37500000       0.62500000       0.87558850 </v>
    <v>       0.87500000       0.12500000       0.37558850 </v>
    <v>       0.87500000       0.12500000       0.87558850 </v>
    <v>       0.87500000       0.62500000       0.37558850 </v>
    <v>       0.87500000       0.62500000       0.87558850 </v>
    <v>       0.25000000       0.00000000       0.24941150 </v>
    <v>       0.25000000       0.00000000       0.74941150 </v>
    <v>       0.25000000       0.50000000       0.24941150 </v>
    <v>       0.25000000       0.50000000       0.74941150 </v>
    <v>       0.75000000       0.00000000       0.24941150 </v>
    <v>       0.75000000       0.00000000       0.74941150 </v>
    <v>       0.75000000       0.50000000       0.24941150 </v>
    <v>       0.75000000       0.50000000       0.74941150 </v>
    <v>       0.12500000       0.37500000       0.37558850 </v>
    <v>       0.12500000       0.37500000       0.87558850 </v>
    <v>       0.12500000       0.87500000       0.37558850 </v>
    <v>       0.12500000       0.87500000       0.87558850 </v>
    <v>       0.62500000       0.37500000       0.37558850 </v>
    <v>       0.62500000       0.37500000       0.87558850 </v>
    <v>       0.62500000       0.87500000       0.37558850 </v>
    <v>       0.62500000       0.87500000       0.87558850 </v>
    <v>       0.25000000       0.25000000       0.99941150 </v>
    <v>       0.25000000       0.25000000       0.49941150 </v>
    <v>       0.25000000       0.75000000       0.99941150 </v>
    <v>       0.25000000       0.75000000       0.49941150 </v>
    <v>       0.75000000       0.25000000       0.99941150 </v>
    <v>       0.75000000       0.25000000       0.49941150 </v>
    <v>       0.75000000       0.75000000       0.99941150 </v>
    <v>       0.75000000       0.75000000       0.49941150 </v>
    <v>       0.12500000       0.12500000       0.12558850 </v>
    <v>       0.12500000       0.12500000       0.62558850 </v>
    <v>       0.12500000       0.62500000       0.12558850 </v>
    <v>       0.12500000       0.62500000       0.62558850 </v>
    <v>       0.62500000       0.12500000       0.12558850 </v>
    <v>       0.62500000       0.12500000       0.62558850 </v>
    <v>       0.62500000       0.62500000       0.12558850 </v>
    <v>       0.62500000       0.62500000       0.62558850 </v>
   </varray>
  </structure>
  <varray name="forces" >
   <v>       0.00000000       0.00000000       0.05895913 </v>
   <v>      -0.00000000       0.00000000       0.05895913 </v>
   <v>      -0.00000000      -0.00000000       0.05895913 </v>
   <v>      -0.00000000      -0.00000000       0.05895913 </v>
   <v>       0.00000000       0.00000000       0.05895913 </v>
   <v>       0.00000000       0.00000000       0.05895913 </v>
   <v>       0.00000000      -0.00000000       0.05895913 </v>
   <v>      -0.00000000      -0.00000000       0.05895913 </v>
   <v>       0.00000000      -0.00000000      -0.05895913 </v>
   <v>      -0.00000000       0.00000000      -0.05895913 </v>
   <v>      -0.00000000      -0.00000000      -0.05895913 </v>
   <v>       0.00000000       0.00000000      -0.05895913 </v>
   <v>       0.00000000       0.00000000      -0.05895913 </v>
   <v>      -0.00000000       0.00000000      -0.05895913 </v>
   <v>      -0.00000000      -0.00000000      -0.05895913 </v>
   <v>       0.00000000       0.00000000      -0.05895913 </v>
   <v>       0.00000000       0.00000000       0.05895913 </v>
   <v>      -0.00000000       0.00000000       0.05895913 </v>
   <v>      -0.00000000       0.00000000       0.05895913 </v>
   <v>      -0.00000000      -0.00000000       0.05895913 </v>
   <v>      -0.00000000       0.00000000       0.05895913 </v>
   <v>      -0.00000000       0.00000000       0.05895913 </v>
   <v>       0.00000000      -0.00000000       0.05895913 </v>
   <v>      -0.00000000      -0.00000000       0.05895913 </v>
   <v>       0.00000000      -0.00000000      -0.05895913 </v>
   <v>       0.00000000      -0.00000000      -0.05895913 </v>
   <v>      -0.00000000      -0.00000000      -0.05895913 </v>
   <v>      -0.00000000      -0.00000000      -0.05895913 </v>
   <v>       0.00000000       0.00000000      -0.05895913 </v>
   <v>       0.00000000       0.00000000      -0.05895913 </v>
   <v>      -0.00000000      -0.00000000      -0.05895913 </v>
   <v>      -0.00000000      -0.00000000      -0.05895913 </v>
   <v>       0.00000000       0.00000000       0.05895913 </v>
   <v>       0.00000000       0.00000000       0.05895913 </v>
   <v>      -0.00000000      -0.00000000       0.05895913 </v>
   <v>       0.00000000      -0.00000000       0.05895913 </v>
   <v>      -0.00000000       0.00000000       0.05895913 </v>
   <v>       0.00000000       0.00000000       0.05895913 </v>
   <v>       0.00000000      -0.00000000       0.05895913 </v>
   <v>       0.00000000      -0.00000000       0.05895913 </v>
   <v>      -0.00000000      -0.00000000      -0.05895913 </v>
   <v>       0.00000000       0.00000000      -0.05895913 </v>
   <v>       0.00000000       0.00000000      -0.05895913 </v>
   <v>      -0.00000000       0.00000000      -0.05895913 </v>
   <v>      -0.00000000       0.00000000      -0.05895913 </v>
   <v>       0.00000000      -0.00000000      -0.05895913 </v>
   <v>      -0.00000000       0.00000000      -0.05895913 </v>
   <v>      -0.00000000       0.00000000      -0.05895913 </v>
   <v>       0.00000000      -0.00000000       0.05895913 </v>
   <v>      -0.00000000       0.00000000       0.05895913 </v>
   <v>       0.00000000      -0.00000000       0.05895913 </v>
   <v>      -0.00000000       0.00000000       0.05895913 </v>
   <v>       0.00000000       0.00000000       0.05895913 </v>
   <v>      -0.00000000       0.00000000       0.05895913 </v>
   <v>       0.00000000      -0.00000000       0.05895913 </v>
   <v>       0.00000000       0.00000000       0.05895913 </v>
   <v>       0.00000000      -0.00000000      -0.05895913 </v>
   <v>       0.00000000      -0.00000000      -0.05895913 </v>
   <v>      -0.00000000      -0.00000000      -0.05895913 </v>
   <v>      -0.00000000      -0.00000000      -0.05895913 </v>
   <v>       0.00000000       0.00000000      -0.05895913 </v>
   <v>       0.00000000       0.00000000      -0.05895913 </v>
   <v>      -0.00000000       0.00000000      -0.05895913 </v>
   <v>      -0.00000000      -0.00000000      -0.05895913 </v>
  </varray>
  <varray name="stress" >
   <v>      76.74234884       5.44436734       0.00000000 </v>
   <v>       5.44436722      68.65660029       0.00000000 </v>
   <v>       0.00000000       0.00000000      68.43024924 </v>
  </varray>
  <energy>
   <i name="e_fr_energy">   -365.83447994 </i>
   <i name="e_wo_entrp">   -365.86067899 </i>
   <i name="e_0_energy">   -365.84321296 </i>
  </energy>
  <time name="totalsc">   13.47   13.68</time>
 </calculation>
 <calculation>
  <scstep>
   <time name="dav">    1.27    1.28</time>
   <time name="total">    1.66    1.66</time>
   <energy>
    <i name="alphaZ">    114.63810124 </i>
    <i name="ewald">  -7469.09879507 </i>
    <i name="hartreedc">   -444.68398192 </i>
    <i name="XCdc">   -530.32799307 </i>
    <i name="pawpsdc">  31872.48037020 </i>
    <i name="pawaedc"> -30774.55847671 </i>
    <i name="eentropy">      0.02872889 </i>
    <i name="bandstr">    300.88834441 </i>
    <i name="atom">   6564.79586099 </i>
    <i name="e_fr_energy">   -365.83784104 </i>
    <i name="e_wo_entrp">   -365.86656993 </i>
    <i name="e_0_energy">   -365.84741734 </i>
   </energy>
  </scstep>
  <scstep>
   <time name="diag">    0.13    0.13</time>
   <time name="diis">    0.69    0.70</time>
   <time name="orth">    0.02    0.02</time>
   <time name="total">    1.24    1.26</time>
   <energy>
    <i name="e_fr_energy">   -365.83816660 </i>
    <i name="e_wo_entrp">   -365.86688553 </i>
    <i name="e_0_energy">   -365.84773958 </i>
   </energy>
  </scstep>
  <scstep>
   <time name="diag">    0.13    0.13</time>
   <time name="diis">    0.72    0.74</time>
   <time name="orth">    0.02    0.02</time>
   <time name="total">    1.27    1.31</time>
   <energy>
    <i name="e_fr_energy">   -365.83820534 </i>
    <i name="e_wo_entrp">   -365.86685491 </i>
    <i name="e_0_energy">   -365.84775519 </i>
   </energy>
  </scstep>
  <scstep>
   <time name="diag">    0.13    0.14</time>
   <time name="diis">    0.70    0.71</time>
   <time name="orth">    0.02    0.02</time>
   <time name="total">    1.25    1.27</time>
   <energy>
    <i name="e_fr_energy">   -365.83820402 </i>
    <i name="e_wo_entrp">   -365.86680037 </i>
    <i name="e_0_energy">   -365.84773614 </i>
   </energy>
  </scstep>
  <scstep>
   <time name="diag">    0.13    0.13</time>
   <time name="diis">    0.67    0.67</time>
   <time name="orth">    0.02    0.02</time>
   <time name="total">    1.21    1.23</time>
   <energy>
    <i name="e_fr_energy">   -365.83820464 </i>
    <i name="e_wo_entrp">   -365.86678175 </i>
    <i name="e_0_energy">   -365.84773035 </i>
   </energy>
  </scstep>
  <scstep>
   <time name="diag">    0.13    0.13</time>
   <time name="diis">    0.50    0.51</time>
   <time name="orth">    0.02    0.02</time>
   <time name="total">    1.05    1.07</time>
   <energy>
    <i name="e_fr_energy">   -365.83820486 </i>
    <i name="e_wo_entrp">   -365.86678272 </i>
    <i name="e_0_energy">   -365.84773082 </i>
   </energy>
  </scstep>
  <scstep>
   <time name="diag">    0.13    0.13</time>
   <time name="diis">    0.44    0.44</time>
   <time name="orth">    0.02    0.02</time>
   <time name="total">    0.98    1.01</time>
   <energy>
    <i name="e_fr_energy">   -365.83820492 </i>
    <i name="e_wo_entrp">   -365.86678345 </i>
    <i name="e_0_energy">   -365.84773109 </i>
   </energy>
  </scstep>
  <scstep>
   <time name="diag">    0.13    0.13</time>
   <time name="diis">    0.39    0.39</time>
   <time name="orth">    0.02    0.02</time>
   <time name="total">    0.69    0.71</time>
   <energy>
    <i name="alphaZ">    114.63810124 </i>
    <i name="ewald">  -7469.09879507 </i>
    <i name="hartreedc">   -444.72023484 </i>
    <i name="XCdc">   -530.32313170 </i>
    <i name="pawpsdc">  31876.98257372 </i>
    <i name="pawaedc"> -30779.06285801 </i>
    <i name="eentropy">      0.02857839 </i>
    <i name="bandstr">    300.92170035 </i>
    <i name="atom">   6564.79586099 </i>
    <i name="e_fr_energy">   -365.83820494 </i>
    <i name="e_wo_entrp">   -365.86678333 </i>
    <i name="e_0_energy">   -365.84773107 </i>
   </energy>
  </scstep>
  <structure>
   <crystal>
    <varray name="basis" >
     <v>      10.56385156      -0.05335301       0.00000000 </v>
     <v>      -0.05335301      10.67055658       0.00000000 </v>
     <v>       0.00000000       0.00000000      10.67055658 </v>
    </varray>
    <i name="volume">   1202.77797928 </i>
    <varray name="rec_basis" >
     <v>       0.09466483       0.00047333       0.00000000 </v>
     <v>       0.00047333       0.09371819       0.00000000 </v>
     <v>       0.00000000       0.00000000       0.09371582 </v>
    </varray>
   </crystal>
   <varray name="positions" >
    <v>       0.00000000       0.00000000       0.99959590 </v>
    <v>       0.00000000       0.00000000       0.49959590 </v>
    <v>       0.00000000       0.50000000       0.99959590 </v>
    <v>       0.00000000       0.50000000       0.49959590 </v>
    <v>       0.50000000       0.00000000       0.99959590 </v>
    <v>       0.50000000       0.00000000       0.49959590 </v>
    <v>       0.50000000       0.50000000       0.99959590 </v>
    <v>       0.50000000       0.50000000       0.49959590 </v>
    <v>       0.37500000       0.37500000       0.12540410 </v>
    <v>       0.37500000       0.37500000       0.62540410 </v>
    <v>       0.37500000       0.87500000       0.12540410 </v>
    <v>       0.37500000       0.87500000       0.62540410 </v>
    <v>       0.87500000       0.37500000       0.12540410 </v>
    <v>       0.87500000       0.37500000       0.62540410 </v>
    <v>       0.87500000       0.87500000       0.12540410 </v>
    <v>       0.87500000       0.87500000       0.62540410 </v>
    <v>       0.00000000       0.25000000       0.24959590 </v>
    <v>       0.00000000       0.25000000       0.74959590 </v>
    <v>       0.00000000       0.75000000       0.24959590 </v>
    <v>       0.00000000       0.75000000       0.74959590 </v>
    <v>       0.50000000       0.25000000       0.24959590 </v>
    <v>       0.50000000       0.25000000       0.74959590 </v>
    <v>       0.50000000       0.75000000       0.24959590 </v>
    <v>       0.50000000       0.75000000       0.74959590 </v>
    <v>       0.37500000       0.12500000       0.37540410 </v>
    <v>       0.37500000       0.12500000       0.87540410 </v>
    <v>       0.37500000       0.62500000       0.37540410 </v>
    <v>       0.37500000       0.62500000       0.87540410 </v>
    <v>       0.87500000       0.12500000       0.37540410 </v>
    <v>       0.87500000       0.12500000       0.87540410 </v>
    <v>       0.87500000       0.62500000       0.37540410 </v>
    <v>       0.87500000       0.62500000       0.87540410 </v>
    <v>       0.25000000       0.00000000       0.24959590 </v>
    <v>       0.25000000       0.00000000       0.74959590 </v>
    <v>       0.25000000       0.50000000       0.24959590 </v>
    <v>       0.25000000       0.50000000       0.74959590 </v>
    <v>       0.75000000       0.00000000       0.24959590 </v>
    <v>       0.75000000       0.00000000       0.74959590 </v>
    <v>       0.75000000       0.50000000       0.24959590 </v>
    <v>       0.75000000       0.50000000       0.74959590 </v>
    <v>       0.12500000       0.37500000       0.37540410 </v>
    <v>       0.12500000       0.37500000       0.87540410 </v>
    <v>       0.12500000       0.87500000       0.37540410 </v>
    <v>       0.12500000       0.87500000       0.87540410 </v>
    <v>       0.62500000       0.37500000       0.37540410 </v>
    <v>       0.62500000       0.37500000       0.87540410 </v>
    <v>       0.62500000       0.87500000       0.37540410 </v>
    <v>       0.62500000       0.87500000       0.87540410 </v>
    <v>       0.25000000       0.25000000       0.99959590 </v>
    <v>       0.25000000       0.25000000       0.49959590 </v>
    <v>       0.25000000       0.75000000       0.99959590 </v>
    <v>       0.25000000       0.75000000       0.49959590 </v>
    <v>       0.75000000       0.25000000       0.99959590 </v>
    <v>       0.75000000       0.25000000       0.49959590 </v>
    <v>       0.75000000       0.75000000       0.99959590 </v>
    <v>       0.75000000       0.75000000       0.49959590 </v>
    <v>       0.12500000       0.12500000       0.12540410 </v>
    <v>       0.12500000       0.12500000       0.62540410 </v>
    <v>       0.12500000       0.62500000       0.12540410 </v>
    <v>       0.12500000       0.62500000       0.62540410 </v>
    <v>       0.62500000       0.12500000       0.12540410 </v>
    <v>       0.62500000       0.12500000       0.62540410 </v>
    <v>       0.62500000       0.62500000       0.12540410 </v>
    <v>       0.62500000       0.62500000       0.62540410 </v>
   </varray>
  </structure>
  <varray name="forces" >
   <v>      -0.00000000       0.00000000      -0.00012758 </v>
   <v>      -0.00000000       0.00000000      -0.00012758 </v>
   <v>       0.00000000      -0.00000000      -0.00012758 </v>
   <v>       0.00000000      -0.00000000      -0.00012758 </v>
   <v>       0.00000000       0.00000000      -0.00012758 </v>
   <v>      -0.00000000       0.00000000      -0.00012758 </v>
   <v>       0.00000000      -0.00000000      -0.00012758 </v>
   <v>       0.00000000      -0.00000000      -0.00012758 </v>
   <v>      -0.00000000       0.00000000       0.00012758 </v>
   <v>      -0.00000000      -0.00000000       0.00012758 </v>
   <v>      -0.00000000      -0.00000000       0.00012758 </v>
   <v>       0.00000000      -0.00000000       0.00012758 </v>
   <v>      -0.00000000      -0.00000000       0.00012758 </v>
   <v>      -0.00000000       0.00000000       0.00012758 </v>
   <v>      -0.00000000      -0.00000000       0.00012758 </v>
   <v>       0.00000000      -0.00000000       0.00012758 </v>
   <v>      -0.00000000       0.00000000      -0.00012758 </v>
   <v>      -0.00000000      -0.00000000      -0.00012758 </v>
   <v>      -0.00000000      -0.00000000      -0.00012758 </v>
   <v>      -0.00000000      -0.00000000      -0.00012758 </v>
   <v>       0.00000000       0.00000000      -0.00012758 </v>
   <v>      -0.00000000       0.00000000      -0.00012758 </v>
   <v>       0.00000000      -0.00000000      -0.00012758 </v>
   <v>      -0.00000000      -0.00000000      -0.00012758 </v>
   <v>       0.00000000       0.00000000       0.00012758 </v>
   <v>      -0.00000000       0.00000000       0.00012758 </v>
   <v>       0.00000000      -0.00000000       0.00012758 </v>
   <v>      -0.00000000      -0.00000000       0.00012758 </v>
   <v>       0.00000000       0.00000000       0.00012758 </v>
   <v>       0.00000000       0.00000000       0.00012758 </v>
   <v>      -0.00000000      -0.00000000       0.00012758 </v>
   <v>      -0.00000000      -0.00000000       0.00012758 </v>
   <v>      -0.00000000       0.00000000      -0.00012758 </v>
   <v>      -0.00000000       0.00000000      -0.00012758 </v>
   <v>       0.00000000      -0.00000000      -0.00012758 </v>
   <v>       0.00000000      -0.00000000      -0.00012758 </v>
   <v>      -0.00000000       0.00000000      -0.00012758 </v>
   <v>       0.00000000       0.00000000      -0.00012758 </v>
   <v>       0.00000000      -0.00000000      -0.00012758 </v>
   <v>       0.00000000      -0.00000000      -0.00012758 </v>
   <v>       0.00000000       0.00000000       0.00012758 </v>
   <v>      -0.00000000       0.00000000       0.00012758 </v>
   <v>       0.00000000       0.00000000       0.00012758 </v>
   <v>       0.00000000       0.00000000       0.00012758 </v>
   <v>      -0.00000000       0.00000000       0.00012758 </v>
   <v>      -0.00000000       0.00000000       0.00012758 </v>
   <v>      -0.00000000      -0.00000000       0.00012758 </v>
   <v>      -0.00000000      -0.00000000       0.00012758 </v>
   <v>       0.00000000       0.00000000      -0.00012758 </v>
   <v>      -0.00000000      -0.00000000      -0.00012758 </v>
   <v>      -0.00000000       0.00000000      -0.00012758 </v>
   <v>      -0.00000000      -0.00000000      -0.00012758 </v>
   <v>      -0.00000000      -0.00000000      -0.00012758 </v>
   <v>      -0.00000000       0.00000000      -0.00012758 </v>
   <v>       0.00000000       0.00000000      -0.00012758 </v>
   <v>      -0.00000000      -0.00000000      -0.00012758 </v>
   <v>       0.00000000       0.00000000       0.00012758 </v>
   <v>       0.00000000       0.00000000       0.00012758 </v>
   <v>      -0.00000000      -0.00000000       0.00012758 </v>
   <v>      -0.00000000      -0.00000000       0.00012758 </v>
   <v>       0.00000000       0.00000000       0.00012758 </v>
   <v>       0.00000000       0.00000000       0.00012758 </v>
   <v>      -0.00000000      -0.00000000       0.00012758 </v>
   <v>      -0.00000000      -0.00000000       0.00012758 </v>
  </varray>
  <varray name="stress" >
   <v>      76.82063967       7.64943009       0.00000000 </v>
   <v>       7.64942997      68.69169795       0.00000000 </v>
   <v>       0.00000000       0.00000000      68.52479656 </v>
  </varray>
  <energy>
   <i name="e_fr_energy">   -365.83820494 </i>
   <i name="e_wo_entrp">   -365.86678333 </i>
   <i name="e_0_energy">   -365.84773107 </i>
  </energy>
  <time name="totalsc">   12.75   12.94</time>
  <eigenvalues>
   <array>
    <dimension dim="1">band</dimension>
    <dimension dim="2">kpoint</dimension>
    <dimension dim="3">spin</dimension>
    <field>eigene</field>
    <field>occ</field>
    <set>
     <set comment="spin 1">
      <set comment="kpoint 1">
       <r>   -5.9877    1.0000 </r>
       <r>   -4.8479    1.0000 </r>
       <r>   -4.8479    1.0000 </r>
       <r>   -4.8478    1.0000 </r>
       <r>   -4.8478    1.0000 </r>
       <r>   -4.8278    1.0000 </r>
       <r>   -4.8278    1.0000 </r>
       <r>   -3.8298    1.0000 </r>
       <r>   -3.8298    1.0000 </r>
       <r>   -3.8196    1.0000 </r>
       <r>   -3.8196    1.0000 </r>
       <r>   -3.8196    1.0000 </r>
       <r>   -3.8196    1.0000 </r>
       <r>   -3.8051    1.0000 </r>
       <r>   -3.8051    1.0000 </r>
       <r>   -3.8051    1.0000 </r>
       <r>   -3.8051    1.0000 </r>
       <r>   -3.7802    1.0000 </r>
       <r>   -3.7802    1.0000 </r>
       <r>   -3.4971    1.0000 </r>
       <r>   -3.4971    1.0000 </r>
       <r>   -3.4457    1.0000 </r>
       <r>   -3.4457    1.0000 </r>
       <r>   -1.6272    1.0000 </r>
       <r>   -1.6126    1.0000 </r>
       <r>   -1.6126    1.0000 </r>
       <r>   -1.5991    1.0000 </r>
       <r>   -1.5472    1.0000 </r>
       <r>   -1.5472    1.0000 </r>
       <r>   -1.4306    1.0000 </r>
       <r>   -1.4306    1.0000 </r>
       <r>   -1.4084    1.0000 </r>
       <r>   -1.4084    1.0000 </r>
       <r>   -1.3821    1.0000 </r>
       <r>   -1.3821    1.0000 </r>
       <r>   -1.3821    1.0000 </r>
       <r>   -1.3821    1.0000 </r>
       <r>   -1.3774    1.0000 </r>
       <r>   -1.3774    1.0000 </r>
       <r>   -1.3564    1.0000 </r>
       <r>   -1.3564    1.0000 </r>
       <r>   -0.8903    1.0000 </r>
       <r>   -0.8903    1.0000 </r>
       <r>   -0.8629    1.0000 </r>
       <r>   -0.8629    1.0000 </r>
       <r>    0.8119    1.0000 </r>
       <r>    0.8119    1.0000 </r>
       <r>    0.8215    1.0000 </r>
       <r>    0.8215    1.0000 </r>
       <r>    0.8215    1.0000 </r>
       <r>    0.8215    1.0000 </r>
       <r>    0.8317    1.0000 </r>
       <r>    0.8317    1.0000 </r>
       <r>    0.8611    1.0000 </r>
       <r>    0.8611    1.0000 </r>
       <r>    0.8611    1.0000 </r>
       <r>    0.8611    1.0000 </r>
       <r>    2.2477    1.0000 </r>
       <r>    2.2477    1.0000 </r>
       <r>    2.2541    1.0000 </r>
       <r>    2.2541    1.0000 </r>
       <r>    2.2680    1.0000 </r>
       <r>    2.2680    1.0000 </r>
       <r>    2.2680    1.0000 </r>
       <r>    2.2680    1.0000 </r>
       <r>    2.2745    1.0000 </r>
       <r>    2.2745    1.0000 </r>
       <r>    2.2822    1.0000 </r>
       <r>    2.2822    1.0000 </r>
       <r>    2.3673    1.0000 </r>
       <r>    2.3673    1.0000 </r>
       <r>    2.3778    1.0000 </r>
       <r>    2.3778    1.0000 </r>
       <r>    2.3778    1.0000 </r>
       <r>    2.3778    1.0000 </r>
       <r>    2.3862    1.0000 </r>
       <r>    2.3862    1.0000 </r>
       <r>    2.4372    1.0000 </r>
       <r>    2.4372    1.0000 </r>
       <r>    2.4372    1.0000 </r>
       <r>    2.4372    1.0000 </r>
       <r>    2.9138    1.0000 </r>
       <r>    2.9138    1.0000 </r>
       <r>    2.9149    1.0000 </r>
       <r>    2.9149    1.0000 </r>
       <r>    2.9911    1.0000 </r>
       <r>    2.9912    1.0000 </r>
       <r>    3.3533    1.0000 </r>
       <r>    3.3533    1.0000 </r>
       <r>    3.3621    1.0000 </r>
       <r>    3.4351    1.0000 </r>
       <r>    3.4351    1.0000 </r>
       <r>    3.5092    1.0000 </r>
       <r>    4.3732    1.0000 </r>
       <r>    4.3732    1.0000 </r>
       <r>    4.3802    1.0000 </r>
       <r>    4.3802    1.0000 </r>
       <r>    4.3808    1.0000 </r>
       <r>    4.3808    1.0000 </r>
       <r>    4.4323    1.0000 </r>
       <r>    4.4323    1.0000 </r>
       <r>    4.4552    1.0000 </r>
       <r>    4.4552    1.0000 </r>
       <r>    4.5154    1.0000 </r>
       <r>    4.5154    1.0000 </r>
       <r>    4.9865    1.0000 </r>
       <r>    4.9865    1.0000 </r>
       <r>    4.9865    1.0000 </r>
       <r>    4.9865    1.0000 </r>
       <r>    5.0185    1.0000 </r>
       <r>    5.0185    1.0000 </r>
       <r>    5.0708    1.0000 </r>
       <r>    5.0708    1.0000 </r>
       <r>    5.0708    1.0000 </r>
       <r>    5.0708    1.0000 </r>
       <r>    5.1183    1.0000 </r>
       <r>    5.1183    1.0000 </r>
       <r>    5.1249    1.0000 </r>
       <r>    5.1249    1.0000 </r>
       <r>    5.1602    1.0000 </r>
       <r>    5.1602    1.0000 </r>
       <r>    5.2075    1.0000 </r>
       <r>    5.2075    1.0000 </r>
       <r>    5.2892    1.0000 </r>
       <r>    5.2892    1.0000 </r>
       <r>    6.3966    1.0326 </r>
       <r>    6.4283    1.0354 </r>
       <r>    6.5345    0.9549 </r>
       <r>    6.8531   -0.0126 </r>
       <r>    6.8531   -0.0126 </r>
       <r>    6.8559   -0.0149 </r>
       <r>    6.9363   -0.0342 </r>
       <r>    6.9363   -0.0342 </r>
       <r>    7.0174   -0.0173 </r>
       <r>    7.3676   -0.0000 </r>
       <r>    7.3676   -0.0000 </r>
       <r>    7.4481   -0.0000 </r>
       <r>    7.4481   -0.0000 </r>
       <r>    7.4497   -0.0000 </r>
       <r>    7.4497   -0.0000 </r>
       <r>    8.0855   -0.0000 </r>
       <r>    8.0855   -0.0000 </r>
       <r>    8.1879   -0.0000 </r>
       <r>    8.1879   -0.0000 </r>
       <r>    8.7762   -0.0000 </r>
       <r>    8.7762   -0.0000 </r>
       <r>    8.7762   -0.0000 </r>
       <r>    8.7762   -0.0000 </r>
       <r>    8.8169   -0.0000 </r>
       <r>    8.8169   -0.0000 </r>
       <r>    8.8733   -0.0000 </r>
       <r>    8.8733   -0.0000 </r>
       <r>    8.8733   -0.0000 </r>
       <r>    8.8733   -0.0000 </r>
       <r>    8.9269   -0.0000 </r>
       <r>    8.9306   -0.0000 </r>
       <r>    8.9306   -0.0000 </r>
       <r>    8.9966   -0.0000 </r>
       <r>    9.0476   -0.0000 </r>
       <r>    9.4347   -0.0000 </r>
       <r>    9.4398   -0.0000 </r>
       <r>    9.4528   -0.0000 </r>
      </set>
      <set comment="kpoint 2">
       <r>   -5.6951    1.0000 </r>
       <r>   -5.6951    1.0000 </r>
       <r>   -4.5926    1.0000 </r>
       <r>   -4.5926    1.0000 </r>
       <r>   -4.5799    1.0000 </r>
       <r>   -4.5799    1.0000 </r>
       <r>   -4.5799    1.0000 </r>
       <r>   -4.5799    1.0000 </r>
       <r>   -4.5668    1.0000 </r>
       <r>   -4.5668    1.0000 </r>
       <r>   -3.6813    1.0000 </r>
       <r>   -3.6813    1.0000 </r>
       <r>   -3.6813    1.0000 </r>
       <r>   -3.6813    1.0000 </r>
       <r>   -3.6498    1.0000 </r>
       <r>   -3.6498    1.0000 </r>
       <r>   -3.6498    1.0000 </r>
       <r>   -3.6498    1.0000 </r>
       <r>   -3.4207    1.0000 </r>
       <r>   -3.4207    1.0000 </r>
       <r>   -2.6750    1.0000 </r>
       <r>   -2.6750    1.0000 </r>
       <r>   -2.6427    1.0000 </r>
       <r>   -2.6427    1.0000 </r>
       <r>   -2.6427    1.0000 </r>
       <r>   -2.6427    1.0000 </r>
       <r>   -2.6103    1.0000 </r>
       <r>   -2.6103    1.0000 </r>
       <r>   -1.5347    1.0000 </r>
       <r>   -1.5347    1.0000 </r>
       <r>   -1.5333    1.0000 </r>
       <r>   -1.5333    1.0000 </r>
       <r>   -1.4967    1.0000 </r>
       <r>   -1.4967    1.0000 </r>
       <r>   -1.4943    1.0000 </r>
       <r>   -1.4943    1.0000 </r>
       <r>   -0.2939    1.0000 </r>
       <r>   -0.2939    1.0000 </r>
       <r>   -0.2875    1.0000 </r>
       <r>   -0.2875    1.0000 </r>
       <r>   -0.2875    1.0000 </r>
       <r>   -0.2875    1.0000 </r>
       <r>   -0.2821    1.0000 </r>
       <r>   -0.2821    1.0000 </r>
       <r>   -0.2204    1.0000 </r>
       <r>   -0.2204    1.0000 </r>
       <r>   -0.2204    1.0000 </r>
       <r>   -0.2204    1.0000 </r>
       <r>   -0.1782    1.0000 </r>
       <r>   -0.1782    1.0000 </r>
       <r>   -0.1782    1.0000 </r>
       <r>   -0.1782    1.0000 </r>
       <r>    0.6576    1.0000 </r>
       <r>    0.6576    1.0000 </r>
       <r>    1.8470    1.0000 </r>
       <r>    1.8470    1.0000 </r>
       <r>    1.8520    1.0000 </r>
       <r>    1.8520    1.0000 </r>
       <r>    1.8520    1.0000 </r>
       <r>    1.8520    1.0000 </r>
       <r>    1.8565    1.0000 </r>
       <r>    1.8565    1.0000 </r>
       <r>    2.0608    1.0000 </r>
       <r>    2.0608    1.0000 </r>
       <r>    2.0746    1.0000 </r>
       <r>    2.0746    1.0000 </r>
       <r>    2.0746    1.0000 </r>
       <r>    2.0746    1.0000 </r>
       <r>    2.0918    1.0000 </r>
       <r>    2.0918    1.0000 </r>
       <r>    2.7188    1.0000 </r>
       <r>    2.7188    1.0000 </r>
       <r>    2.7624    1.0000 </r>
       <r>    2.7624    1.0000 </r>
       <r>    2.7724    1.0000 </r>
       <r>    2.7724    1.0000 </r>
       <r>    2.8169    1.0000 </r>
       <r>    2.8169    1.0000 </r>
       <r>    3.4984    1.0000 </r>
       <r>    3.4984    1.0000 </r>
       <r>    3.5156    1.0000 </r>
       <r>    3.5156    1.0000 </r>
       <r>    3.5156    1.0000 </r>
       <r>    3.5156    1.0000 </r>
       <r>    3.5296    1.0000 </r>
       <r>    3.5296    1.0000 </r>
       <r>    3.6151    1.0000 </r>
       <r>    3.6151    1.0000 </r>
       <r>    3.6152    1.0000 </r>
       <r>    3.6152    1.0000 </r>
       <r>    3.6593    1.0000 </r>
       <r>    3.6593    1.0000 </r>
       <r>    3.6979    1.0000 </r>
       <r>    3.6979    1.0000 </r>
       <r>    3.6979    1.0000 </r>
       <r>    3.6979    1.0000 </r>
       <r>    3.7372    1.0000 </r>
       <r>    3.7372    1.0000 </r>
       <r>    3.8563    1.0000 </r>
       <r>    3.8563    1.0000 </r>
       <r>    3.8563    1.0000 </r>
       <r>    3.8563    1.0000 </r>
       <r>    3.9365    1.0000 </r>
       <r>    3.9365    1.0000 </r>
       <r>    3.9365    1.0000 </r>
       <r>    3.9365    1.0000 </r>
       <r>    4.9127    1.0000 </r>
       <r>    4.9127    1.0000 </r>
       <r>    4.9407    1.0000 </r>
       <r>    4.9407    1.0000 </r>
       <r>    4.9407    1.0000 </r>
       <r>    4.9407    1.0000 </r>
       <r>    4.9698    1.0000 </r>
       <r>    4.9698    1.0000 </r>
       <r>    5.0476    1.0000 </r>
       <r>    5.0476    1.0000 </r>
       <r>    5.0476    1.0000 </r>
       <r>    5.0476    1.0000 </r>
       <r>    5.0750    1.0000 </r>
       <r>    5.0750    1.0000 </r>
       <r>    5.0750    1.0000 </r>
       <r>    5.0750    1.0000 </r>
       <r>    5.2076    1.0000 </r>
       <r>    5.2076    1.0000 </r>
       <r>    5.5435    1.0000 </r>
       <r>    5.5435    1.0000 </r>
       <r>    5.5515    1.0000 </r>
       <r>    5.5515    1.0000 </r>
       <r>    6.7842    0.0976 </r>
       <r>    6.7842    0.0976 </r>
       <r>    7.7189   -0.0000 </r>
       <r>    7.7189   -0.0000 </r>
       <r>    8.2263   -0.0000 </r>
       <r>    8.2263   -0.0000 </r>
       <r>    8.3139   -0.0000 </r>
       <r>    8.3139   -0.0000 </r>
       <r>    8.3368   -0.0000 </r>
       <r>    8.3368   -0.0000 </r>
       <r>    8.3482   -0.0000 </r>
       <r>    8.3482   -0.0000 </r>
       <r>    8.4251   -0.0000 </r>
       <r>    8.4251   -0.0000 </r>
       <r>    8.7823   -0.0000 </r>
       <r>    8.7823   -0.0000 </r>
       <r>    8.7823   -0.0000 </r>
[...]
      </set>
     </set>
    </set>
   </array>
  </eigenvalues>
  <separator name="orbital magnetization" >
   <v name="MAGDIPOLOUT">      0.00000000      0.00000000      0.00000000</v>
  </separator>
  <dos>
   <i name="efermi">      6.67168457 </i>
   <total>
    <array>
     <dimension dim="1">gridpoints</dimension>
     <dimension dim="2">spin</dimension>
     <field>energy</field>
     <field>total</field>
     <field>integrated</field>
     <set>
      <set comment="spin 1">
       <r>    -7.9877     0.0000     0.0000 </r>
       <r>    -7.9213     0.0000     0.0000 </r>
       <r>    -7.8549     0.0000     0.0000 </r>
       <r>    -7.7885     0.0000     0.0000 </r>
       <r>    -7.7221     0.0000     0.0000 </r>
       <r>    -7.6556     0.0000     0.0000 </r>
       <r>    -7.5892    -0.0000    -0.0000 </r>
       <r>    -7.5228    -0.0000    -0.0000 </r>
       <r>    -7.4564    -0.0000    -0.0000 </r>
       <r>    -7.3900    -0.0000    -0.0000 </r>
       <r>    -7.3236    -0.0000    -0.0000 </r>
       <r>    -7.2572    -0.0000    -0.0000 </r>
       <r>    -7.1908    -0.0000    -0.0000 </r>
       <r>    -7.1243    -0.0000    -0.0000 </r>
       <r>    -7.0579    -0.0000    -0.0000 </r>
       <r>    -6.9915    -0.0000    -0.0000 </r>
       <r>    -6.9251    -0.0000    -0.0000 </r>
       <r>    -6.8587    -0.0000    -0.0000 </r>
       <r>    -6.7923    -0.0000    -0.0000 </r>
       <r>    -6.7259    -0.0000    -0.0000 </r>
       <r>    -6.6595    -0.0000    -0.0000 </r>
       <r>    -6.5930    -0.0003    -0.0000 </r>
       <r>    -6.5266    -0.0014    -0.0001 </r>
       <r>    -6.4602    -0.0061    -0.0005 </r>
       <r>    -6.3938    -0.0195    -0.0018 </r>
       <r>    -6.3274    -0.0437    -0.0047 </r>
       <r>    -6.2610    -0.0588    -0.0086 </r>
       <r>    -6.1946    -0.0055    -0.0090 </r>
       <r>    -6.1281     0.1744     0.0026 </r>
       <r>    -6.0617     0.4351     0.0315 </r>
       <r>    -5.9953     0.6388     0.0739 </r>
       <r>    -5.9289     0.8448     0.1300 </r>
       <r>    -5.8625     1.5103     0.2303 </r>
       <r>    -5.7961     2.9826     0.4284 </r>
       <r>    -5.7297     4.7106     0.7413 </r>
       <r>    -5.6633     5.6821     1.1186 </r>
       <r>    -5.5968     6.0417     1.5199 </r>
       <r>    -5.5304     7.2633     2.0023 </r>
       <r>    -5.4640     9.8159     2.6542 </r>
       <r>    -5.3976    11.7957     3.4375 </r>
       <r>    -5.3312    11.3324     4.1902 </r>
       <r>    -5.2648     9.3251     4.8095 </r>
       <r>    -5.1984     8.0085     5.3413 </r>
       <r>    -5.1320     7.6939     5.8523 </r>
       <r>    -5.0655     6.9500     6.3139 </r>
       <r>    -4.9991     5.3911     6.6719 </r>
       <r>    -4.9327     4.2016     6.9510 </r>
       <r>    -4.8663     4.1763     7.2283 </r>
       <r>    -4.7999     5.3335     7.5825 </r>
       <r>    -4.7335     8.4272     8.1422 </r>
       <r>    -4.6671    14.2995     9.0919 </r>
       <r>    -4.6006    21.1283    10.4951 </r>
       <r>    -4.5342    25.2671    12.1732 </r>
       <r>    -4.4678    25.9748    13.8982 </r>
       <r>    -4.4014    25.9659    15.6227 </r>
       <r>    -4.3350    26.0116    17.3502 </r>
       <r>    -4.2686    23.0597    18.8817 </r>
       <r>    -4.2022    15.4382    19.9070 </r>
       <r>    -4.1358     6.2311    20.3208 </r>
       <r>    -4.0693    -0.0844    20.3152 </r>
       <r>    -4.0029    -1.5500    20.2123 </r>
       <r>    -3.9365     1.5443    20.3148 </r>
       <r>    -3.8701     8.3117    20.8668 </r>
       <r>    -3.8037    17.2984    22.0157 </r>
       <r>    -3.7373    25.8034    23.7294 </r>
       <r>    -3.6709    30.3676    25.7462 </r>
       <r>    -3.6045    28.8975    27.6653 </r>
       <r>    -3.5380    22.7143    29.1739 </r>
       <r>    -3.4716    15.9703    30.2345 </r>
       <r>    -3.4052    12.8931    31.0908 </r>
       <r>    -3.3388    15.6422    32.1296 </r>
       <r>    -3.2724    23.3872    33.6828 </r>
       <r>    -3.2060    32.3993    35.8346 </r>
       <r>    -3.1396    38.3027    38.3784 </r>
       <r>    -3.0731    39.3331    40.9906 </r>
       <r>    -3.0067    36.9263    43.4430 </r>
       <r>    -2.9403    33.1453    45.6443 </r>
       <r>    -2.8739    28.9284    47.5655 </r>
       <r>    -2.8075    25.3622    49.2499 </r>
       <r>    -2.7411    24.1962    50.8568 </r>
       <r>    -2.6747    24.9084    52.5111 </r>
       <r>    -2.6083    23.5888    54.0777 </r>
       <r>    -2.5418    17.4766    55.2384 </r>
       <r>    -2.4754     8.7597    55.8201 </r>
       <r>    -2.4090     1.8299    55.9416 </r>
       <r>    -2.3426    -1.3914    55.8492 </r>
       <r>    -2.2762    -1.8417    55.7269 </r>
       <r>    -2.2098    -0.6249    55.6854 </r>
       <r>    -2.1434     2.3030    55.8384 </r>
       <r>    -2.0770     6.7927    56.2895 </r>
       <r>    -2.0105    10.8778    57.0119 </r>
       <r>    -1.9441    11.6819    57.7878 </r>
       <r>    -1.8777     8.3579    58.3428 </r>
       <r>    -1.8113     3.4695    58.5733 </r>
       <r>    -1.7449     1.2175    58.6541 </r>
       <r>    -1.6785     4.7309    58.9683 </r>
       <r>    -1.6121    14.2792    59.9166 </r>
       <r>    -1.5456    26.4127    61.6708 </r>
       <r>    -1.4792    34.9845    63.9942 </r>
       <r>    -1.4128    34.9717    66.3168 </r>
       <r>    -1.3464    26.3980    68.0700 </r>
       <r>    -1.2800    14.2913    69.0191 </r>
       <r>    -1.2136     4.8215    69.3393 </r>
       <r>    -1.1472     1.5492    69.4422 </r>
       <r>    -1.0808     4.2228    69.7226 </r>
       <r>    -1.0143     9.5342    70.3558 </r>
       <r>    -0.9479    13.1414    71.2286 </r>
       <r>    -0.8815    12.8193    72.0800 </r>
       <r>    -0.8151    10.7096    72.7912 </r>
       <r>    -0.7487    11.4339    73.5506 </r>
       <r>    -0.6823    16.5609    74.6505 </r>
       <r>    -0.6159    21.6019    76.0851 </r>
       <r>    -0.5494    20.7728    77.4647 </r>
       <r>    -0.4830    15.0900    78.4669 </r>
       <r>    -0.4166    13.3034    79.3504 </r>
       <r>    -0.3502    23.1751    80.8895 </r>
       <r>    -0.2838    42.4945    83.7117 </r>
       <r>    -0.2174    59.5253    87.6650 </r>
       <r>    -0.1510    62.5211    91.8172 </r>
       <r>    -0.0846    49.2111    95.0854 </r>
       <r>    -0.0181    27.6650    96.9228 </r>
       <r>     0.0483     8.8153    97.5082 </r>
       <r>     0.1147    -1.0341    97.4395 </r>
       <r>     0.1811    -1.2943    97.3536 </r>
       <r>     0.2475     5.7274    97.7339 </r>
       <r>     0.3139    15.9315    98.7920 </r>
       <r>     0.3803    23.4893   100.3520 </r>
       <r>     0.4467    23.9174   101.9404 </r>
       <r>     0.5132    17.9636   103.1334 </r>
       <r>     0.5796    10.5780   103.8360 </r>
       <r>     0.6460     6.2913   104.2538 </r>
       <r>     0.7124     7.0168   104.7198 </r>
       <r>     0.7788    12.7663   105.5676 </r>
       <r>     0.8452    21.6677   107.0067 </r>
       <r>     0.9116    29.4014   108.9593 </r>
       <r>     0.9781    31.0247   111.0197 </r>
       <r>     1.0445    24.8829   112.6723 </r>
       <r>     1.1109    14.3704   113.6267 </r>
       <r>     1.1773     4.9990   113.9587 </r>
       <r>     1.2437    -0.1006   113.9520 </r>
       <r>     1.3101    -1.4919   113.8529 </r>
       <r>     1.3765    -1.3637   113.7623 </r>
       <r>     1.4429    -1.3152   113.6750 </r>
       <r>     1.5094    -1.6012   113.5687 </r>
       <r>     1.5758    -1.0627   113.4981 </r>
       <r>     1.6422     2.5529   113.6676 </r>
       <r>     1.7086    10.8850   114.3905 </r>
       <r>     1.7750    22.2795   115.8702 </r>
       <r>     1.8414    31.6226   117.9703 </r>
       <r>     1.9078    34.7753   120.2799 </r>
       <r>     1.9742    32.8520   122.4617 </r>
       <r>     2.0407    30.1437   124.4636 </r>
       <r>     2.1071    28.7476   126.3728 </r>
       <r>     2.1735    27.9396   128.2284 </r>
       <r>     2.2399    27.3365   130.0439 </r>
       <r>     2.3063    26.9384   131.8329 </r>
       <r>     2.3727    25.1113   133.5007 </r>
       <r>     2.4391    20.5885   134.8680 </r>
       <r>     2.5056    16.9078   135.9909 </r>
       <r>     2.5720    21.7825   137.4375 </r>
       <r>     2.6384    39.6820   140.0729 </r>
       <r>     2.7048    64.8701   144.3812 </r>
       <r>     2.7712    83.1057   149.9005 </r>
       <r>     2.8376    82.1954   155.3593 </r>
       <r>     2.9040    62.1043   159.4839 </r>
       <r>     2.9704    34.4012   161.7686 </r>
       <r>     3.0369    11.8118   162.5530 </r>
       <r>     3.1033    -0.6089   162.5126 </r>
       <r>     3.1697    -4.8254   162.1921 </r>
       <r>     3.2361    -3.5084   161.9591 </r>
       <r>     3.3025     3.8346   162.2138 </r>
       <r>     3.3689    18.7706   163.4604 </r>
       <r>     3.4353    39.0099   166.0511 </r>
       <r>     3.5017    57.4766   169.8683 </r>
       <r>     3.5682    67.8786   174.3764 </r>
       <r>     3.6346    69.8675   179.0165 </r>
       <r>     3.7010    66.9787   183.4647 </r>
       <r>     3.7674    61.3645   187.5402 </r>
       <r>     3.8338    53.1839   191.0723 </r>
       <r>     3.9002    44.3097   194.0150 </r>
       <r>     3.9666    39.4405   196.6344 </r>
       <r>     4.0331    41.2508   199.3740 </r>
       <r>     4.0995    45.3425   202.3853 </r>
       <r>     4.1659    43.4906   205.2736 </r>
       <r>     4.2323    33.1925   207.4781 </r>
       <r>     4.2987    21.3030   208.8929 </r>
       <r>     4.3651    16.6364   209.9977 </r>
       <r>     4.4315    21.0736   211.3973 </r>
       <r>     4.4979    29.3361   213.3456 </r>
       <r>     4.5644    35.6100   215.7106 </r>
       <r>     4.6308    38.2369   218.2500 </r>
       <r>     4.6972    38.5739   220.8118 </r>
       <r>     4.7636    38.1481   223.3453 </r>
       <r>     4.8300    38.2560   225.8860 </r>
       <r>     4.8964    40.2934   228.5621 </r>
       <r>     4.9628    44.5508   231.5208 </r>
       <r>     5.0293    49.1427   234.7845 </r>
       <r>     5.0957    50.6068   238.1455 </r>
       <r>     5.1621    45.7211   241.1820 </r>
       <r>     5.2285    34.0322   243.4421 </r>
       <r>     5.2949    19.3837   244.7295 </r>
       <r>     5.3613     8.1167   245.2685 </r>
       <r>     5.4277     4.9520   245.5974 </r>
       <r>     5.4941     9.9646   246.2592 </r>
       <r>     5.5606    18.5122   247.4886 </r>
       <r>     5.6270    24.1384   249.0917 </r>
       <r>     5.6934    22.9412   250.6153 </r>
       <r>     5.7598    15.9889   251.6772 </r>
       <r>     5.8262     7.6245   252.1836 </r>
       <r>     5.8926     1.8757   252.3082 </r>
       <r>     5.9590     0.5058   252.3417 </r>
       <r>     6.0254     3.1092   252.5482 </r>
       <r>     6.0919     7.6038   253.0532 </r>
       <r>     6.1583    10.9784   253.7823 </r>
       <r>     6.2247    11.1113   254.5203 </r>
       <r>     6.2911     8.4213   255.0796 </r>
       <r>     6.3575     5.1577   255.4221 </r>
       <r>     6.4239     3.0112   255.6221 </r>
       <r>     6.4903     1.9630   255.7525 </r>
       <r>     6.5568     1.3112   255.8395 </r>
       <r>     6.6232     1.0782   255.9111 </r>
       <r>     6.6896     2.1133   256.0515 </r>
       <r>     6.7560     4.9236   256.3785 </r>
       <r>     6.8224     8.5131   256.9439 </r>
       <r>     6.8888    10.6899   257.6538 </r>
       <r>     6.9552     9.8816   258.3101 </r>
       <r>     7.0216     6.5485   258.7450 </r>
       <r>     7.0881     2.6638   258.9219 </r>
       <r>     7.1545     0.2512   258.9386 </r>
       <r>     7.2209     0.6569   258.9822 </r>
       <r>     7.2873     4.2895   259.2671 </r>
       <r>     7.3537     9.8829   259.9234 </r>
       <r>     7.4201    14.3747   260.8781 </r>
       <r>     7.4865    15.1843   261.8865 </r>
       <r>     7.5529    13.3675   262.7743 </r>
       <r>     7.6194    13.3252   263.6593 </r>
       <r>     7.6858    17.9661   264.8525 </r>
       <r>     7.7522    24.5392   266.4822 </r>
       <r>     7.8186    26.8038   268.2623 </r>
       <r>     7.8850    21.6390   269.6994 </r>
       <r>     7.9514    12.5541   270.5332 </r>
       <r>     8.0178     6.7689   270.9827 </r>
       <r>     8.0843     9.6854   271.6260 </r>
       <r>     8.1507    21.2772   273.0390 </r>
       <r>     8.2171    35.8455   275.4197 </r>
       <r>     8.2835    45.1913   278.4210 </r>
       <r>     8.3499    44.0424   281.3459 </r>
       <r>     8.4163    34.2166   283.6184 </r>
       <r>     8.4827    23.6386   285.1883 </r>
       <r>     8.5491    20.2749   286.5348 </r>
       <r>     8.6156    26.5423   288.2976 </r>
       <r>     8.6820    39.6287   290.9294 </r>
       <r>     8.7484    55.5078   294.6159 </r>
       <r>     8.8148    70.0551   299.2685 </r>
       <r>     8.8812    77.4768   304.4139 </r>
       <r>     8.9476    72.4579   309.2261 </r>
       <r>     9.0140    55.8542   312.9355 </r>
       <r>     9.0804    35.5963   315.2996 </r>
       <r>     9.1469    20.1609   316.6385 </r>
       <r>     9.2133    12.6967   317.4818 </r>
       <r>     9.2797    11.8597   318.2694 </r>
       <r>     9.3461    15.0538   319.2692 </r>
       <r>     9.4125    18.9333   320.5266 </r>
       <r>     9.4789    19.6247   321.8299 </r>
       <r>     9.5453    15.4452   322.8557 </r>
       <r>     9.6118     8.5915   323.4263 </r>
       <r>     9.6782     2.7946   323.6119 </r>
       <r>     9.7446     0.0260   323.6136 </r>
       <r>     9.8110    -0.1267   323.6052 </r>
       <r>     9.8774     0.8873   323.6641 </r>
       <r>     9.9438     1.7576   323.7809 </r>
       <r>    10.0102     1.8289   323.9023 </r>
       <r>    10.0766     1.2176   323.9832 </r>
       <r>    10.1431     0.4758   324.0148 </r>
       <r>    10.2095     0.0217   324.0162 </r>
       <r>    10.2759    -0.1089   324.0090 </r>
       <r>    10.3423    -0.0835   324.0034 </r>
       <r>    10.4087    -0.0371   324.0010 </r>
       <r>    10.4751    -0.0116   324.0002 </r>
       <r>    10.5415    -0.0027   324.0000 </r>
       <r>    10.6079    -0.0005   324.0000 </r>
       <r>    10.6744    -0.0001   324.0000 </r>
       <r>    10.7408    -0.0000   324.0000 </r>
       <r>    10.8072    -0.0000   324.0000 </r>
       <r>    10.8736    -0.0000   324.0000 </r>
       <r>    10.9400    -0.0000   324.0000 </r>
       <r>    11.0064    -0.0000   324.0000 </r>
       <r>    11.0728    -0.0000   324.0000 </r>
       <r>    11.1393    -0.0000   324.0000 </r>
       <r>    11.2057    -0.0000   324.0000 </r>
       <r>    11.2721     0.0000   324.0000 </r>
       <r>    11.3385     0.0000   324.0000 </r>
       <r>    11.4049     0.0000   324.0000 </r>
       <r>    11.4713     0.0000   324.0000 </r>
       <r>    11.5377     0.0000   324.0000 </r>
       <r>    11.6041     0.0000   324.0000 </r>
       <r>    11.6706     0.0000   324.0000 </r>
       <r>    11.7370     0.0000   324.0000 </r>
       <r>    11.8034     0.0000   324.0000 </r>
       <r>    11.8698     0.0000   324.0000 </r>
       <r>    11.9362     0.0000   324.0000 </r>
      </set>
     </set>
    </array>
   </total>
  </dos>
 </calculation>
 <structure name="finalpos" >
  <crystal>
   <varray name="basis" >
    <v>      10.56385156      -0.05335301       0.00000000 </v>
    <v>      -0.05335301      10.67055658       0.00000000 </v>
    <v>       0.00000000       0.00000000      10.67055658 </v>
   </varray>
   <i name="volume">   1202.77797928 </i>
   <varray name="rec_basis" >
    <v>       0.09466483       0.00047333       0.00000000 </v>
    <v>       0.00047333       0.09371819       0.00000000 </v>
    <v>       0.00000000       0.00000000       0.09371582 </v>
   </varray>
  </crystal>
  <varray name="positions" >
   <v>       0.00000000       0.00000000       0.99959590 </v>
   <v>       0.00000000       0.00000000       0.49959590 </v>
   <v>       0.00000000       0.50000000       0.99959590 </v>
   <v>       0.00000000       0.50000000       0.49959590 </v>
   <v>       0.50000000       0.00000000       0.99959590 </v>
   <v>       0.50000000       0.00000000       0.49959590 </v>
   <v>       0.50000000       0.50000000       0.99959590 </v>
   <v>       0.50000000       0.50000000       0.49959590 </v>
   <v>       0.37500000       0.37500000       0.12540410 </v>
   <v>       0.37500000       0.37500000       0.62540410 </v>
   <v>       0.37500000       0.87500000       0.12540410 </v>
   <v>       0.37500000       0.87500000       0.62540410 </v>
   <v>       0.87500000       0.37500000       0.12540410 </v>
   <v>       0.87500000       0.37500000       0.62540410 </v>
   <v>       0.87500000       0.87500000       0.12540410 </v>
   <v>       0.87500000       0.87500000       0.62540410 </v>
   <v>       0.00000000       0.25000000       0.24959590 </v>
   <v>       0.00000000       0.25000000       0.74959590 </v>
   <v>       0.00000000       0.75000000       0.24959590 </v>
   <v>       0.00000000       0.75000000       0.74959590 </v>
   <v>       0.50000000       0.25000000       0.24959590 </v>
   <v>       0.50000000       0.25000000       0.74959590 </v>
   <v>       0.50000000       0.75000000       0.24959590 </v>
   <v>       0.50000000       0.75000000       0.74959590 </v>
   <v>       0.37500000       0.12500000       0.37540410 </v>
   <v>       0.37500000       0.12500000       0.87540410 </v>
   <v>       0.37500000       0.62500000       0.37540410 </v>
   <v>       0.37500000       0.62500000       0.87540410 </v>
   <v>       0.87500000       0.12500000       0.37540410 </v>
   <v>       0.87500000       0.12500000       0.87540410 </v>
   <v>       0.87500000       0.62500000       0.37540410 </v>
   <v>       0.87500000       0.62500000       0.87540410 </v>
   <v>       0.25000000       0.00000000       0.24959590 </v>
   <v>       0.25000000       0.00000000       0.74959590 </v>
   <v>       0.25000000       0.50000000       0.24959590 </v>
   <v>       0.25000000       0.50000000       0.74959590 </v>
   <v>       0.75000000       0.00000000       0.24959590 </v>
   <v>       0.75000000       0.00000000       0.74959590 </v>
   <v>       0.75000000       0.50000000       0.24959590 </v>
   <v>       0.75000000       0.50000000       0.74959590 </v>
   <v>       0.12500000       0.37500000       0.37540410 </v>
   <v>       0.12500000       0.37500000       0.87540410 </v>
   <v>       0.12500000       0.87500000       0.37540410 </v>
   <v>       0.12500000       0.87500000       0.87540410 </v>
   <v>       0.62500000       0.37500000       0.37540410 </v>
   <v>       0.62500000       0.37500000       0.87540410 </v>
   <v>       0.62500000       0.87500000       0.37540410 </v>
   <v>       0.62500000       0.87500000       0.87540410 </v>
   <v>       0.25000000       0.25000000       0.99959590 </v>
   <v>       0.25000000       0.25000000       0.49959590 </v>
   <v>       0.25000000       0.75000000       0.99959590 </v>
   <v>       0.25000000       0.75000000       0.49959590 </v>
   <v>       0.75000000       0.25000000       0.99959590 </v>
   <v>       0.75000000       0.25000000       0.49959590 </v>
   <v>       0.75000000       0.75000000       0.99959590 </v>
   <v>       0.75000000       0.75000000       0.49959590 </v>
   <v>       0.12500000       0.12500000       0.12540410 </v>
   <v>       0.12500000       0.12500000       0.62540410 </v>
   <v>       0.12500000       0.62500000       0.12540410 </v>
   <v>       0.12500000       0.62500000       0.62540410 </v>
   <v>       0.62500000       0.12500000       0.12540410 </v>
   <v>       0.62500000       0.12500000       0.62540410 </v>
   <v>       0.62500000       0.62500000       0.12540410 </v>
   <v>       0.62500000       0.62500000       0.62540410 </v>
  </varray>
 </structure>
</modeling>
