Si64                                    
           1
    10.563852   -0.053353    0.000000
    -0.053353   10.670557    0.000000
     0.000000    0.000000   10.670557
   Si
    64
Direct configuration=     1
   0.00000000  0.00000000  0.00000000
   0.00000000  0.00000000  0.50000000
   0.00000000  0.50000000  0.00000000
   0.00000000  0.50000000  0.50000000
   0.50000000  0.00000000  0.00000000
   0.50000000  0.00000000  0.50000000
   0.50000000  0.50000000  0.00000000
   0.50000000  0.50000000  0.50000000
   0.37500000  0.37500000  0.12500000
   0.37500000  0.37500000  0.62500000
   0.37500000  0.87500000  0.12500000
   0.37500000  0.87500000  0.62500000
   0.87500000  0.37500000  0.12500000
   0.87500000  0.37500000  0.62500000
   0.87500000  0.87500000  0.12500000
   0.87500000  0.87500000  0.62500000
   0.00000000  0.25000000  0.25000000
   0.00000000  0.25000000  0.75000000
   0.00000000  0.75000000  0.25000000
   0.00000000  0.75000000  0.75000000
   0.50000000  0.25000000  0.25000000
   0.50000000  0.25000000  0.75000000
   0.50000000  0.75000000  0.25000000
   0.50000000  0.75000000  0.75000000
   0.37500000  0.12500000  0.37500000
   0.37500000  0.12500000  0.87500000
   0.37500000  0.62500000  0.37500000
   0.37500000  0.62500000  0.87500000
   0.87500000  0.12500000  0.37500000
   0.87500000  0.12500000  0.87500000
   0.87500000  0.62500000  0.37500000
   0.87500000  0.62500000  0.87500000
   0.25000000  0.00000000  0.25000000
   0.25000000  0.00000000  0.75000000
   0.25000000  0.50000000  0.25000000
   0.25000000  0.50000000  0.75000000
   0.75000000  0.00000000  0.25000000
   0.75000000  0.00000000  0.75000000
   0.75000000  0.50000000  0.25000000
   0.75000000  0.50000000  0.75000000
   0.12500000  0.37500000  0.37500000
   0.12500000  0.37500000  0.87500000
   0.12500000  0.87500000  0.37500000
   0.12500000  0.87500000  0.87500000
   0.62500000  0.37500000  0.37500000
   0.62500000  0.37500000  0.87500000
   0.62500000  0.87500000  0.37500000
   0.62500000  0.87500000  0.87500000
   0.25000000  0.25000000  0.00000000
   0.25000000  0.25000000  0.50000000
   0.25000000  0.75000000  0.00000000
   0.25000000  0.75000000  0.50000000
   0.75000000  0.25000000  0.00000000
   0.75000000  0.25000000  0.50000000
   0.75000000  0.75000000  0.00000000
   0.75000000  0.75000000  0.50000000
   0.12500000  0.12500000  0.12500000
   0.12500000  0.12500000  0.62500000
   0.12500000  0.62500000  0.12500000
   0.12500000  0.62500000  0.62500000
   0.62500000  0.12500000  0.12500000
   0.62500000  0.12500000  0.62500000
   0.62500000  0.62500000  0.12500000
   0.62500000  0.62500000  0.62500000
Direct configuration=     2
   1.00000000  0.00000000  0.99941150
   1.00000000  1.00000000  0.49941150
   0.00000000  0.50000000  0.99941150
   0.00000000  0.50000000  0.49941150
   0.50000000  0.00000000  0.99941150
   0.50000000  0.00000000  0.49941150
   0.50000000  0.50000000  0.99941150
   0.50000000  0.50000000  0.49941150
   0.37500000  0.37500000  0.12558850
   0.37500000  0.37500000  0.62558850
   0.37500000  0.87500000  0.12558850
   0.37500000  0.87500000  0.62558850
   0.87500000  0.37500000  0.12558850
   0.87500000  0.37500000  0.62558850
   0.87500000  0.87500000  0.12558850
   0.87500000  0.87500000  0.62558850
   0.00000000  0.25000000  0.24941150
   1.00000000  0.25000000  0.74941150
   1.00000000  0.75000000  0.24941150
   1.00000000  0.75000000  0.74941150
   0.50000000  0.25000000  0.24941150
   0.50000000  0.25000000  0.74941150
   0.50000000  0.75000000  0.24941150
   0.50000000  0.75000000  0.74941150
   0.37500000  0.12500000  0.37558850
   0.37500000  0.12500000  0.87558850
   0.37500000  0.62500000  0.37558850
   0.37500000  0.62500000  0.87558850
   0.87500000  0.12500000  0.37558850
   0.87500000  0.12500000  0.87558850
   0.87500000  0.62500000  0.37558850
   0.87500000  0.62500000  0.87558850
   0.25000000  0.00000000  0.24941150
   0.25000000  0.00000000  0.74941150
   0.25000000  0.50000000  0.24941150
   0.25000000  0.50000000  0.74941150
   0.75000000  0.00000000  0.24941150
   0.75000000  0.00000000  0.74941150
   0.75000000  0.50000000  0.24941150
   0.75000000  0.50000000  0.74941150
   0.12500000  0.37500000  0.37558850
   0.12500000  0.37500000  0.87558850
   0.12500000  0.87500000  0.37558850
   0.12500000  0.87500000  0.87558850
   0.62500000  0.37500000  0.37558850
   0.62500000  0.37500000  0.87558850
   0.62500000  0.87500000  0.37558850
   0.62500000  0.87500000  0.87558850
   0.25000000  0.25000000  0.99941150
   0.25000000  0.25000000  0.49941150
   0.25000000  0.75000000  0.99941150
   0.25000000  0.75000000  0.49941150
   0.75000000  0.25000000  0.99941150
   0.75000000  0.25000000  0.49941150
   0.75000000  0.75000000  0.99941150
   0.75000000  0.75000000  0.49941150
   0.12500000  0.12500000  0.12558850
   0.12500000  0.12500000  0.62558850
   0.12500000  0.62500000  0.12558850
   0.12500000  0.62500000  0.62558850
   0.62500000  0.12500000  0.12558850
   0.62500000  0.12500000  0.62558850
   0.62500000  0.62500000  0.12558850
   0.62500000  0.62500000  0.62558850
Direct configuration=     3
   0.00000000  0.00000000  0.99959590
   0.00000000  0.00000000  0.49959590
   0.00000000  0.50000000  0.99959590
   0.00000000  0.50000000  0.49959590
   0.50000000  0.00000000  0.99959590
   0.50000000  0.00000000  0.49959590
   0.50000000  0.50000000  0.99959590
   0.50000000  0.50000000  0.49959590
   0.37500000  0.37500000  0.12540410
   0.37500000  0.37500000  0.62540410
   0.37500000  0.87500000  0.12540410
   0.37500000  0.87500000  0.62540410
   0.87500000  0.37500000  0.12540410
   0.87500000  0.37500000  0.62540410
   0.87500000  0.87500000  0.12540410
   0.87500000  0.87500000  0.62540410
   0.00000000  0.25000000  0.24959590
   0.00000000  0.25000000  0.74959590
   0.00000000  0.75000000  0.24959590
   0.00000000  0.75000000  0.74959590
   0.50000000  0.25000000  0.24959590
   0.50000000  0.25000000  0.74959590
   0.50000000  0.75000000  0.24959590
   0.50000000  0.75000000  0.74959590
   0.37500000  0.12500000  0.37540410
   0.37500000  0.12500000  0.87540410
   0.37500000  0.62500000  0.37540410
   0.37500000  0.62500000  0.87540410
   0.87500000  0.12500000  0.37540410
   0.87500000  0.12500000  0.87540410
   0.87500000  0.62500000  0.37540410
   0.87500000  0.62500000  0.87540410
   0.25000000  0.00000000  0.24959590
   0.25000000  0.00000000  0.74959590
   0.25000000  0.50000000  0.24959590
   0.25000000  0.50000000  0.74959590
   0.75000000  0.00000000  0.24959590
   0.75000000  0.00000000  0.74959590
   0.75000000  0.50000000  0.24959590
   0.75000000  0.50000000  0.74959590
   0.12500000  0.37500000  0.37540410
   0.12500000  0.37500000  0.87540410
   0.12500000  0.87500000  0.37540410
   0.12500000  0.87500000  0.87540410
   0.62500000  0.37500000  0.37540410
   0.62500000  0.37500000  0.87540410
   0.62500000  0.87500000  0.37540410
   0.62500000  0.87500000  0.87540410
   0.25000000  0.25000000  0.99959590
   0.25000000  0.25000000  0.49959590
   0.25000000  0.75000000  0.99959590
   0.25000000  0.75000000  0.49959590
   0.75000000  0.25000000  0.99959590
   0.75000000  0.25000000  0.49959590
   0.75000000  0.75000000  0.99959590
   0.75000000  0.75000000  0.49959590
   0.12500000  0.12500000  0.12540410
   0.12500000  0.12500000  0.62540410
   0.12500000  0.62500000  0.12540410
   0.12500000  0.62500000  0.62540410
   0.62500000  0.12500000  0.12540410
   0.62500000  0.12500000  0.62540410
   0.62500000  0.62500000  0.12540410
   0.62500000  0.62500000  0.62540410
