  64  64   0   0
  0.1861701E+02  0.1063677E-08  0.1058385E-08  0.1058381E-08  0.5000000E-15
  1.000000000000000E-004
  CAR 
 Si64                                    
     12.06085751     -7.95514132  301      6.76801407      1.00000000
     -7.955  0.0000E+00  0.0000E+00
     -7.888  0.0000E+00  0.0000E+00
     -7.822  0.0000E+00  0.0000E+00
     -7.755  0.0000E+00  0.0000E+00
     -7.688  0.0000E+00  0.0000E+00
     -7.622 -0.1040E-30 -0.6938E-32
     -7.555 -0.2308E-28 -0.1547E-29
     -7.488 -0.4107E-26 -0.2756E-27
     -7.421 -0.5838E-24 -0.3922E-25
     -7.355 -0.6625E-22 -0.4460E-23
     -7.288 -0.6002E-20 -0.4049E-21
     -7.221 -0.4339E-18 -0.2936E-19
     -7.155 -0.2502E-16 -0.1699E-17
     -7.088 -0.1116E-14 -0.7614E-16
     -7.021 -0.4067E-13 -0.2790E-14
     -6.954 -0.1180E-11 -0.8154E-13
     -6.888 -0.2721E-10 -0.1897E-11
     -6.821 -0.4976E-09 -0.3510E-10
     -6.754 -0.7204E-08 -0.5157E-09
     -6.687 -0.8230E-07 -0.6007E-08
     -6.621 -0.7392E-06 -0.5533E-07
     -6.554 -0.5190E-05 -0.4016E-06
     -6.487 -0.2822E-04 -0.2284E-05
     -6.421 -0.1171E-03 -0.1010E-04
     -6.354 -0.3606E-03 -0.3416E-04
     -6.287 -0.7751E-03 -0.8587E-04
     -6.220 -0.9527E-03 -0.1494E-03
     -6.154  0.1763E-03 -0.1377E-03
     -6.087  0.3485E-02  0.9485E-04
     -6.020  0.7882E-02  0.6207E-03
     -5.954  0.1102E-01  0.1356E-02
     -5.887  0.1465E-01  0.2334E-02
     -5.820  0.2711E-01  0.4142E-02
     -5.753  0.5315E-01  0.7688E-02
     -5.687  0.8138E-01  0.1312E-01
     -5.620  0.9517E-01  0.1947E-01
     -5.553  0.1004E+00  0.2617E-01
     -5.487  0.1233E+00  0.3440E-01
     -5.420  0.1676E+00  0.4558E-01
     -5.353  0.1976E+00  0.5876E-01
     -5.286  0.1848E+00  0.7109E-01
     -5.220  0.1501E+00  0.8110E-01
     -5.153  0.1308E+00  0.8983E-01
     -5.086  0.1272E+00  0.9831E-01
     -5.019  0.1136E+00  0.1059E+00
     -4.953  0.8679E-01  0.1117E+00
     -4.886  0.6845E-01  0.1162E+00
     -4.819  0.6984E-01  0.1209E+00
     -4.753  0.8991E-01  0.1269E+00
     -4.686  0.1431E+00  0.1365E+00
     -4.619  0.2437E+00  0.1527E+00
     -4.552  0.3574E+00  0.1766E+00
     -4.486  0.4210E+00  0.2046E+00
     -4.419  0.4274E+00  0.2332E+00
     -4.352  0.4274E+00  0.2617E+00
     -4.286  0.4309E+00  0.2904E+00
     -4.219  0.3810E+00  0.3158E+00
     -4.152  0.2506E+00  0.3326E+00
     -4.085  0.9644E-01  0.3390E+00
     -4.019 -0.6019E-02  0.3386E+00
     -3.952 -0.2753E-01  0.3368E+00
     -3.885  0.2458E-01  0.3384E+00
     -3.819  0.1359E+00  0.3475E+00
     -3.752  0.2842E+00  0.3664E+00
     -3.685  0.4265E+00  0.3949E+00
     -3.618  0.5052E+00  0.4286E+00
     -3.552  0.4828E+00  0.4608E+00
     -3.485  0.3794E+00  0.4861E+00
     -3.418  0.2651E+00  0.5038E+00
     -3.351  0.2112E+00  0.5179E+00
     -3.285  0.2545E+00  0.5349E+00
     -3.218  0.3827E+00  0.5604E+00
     -3.151  0.5336E+00  0.5960E+00
     -3.085  0.6318E+00  0.6382E+00
     -3.018  0.6468E+00  0.6813E+00
     -2.951  0.6057E+00  0.7217E+00
     -2.884  0.5466E+00  0.7582E+00
     -2.818  0.4817E+00  0.7903E+00
     -2.751  0.4227E+00  0.8185E+00
     -2.684  0.4003E+00  0.8453E+00
     -2.618  0.4146E+00  0.8729E+00
     -2.551  0.4008E+00  0.8997E+00
     -2.484  0.3037E+00  0.9199E+00
     -2.417  0.1554E+00  0.9303E+00
     -2.351  0.3414E-01  0.9326E+00
     -2.284 -0.2283E-01  0.9310E+00
     -2.217 -0.3209E-01  0.9289E+00
     -2.151 -0.1537E-01  0.9279E+00
     -2.084  0.2829E-01  0.9298E+00
     -2.017  0.1015E+00  0.9365E+00
     -1.950  0.1759E+00  0.9483E+00
     -1.884  0.2002E+00  0.9616E+00
     -1.817  0.1512E+00  0.9717E+00
     -1.750  0.6579E-01  0.9761E+00
     -1.683  0.1545E-01  0.9771E+00
     -1.617  0.5882E-01  0.9811E+00
     -1.550  0.2096E+00  0.9950E+00
     -1.483  0.4178E+00  0.1023E+01
     -1.417  0.5791E+00  0.1062E+01
     -1.350  0.5980E+00  0.1101E+01
     -1.283  0.4636E+00  0.1132E+01
     -1.216  0.2573E+00  0.1150E+01
     -1.150  0.8747E-01  0.1155E+01
     -1.083  0.2133E-01  0.1157E+01
     -1.016  0.6212E-01  0.1161E+01
     -0.950  0.1571E+00  0.1171E+01
     -0.883  0.2272E+00  0.1187E+01
     -0.816  0.2254E+00  0.1202E+01
     -0.749  0.1866E+00  0.1214E+01
     -0.683  0.1956E+00  0.1227E+01
     -0.616  0.2818E+00  0.1246E+01
     -0.549  0.3638E+00  0.1270E+01
     -0.483  0.3395E+00  0.1293E+01
     -0.416  0.2296E+00  0.1308E+01
     -0.349  0.1907E+00  0.1321E+01
     -0.282  0.3613E+00  0.1345E+01
     -0.216  0.7031E+00  0.1392E+01
     -0.149  0.1006E+01  0.1459E+01
     -0.082  0.1059E+01  0.1530E+01
     -0.015  0.8291E+00  0.1585E+01
      0.051  0.4621E+00  0.1616E+01
      0.118  0.1456E+00  0.1626E+01
      0.185 -0.2211E-01  0.1624E+01
      0.251 -0.3790E-01  0.1622E+01
      0.318  0.6486E-01  0.1626E+01
      0.385  0.2333E+00  0.1641E+01
      0.452  0.3778E+00  0.1667E+01
      0.518  0.4101E+00  0.1694E+01
      0.585  0.3232E+00  0.1716E+01
      0.652  0.1959E+00  0.1729E+01
      0.718  0.1125E+00  0.1736E+01
      0.785  0.1126E+00  0.1744E+01
      0.852  0.2028E+00  0.1757E+01
      0.919  0.3575E+00  0.1781E+01
      0.985  0.5009E+00  0.1814E+01
      1.052  0.5363E+00  0.1850E+01
      1.119  0.4278E+00  0.1879E+01
      1.185  0.2395E+00  0.1895E+01
      1.252  0.7581E-01  0.1900E+01
      1.319 -0.8342E-02  0.1899E+01
      1.386 -0.2804E-01  0.1897E+01
      1.452 -0.2465E-01  0.1896E+01
      1.519 -0.2454E-01  0.1894E+01
      1.586 -0.2709E-01  0.1892E+01
      1.653 -0.5811E-02  0.1892E+01
      1.719  0.7950E-01  0.1897E+01
      1.786  0.2440E+00  0.1914E+01
      1.853  0.4338E+00  0.1942E+01
      1.919  0.5462E+00  0.1979E+01
      1.986  0.5295E+00  0.2014E+01
      2.053  0.4501E+00  0.2044E+01
      2.120  0.4168E+00  0.2072E+01
      2.186  0.4543E+00  0.2102E+01
      2.253  0.5019E+00  0.2136E+01
      2.320  0.5126E+00  0.2170E+01
      2.386  0.4865E+00  0.2203E+01
      2.453  0.4229E+00  0.2231E+01
      2.520  0.3250E+00  0.2252E+01
      2.587  0.2659E+00  0.2270E+01
      2.653  0.3780E+00  0.2295E+01
      2.720  0.7194E+00  0.2343E+01
      2.787  0.1158E+01  0.2421E+01
      2.853  0.1426E+01  0.2516E+01
      2.920  0.1335E+01  0.2605E+01
      2.987  0.9386E+00  0.2667E+01
      3.054  0.4746E+00  0.2699E+01
      3.120  0.1406E+00  0.2709E+01
      3.187 -0.2473E-01  0.2707E+01
      3.254 -0.7659E-01  0.2702E+01
      3.321 -0.4558E-01  0.2699E+01
      3.387  0.9644E-01  0.2705E+01
      3.454  0.3712E+00  0.2730E+01
      3.521  0.7131E+00  0.2777E+01
      3.587  0.9881E+00  0.2843E+01
      3.654  0.1112E+01  0.2918E+01
      3.721  0.1113E+01  0.2992E+01
      3.788  0.1064E+01  0.3063E+01
      3.854  0.9907E+00  0.3129E+01
      3.921  0.8799E+00  0.3188E+01
      3.988  0.7464E+00  0.3237E+01
      4.054  0.6688E+00  0.3282E+01
      4.121  0.7059E+00  0.3329E+01
      4.188  0.7798E+00  0.3381E+01
      4.255  0.7297E+00  0.3430E+01
      4.321  0.5179E+00  0.3464E+01
      4.388  0.2952E+00  0.3484E+01
      4.455  0.2292E+00  0.3499E+01
      4.521  0.3348E+00  0.3522E+01
      4.588  0.4979E+00  0.3555E+01
      4.655  0.6120E+00  0.3596E+01
      4.722  0.6568E+00  0.3640E+01
      4.788  0.6622E+00  0.3684E+01
      4.855  0.6493E+00  0.3727E+01
      4.922  0.6319E+00  0.3769E+01
      4.989  0.6406E+00  0.3812E+01
      5.055  0.7006E+00  0.3859E+01
      5.122  0.7922E+00  0.3912E+01
      5.189  0.8470E+00  0.3968E+01
      5.255  0.7869E+00  0.4021E+01
      5.322  0.5887E+00  0.4060E+01
      5.389  0.3227E+00  0.4081E+01
      5.456  0.1133E+00  0.4089E+01
      5.522  0.5318E-01  0.4093E+01
      5.589  0.1477E+00  0.4102E+01
      5.656  0.3144E+00  0.4123E+01
      5.722  0.4294E+00  0.4152E+01
      5.789  0.4099E+00  0.4179E+01
      5.856  0.2739E+00  0.4198E+01
      5.923  0.1131E+00  0.4205E+01
      5.989  0.9474E-02  0.4206E+01
      6.056 -0.9900E-02  0.4205E+01
      6.123  0.4091E-01  0.4208E+01
      6.189  0.1253E+00  0.4216E+01
      6.256  0.1904E+00  0.4229E+01
      6.323  0.1945E+00  0.4242E+01
      6.390  0.1433E+00  0.4252E+01
      6.456  0.8273E-01  0.4257E+01
      6.523  0.4770E-01  0.4260E+01
      6.590  0.3415E-01  0.4262E+01
      6.657  0.2377E-01  0.4264E+01
      6.723  0.1804E-01  0.4265E+01
      6.790  0.3792E-01  0.4268E+01
      6.857  0.9375E-01  0.4274E+01
      6.923  0.1610E+00  0.4285E+01
      6.990  0.1934E+00  0.4298E+01
      7.057  0.1647E+00  0.4309E+01
      7.124  0.9355E-01  0.4315E+01
      7.190  0.2285E-01  0.4316E+01
      7.257 -0.1297E-01  0.4316E+01
      7.324  0.4791E-02  0.4316E+01
      7.390  0.8124E-01  0.4321E+01
      7.457  0.1907E+00  0.4334E+01
      7.524  0.2694E+00  0.4352E+01
      7.591  0.2665E+00  0.4370E+01
      7.657  0.2146E+00  0.4384E+01
      7.724  0.2139E+00  0.4398E+01
      7.791  0.3160E+00  0.4419E+01
      7.857  0.4450E+00  0.4449E+01
      7.924  0.4675E+00  0.4480E+01
      7.991  0.3372E+00  0.4503E+01
      8.058  0.1443E+00  0.4512E+01
      8.124  0.3364E-01  0.4515E+01
      8.191  0.1052E+00  0.4522E+01
      8.258  0.3606E+00  0.4546E+01
      8.325  0.6809E+00  0.4591E+01
      8.391  0.8700E+00  0.4649E+01
      8.458  0.7991E+00  0.4703E+01
      8.525  0.5344E+00  0.4738E+01
      8.591  0.2887E+00  0.4758E+01
      8.658  0.2338E+00  0.4773E+01
      8.725  0.3822E+00  0.4799E+01
      8.792  0.6479E+00  0.4842E+01
      8.858  0.9609E+00  0.4906E+01
      8.925  0.1259E+01  0.4990E+01
      8.992  0.1410E+01  0.5084E+01
      9.058  0.1278E+01  0.5169E+01
      9.125  0.8961E+00  0.5229E+01
      9.192  0.4781E+00  0.5261E+01
      9.259  0.2213E+00  0.5276E+01
      9.325  0.1593E+00  0.5286E+01
      9.392  0.2143E+00  0.5301E+01
      9.459  0.3041E+00  0.5321E+01
      9.525  0.3659E+00  0.5345E+01
      9.592  0.3488E+00  0.5369E+01
      9.659  0.2470E+00  0.5385E+01
      9.726  0.1158E+00  0.5393E+01
      9.792  0.2162E-01  0.5394E+01
      9.859 -0.1290E-01  0.5393E+01
      9.926 -0.5913E-02  0.5393E+01
      9.993  0.1499E-01  0.5394E+01
     10.059  0.3035E-01  0.5396E+01
     10.126  0.3167E-01  0.5398E+01
     10.193  0.2139E-01  0.5400E+01
     10.259  0.8662E-02  0.5400E+01
     10.326  0.6613E-03  0.5400E+01
     10.393 -0.1776E-02  0.5400E+01
     10.460 -0.1427E-02  0.5400E+01
     10.526 -0.6456E-03  0.5400E+01
     10.593 -0.2040E-03  0.5400E+01
     10.660 -0.4794E-04  0.5400E+01
     10.726 -0.8615E-05  0.5400E+01
     10.793 -0.1201E-05  0.5400E+01
     10.860 -0.1310E-06  0.5400E+01
     10.927 -0.1124E-07  0.5400E+01
     10.993 -0.7624E-09  0.5400E+01
     11.060 -0.4095E-10  0.5400E+01
     11.127 -0.1746E-11  0.5400E+01
     11.193 -0.5920E-13  0.5400E+01
     11.260 -0.1595E-14  0.5400E+01
     11.327 -0.4160E-16  0.5400E+01
     11.394  0.0000E+00  0.5400E+01
     11.460  0.0000E+00  0.5400E+01
     11.527  0.0000E+00  0.5400E+01
     11.594  0.0000E+00  0.5400E+01
     11.661  0.0000E+00  0.5400E+01
     11.727  0.0000E+00  0.5400E+01
     11.794  0.0000E+00  0.5400E+01
     11.861  0.0000E+00  0.5400E+01
     11.927  0.0000E+00  0.5400E+01
     11.994  0.0000E+00  0.5400E+01
     12.061  0.0000E+00  0.5400E+01
