       N       E                     dE             d eps       ncg     rms          rms(c)
DAV:   1     0.576394076200E+03    0.57639E+03   -0.85132E+04  2592   0.107E+03
DAV:   2    -0.309161095479E+03   -0.88556E+03   -0.83880E+03  3104   0.176E+02
DAV:   3    -0.372405752064E+03   -0.63245E+02   -0.62053E+02  3144   0.414E+01
DAV:   4    -0.374018573801E+03   -0.16128E+01   -0.16012E+01  3128   0.800E+00
DAV:   5    -0.374067115046E+03   -0.48541E-01   -0.48447E-01  3068   0.130E+00    0.309E+01
RMM:   6    -0.367935532637E+03    0.61316E+01   -0.32315E+00  2592   0.283E+00    0.187E+01
RMM:   7    -0.365270053112E+03    0.26655E+01   -0.81839E+00  2662   0.448E+00    0.120E+00
RMM:   8    -0.365301413941E+03   -0.31361E-01   -0.73349E-01  2610   0.169E+00    0.541E-01
RMM:   9    -0.365324790046E+03   -0.23376E-01   -0.22479E-01  2672   0.826E-01    0.614E-01
RMM:  10    -0.365328931913E+03   -0.41419E-02   -0.39159E-02  2732   0.389E-01    0.787E-01
RMM:  11    -0.365324359529E+03    0.45724E-02   -0.13464E-02  2592   0.234E-01    0.719E-01
RMM:  12    -0.365324484603E+03   -0.12507E-03   -0.19014E-03  2609   0.103E-01    0.742E-01
RMM:  13    -0.365324556299E+03   -0.71695E-04   -0.36886E-04  2740   0.426E-02    0.798E-01
RMM:  14    -0.365324401082E+03    0.15522E-03   -0.12421E-04  2592   0.272E-02    0.472E-01
RMM:  15    -0.365324593966E+03   -0.19288E-03   -0.63859E-05  2607   0.163E-02    0.452E-01
RMM:  16    -0.365324736864E+03   -0.14290E-03   -0.50218E-05  2592   0.162E-02    0.378E-01
RMM:  17    -0.365324781018E+03   -0.44154E-04   -0.18299E-05  2592   0.111E-02    0.176E-01
RMM:  18    -0.365324798182E+03   -0.17164E-04   -0.94082E-06  2590   0.771E-03    0.520E-02
RMM:  19    -0.365324802087E+03   -0.39051E-05   -0.29503E-06  1812   0.424E-03    0.994E-03
RMM:  20    -0.365324803049E+03   -0.96178E-06   -0.58631E-07  1569   0.179E-03
   1 F= -.36532480E+03 E0= -.36533569E+03  d E =-.365325E+03
       N       E                     dE             d eps       ncg     rms          rms(c)
DAV:   1    -0.365327354081E+03   -0.25520E-02   -0.19042E-01  2976   0.841E-01    0.202E-01
RMM:   2    -0.365328269895E+03   -0.91581E-03   -0.94878E-03  2593   0.208E-01    0.812E-02
RMM:   3    -0.365328384128E+03   -0.11423E-03   -0.14616E-03  2638   0.916E-02    0.337E-02
RMM:   4    -0.365328379531E+03    0.45971E-05   -0.19551E-04  2622   0.378E-02    0.122E-02
RMM:   5    -0.365328381326E+03   -0.17949E-05   -0.37668E-05  2678   0.151E-02    0.273E-03
RMM:   6    -0.365328382165E+03   -0.83867E-06   -0.82711E-06  2179   0.660E-03    0.493E-04
RMM:   7    -0.365328382271E+03   -0.10583E-06   -0.11780E-06  1594   0.247E-03    0.530E-04
RMM:   8    -0.365328382286E+03   -0.15627E-07   -0.25359E-07  1333   0.113E-03
   2 F= -.36532838E+03 E0= -.36533876E+03  d E =-.357924E-02
       N       E                     dE             d eps       ncg     rms          rms(c)
DAV:   1    -0.365329446773E+03   -0.10645E-02   -0.21064E-02  2944   0.280E-01    0.670E-02
RMM:   2    -0.365329545899E+03   -0.99126E-04   -0.10230E-03  2592   0.687E-02    0.271E-02
RMM:   3    -0.365329558061E+03   -0.12163E-04   -0.15504E-04  2637   0.302E-02    0.111E-02
RMM:   4    -0.365329557648E+03    0.41328E-06   -0.20603E-05  2618   0.124E-02    0.406E-03
RMM:   5    -0.365329557815E+03   -0.16738E-06   -0.38613E-06  1874   0.494E-03    0.871E-04
RMM:   6    -0.365329557885E+03   -0.70080E-07   -0.81202E-07  1548   0.214E-03    0.191E-04
RMM:   7    -0.365329557903E+03   -0.17387E-07   -0.18220E-07  1195   0.986E-04    0.228E-04
RMM:   8    -0.365329557910E+03   -0.70131E-08   -0.40910E-08   771   0.589E-04
   3 F= -.36532956E+03 E0= -.36534017E+03  d E =-.475486E-02
