  64  64   0   0
  0.1888868E+02  0.1061724E-08  0.1067059E-08  0.1067056E-08  0.5000000E-15
  1.000000000000000E-004
  CAR 
 Si64                                    
     11.89957286     -8.00503667  301      6.63890283      1.00000000
     -8.005  0.0000E+00  0.0000E+00
     -7.939  0.0000E+00  0.0000E+00
     -7.872  0.0000E+00  0.0000E+00
     -7.806  0.0000E+00  0.0000E+00
     -7.740  0.0000E+00  0.0000E+00
     -7.673  0.0000E+00  0.0000E+00
     -7.607 -0.1953E-28 -0.1296E-29
     -7.541 -0.3389E-26 -0.2261E-27
     -7.474 -0.4729E-24 -0.3161E-25
     -7.408 -0.5284E-22 -0.3537E-23
     -7.342 -0.4724E-20 -0.3169E-21
     -7.275 -0.3378E-18 -0.2273E-19
     -7.209 -0.1932E-16 -0.1305E-17
     -7.143 -0.8554E-15 -0.5806E-16
     -7.076 -0.3115E-13 -0.2124E-14
     -7.010 -0.9034E-12 -0.6206E-13
     -6.943 -0.2087E-10 -0.1447E-11
     -6.877 -0.3836E-09 -0.2690E-10
     -6.811 -0.5595E-08 -0.3981E-09
     -6.744 -0.6461E-07 -0.4685E-08
     -6.678 -0.5884E-06 -0.4372E-07
     -6.612 -0.4202E-05 -0.3225E-06
     -6.545 -0.2334E-04 -0.1871E-05
     -6.479 -0.9947E-04 -0.8471E-05
     -6.413 -0.3172E-03 -0.2952E-04
     -6.346 -0.7176E-03 -0.7713E-04
     -6.280 -0.9843E-03 -0.1424E-03
     -6.214 -0.1486E-03 -0.1523E-03
     -6.147  0.2774E-02  0.3174E-04
     -6.081  0.7087E-02  0.5019E-03
     -6.015  0.1055E-01  0.1202E-02
     -5.948  0.1404E-01  0.2133E-02
     -5.882  0.2503E-01  0.3794E-02
     -5.816  0.4936E-01  0.7069E-02
     -5.749  0.7816E-01  0.1225E-01
     -5.683  0.9475E-01  0.1854E-01
     -5.616  0.1013E+00  0.2526E-01
     -5.550  0.1218E+00  0.3334E-01
     -5.484  0.1641E+00  0.4423E-01
     -5.417  0.1969E+00  0.5729E-01
     -5.351  0.1893E+00  0.6985E-01
     -5.285  0.1562E+00  0.8022E-01
     -5.218  0.1344E+00  0.8914E-01
     -5.152  0.1287E+00  0.9767E-01
     -5.086  0.1157E+00  0.1053E+00
     -5.019  0.8957E-01  0.1113E+00
     -4.953  0.7006E-01  0.1159E+00
     -4.887  0.7002E-01  0.1206E+00
     -4.820  0.9021E-01  0.1266E+00
     -4.754  0.1439E+00  0.1361E+00
     -4.688  0.2440E+00  0.1523E+00
     -4.621  0.3576E+00  0.1760E+00
     -4.555  0.4244E+00  0.2042E+00
     -4.489  0.4354E+00  0.2331E+00
     -4.422  0.4363E+00  0.2620E+00
     -4.356  0.4356E+00  0.2909E+00
     -4.290  0.3806E+00  0.3162E+00
     -4.223  0.2481E+00  0.3326E+00
     -4.157  0.9429E-01  0.3389E+00
     -4.090 -0.6728E-02  0.3385E+00
     -4.024 -0.2539E-01  0.3368E+00
     -3.958  0.3211E-01  0.3389E+00
     -3.891  0.1507E+00  0.3489E+00
     -3.825  0.3047E+00  0.3691E+00
     -3.759  0.4457E+00  0.3987E+00
     -3.692  0.5140E+00  0.4328E+00
     -3.626  0.4777E+00  0.4645E+00
     -3.560  0.3666E+00  0.4888E+00
     -3.493  0.2550E+00  0.5057E+00
     -3.427  0.2122E+00  0.5198E+00
     -3.361  0.2699E+00  0.5377E+00
     -3.294  0.4084E+00  0.5648E+00
     -3.228  0.5603E+00  0.6020E+00
     -3.162  0.6522E+00  0.6453E+00
     -3.095  0.6610E+00  0.6891E+00
     -3.029  0.6157E+00  0.7300E+00
     -2.963  0.5492E+00  0.7664E+00
     -2.896  0.4750E+00  0.7979E+00
     -2.830  0.4158E+00  0.8255E+00
     -2.763  0.4025E+00  0.8522E+00
     -2.697  0.4165E+00  0.8799E+00
     -2.631  0.3847E+00  0.9054E+00
     -2.564  0.2697E+00  0.9233E+00
     -2.498  0.1218E+00  0.9314E+00
     -2.432  0.1490E-01  0.9323E+00
     -2.365 -0.2874E-01  0.9304E+00
     -2.299 -0.2990E-01  0.9284E+00
     -2.233 -0.4181E-02  0.9282E+00
     -2.166  0.5167E-01  0.9316E+00
     -2.100  0.1306E+00  0.9403E+00
     -2.034  0.1926E+00  0.9530E+00
     -1.967  0.1907E+00  0.9657E+00
     -1.901  0.1221E+00  0.9738E+00
     -1.835  0.4034E-01  0.9765E+00
     -1.768  0.1688E-01  0.9776E+00
     -1.702  0.9869E-01  0.9841E+00
     -1.636  0.2801E+00  0.1003E+01
     -1.569  0.4885E+00  0.1035E+01
     -1.503  0.6112E+00  0.1076E+01
     -1.437  0.5731E+00  0.1114E+01
     -1.370  0.3990E+00  0.1140E+01
     -1.304  0.1911E+00  0.1153E+01
     -1.237  0.5070E-01  0.1156E+01
     -1.171  0.2198E-01  0.1158E+01
     -1.105  0.8547E-01  0.1163E+01
     -1.038  0.1770E+00  0.1175E+01
     -0.972  0.2254E+00  0.1190E+01
     -0.906  0.2062E+00  0.1204E+01
     -0.839  0.1698E+00  0.1215E+01
     -0.773  0.1938E+00  0.1228E+01
     -0.707  0.2882E+00  0.1247E+01
     -0.640  0.3651E+00  0.1271E+01
     -0.574  0.3372E+00  0.1294E+01
     -0.508  0.2450E+00  0.1310E+01
     -0.441  0.2437E+00  0.1326E+01
     -0.375  0.4429E+00  0.1355E+01
     -0.309  0.7735E+00  0.1407E+01
     -0.242  0.1026E+01  0.1475E+01
     -0.176  0.1022E+01  0.1543E+01
     -0.110  0.7588E+00  0.1593E+01
     -0.043  0.3913E+00  0.1619E+01
      0.023  0.9861E-01  0.1625E+01
      0.090 -0.3123E-01  0.1623E+01
      0.156 -0.1202E-02  0.1623E+01
      0.222  0.1408E+00  0.1633E+01
      0.289  0.3124E+00  0.1653E+01
      0.355  0.4106E+00  0.1681E+01
      0.421  0.3802E+00  0.1706E+01
      0.488  0.2631E+00  0.1723E+01
      0.554  0.1489E+00  0.1733E+01
      0.620  0.9775E-01  0.1740E+01
      0.687  0.1281E+00  0.1748E+01
      0.753  0.2367E+00  0.1764E+01
      0.819  0.3891E+00  0.1790E+01
      0.886  0.5077E+00  0.1823E+01
      0.952  0.5112E+00  0.1857E+01
      1.018  0.3850E+00  0.1883E+01
      1.085  0.2015E+00  0.1896E+01
      1.151  0.5503E-01  0.1900E+01
      1.217 -0.1381E-01  0.1899E+01
      1.284 -0.2614E-01  0.1897E+01
      1.350 -0.2075E-01  0.1896E+01
      1.416 -0.2062E-01  0.1894E+01
      1.483 -0.2666E-01  0.1893E+01
      1.549 -0.1818E-01  0.1891E+01
      1.616  0.4293E-01  0.1894E+01
      1.682  0.1846E+00  0.1907E+01
      1.748  0.3801E+00  0.1932E+01
      1.815  0.5460E+00  0.1968E+01
      1.881  0.6128E+00  0.2009E+01
      1.947  0.5899E+00  0.2048E+01
      2.014  0.5336E+00  0.2083E+01
      2.080  0.4775E+00  0.2115E+01
      2.146  0.4340E+00  0.2144E+01
      2.213  0.4217E+00  0.2172E+01
      2.279  0.4347E+00  0.2201E+01
      2.345  0.4186E+00  0.2228E+01
      2.412  0.3403E+00  0.2251E+01
      2.478  0.2752E+00  0.2269E+01
      2.544  0.3719E+00  0.2294E+01
      2.611  0.7028E+00  0.2340E+01
      2.677  0.1147E+01  0.2417E+01
      2.743  0.1441E+01  0.2512E+01
      2.810  0.1379E+01  0.2604E+01
      2.876  0.9901E+00  0.2669E+01
      2.942  0.5026E+00  0.2703E+01
      3.009  0.1351E+00  0.2712E+01
      3.075 -0.4744E-01  0.2708E+01
      3.142 -0.9561E-01  0.2702E+01
      3.208 -0.5450E-01  0.2699E+01
      3.274  0.9136E-01  0.2705E+01
      3.341  0.3638E+00  0.2729E+01
      3.407  0.7083E+00  0.2776E+01
      3.473  0.1002E+01  0.2842E+01
      3.540  0.1157E+01  0.2919E+01
      3.606  0.1182E+01  0.2997E+01
      3.672  0.1129E+01  0.3072E+01
      3.739  0.1022E+01  0.3140E+01
      3.805  0.8685E+00  0.3198E+01
      3.871  0.7120E+00  0.3245E+01
      3.938  0.6420E+00  0.3288E+01
      4.004  0.6976E+00  0.3334E+01
      4.070  0.7747E+00  0.3385E+01
      4.137  0.7141E+00  0.3433E+01
      4.203  0.5014E+00  0.3466E+01
      4.269  0.3006E+00  0.3486E+01
      4.336  0.2658E+00  0.3504E+01
      4.402  0.3860E+00  0.3529E+01
      4.469  0.5345E+00  0.3565E+01
      4.535  0.6191E+00  0.3606E+01
      4.601  0.6445E+00  0.3648E+01
      4.668  0.6499E+00  0.3692E+01
      4.734  0.6482E+00  0.3735E+01
      4.800  0.6455E+00  0.3777E+01
      4.867  0.6716E+00  0.3822E+01
      4.933  0.7478E+00  0.3872E+01
      4.999  0.8416E+00  0.3927E+01
      5.066  0.8700E+00  0.3985E+01
      5.132  0.7582E+00  0.4035E+01
      5.198  0.5141E+00  0.4070E+01
      5.265  0.2414E+00  0.4086E+01
      5.331  0.6818E-01  0.4090E+01
      5.397  0.6107E-01  0.4094E+01
      5.464  0.1929E+00  0.4107E+01
      5.530  0.3604E+00  0.4131E+01
      5.596  0.4423E+00  0.4160E+01
      5.663  0.3822E+00  0.4186E+01
      5.729  0.2275E+00  0.4201E+01
      5.795  0.7636E-01  0.4206E+01
      5.862 -0.2438E-02  0.4206E+01
      5.928  0.4043E-02  0.4206E+01
      5.995  0.7206E-01  0.4211E+01
      6.061  0.1555E+00  0.4221E+01
      6.127  0.1999E+00  0.4234E+01
      6.194  0.1792E+00  0.4246E+01
      6.260  0.1192E+00  0.4254E+01
      6.326  0.6727E-01  0.4258E+01
      6.393  0.4310E-01  0.4261E+01
      6.459  0.3221E-01  0.4263E+01
      6.525  0.1913E-01  0.4265E+01
      6.592  0.1143E-01  0.4265E+01
      6.658  0.3104E-01  0.4268E+01
      6.724  0.8698E-01  0.4273E+01
      6.791  0.1558E+00  0.4284E+01
      6.857  0.1925E+00  0.4296E+01
      6.923  0.1692E+00  0.4308E+01
      6.990  0.1009E+00  0.4314E+01
      7.056  0.2904E-01  0.4316E+01
      7.122 -0.9878E-02  0.4316E+01
      7.189  0.5249E-02  0.4316E+01
      7.255  0.8017E-01  0.4321E+01
      7.322  0.1889E+00  0.4334E+01
      7.388  0.2677E+00  0.4352E+01
      7.454  0.2655E+00  0.4369E+01
      7.521  0.2132E+00  0.4383E+01
      7.587  0.2100E+00  0.4397E+01
      7.653  0.3103E+00  0.4418E+01
      7.720  0.4419E+00  0.4447E+01
      7.786  0.4713E+00  0.4478E+01
      7.852  0.3499E+00  0.4502E+01
      7.919  0.1669E+00  0.4513E+01
      7.985  0.6690E-01  0.4517E+01
      8.051  0.1447E+00  0.4527E+01
      8.118  0.3931E+00  0.4553E+01
      8.184  0.6905E+00  0.4599E+01
      8.250  0.8519E+00  0.4655E+01
      8.317  0.7702E+00  0.4706E+01
      8.383  0.5280E+00  0.4741E+01
      8.449  0.3299E+00  0.4763E+01
      8.516  0.3147E+00  0.4784E+01
      8.582  0.4708E+00  0.4815E+01
      8.648  0.7227E+00  0.4863E+01
      8.715  0.1018E+01  0.4931E+01
      8.781  0.1279E+01  0.5016E+01
      8.848  0.1361E+01  0.5106E+01
      8.914  0.1166E+01  0.5183E+01
      8.980  0.7778E+00  0.5235E+01
      9.047  0.4073E+00  0.5262E+01
      9.113  0.2037E+00  0.5276E+01
      9.179  0.1653E+00  0.5287E+01
      9.246  0.2165E+00  0.5301E+01
      9.312  0.2967E+00  0.5321E+01
      9.378  0.3578E+00  0.5344E+01
      9.445  0.3483E+00  0.5367E+01
      9.511  0.2537E+00  0.5384E+01
      9.577  0.1241E+00  0.5392E+01
      9.644  0.2722E-01  0.5394E+01
      9.710 -0.1025E-01  0.5394E+01
      9.776 -0.4546E-02  0.5393E+01
      9.843  0.1595E-01  0.5394E+01
      9.909  0.3053E-01  0.5396E+01
      9.975  0.3074E-01  0.5398E+01
     10.042  0.1995E-01  0.5400E+01
     10.108  0.7566E-02  0.5400E+01
     10.175  0.2040E-03  0.5400E+01
     10.241 -0.1824E-02  0.5400E+01
     10.307 -0.1361E-02  0.5400E+01
     10.374 -0.5965E-03  0.5400E+01
     10.440 -0.1847E-03  0.5400E+01
     10.506 -0.4277E-04  0.5400E+01
     10.573 -0.7602E-05  0.5400E+01
     10.639 -0.1051E-05  0.5400E+01
     10.705 -0.1141E-06  0.5400E+01
     10.772 -0.9767E-08  0.5400E+01
     10.838 -0.6621E-09  0.5400E+01
     10.904 -0.3564E-10  0.5400E+01
     10.971 -0.1526E-11  0.5400E+01
     11.037 -0.5205E-13  0.5400E+01
     11.103 -0.1422E-14  0.5400E+01
     11.170 -0.2789E-16  0.5400E+01
     11.236  0.0000E+00  0.5400E+01
     11.302  0.0000E+00  0.5400E+01
     11.369  0.0000E+00  0.5400E+01
     11.435  0.0000E+00  0.5400E+01
     11.501  0.0000E+00  0.5400E+01
     11.568  0.0000E+00  0.5400E+01
     11.634  0.0000E+00  0.5400E+01
     11.701  0.0000E+00  0.5400E+01
     11.767  0.0000E+00  0.5400E+01
     11.833  0.0000E+00  0.5400E+01
     11.900  0.0000E+00  0.5400E+01
