       N       E                     dE             d eps       ncg     rms          rms(c)
DAV:   1     0.569144797038E+03    0.56914E+03   -0.84841E+04  2592   0.107E+03
DAV:   2    -0.310460912402E+03   -0.87961E+03   -0.83435E+03  3096   0.175E+02
DAV:   3    -0.372941258789E+03   -0.62480E+02   -0.61268E+02  3152   0.410E+01
DAV:   4    -0.374498959835E+03   -0.15577E+01   -0.15462E+01  3128   0.789E+00
DAV:   5    -0.374548386210E+03   -0.49426E-01   -0.49327E-01  3078   0.130E+00    0.303E+01
RMM:   6    -0.368661211791E+03    0.58872E+01   -0.30677E+00  2592   0.275E+00    0.183E+01
RMM:   7    -0.366074490244E+03    0.25867E+01   -0.77904E+00  2658   0.437E+00    0.114E+00
RMM:   8    -0.366109151518E+03   -0.34661E-01   -0.70396E-01  2611   0.165E+00    0.527E-01
RMM:   9    -0.366131788921E+03   -0.22637E-01   -0.21441E-01  2669   0.809E-01    0.601E-01
RMM:  10    -0.366135646098E+03   -0.38572E-02   -0.37367E-02  2737   0.381E-01    0.753E-01
RMM:  11    -0.366131687037E+03    0.39591E-02   -0.12348E-02  2592   0.226E-01    0.768E-01
RMM:  12    -0.366131742562E+03   -0.55525E-04   -0.18473E-03  2607   0.102E-01    0.820E-01
RMM:  13    -0.366131824609E+03   -0.82047E-04   -0.36593E-04  2748   0.424E-02    0.863E-01
RMM:  14    -0.366131460063E+03    0.36455E-03   -0.18200E-04  2592   0.311E-02    0.702E-01
RMM:  15    -0.366131722831E+03   -0.26277E-03   -0.76719E-05  2605   0.168E-02    0.661E-01
RMM:  16    -0.366132003195E+03   -0.28036E-03   -0.87356E-05  2592   0.211E-02    0.525E-01
RMM:  17    -0.366132088249E+03   -0.85054E-04   -0.29429E-05  2592   0.134E-02    0.331E-01
RMM:  18    -0.366132121046E+03   -0.32797E-04   -0.98167E-06  2595   0.809E-03    0.181E-01
RMM:  19    -0.366132141072E+03   -0.20026E-04   -0.85225E-06  2464   0.709E-03    0.610E-02
RMM:  20    -0.366132146580E+03   -0.55076E-05   -0.41080E-06  2067   0.488E-03    0.101E-02
RMM:  21    -0.366132147511E+03   -0.93180E-06   -0.77484E-07  1567   0.203E-03
   1 F= -.36613215E+03 E0= -.36614329E+03  d E =-.366132E+03
       N       E                     dE             d eps       ncg     rms          rms(c)
DAV:   1    -0.366134610166E+03   -0.24636E-02   -0.16659E-01  2960   0.785E-01    0.187E-01
RMM:   2    -0.366135423435E+03   -0.81327E-03   -0.84247E-03  2592   0.195E-01    0.750E-02
RMM:   3    -0.366135534347E+03   -0.11091E-03   -0.13274E-03  2643   0.865E-02    0.313E-02
RMM:   4    -0.366135531259E+03    0.30881E-05   -0.17399E-04  2626   0.357E-02    0.110E-02
RMM:   5    -0.366135532879E+03   -0.16194E-05   -0.33914E-05  2670   0.145E-02    0.263E-03
RMM:   6    -0.366135533619E+03   -0.74028E-06   -0.72370E-06  2155   0.618E-03    0.567E-04
RMM:   7    -0.366135533721E+03   -0.10219E-06   -0.10823E-06  1585   0.236E-03    0.376E-04
RMM:   8    -0.366135533742E+03   -0.20668E-07   -0.23483E-07  1340   0.108E-03
   2 F= -.36613553E+03 E0= -.36614624E+03  d E =-.338623E-02
       N       E                     dE             d eps       ncg     rms          rms(c)
DAV:   1    -0.366136346581E+03   -0.81286E-03   -0.16436E-02  2944   0.246E-01    0.583E-02
RMM:   2    -0.366136425341E+03   -0.78760E-04   -0.81211E-04  2592   0.609E-02    0.236E-02
RMM:   3    -0.366136435767E+03   -0.10426E-04   -0.12468E-04  2643   0.269E-02    0.976E-03
RMM:   4    -0.366136435527E+03    0.23963E-06   -0.16391E-05  2618   0.111E-02    0.347E-03
RMM:   5    -0.366136435675E+03   -0.14747E-06   -0.31270E-06  1823   0.446E-03    0.808E-04
RMM:   6    -0.366136435727E+03   -0.52198E-07   -0.62235E-07  1521   0.190E-03    0.177E-04
RMM:   7    -0.366136435742E+03   -0.15273E-07   -0.14649E-07  1111   0.906E-04    0.194E-04
RMM:   8    -0.366136435748E+03   -0.52842E-08   -0.31318E-08   722   0.559E-04
   3 F= -.36613644E+03 E0= -.36614733E+03  d E =-.428824E-02
