 vasp.6.4.3 19Mar24 (build Oct 21 2024 22:36:34) complex                        
  
 executed on             LinuxIFC date 2024.11.01  22:54:19
 running   96 mpi-ranks, on    1 nodes
 distrk:  each k-point on   24 cores,    4 groups
 distr:  one band on NCORE=  12 cores,    2 groups


--------------------------------------------------------------------------------------------------------


 INCAR:
   SYSTEM = Si64
   ISTART = 0
   ICHARG = 2
   LREAL = Auto
   PREC = Accurate
   LWAVE = .False.
   LCHARG = .False.
   ADDGRID = .True.
   ENCUT = 400
   GGA = PS
   GGA_COMPAT = .FALSE.
   ISMEAR = 1
   SIGMA = 0.2
   NELM = 60
   NELMIN = 8
   EDIFF = 1e-06
   EDIFFG = -0.01
   NSW = 60
   IBRION = 2
   ISIF = 2
   KPAR = 4
   NPAR = 2
   ALGO = Fast

 POTCAR:    PAW_PBE Si 05Jan2001                  
 POTCAR:    PAW_PBE Si 05Jan2001                  
   VRHFIN =Si: s2p2                                                                                 
   LEXCH  = PE                                                                                      
   EATOM  =   103.0669 eV,    7.5752 Ry                                                             
                                                                                                    
   TITEL  = PAW_PBE Si 05Jan2001                                                                    
   LULTRA =        F    use ultrasoft PP ?                                                          
   IUNSCR =        1    unscreen: 0-lin 1-nonlin 2-no                                               
   RPACOR =    1.500    partial core radius                                                         
   POMASS =   28.085; ZVAL   =    4.000    mass and valenz                                          
   RCORE  =    1.900    outmost cutoff radius                                                       
   RWIGS  =    2.480; RWIGS  =    1.312    wigner-seitz radius (au A)                               
   ENMAX  =  245.345; ENMIN  =  184.009 eV                                                          
   ICORE  =        2    local potential                                                             
   LCOR   =        T    correct aug charges                                                         
   LPAW   =        T    paw PP                                                                      
   EAUG   =  322.069                                                                                
   DEXC   =    0.000                                                                                
   RMAX   =    1.950    core radius for proj-oper                                                   
   RAUG   =    1.300    factor for augmentation sphere                                              
   RDEP   =    1.993    radius for radial grids                                                     
   RDEPT  =    1.837    core radius for aug-charge                                                  
                                                                                                    
   Atomic configuration                                                                             
    6 entries                                                                                       
     n  l   j            E        occ.                                                              
     1  0  0.50     -1785.8828   2.0000                                                             
     2  0  0.50      -139.4969   2.0000                                                             
     2  1  1.50       -95.5546   6.0000                                                             
     3  0  0.50       -10.8127   2.0000                                                             
     3  1  0.50        -4.0811   2.0000                                                             
     3  2  1.50        -4.0817   0.0000                                                             
   Description                                                                                      
     l       E           TYP  RCUT    TYP  RCUT                                                     
     0    -10.8127223     23  1.900                                                                 
     0     -7.6451159     23  1.900                                                                 
     1     -4.0811372     23  1.900                                                                 
     1      2.4879257     23  1.900                                                                 
     2     -4.0817478      7  1.900                                                                 
  local pseudopotential read in
  partial core-charges read in
  partial kinetic energy density read in
  atomic valenz-charges read in
  non local Contribution for L=           0  read in
    real space projection operators read in
  non local Contribution for L=           0  read in
    real space projection operators read in
  non local Contribution for L=           1  read in
    real space projection operators read in
  non local Contribution for L=           1  read in
    real space projection operators read in
    PAW grid and wavefunctions read in
 
   number of l-projection  operators is LMAX  =           4
   number of lm-projection operators is LMMAX =           8
 
 Optimization of the real space projectors (new method)

 maximal supplied QI-value         = 19.84
 optimisation between [QCUT,QGAM] = [ 10.12, 20.44] = [ 28.68,116.96] Ry 
 Optimized for a Real-space Cutoff    1.38 Angstroem

   l    n(q)    QCUT    max X(q) W(low)/X(q) W(high)/X(q)  e(spline) 
   0      8    10.119   159.560    0.58E-04    0.11E-03    0.54E-07
   0      8    10.119   115.863    0.56E-04    0.11E-03    0.54E-07
   1      8    10.119    88.339    0.22E-03    0.17E-03    0.19E-06
   1      8    10.119    48.592    0.22E-03    0.17E-03    0.18E-06
 -----------------------------------------------------------------------------
|                                                                             |
|               ----> ADVICE to this user running VASP <----                  |
|                                                                             |
|     You enforced a specific xc type in the INCAR file but a different       |
|     type was found in the POTCAR file.                                      |
|     I HOPE YOU KNOW WHAT YOU ARE DOING!                                     |
|                                                                             |
 -----------------------------------------------------------------------------

  PAW_PBE Si 05Jan2001                  :
 energy of atom  1       EATOM= -103.0669
 kinetic energy error for atom=    0.0012 (will be added to EATOM!!)
 
 
 POSCAR: Si8
  positions in direct lattice
  velocities in cartesian coordinates


 exchange-correlation table for PS
   RHO(1)=    0.500       N(1)  =     2000
   RHO(2)=  100.500       N(2)  =     4000
 


--------------------------------------------------------------------------------------------------------


 ion  position               nearest neighbor table
   1  0.000  0.000  0.000-  15 2.30  57 2.30  44 2.31  30 2.31
   2  0.000  0.000  0.500-  16 2.30  58 2.30  43 2.31  29 2.31
   3  0.000  0.500  0.000-  13 2.30  59 2.30  42 2.31  32 2.31
   4  0.000  0.500  0.500-  14 2.30  60 2.30  41 2.31  31 2.31
   5  0.500  0.000  0.000-  11 2.30  61 2.30  48 2.31  26 2.31
   6  0.500  0.000  0.500-  12 2.30  62 2.30  47 2.31  25 2.31
   7  0.500  0.500  0.000-   9 2.30  63 2.30  46 2.31  28 2.31
   8  0.500  0.500  0.500-  10 2.30  64 2.30  45 2.31  27 2.31
   9  0.375  0.375  0.125-   7 2.30  49 2.30  35 2.31  21 2.31
  10  0.375  0.375  0.625-   8 2.30  50 2.30  36 2.31  22 2.31
  11  0.375  0.875  0.125-   5 2.30  51 2.30  33 2.31  23 2.31
  12  0.375  0.875  0.625-   6 2.30  52 2.30  34 2.31  24 2.31
  13  0.875  0.375  0.125-   3 2.30  53 2.30  39 2.31  17 2.31
  14  0.875  0.375  0.625-   4 2.30  54 2.30  40 2.31  18 2.31
  15  0.875  0.875  0.125-   1 2.30  55 2.30  37 2.31  19 2.31
  16  0.875  0.875  0.625-   2 2.30  56 2.30  38 2.31  20 2.31
  17  0.000  0.250  0.250-  29 2.30  41 2.30  13 2.31  57 2.31
  18  0.000  0.250  0.750-  30 2.30  42 2.30  14 2.31  58 2.31
  19  0.000  0.750  0.250-  31 2.30  43 2.30  15 2.31  59 2.31
  20  0.000  0.750  0.750-  32 2.30  44 2.30  16 2.31  60 2.31
  21  0.500  0.250  0.250-  25 2.30  45 2.30   9 2.31  61 2.31
  22  0.500  0.250  0.750-  26 2.30  46 2.30  10 2.31  62 2.31
  23  0.500  0.750  0.250-  27 2.30  47 2.30  11 2.31  63 2.31
  24  0.500  0.750  0.750-  28 2.30  48 2.30  12 2.31  64 2.31
  25  0.375  0.125  0.375-  21 2.30  33 2.30   6 2.31  50 2.31
  26  0.375  0.125  0.875-  22 2.30  34 2.30   5 2.31  49 2.31
  27  0.375  0.625  0.375-  23 2.30  35 2.30   8 2.31  52 2.31
  28  0.375  0.625  0.875-  24 2.30  36 2.30   7 2.31  51 2.31
  29  0.875  0.125  0.375-  17 2.30  37 2.30   2 2.31  54 2.31
  30  0.875  0.125  0.875-  18 2.30  38 2.30   1 2.31  53 2.31
  31  0.875  0.625  0.375-  19 2.30  39 2.30   4 2.31  56 2.31
  32  0.875  0.625  0.875-  20 2.30  40 2.30   3 2.31  55 2.31
  33  0.250  0.000  0.250-  25 2.30  43 2.30  11 2.31  57 2.31
  34  0.250  0.000  0.750-  26 2.30  44 2.30  12 2.31  58 2.31
  35  0.250  0.500  0.250-  27 2.30  41 2.30   9 2.31  59 2.31
  36  0.250  0.500  0.750-  28 2.30  42 2.30  10 2.31  60 2.31
  37  0.750  0.000  0.250-  29 2.30  47 2.30  15 2.31  61 2.31
  38  0.750  0.000  0.750-  30 2.30  48 2.30  16 2.31  62 2.31
  39  0.750  0.500  0.250-  31 2.30  45 2.30  13 2.31  63 2.31
  40  0.750  0.500  0.750-  32 2.30  46 2.30  14 2.31  64 2.31
  41  0.125  0.375  0.375-  17 2.30  35 2.30   4 2.31  50 2.31
  42  0.125  0.375  0.875-  18 2.30  36 2.30   3 2.31  49 2.31
  43  0.125  0.875  0.375-  19 2.30  33 2.30   2 2.31  52 2.31
  44  0.125  0.875  0.875-  20 2.30  34 2.30   1 2.31  51 2.31
  45  0.625  0.375  0.375-  21 2.30  39 2.30   8 2.31  54 2.31
  46  0.625  0.375  0.875-  22 2.30  40 2.30   7 2.31  53 2.31
  47  0.625  0.875  0.375-  23 2.30  37 2.30   6 2.31  56 2.31
  48  0.625  0.875  0.875-  24 2.30  38 2.30   5 2.31  55 2.31
  49  0.250  0.250  0.000-   9 2.30  57 2.30  42 2.31  26 2.31
  50  0.250  0.250  0.500-  10 2.30  58 2.30  41 2.31  25 2.31
  51  0.250  0.750  0.000-  11 2.30  59 2.30  44 2.31  28 2.31
  52  0.250  0.750  0.500-  12 2.30  60 2.30  43 2.31  27 2.31
  53  0.750  0.250  0.000-  13 2.30  61 2.30  46 2.31  30 2.31
  54  0.750  0.250  0.500-  14 2.30  62 2.30  45 2.31  29 2.31
  55  0.750  0.750  0.000-  15 2.30  63 2.30  48 2.31  32 2.31
  56  0.750  0.750  0.500-  16 2.30  64 2.30  47 2.31  31 2.31
  57  0.125  0.125  0.125-   1 2.30  49 2.30  33 2.31  17 2.31
  58  0.125  0.125  0.625-   2 2.30  50 2.30  34 2.31  18 2.31
  59  0.125  0.625  0.125-   3 2.30  51 2.30  35 2.31  19 2.31
  60  0.125  0.625  0.625-   4 2.30  52 2.30  36 2.31  20 2.31
  61  0.625  0.125  0.125-   5 2.30  53 2.30  37 2.31  21 2.31
  62  0.625  0.125  0.625-   6 2.30  54 2.30  38 2.31  22 2.31
  63  0.625  0.625  0.125-   7 2.30  55 2.30  39 2.31  23 2.31
  64  0.625  0.625  0.625-   8 2.30  56 2.30  40 2.31  24 2.31
 
  LATTYP: Found a simple monoclinic cell.
 ALAT       =    10.6172370800
 B/A-ratio  =     1.0050219747
 C/A-ratio  =     1.0050251153
 COS(beta)  =    -0.0050124586
  
  Lattice vectors:
  
 A1 = (  10.6172035680,  -0.0266760039,   0.0000000000)
 A2 = (   0.0000000000,   0.0000000000, -10.6705565758)
 A3 = (  -0.0266760039,  10.6705565758,   0.0000000000)


Analysis of symmetry for initial positions (statically):
=====================================================================
 Subroutine PRICEL returns following result:
 
  LATTYP: Found a base centered monoclinic cell.
 ALAT       =     5.3086185400
 B/A-ratio  =     1.0050219747
 C/A-ratio  =     0.7071068146
 COS(beta)  =    -0.7035445938
  
  Lattice vectors:
  
 A1 = (  -2.6543008920,   0.0066690010,  -2.6676391440)
 A2 = (  -2.6543008920,   0.0066690010,   2.6676391440)
 A3 = (   2.6476318910,   2.6609701430,   0.0000000000)
 
  32 primitive cells build up your supercell.
 

 Routine SETGRP: Setting up the symmetry group for a 
 simple monoclinic supercell.


 Subroutine GETGRP returns: Found  4 space group operations
 (whereof  2 operations were pure point group operations)
 out of a pool of  4 trial point group operations.


The static configuration has the point symmetry C_2 .
 The point group associated with its full space group is C_2h.


Analysis of symmetry for dynamics (positions and initial velocities):
=====================================================================
 Subroutine PRICEL returns following result:
 
  LATTYP: Found a base centered monoclinic cell.
 ALAT       =     5.3086185400
 B/A-ratio  =     1.0050219747
 C/A-ratio  =     0.7071068146
 COS(beta)  =    -0.7035445938
  
  Lattice vectors:
  
 A1 = (  -2.6543008920,   0.0066690010,  -2.6676391440)
 A2 = (  -2.6543008920,   0.0066690010,   2.6676391440)
 A3 = (   2.6476318910,   2.6609701430,   0.0000000000)
 
  32 primitive cells build up your supercell.
 

 Routine SETGRP: Setting up the symmetry group for a 
 simple monoclinic supercell.


 Subroutine GETGRP returns: Found  4 space group operations
 (whereof  2 operations were pure point group operations)
 out of a pool of  4 trial point group operations.


The dynamic configuration has the point symmetry C_2 .
 The point group associated with its full space group is C_2h.


 Subroutine INISYM returns: Found  4 space group operations
 (whereof  2 operations are pure point group operations),
 and found    32 'primitive' translations


----------------------------------------------------------------------------------------

                                     Primitive cell                                     

  volume of cell :      37.7774

  direct lattice vectors                    reciprocal lattice vectors
    -2.654300892  0.006669001 -2.667639144    -0.187903772  0.186961895 -0.187431648
    -2.654300892  0.006669001  2.667639144    -0.187903772  0.186961895  0.187431648
     2.647631891  2.660970143  0.000000000     0.000941860  0.374865650 -0.000000000

  length of vectors
     3.763197617  3.763197617  3.753760346     0.324643189  0.324643189  0.374866833

  position of ions in fractional coordinates (direct lattice)
     0.000000000  0.000000000  0.000000000
     0.750000000  0.250000000  0.500000000

  ion indices of the primitive-cell ions
   primitive index   ion index
                 1           1
                 2          15

----------------------------------------------------------------------------------------

 
 
 KPOINTS: Automatic mesh                          

Automatic generation of k-mesh.
 Grid dimensions read from file:
 generate k-points for:    2    2    2

 Generating k-lattice:

  Cartesian coordinates                     Fractional coordinates (reciprocal lattice)
     0.047093676  0.000117732  0.000000000     0.500000000 -0.000000000  0.000000000
     0.000117732  0.046858206  0.000000000    -0.000000000  0.500000000  0.000000000
     0.000000000  0.000000000  0.046857912     0.000000000  0.000000000  0.500000000

  Length of vectors
     0.047093823  0.046858354  0.046857912

  Shift w.r.t. Gamma in fractional coordinates (k-lattice)
     0.000000000  0.000000000  0.000000000

 
 Subroutine IBZKPT returns following result:
 ===========================================
 
 Found      8 irreducible k-points:
 
 Following reciprocal coordinates:
            Coordinates               Weight
  0.000000  0.000000  0.000000      1.000000
  0.500000 -0.000000  0.000000      1.000000
 -0.000000  0.500000  0.000000      1.000000
  0.500000  0.500000  0.000000      1.000000
  0.000000  0.000000  0.500000      1.000000
  0.500000 -0.000000  0.500000      1.000000
 -0.000000  0.500000  0.500000      1.000000
  0.500000  0.500000  0.500000      1.000000
 
 Following cartesian coordinates:
            Coordinates               Weight
  0.000000  0.000000  0.000000      1.000000
  0.047094  0.000118  0.000000      1.000000
  0.000118  0.046858  0.000000      1.000000
  0.047211  0.046976  0.000000      1.000000
  0.000000  0.000000  0.046858      1.000000
  0.047094  0.000118  0.046858      1.000000
  0.000118  0.046858  0.046858      1.000000
  0.047211  0.046976  0.046858      1.000000
 


--------------------------------------------------------------------------------------------------------




 Dimension of arrays:
   k-points           NKPTS =      8   k-points in BZ     NKDIM =      8   number of bands    NBANDS=    162
   number of dos      NEDOS =    301   number of ions     NIONS =     64
   non local maximal  LDIM  =      4   non local SUM 2l+1 LMDIM =      8
   total plane-waves  NPLWV = 343000
   max r-space proj   IRMAX =   3177   max aug-charges    IRDMAX=  76084
   dimension x,y,z NGX =    70 NGY =   70 NGZ =   70
   dimension x,y,z NGXF=   140 NGYF=  140 NGZF=  140
   support grid    NGXF=   280 NGYF=  280 NGZF=  280
   ions per type =              64
   NGX,Y,Z   is equivalent  to a cutoff of  10.96, 10.91, 10.91 a.u.
   NGXF,Y,Z  is equivalent  to a cutoff of  21.92, 21.81, 21.81 a.u.

 SYSTEM =  Si64                                    
 POSCAR =  Si8                                     

 Startparameter for this run:
   NWRITE =      2    write-flag & timer
   PREC   = accura    normal or accurate (medium, high low for compatibility)
   ISTART =      0    job   : 0-new  1-cont  2-samecut
   ICHARG =      2    charge: 1-file 2-atom 10-const
   ISPIN  =      1    spin polarized calculation?
   LNONCOLLINEAR =      F non collinear calculations
   LSORBIT =      F    spin-orbit coupling
   INIWAV =      1    electr: 0-lowe 1-rand  2-diag
   LASPH  =      F    aspherical Exc in radial PAW
 Electronic Relaxation 1
   ENCUT  =  400.0 eV  29.40 Ry    5.42 a.u.  17.31 17.40 17.40*2*pi/ulx,y,z
   ENINI  =  400.0     initial cutoff
   ENAUG  =  322.1 eV  augmentation charge cutoff
   NELM   =     60;   NELMIN=  8; NELMDL= -5     # of ELM steps 
   EDIFF  = 0.1E-05   stopping-criterion for ELM
   LREAL  =      T    real-space projection
   NLSPLINE    = F    spline interpolate recip. space projectors
   LCOMPAT=      F    compatible to vasp.4.4
   GGA_COMPAT  = F    GGA compatible to vasp.4.4-vasp.4.6
   LMAXPAW     = -100 max onsite density
   LMAXMIX     =    2 max onsite mixed and CHGCAR
   VOSKOWN=      0    Vosko Wilk Nusair interpolation
   ROPT   =   -0.00025
 Ionic relaxation
   EDIFFG = -.1E-01   stopping-criterion for IOM
   NSW    =     60    number of steps for IOM
   NBLOCK =      1;   KBLOCK =     60    inner block; outer block 
   IBRION =      2    ionic relax: 0-MD 1-quasi-New 2-CG
   NFREE  =      1    steps in history (QN), initial steepest desc. (CG)
   ISIF   =      2    stress and relaxation
   IWAVPR =     11    prediction:  0-non 1-charg 2-wave 3-comb
   ISYM   =      2    0-nonsym 1-usesym 2-fastsym
   LCORR  =      T    Harris-Foulkes like correction to forces

   POTIM  = 0.5000    time-step for ionic-motion
   TEIN   =    0.0    initial temperature
   TEBEG  =    0.0;   TEEND  =   0.0 temperature during run
   SMASS  =  -3.00    Nose mass-parameter (am)
   estimated Nose-frequenzy (Omega)   =  0.10E-29 period in steps = 0.13E+47 mass=  -0.258E-26a.u.
   SCALEE = 1.0000    scale energy and forces
   NPACO  =    256;   APACO  = 10.0  distance and # of slots for P.C.
   PSTRESS=    0.0 pullay stress

  Mass of Ions in am
   POMASS =  28.09
  Ionic Valenz
   ZVAL   =   4.00
  Atomic Wigner-Seitz radii
   RWIGS  =  -1.00
  virtual crystal weights 
   VCA    =   1.00
   NELECT =     256.0000    total number of electrons
   NUPDOWN=      -1.0000    fix difference up-down

 DOS related values:
   EMIN   =  10.00;   EMAX   =-10.00  energy-range for DOS
   EFERMI =   0.00;   METHOD = LEGACY      
   ISMEAR =     1;   SIGMA  =   0.20  broadening in eV -4-tet -1-fermi 0-gaus

 Electronic relaxation 2 (details)
   IALGO  =     68    algorithm
   LDIAG  =      T    sub-space diagonalisation (order eigenvalues)
   LSUBROT=      F    optimize rotation matrix (better conditioning)
   TURBO    =      0    0=normal 1=particle mesh
   IRESTART =      0    0=no restart 2=restart with 2 vectors
   NREBOOT  =      0    no. of reboots
   NMIN     =      0    reboot dimension
   EREF     =   0.00    reference energy to select bands
   IMIX   =      4    mixing-type and parameters
     AMIX     =   0.40;   BMIX     =  1.00
     AMIX_MAG =   1.60;   BMIX_MAG =  1.00
     AMIN     =   0.10
     WC   =   100.;   INIMIX=   1;  MIXPRE=   1;  MAXMIX= -45

 Intra band minimization:
   WEIMIN = 0.0010     energy-eigenvalue tresh-hold
   EBREAK =  0.15E-08  absolut break condition
   DEPER  =   0.30     relativ break condition  

   TIME   =   0.40     timestep for ELM

  volume/ion in A,a.u.               =      18.89       127.47
  Fermi-wavevector in a.u.,A,eV,Ry     =   0.975800  1.843995 12.955281  0.952186
  Thomas-Fermi vector in A             =   2.106369
 
 Write flags
   LWAVE        =      F    write WAVECAR
   LDOWNSAMPLE  =      F    k-point downsampling of WAVECAR
   LCHARG       =      F    write CHGCAR
   LVTOT        =      F    write LOCPOT, total local potential
   LVHAR        =      F    write LOCPOT, Hartree potential only
   WRT_POTENTIAL= false  ! write potential to hdf5 file
   LELF         =      F    write electronic localiz. function (ELF)
   LORBIT       =      0    0 simple, 1 ext, 2 COOP (PROOUT), +10 PAW based schemes


 Dipole corrections
   LMONO      =      F    monopole corrections only (constant potential shift)
   LDIPOL     =      F    correct potential (dipole corrections)
   IDIPOL     =      0    1-x, 2-y, 3-z, 4-all directions 
   EPSILON    =  1.0000000 bulk dielectric constant
   LVACPOTAV  =      F  vacuum potentials using an averaging scheme for the charge density
   VACPOTFLAT =  0.1000000 required flatness to determine vacuum potential
 Exchange correlation treatment:
   GGA     = PS    functional components
   XC_C    = 1    coefficients multiplying the functional components
   LIBXC   =     F    Libxc                    
   VOSKOWN =     0    Vosko Wilk Nusair interpolation
   LHFCALC =     F    Hartree Fock is set to
   LHFONE  =     F    Hartree Fock one center treatment
   AEXX    =    0.0000 exact exchange contribution

 Parameters of functionals:
   PS:
     No parameter
 
 Van der Waals corrections
   IVDW    =     0    specifies the selected vdW correction

 Linear response parameters
   LEPSILON=     F    determine dielectric tensor
   LRPA    =     F    only Hartree local field effects (RPA)
   LNABLA  =     F    use nabla operator in PAW spheres
   LVEL    =     F    velocity operator in full k-point grid
   CSHIFT  =0.1000    complex shift for real part using Kramers Kronig
   OMEGAMAX=  -1.0    maximum frequency
   DEG_THRESHOLD= 0.2000000E-02 threshold for treating states as degnerate
   RTIME   =   -0.100 relaxation time in fs
  (WPLASMAI=    0.000 imaginary part of plasma frequency in eV, 0.658/RTIME)
   DFIELD  = 0.0000000 0.0000000 0.0000000 field for delta impulse in time
 
  Optional k-point grid parameters
   LKPOINTS_OPT  =     F    use optional k-point grid
   KPOINTS_OPT_MODE=     1    mode for optional k-point grid
 
 Orbital magnetization related:
   ORBITALMAG=     F  switch on orbital magnetization
   LCHIMAG   =     F  perturbation theory with respect to B field
   DQ        =  0.001000  dq finite difference perturbation B field
   LLRAUG    =     F  two centre corrections for induced B field
   LBONE     =     F  B-component reconstruction in AE one-centre
   LVGVCALC  =     T  calculate vGv susceptibility
   LVGVAPPL  =     F  apply vGv susceptibility instead of pGv for G=0

 Random number generation:
   RANDOM_GENERATOR = DEFAULT
   PCG_SEED         = not used


--------------------------------------------------------------------------------------------------------


 conjugate gradient relaxation of ions
 charge density and potential will be updated during run
 non-spin polarized calculation
 RMM-DIIS sequential band-by-band and
  variant of blocked Davidson during initial phase
 perform sub-space diagonalisation
    before iterative eigenvector-optimisation
 modified Broyden-mixing scheme, WC =      100.0
 initial mixing is a Kerker type mixing with AMIX =  0.4000 and BMIX =      1.0000
 Hartree-type preconditioning will be used
 using additional bands           34
 real space projection scheme for non local part
 use partial core corrections
 calculate Harris-corrections to forces 
   (improved forces if not selfconsistent)
 use gradient corrections 
 use of overlap-Matrix (Vanderbilt PP)
 Methfessel and Paxton  Order N= 1 SIGMA  =   0.20


--------------------------------------------------------------------------------------------------------


  energy-cutoff  :      400.00
  volume of cell :     1208.88
      direct lattice vectors                 reciprocal lattice vectors
    10.617203568 -0.026676004  0.000000000     0.094187351  0.000235465  0.000000000
    -0.026676004 10.670556576  0.000000000     0.000235465  0.093716412  0.000000000
     0.000000000  0.000000000 10.670556576     0.000000000  0.000000000  0.093715824

  length of vectors
    10.617237080 10.670589920 10.670556576     0.094187646  0.093716708  0.093715824


 
 k-points in units of 2pi/SCALE and weight: Automatic mesh                          
   0.00000000  0.00000000  0.00000000       0.125
   0.04709368  0.00011773  0.00000000       0.125
   0.00011773  0.04685821  0.00000000       0.125
   0.04721142  0.04697595  0.00000000       0.125
   0.00000000  0.00000000  0.04685792       0.125
   0.04709368  0.00011773  0.04685792       0.125
   0.00011773  0.04685821  0.04685792       0.125
   0.04721142  0.04697595  0.04685792       0.125
 
 k-points in reciprocal lattice and weights: Automatic mesh                          
   0.00000000  0.00000000  0.00000000       0.125
   0.50000000 -0.00000000  0.00000000       0.125
  -0.00000000  0.50000000  0.00000000       0.125
   0.50000000  0.50000000  0.00000000       0.125
   0.00000000  0.00000000  0.50000000       0.125
   0.50000000 -0.00000000  0.50000000       0.125
  -0.00000000  0.50000000  0.50000000       0.125
   0.50000000  0.50000000  0.50000000       0.125
 
 position of ions in fractional coordinates (direct lattice) 
   0.00000000  0.00000000  0.00000000
   0.00000000  0.00000000  0.50000000
   0.00000000  0.50000000  0.00000000
   0.00000000  0.50000000  0.50000000
   0.50000000  0.00000000  0.00000000
   0.50000000  0.00000000  0.50000000
   0.50000000  0.50000000  0.00000000
   0.50000000  0.50000000  0.50000000
   0.37500000  0.37500000  0.12500000
   0.37500000  0.37500000  0.62500000
   0.37500000  0.87500000  0.12500000
   0.37500000  0.87500000  0.62500000
   0.87500000  0.37500000  0.12500000
   0.87500000  0.37500000  0.62500000
   0.87500000  0.87500000  0.12500000
   0.87500000  0.87500000  0.62500000
   0.00000000  0.25000000  0.25000000
   0.00000000  0.25000000  0.75000000
   0.00000000  0.75000000  0.25000000
   0.00000000  0.75000000  0.75000000
   0.50000000  0.25000000  0.25000000
   0.50000000  0.25000000  0.75000000
   0.50000000  0.75000000  0.25000000
   0.50000000  0.75000000  0.75000000
   0.37500000  0.12500000  0.37500000
   0.37500000  0.12500000  0.87500000
   0.37500000  0.62500000  0.37500000
   0.37500000  0.62500000  0.87500000
   0.87500000  0.12500000  0.37500000
   0.87500000  0.12500000  0.87500000
   0.87500000  0.62500000  0.37500000
   0.87500000  0.62500000  0.87500000
   0.25000000  0.00000000  0.25000000
   0.25000000  0.00000000  0.75000000
   0.25000000  0.50000000  0.25000000
   0.25000000  0.50000000  0.75000000
   0.75000000  0.00000000  0.25000000
   0.75000000  0.00000000  0.75000000
   0.75000000  0.50000000  0.25000000
   0.75000000  0.50000000  0.75000000
   0.12500000  0.37500000  0.37500000
   0.12500000  0.37500000  0.87500000
   0.12500000  0.87500000  0.37500000
   0.12500000  0.87500000  0.87500000
   0.62500000  0.37500000  0.37500000
   0.62500000  0.37500000  0.87500000
   0.62500000  0.87500000  0.37500000
   0.62500000  0.87500000  0.87500000
   0.25000000  0.25000000  0.00000000
   0.25000000  0.25000000  0.50000000
   0.25000000  0.75000000  0.00000000
   0.25000000  0.75000000  0.50000000
   0.75000000  0.25000000  0.00000000
   0.75000000  0.25000000  0.50000000
   0.75000000  0.75000000  0.00000000
   0.75000000  0.75000000  0.50000000
   0.12500000  0.12500000  0.12500000
   0.12500000  0.12500000  0.62500000
   0.12500000  0.62500000  0.12500000
   0.12500000  0.62500000  0.62500000
   0.62500000  0.12500000  0.12500000
   0.62500000  0.12500000  0.62500000
   0.62500000  0.62500000  0.12500000
   0.62500000  0.62500000  0.62500000
 
 position of ions in cartesian coordinates  (Angst):
   0.00000000  0.00000000  0.00000000
   0.00000000  0.00000000  5.33527829
  -0.01333800  5.33527829  0.00000000
  -0.01333800  5.33527829  5.33527829
   5.30860178 -0.01333800  0.00000000
   5.30860178 -0.01333800  5.33527829
   5.29526378  5.32194029  0.00000000
   5.29526378  5.32194029  5.33527829
   3.97144784  3.99145521  1.33381957
   3.97144784  3.99145521  6.66909786
   3.95810983  9.32673350  1.33381957
   3.95810983  9.32673350  6.66909786
   9.28004962  3.97811721  1.33381957
   9.28004962  3.97811721  6.66909786
   9.26671162  9.31339550  1.33381957
   9.26671162  9.31339550  6.66909786
  -0.00666900  2.66763914  2.66763914
  -0.00666900  2.66763914  8.00291743
  -0.02000700  8.00291743  2.66763914
  -0.02000700  8.00291743  8.00291743
   5.30193278  2.65430114  2.66763914
   5.30193278  2.65430114  8.00291743
   5.28859478  7.98957943  2.66763914
   5.28859478  7.98957943  8.00291743
   3.97811684  1.32381607  4.00145872
   3.97811684  1.32381607  9.33673700
   3.96477884  6.65909436  4.00145872
   3.96477884  6.65909436  9.33673700
   9.28671862  1.31047807  4.00145872
   9.28671862  1.31047807  9.33673700
   9.27338062  6.64575636  4.00145872
   9.27338062  6.64575636  9.33673700
   2.65430089 -0.00666900  2.66763914
   2.65430089 -0.00666900  8.00291743
   2.64096289  5.32860929  2.66763914
   2.64096289  5.32860929  8.00291743
   7.96290268 -0.02000700  2.66763914
   7.96290268 -0.02000700  8.00291743
   7.94956467  5.31527128  2.66763914
   7.94956467  5.31527128  8.00291743
   1.31714694  3.99812422  4.00145872
   1.31714694  3.99812422  9.33673700
   1.30380894  9.33340250  4.00145872
   1.30380894  9.33340250  9.33673700
   6.62574873  3.98478621  4.00145872
   6.62574873  3.98478621  9.33673700
   6.61241073  9.32006450  4.00145872
   6.61241073  9.32006450  9.33673700
   2.64763189  2.66097014  0.00000000
   2.64763189  2.66097014  5.33527829
   2.63429389  7.99624843  0.00000000
   2.63429389  7.99624843  5.33527829
   7.95623367  2.64763214  0.00000000
   7.95623367  2.64763214  5.33527829
   7.94289567  7.98291043  0.00000000
   7.94289567  7.98291043  5.33527829
   1.32381595  1.33048507  1.33381957
   1.32381595  1.33048507  6.66909786
   1.31047794  6.66576336  1.33381957
   1.31047794  6.66576336  6.66909786
   6.63241773  1.31714707  1.33381957
   6.63241773  1.31714707  6.66909786
   6.61907973  6.65242536  1.33381957
   6.61907973  6.65242536  6.66909786
 


--------------------------------------------------------------------------------------------------------


 k-point     1 :   0.0000 0.0000 0.0000  plane waves:   22023
 k-point     2 :   0.5000-0.0000 0.0000  plane waves:   21978
 k-point     3 :  -0.0000 0.5000 0.0000  plane waves:   21954
 k-point     4 :   0.5000 0.5000 0.0000  plane waves:   21934
 k-point     5 :   0.0000 0.0000 0.5000  plane waves:   21958
 k-point     6 :   0.5000-0.0000 0.5000  plane waves:   21924
 k-point     7 :  -0.0000 0.5000 0.5000  plane waves:   21924
 k-point     8 :   0.5000 0.5000 0.5000  plane waves:   21976

 maximum and minimum number of plane-waves per node :      1871     1800

 maximum number of plane-waves:     22023
 maximum index in each direction: 
   IXMAX=   17   IYMAX=   17   IZMAX=   17
   IXMIN=  -17   IYMIN=  -17   IZMIN=  -17


 real space projection operators:
  total allocation   :      12136.50 KBytes
  max/ min on nodes  :       1050.75        877.25


 parallel 3D FFT for wavefunctions:
    minimum data exchange during FFTs selected (reduces bandwidth)
 parallel 3D FFT for charge:
    minimum data exchange during FFTs selected (reduces bandwidth)


 total amount of memory used by VASP MPI-rank0    79113. kBytes
=======================================================================

   base      :      30000. kBytes
   nonlr-proj:       4689. kBytes
   fftplans  :      17992. kBytes
   grid      :       6881. kBytes
   one-center:         18. kBytes
   wavefun   :      19533. kBytes
 
     INWAV:  cpu time      0.0000: real time      0.0004
 Broyden mixing: mesh for mixing (old mesh)
   NGX = 35   NGY = 35   NGZ = 35
  (NGX  =140   NGY  =140   NGZ  =140)
  gives a total of  42875 points

 initial charge density was supplied:
 charge density of overlapping atoms calculated
 number of electron     256.0000000 magnetization 
 keeping initial charge density in first step


--------------------------------------------------------------------------------------------------------


 Maximum index for non-local projection operator          282
 Maximum index for augmentation-charges         3747 (set IRDMAX)


--------------------------------------------------------------------------------------------------------


 First call to EWALD:  gamma=   0.166
 Maximum number of real-space cells 3x 3x 3
 Maximum number of reciprocal cells 3x 3x 3

    FEWALD:  cpu time      0.0032: real time      0.0032


--------------------------------------- Ionic step        1  -------------------------------------------




--------------------------------------- Iteration      1(   1)  ---------------------------------------


    POTLOK:  cpu time      0.0917: real time      0.0985
    SETDIJ:  cpu time      0.0896: real time      0.0903
     EDDAV:  cpu time      1.3055: real time      1.3844
       DOS:  cpu time      0.0100: real time      0.0128
    --------------------------------------------
      LOOP:  cpu time      1.4969: real time      1.5861

 eigenvalue-minimisations  :  2592
 total energy-change (2. order) : 0.5691448E+03  (-0.8484138E+04)
 number of electron     256.0000000 magnetization 
 augmentation part      256.0000000 magnetization 

 Free energy of the ion-electron system (eV)
  ---------------------------------------------------
  alpha Z        PSCENC =       114.05987479
  Ewald energy   TEWEN  =     -7456.34336914
  -Hartree energ DENC   =      -324.82790080
  -exchange      EXHF   =         0.00000000
  -V(xc)+E(xc)   XCENC  =      -551.68293400
  PAW double counting   =      5598.62625415    -4492.17844134
  entropy T*S    EENTRO =        -0.00567689
  eigenvalues    EBANDS =      1116.70112928
  atomic energy  EATOM  =      6564.79586099
  Solvation  Ediel_sol  =         0.00000000
  ---------------------------------------------------
  free energy    TOTEN  =       569.14479704 eV

  energy without entropy =      569.15047393  energy(sigma->0) =      569.14668933


--------------------------------------------------------------------------------------------------------




--------------------------------------- Iteration      1(   2)  ---------------------------------------


     EDDAV:  cpu time      1.3257: real time      1.3359
       DOS:  cpu time      0.0013: real time      0.0013
    --------------------------------------------
      LOOP:  cpu time      1.3270: real time      1.3372

 eigenvalue-minimisations  :  3096
 total energy-change (2. order) :-0.8796057E+03  (-0.8343506E+03)
 number of electron     256.0000000 magnetization 
 augmentation part      256.0000000 magnetization 

 Free energy of the ion-electron system (eV)
  ---------------------------------------------------
  alpha Z        PSCENC =       114.05987479
  Ewald energy   TEWEN  =     -7456.34336914
  -Hartree energ DENC   =      -324.82790080
  -exchange      EXHF   =         0.00000000
  -V(xc)+E(xc)   XCENC  =      -551.68293400
  PAW double counting   =      5598.62625415    -4492.17844134
  entropy T*S    EENTRO =         0.00888898
  eigenvalues    EBANDS =       237.08085397
  atomic energy  EATOM  =      6564.79586099
  Solvation  Ediel_sol  =         0.00000000
  ---------------------------------------------------
  free energy    TOTEN  =      -310.46091240 eV

  energy without entropy =     -310.46980138  energy(sigma->0) =     -310.46387540


--------------------------------------------------------------------------------------------------------




--------------------------------------- Iteration      1(   3)  ---------------------------------------


     EDDAV:  cpu time      1.3764: real time      1.3913
       DOS:  cpu time      0.0013: real time      0.0013
    --------------------------------------------
      LOOP:  cpu time      1.3776: real time      1.3927

 eigenvalue-minimisations  :  3152
 total energy-change (2. order) :-0.6248035E+02  (-0.6126823E+02)
 number of electron     256.0000000 magnetization 
 augmentation part      256.0000000 magnetization 

 Free energy of the ion-electron system (eV)
  ---------------------------------------------------
  alpha Z        PSCENC =       114.05987479
  Ewald energy   TEWEN  =     -7456.34336914
  -Hartree energ DENC   =      -324.82790080
  -exchange      EXHF   =         0.00000000
  -V(xc)+E(xc)   XCENC  =      -551.68293400
  PAW double counting   =      5598.62625415    -4492.17844134
  entropy T*S    EENTRO =         0.00816621
  eigenvalues    EBANDS =       174.60123036
  atomic energy  EATOM  =      6564.79586099
  Solvation  Ediel_sol  =         0.00000000
  ---------------------------------------------------
  free energy    TOTEN  =      -372.94125879 eV

  energy without entropy =     -372.94942499  energy(sigma->0) =     -372.94398086


--------------------------------------------------------------------------------------------------------




--------------------------------------- Iteration      1(   4)  ---------------------------------------


     EDDAV:  cpu time      1.3373: real time      1.3507
       DOS:  cpu time      0.0014: real time      0.0014
    --------------------------------------------
      LOOP:  cpu time      1.3386: real time      1.3521

 eigenvalue-minimisations  :  3128
 total energy-change (2. order) :-0.1557701E+01  (-0.1546183E+01)
 number of electron     256.0000000 magnetization 
 augmentation part      256.0000000 magnetization 

 Free energy of the ion-electron system (eV)
  ---------------------------------------------------
  alpha Z        PSCENC =       114.05987479
  Ewald energy   TEWEN  =     -7456.34336914
  -Hartree energ DENC   =      -324.82790080
  -exchange      EXHF   =         0.00000000
  -V(xc)+E(xc)   XCENC  =      -551.68293400
  PAW double counting   =      5598.62625415    -4492.17844134
  entropy T*S    EENTRO =         0.00813671
  eigenvalues    EBANDS =       173.04355881
  atomic energy  EATOM  =      6564.79586099
  Solvation  Ediel_sol  =         0.00000000
  ---------------------------------------------------
  free energy    TOTEN  =      -374.49895983 eV

  energy without entropy =     -374.50709655  energy(sigma->0) =     -374.50167207


--------------------------------------------------------------------------------------------------------




--------------------------------------- Iteration      1(   5)  ---------------------------------------


     EDDAV:  cpu time      1.3060: real time      1.3230
       DOS:  cpu time      0.0012: real time      0.0012
    CHARGE:  cpu time      0.2467: real time      0.2498
    MIXING:  cpu time      0.0115: real time      0.0131
    --------------------------------------------
      LOOP:  cpu time      1.5654: real time      1.5871

 eigenvalue-minimisations  :  3078
 total energy-change (2. order) :-0.4942637E-01  (-0.4932669E-01)
 number of electron     256.0000000 magnetization 
 augmentation part      -15.1013905 magnetization 

 Broyden mixing:
  rms(total) = 0.30333E+01    rms(broyden)= 0.30332E+01
  rms(prec ) = 0.33408E+01
  weight for this iteration     100.00

 Free energy of the ion-electron system (eV)
  ---------------------------------------------------
  alpha Z        PSCENC =       114.05987479
  Ewald energy   TEWEN  =     -7456.34336914
  -Hartree energ DENC   =      -324.82790080
  -exchange      EXHF   =         0.00000000
  -V(xc)+E(xc)   XCENC  =      -551.68293400
  PAW double counting   =      5598.62625415    -4492.17844134
  entropy T*S    EENTRO =         0.00810899
  eigenvalues    EBANDS =       172.99416016
  atomic energy  EATOM  =      6564.79586099
  Solvation  Ediel_sol  =         0.00000000
  ---------------------------------------------------
  free energy    TOTEN  =      -374.54838621 eV

  energy without entropy =     -374.55649520  energy(sigma->0) =     -374.55108921


--------------------------------------------------------------------------------------------------------




--------------------------------------- Iteration      1(   6)  ---------------------------------------


    POTLOK:  cpu time      0.0731: real time      0.0866
    SETDIJ:  cpu time      0.0747: real time      0.0749
    EDDIAG:  cpu time      0.1385: real time      0.1420
  RMM-DIIS:  cpu time      0.6960: real time      0.7002
    ORTHCH:  cpu time      0.0213: real time      0.0213
       DOS:  cpu time      0.0013: real time      0.0013
    CHARGE:  cpu time      0.2326: real time      0.2335
    MIXING:  cpu time      0.0213: real time      0.0231
    --------------------------------------------
      LOOP:  cpu time      1.2589: real time      1.2829

 eigenvalue-minimisations  :  2592
 total energy-change (2. order) : 0.5887174E+01  (-0.3067699E+00)
 number of electron     256.0000000 magnetization 
 augmentation part      -14.9180497 magnetization 

 Broyden mixing:
  rms(total) = 0.18297E+01    rms(broyden)= 0.18297E+01
  rms(prec ) = 0.20025E+01
  weight for this iteration     100.00

 eigenvalues of (default mixing * dielectric matrix)
  average eigenvalue GAMMA=   2.5140
  2.5140

 Free energy of the ion-electron system (eV)
  ---------------------------------------------------
  alpha Z        PSCENC =       114.05987479
  Ewald energy   TEWEN  =     -7456.34336914
  -Hartree energ DENC   =      -373.97194435
  -exchange      EXHF   =         0.00000000
  -V(xc)+E(xc)   XCENC  =      -543.89670051
  PAW double counting   =     13173.14116537   -12070.60208198
  entropy T*S    EENTRO =         0.01185131
  eigenvalues    EBANDS =       224.14413173
  atomic energy  EATOM  =      6564.79586099
  Solvation  Ediel_sol  =         0.00000000
  ---------------------------------------------------
  free energy    TOTEN  =      -368.66121179 eV

  energy without entropy =     -368.67306310  energy(sigma->0) =     -368.66516223


--------------------------------------------------------------------------------------------------------




--------------------------------------- Iteration      1(   7)  ---------------------------------------


    POTLOK:  cpu time      0.0790: real time      0.0953
    SETDIJ:  cpu time      0.0699: real time      0.0700
    EDDIAG:  cpu time      0.1324: real time      0.1327
  RMM-DIIS:  cpu time      0.7052: real time      0.7070
    ORTHCH:  cpu time      0.0205: real time      0.0205
       DOS:  cpu time      0.0021: real time      0.0021
    CHARGE:  cpu time      0.2327: real time      0.2337
    MIXING:  cpu time      0.0063: real time      0.0063
    --------------------------------------------
      LOOP:  cpu time      1.2482: real time      1.2678

 eigenvalue-minimisations  :  2658
 total energy-change (2. order) : 0.2586722E+01  (-0.7790388E+00)
 number of electron     256.0000000 magnetization 
 augmentation part      -14.6590884 magnetization 

 Broyden mixing:
  rms(total) = 0.11381E+00    rms(broyden)= 0.11381E+00
  rms(prec ) = 0.14272E+00
  weight for this iteration     100.00

 eigenvalues of (default mixing * dielectric matrix)
  average eigenvalue GAMMA=   2.2842
  2.2842  2.2842

 Free energy of the ion-electron system (eV)
  ---------------------------------------------------
  alpha Z        PSCENC =       114.05987479
  Ewald energy   TEWEN  =     -7456.34336914
  -Hartree energ DENC   =      -454.90538632
  -exchange      EXHF   =         0.00000000
  -V(xc)+E(xc)   XCENC  =      -530.48922780
  PAW double counting   =     31853.82897900   -30756.76827138
  entropy T*S    EENTRO =         0.03171747
  eigenvalues    EBANDS =       299.71533214
  atomic energy  EATOM  =      6564.79586099
  Solvation  Ediel_sol  =         0.00000000
  ---------------------------------------------------
  free energy    TOTEN  =      -366.07449024 eV

  energy without entropy =     -366.10620771  energy(sigma->0) =     -366.08506273


--------------------------------------------------------------------------------------------------------




--------------------------------------- Iteration      1(   8)  ---------------------------------------


    POTLOK:  cpu time      0.0808: real time      0.0974
    SETDIJ:  cpu time      0.0716: real time      0.0717
    EDDIAG:  cpu time      0.1385: real time      0.1391
  RMM-DIIS:  cpu time      0.6950: real time      0.6966
    ORTHCH:  cpu time      0.0207: real time      0.0207
       DOS:  cpu time      0.0020: real time      0.0020
    CHARGE:  cpu time      0.2328: real time      0.2337
    MIXING:  cpu time      0.0057: real time      0.0057
    --------------------------------------------
      LOOP:  cpu time      1.2470: real time      1.2668

 eigenvalue-minimisations  :  2611
 total energy-change (2. order) :-0.3466127E-01  (-0.7039645E-01)
 number of electron     256.0000000 magnetization 
 augmentation part      -14.7164538 magnetization 

 Broyden mixing:
  rms(total) = 0.52688E-01    rms(broyden)= 0.52688E-01
  rms(prec ) = 0.56327E-01
  weight for this iteration     100.00

 eigenvalues of (default mixing * dielectric matrix)
  average eigenvalue GAMMA=   2.1008
  2.5526  1.8749  1.8749

 Free energy of the ion-electron system (eV)
  ---------------------------------------------------
  alpha Z        PSCENC =       114.05987479
  Ewald energy   TEWEN  =     -7456.34336914
  -Hartree energ DENC   =      -446.13485181
  -exchange      EXHF   =         0.00000000
  -V(xc)+E(xc)   XCENC  =      -531.21805449
  PAW double counting   =     31626.68535356   -30528.57611956
  entropy T*S    EENTRO =         0.03343499
  eigenvalues    EBANDS =       290.58871915
  atomic energy  EATOM  =      6564.79586099
  Solvation  Ediel_sol  =         0.00000000
  ---------------------------------------------------
  free energy    TOTEN  =      -366.10915152 eV

  energy without entropy =     -366.14258651  energy(sigma->0) =     -366.12029652


--------------------------------------------------------------------------------------------------------




--------------------------------------- Iteration      1(   9)  ---------------------------------------


    POTLOK:  cpu time      0.0803: real time      0.0923
    SETDIJ:  cpu time      0.0714: real time      0.0715
    EDDIAG:  cpu time      0.1339: real time      0.1342
  RMM-DIIS:  cpu time      0.7111: real time      0.7128
    ORTHCH:  cpu time      0.0204: real time      0.0204
       DOS:  cpu time      0.0017: real time      0.0017
    CHARGE:  cpu time      0.2323: real time      0.2330
    MIXING:  cpu time      0.0046: real time      0.0046
    --------------------------------------------
      LOOP:  cpu time      1.2555: real time      1.2705

 eigenvalue-minimisations  :  2669
 total energy-change (2. order) :-0.2263740E-01  (-0.2144090E-01)
 number of electron     256.0000000 magnetization 
 augmentation part      -14.7022458 magnetization 

 Broyden mixing:
  rms(total) = 0.60106E-01    rms(broyden)= 0.60106E-01
  rms(prec ) = 0.68432E-01
  weight for this iteration     100.00

 eigenvalues of (default mixing * dielectric matrix)
  average eigenvalue GAMMA=   1.9885
  2.5389  2.4746  2.4746  0.4659

 Free energy of the ion-electron system (eV)
  ---------------------------------------------------
  alpha Z        PSCENC =       114.05987479
  Ewald energy   TEWEN  =     -7456.34336914
  -Hartree energ DENC   =      -449.42590381
  -exchange      EXHF   =         0.00000000
  -V(xc)+E(xc)   XCENC  =      -530.77786615
  PAW double counting   =     32032.68605352   -30934.86154218
  entropy T*S    EENTRO =         0.03330774
  eigenvalues    EBANDS =       293.70179530
  atomic energy  EATOM  =      6564.79586099
  Solvation  Ediel_sol  =         0.00000000
  ---------------------------------------------------
  free energy    TOTEN  =      -366.13178892 eV

  energy without entropy =     -366.16509667  energy(sigma->0) =     -366.14289150


--------------------------------------------------------------------------------------------------------




--------------------------------------- Iteration      1(  10)  ---------------------------------------


    POTLOK:  cpu time      0.0735: real time      0.0884
    SETDIJ:  cpu time      0.0746: real time      0.0747
    EDDIAG:  cpu time      0.1322: real time      0.1325
  RMM-DIIS:  cpu time      0.7282: real time      0.7299
    ORTHCH:  cpu time      0.0203: real time      0.0204
       DOS:  cpu time      0.0023: real time      0.0023
    CHARGE:  cpu time      0.2344: real time      0.2351
    MIXING:  cpu time      0.0043: real time      0.0043
    --------------------------------------------
      LOOP:  cpu time      1.2697: real time      1.2877

 eigenvalue-minimisations  :  2737
 total energy-change (2. order) :-0.3857176E-02  (-0.3736697E-02)
 number of electron     256.0000000 magnetization 
 augmentation part      -14.7088234 magnetization 

 Broyden mixing:
  rms(total) = 0.75321E-01    rms(broyden)= 0.75321E-01
  rms(prec ) = 0.82648E-01
  weight for this iteration     100.00

 eigenvalues of (default mixing * dielectric matrix)
  average eigenvalue GAMMA=   1.4942
  2.6340  2.0117  2.0117  0.6446  0.1691

 Free energy of the ion-electron system (eV)
  ---------------------------------------------------
  alpha Z        PSCENC =       114.05987479
  Ewald energy   TEWEN  =     -7456.34336914
  -Hartree energ DENC   =      -449.46130119
  -exchange      EXHF   =         0.00000000
  -V(xc)+E(xc)   XCENC  =      -530.77380371
  PAW double counting   =     32041.24451427   -30943.42157181
  entropy T*S    EENTRO =         0.03330381
  eigenvalues    EBANDS =       293.73084589
  atomic energy  EATOM  =      6564.79586099
  Solvation  Ediel_sol  =         0.00000000
  ---------------------------------------------------
  free energy    TOTEN  =      -366.13564610 eV

  energy without entropy =     -366.16894990  energy(sigma->0) =     -366.14674737


--------------------------------------------------------------------------------------------------------




--------------------------------------- Iteration      1(  11)  ---------------------------------------


    POTLOK:  cpu time      0.0750: real time      0.0884
    SETDIJ:  cpu time      0.0730: real time      0.0732
    EDDIAG:  cpu time      0.1303: real time      0.1306
  RMM-DIIS:  cpu time      0.6655: real time      0.7128
    ORTHCH:  cpu time      0.0204: real time      0.0204
       DOS:  cpu time      0.0020: real time      0.0020
    CHARGE:  cpu time      0.2309: real time      0.2317
    MIXING:  cpu time      0.0057: real time      0.0057
    --------------------------------------------
      LOOP:  cpu time      1.2028: real time      1.2648

 eigenvalue-minimisations  :  2592
 total energy-change (2. order) : 0.3959060E-02  (-0.1234783E-02)
 number of electron     256.0000000 magnetization 
 augmentation part      -14.7232127 magnetization 

 Broyden mixing:
  rms(total) = 0.76835E-01    rms(broyden)= 0.76835E-01
  rms(prec ) = 0.77603E-01
  weight for this iteration     100.00

 eigenvalues of (default mixing * dielectric matrix)
  average eigenvalue GAMMA=   1.3287
  2.5009  2.5009  1.4499  0.6739  0.6739  0.1723

 Free energy of the ion-electron system (eV)
  ---------------------------------------------------
  alpha Z        PSCENC =       114.05987479
  Ewald energy   TEWEN  =     -7456.34336914
  -Hartree energ DENC   =      -446.90337415
  -exchange      EXHF   =         0.00000000
  -V(xc)+E(xc)   XCENC  =      -530.95899995
  PAW double counting   =     32046.85390795   -30948.75838613
  entropy T*S    EENTRO =         0.03342778
  eigenvalues    EBANDS =       291.08937082
  atomic energy  EATOM  =      6564.79586099
  Solvation  Ediel_sol  =         0.00000000
  ---------------------------------------------------
  free energy    TOTEN  =      -366.13168704 eV

  energy without entropy =     -366.16511482  energy(sigma->0) =     -366.14282963


--------------------------------------------------------------------------------------------------------




--------------------------------------- Iteration      1(  12)  ---------------------------------------


    POTLOK:  cpu time      0.0803: real time      0.0967
    SETDIJ:  cpu time      0.0701: real time      0.0703
    EDDIAG:  cpu time      0.1316: real time      0.1319
  RMM-DIIS:  cpu time      0.6859: real time      0.6875
    ORTHCH:  cpu time      0.0204: real time      0.0205
       DOS:  cpu time      0.0020: real time      0.0020
    CHARGE:  cpu time      0.2553: real time      0.2561
    MIXING:  cpu time      0.0060: real time      0.0060
    --------------------------------------------
      LOOP:  cpu time      1.2516: real time      1.2710

 eigenvalue-minimisations  :  2607
 total energy-change (2. order) :-0.5552505E-04  (-0.1847283E-03)
 number of electron     256.0000000 magnetization 
 augmentation part      -14.7266407 magnetization 

 Broyden mixing:
  rms(total) = 0.81955E-01    rms(broyden)= 0.81955E-01
  rms(prec ) = 0.82558E-01
  weight for this iteration     100.00

 eigenvalues of (default mixing * dielectric matrix)
  average eigenvalue GAMMA=   1.1999
  2.5046  2.5046  1.4593  0.7495  0.7495  0.1789  0.2531

 Free energy of the ion-electron system (eV)
  ---------------------------------------------------
  alpha Z        PSCENC =       114.05987479
  Ewald energy   TEWEN  =     -7456.34336914
  -Hartree energ DENC   =      -446.68365663
  -exchange      EXHF   =         0.00000000
  -V(xc)+E(xc)   XCENC  =      -530.99294555
  PAW double counting   =     31976.11962470   -30878.03033700
  entropy T*S    EENTRO =         0.03342577
  eigenvalues    EBANDS =       290.90977952
  atomic energy  EATOM  =      6564.79586099
  Solvation  Ediel_sol  =         0.00000000
  ---------------------------------------------------
  free energy    TOTEN  =      -366.13174256 eV

  energy without entropy =     -366.16516833  energy(sigma->0) =     -366.14288448


--------------------------------------------------------------------------------------------------------




--------------------------------------- Iteration      1(  13)  ---------------------------------------


    POTLOK:  cpu time      0.0829: real time      0.0918
    SETDIJ:  cpu time      0.0720: real time      0.0722
    EDDIAG:  cpu time      0.1323: real time      0.1326
  RMM-DIIS:  cpu time      0.7301: real time      0.7318
    ORTHCH:  cpu time      0.0206: real time      0.0207
       DOS:  cpu time      0.0019: real time      0.0019
    CHARGE:  cpu time      0.2332: real time      0.2339
    MIXING:  cpu time      0.0062: real time      0.0062
    --------------------------------------------
      LOOP:  cpu time      1.2791: real time      1.2910

 eigenvalue-minimisations  :  2748
 total energy-change (2. order) :-0.8204700E-04  (-0.3659310E-04)
 number of electron     256.0000000 magnetization 
 augmentation part      -14.7271092 magnetization 

 Broyden mixing:
  rms(total) = 0.86305E-01    rms(broyden)= 0.86305E-01
  rms(prec ) = 0.86858E-01
  weight for this iteration     100.00

 eigenvalues of (default mixing * dielectric matrix)
  average eigenvalue GAMMA=   1.6047
  2.8058  2.8058  2.5266  1.8602  1.0546  0.8013  0.8013  0.1821

 Free energy of the ion-electron system (eV)
  ---------------------------------------------------
  alpha Z        PSCENC =       114.05987479
  Ewald energy   TEWEN  =     -7456.34336914
  -Hartree energ DENC   =      -446.72375877
  -exchange      EXHF   =         0.00000000
  -V(xc)+E(xc)   XCENC  =      -530.98629787
  PAW double counting   =     32008.95162867   -30910.86164761
  entropy T*S    EENTRO =         0.03342602
  eigenvalues    EBANDS =       290.94245831
  atomic energy  EATOM  =      6564.79586099
  Solvation  Ediel_sol  =         0.00000000
  ---------------------------------------------------
  free energy    TOTEN  =      -366.13182461 eV

  energy without entropy =     -366.16525063  energy(sigma->0) =     -366.14296661


--------------------------------------------------------------------------------------------------------




--------------------------------------- Iteration      1(  14)  ---------------------------------------


    POTLOK:  cpu time      0.0737: real time      0.0938
    SETDIJ:  cpu time      0.0675: real time      0.0702
    EDDIAG:  cpu time      0.1322: real time      0.1419
  RMM-DIIS:  cpu time      0.6698: real time      0.7089
    ORTHCH:  cpu time      0.0198: real time      0.0207
       DOS:  cpu time      0.0019: real time      0.0019
    CHARGE:  cpu time      0.2321: real time      0.2352
    MIXING:  cpu time      0.0042: real time      0.0043
    --------------------------------------------
      LOOP:  cpu time      1.2011: real time      1.2768

 eigenvalue-minimisations  :  2592
 total energy-change (2. order) : 0.3645462E-03  (-0.1820015E-04)
 number of electron     256.0000000 magnetization 
 augmentation part      -14.7282561 magnetization 

 Broyden mixing:
  rms(total) = 0.70231E-01    rms(broyden)= 0.70231E-01
  rms(prec ) = 0.71081E-01
  weight for this iteration     100.00

 eigenvalues of (default mixing * dielectric matrix)
  average eigenvalue GAMMA=   1.4400
  2.7904  2.4253  2.4253  1.2553  1.2553  0.9683  0.8289  0.8289  0.1822

 Free energy of the ion-electron system (eV)
  ---------------------------------------------------
  alpha Z        PSCENC =       114.05987479
  Ewald energy   TEWEN  =     -7456.34336914
  -Hartree energ DENC   =      -446.28625483
  -exchange      EXHF   =         0.00000000
  -V(xc)+E(xc)   XCENC  =      -531.04233527
  PAW double counting   =     31763.25287953   -30665.19806998
  entropy T*S    EENTRO =         0.03342187
  eigenvalues    EBANDS =       290.59653197
  atomic energy  EATOM  =      6564.79586099
  Solvation  Ediel_sol  =         0.00000000
  ---------------------------------------------------
  free energy    TOTEN  =      -366.13146006 eV

  energy without entropy =     -366.16488194  energy(sigma->0) =     -366.14260069


--------------------------------------------------------------------------------------------------------




--------------------------------------- Iteration      1(  15)  ---------------------------------------


    POTLOK:  cpu time      0.0781: real time      0.0889
    SETDIJ:  cpu time      0.0708: real time      0.0709
    EDDIAG:  cpu time      0.1322: real time      0.1325
  RMM-DIIS:  cpu time      0.6947: real time      0.6963
    ORTHCH:  cpu time      0.0203: real time      0.0206
       DOS:  cpu time      0.0014: real time      0.0014
    CHARGE:  cpu time      0.2320: real time      0.2325
    MIXING:  cpu time      0.0057: real time      0.0057
    --------------------------------------------
      LOOP:  cpu time      1.2353: real time      1.2489

 eigenvalue-minimisations  :  2605
 total energy-change (2. order) :-0.2627679E-03  (-0.7671915E-05)
 number of electron     256.0000000 magnetization 
 augmentation part      -14.7288526 magnetization 

 Broyden mixing:
  rms(total) = 0.66050E-01    rms(broyden)= 0.66050E-01
  rms(prec ) = 0.66723E-01
  weight for this iteration     100.00

 eigenvalues of (default mixing * dielectric matrix)
  average eigenvalue GAMMA=   1.4433
  2.5824  2.5824  2.4738  1.4793  1.4793  1.0043  0.8861  0.8817  0.8817  0.1822

 Free energy of the ion-electron system (eV)
  ---------------------------------------------------
  alpha Z        PSCENC =       114.05987479
  Ewald energy   TEWEN  =     -7456.34336914
  -Hartree energ DENC   =      -446.26636918
  -exchange      EXHF   =         0.00000000
  -V(xc)+E(xc)   XCENC  =      -531.03485506
  PAW double counting   =     31785.08637107   -30687.02235402
  entropy T*S    EENTRO =         0.03341897
  eigenvalues    EBANDS =       290.55969873
  atomic energy  EATOM  =      6564.79586099
  Solvation  Ediel_sol  =         0.00000000
  ---------------------------------------------------
  free energy    TOTEN  =      -366.13172283 eV

  energy without entropy =     -366.16514181  energy(sigma->0) =     -366.14286249


--------------------------------------------------------------------------------------------------------




--------------------------------------- Iteration      1(  16)  ---------------------------------------


    POTLOK:  cpu time      0.0729: real time      0.0885
    SETDIJ:  cpu time      0.0709: real time      0.0711
    EDDIAG:  cpu time      0.1319: real time      0.1322
  RMM-DIIS:  cpu time      0.6967: real time      0.6984
    ORTHCH:  cpu time      0.0210: real time      0.0215
       DOS:  cpu time      0.0013: real time      0.0013
    CHARGE:  cpu time      0.2358: real time      0.2364
    MIXING:  cpu time      0.0052: real time      0.0052
    --------------------------------------------
      LOOP:  cpu time      1.2358: real time      1.2546

 eigenvalue-minimisations  :  2592
 total energy-change (2. order) :-0.2803640E-03  (-0.8735621E-05)
 number of electron     256.0000000 magnetization 
 augmentation part      -14.7278329 magnetization 

 Broyden mixing:
  rms(total) = 0.52484E-01    rms(broyden)= 0.52484E-01
  rms(prec ) = 0.52840E-01
  weight for this iteration     100.00

 eigenvalues of (default mixing * dielectric matrix)
  average eigenvalue GAMMA=   1.4620
  2.6454  2.6454  2.3863  1.4560  1.4560  1.7936  0.8876  0.8876  0.8708  0.8708
  0.1822

 Free energy of the ion-electron system (eV)
  ---------------------------------------------------
  alpha Z        PSCENC =       114.05987479
  Ewald energy   TEWEN  =     -7456.34336914
  -Hartree energ DENC   =      -446.60192920
  -exchange      EXHF   =         0.00000000
  -V(xc)+E(xc)   XCENC  =      -531.00039969
  PAW double counting   =     31800.17013432   -30702.11145772
  entropy T*S    EENTRO =         0.03342150
  eigenvalues    EBANDS =       290.86586096
  atomic energy  EATOM  =      6564.79586099
  Solvation  Ediel_sol  =         0.00000000
  ---------------------------------------------------
  free energy    TOTEN  =      -366.13200319 eV

  energy without entropy =     -366.16542470  energy(sigma->0) =     -366.14314370


--------------------------------------------------------------------------------------------------------




--------------------------------------- Iteration      1(  17)  ---------------------------------------


    POTLOK:  cpu time      0.0771: real time      0.0894
    SETDIJ:  cpu time      0.0712: real time      0.0714
    EDDIAG:  cpu time      0.1319: real time      0.1323
  RMM-DIIS:  cpu time      0.6955: real time      0.6975
    ORTHCH:  cpu time      0.0204: real time      0.0205
       DOS:  cpu time      0.0025: real time      0.0025
    CHARGE:  cpu time      0.2349: real time      0.2357
    MIXING:  cpu time      0.0059: real time      0.0059
    --------------------------------------------
      LOOP:  cpu time      1.2393: real time      1.2551

 eigenvalue-minimisations  :  2592
 total energy-change (2. order) :-0.8505359E-04  (-0.2942894E-05)
 number of electron     256.0000000 magnetization 
 augmentation part      -14.7272501 magnetization 

 Broyden mixing:
  rms(total) = 0.33142E-01    rms(broyden)= 0.33142E-01
  rms(prec ) = 0.33381E-01
  weight for this iteration     100.00

 eigenvalues of (default mixing * dielectric matrix)
  average eigenvalue GAMMA=   1.5179
  1.8776  1.8776  2.6018  2.6018  2.4999  1.8840  1.0483  1.0483  0.8792  0.8569
  0.8569  0.1822

 Free energy of the ion-electron system (eV)
  ---------------------------------------------------
  alpha Z        PSCENC =       114.05987479
  Ewald energy   TEWEN  =     -7456.34336914
  -Hartree energ DENC   =      -446.68722448
  -exchange      EXHF   =         0.00000000
  -V(xc)+E(xc)   XCENC  =      -531.00137971
  PAW double counting   =     31699.32149005   -30601.26720135
  entropy T*S    EENTRO =         0.03342167
  eigenvalues    EBANDS =       290.95643893
  atomic energy  EATOM  =      6564.79586099
  Solvation  Ediel_sol  =         0.00000000
  ---------------------------------------------------
  free energy    TOTEN  =      -366.13208825 eV

  energy without entropy =     -366.16550992  energy(sigma->0) =     -366.14322881


--------------------------------------------------------------------------------------------------------




--------------------------------------- Iteration      1(  18)  ---------------------------------------


    POTLOK:  cpu time      0.0802: real time      0.0954
    SETDIJ:  cpu time      0.0698: real time      0.0700
    EDDIAG:  cpu time      0.1316: real time      0.1319
  RMM-DIIS:  cpu time      0.6832: real time      0.6848
    ORTHCH:  cpu time      0.0199: real time      0.0203
       DOS:  cpu time      0.0015: real time      0.0015
    CHARGE:  cpu time      0.2327: real time      0.2333
    MIXING:  cpu time      0.0060: real time      0.0061
    --------------------------------------------
      LOOP:  cpu time      1.2249: real time      1.2433

 eigenvalue-minimisations  :  2595
 total energy-change (2. order) :-0.3279737E-04  (-0.9816744E-06)
 number of electron     256.0000000 magnetization 
 augmentation part      -14.7270447 magnetization 

 Broyden mixing:
  rms(total) = 0.18138E-01    rms(broyden)= 0.18138E-01
  rms(prec ) = 0.18306E-01
  weight for this iteration     100.00

 eigenvalues of (default mixing * dielectric matrix)
  average eigenvalue GAMMA=   1.6457
  2.8257  2.8257  2.4420  2.4420  2.4952  1.6756  1.6756  1.2822  0.8581  0.8581
  0.9517  0.8806  0.1822

 Free energy of the ion-electron system (eV)
  ---------------------------------------------------
  alpha Z        PSCENC =       114.05987479
  Ewald energy   TEWEN  =     -7456.34336914
  -Hartree energ DENC   =      -446.69376156
  -exchange      EXHF   =         0.00000000
  -V(xc)+E(xc)   XCENC  =      -531.00844692
  PAW double counting   =     31611.35977126   -30513.30663803
  entropy T*S    EENTRO =         0.03342058
  eigenvalues    EBANDS =       290.97116699
  atomic energy  EATOM  =      6564.79586099
  Solvation  Ediel_sol  =         0.00000000
  ---------------------------------------------------
  free energy    TOTEN  =      -366.13212105 eV

  energy without entropy =     -366.16554162  energy(sigma->0) =     -366.14326124


--------------------------------------------------------------------------------------------------------




--------------------------------------- Iteration      1(  19)  ---------------------------------------


    POTLOK:  cpu time      0.0719: real time      0.0886
    SETDIJ:  cpu time      0.0716: real time      0.0717
    EDDIAG:  cpu time      0.1314: real time      0.1317
  RMM-DIIS:  cpu time      0.6558: real time      0.6574
    ORTHCH:  cpu time      0.0201: real time      0.0201
       DOS:  cpu time      0.0023: real time      0.0023
    CHARGE:  cpu time      0.2319: real time      0.2327
    MIXING:  cpu time      0.0063: real time      0.0063
    --------------------------------------------
      LOOP:  cpu time      1.1912: real time      1.2108

 eigenvalue-minimisations  :  2464
 total energy-change (2. order) :-0.2002619E-04  (-0.8522494E-06)
 number of electron     256.0000000 magnetization 
 augmentation part      -14.7268753 magnetization 

 Broyden mixing:
  rms(total) = 0.61004E-02    rms(broyden)= 0.61004E-02
  rms(prec ) = 0.61937E-02
  weight for this iteration     100.00

 eigenvalues of (default mixing * dielectric matrix)
  average eigenvalue GAMMA=   2.1580
 11.1770  2.6760  2.4014  2.3815  2.3815  1.7059  1.7059  0.1822  1.0526  1.0526
  0.8628  0.8628  0.9087  0.8608

 Free energy of the ion-electron system (eV)
  ---------------------------------------------------
  alpha Z        PSCENC =       114.05987479
  Ewald energy   TEWEN  =     -7456.34336914
  -Hartree energ DENC   =      -446.70880377
  -exchange      EXHF   =         0.00000000
  -V(xc)+E(xc)   XCENC  =      -531.01269990
  PAW double counting   =     31549.03301712   -30450.98042950
  entropy T*S    EENTRO =         0.03341931
  eigenvalues    EBANDS =       290.99098903
  atomic energy  EATOM  =      6564.79586099
  Solvation  Ediel_sol  =         0.00000000
  ---------------------------------------------------
  free energy    TOTEN  =      -366.13214107 eV

  energy without entropy =     -366.16556038  energy(sigma->0) =     -366.14328084


--------------------------------------------------------------------------------------------------------




--------------------------------------- Iteration      1(  20)  ---------------------------------------


    POTLOK:  cpu time      0.0729: real time      0.0878
    SETDIJ:  cpu time      0.0757: real time      0.0758
    EDDIAG:  cpu time      0.1329: real time      0.1332
  RMM-DIIS:  cpu time      0.5769: real time      0.5783
    ORTHCH:  cpu time      0.0202: real time      0.0202
       DOS:  cpu time      0.0016: real time      0.0016
    CHARGE:  cpu time      0.2336: real time      0.2344
    MIXING:  cpu time      0.0065: real time      0.0065
    --------------------------------------------
      LOOP:  cpu time      1.1201: real time      1.1377

 eigenvalue-minimisations  :  2067
 total energy-change (2. order) :-0.5507574E-05  (-0.4108034E-06)
 number of electron     256.0000000 magnetization 
 augmentation part      -14.7267255 magnetization 

 Broyden mixing:
  rms(total) = 0.10109E-02    rms(broyden)= 0.10108E-02
  rms(prec ) = 0.10481E-02
  weight for this iteration     100.00

 eigenvalues of (default mixing * dielectric matrix)
  average eigenvalue GAMMA=   2.0186
 11.2357  2.6737  2.3848  2.3848  2.3980  1.7058  1.7058  1.0524  1.0524  0.8628
  0.8628  0.9092  0.8606  0.1822  0.0076

 Free energy of the ion-electron system (eV)
  ---------------------------------------------------
  alpha Z        PSCENC =       114.05987479
  Ewald energy   TEWEN  =     -7456.34336914
  -Hartree energ DENC   =      -446.72484347
  -exchange      EXHF   =         0.00000000
  -V(xc)+E(xc)   XCENC  =      -531.01321284
  PAW double counting   =     31528.57964827   -30430.52702618
  entropy T*S    EENTRO =         0.03341854
  eigenvalues    EBANDS =       291.00750246
  atomic energy  EATOM  =      6564.79586099
  Solvation  Ediel_sol  =         0.00000000
  ---------------------------------------------------
  free energy    TOTEN  =      -366.13214658 eV

  energy without entropy =     -366.16556512  energy(sigma->0) =     -366.14328609


--------------------------------------------------------------------------------------------------------




--------------------------------------- Iteration      1(  21)  ---------------------------------------


    POTLOK:  cpu time      0.0759: real time      0.0924
    SETDIJ:  cpu time      0.0716: real time      0.0718
    EDDIAG:  cpu time      0.1328: real time      0.1331
  RMM-DIIS:  cpu time      0.4484: real time      0.4495
    ORTHCH:  cpu time      0.0195: real time      0.0195
       DOS:  cpu time      0.0027: real time      0.0027
    --------------------------------------------
      LOOP:  cpu time      0.7509: real time      0.7691

 eigenvalue-minimisations  :  1567
 total energy-change (2. order) :-0.9318010E-06  (-0.7748449E-07)
 number of electron     256.0000000 magnetization 
 augmentation part      -14.7267255 magnetization 

 Free energy of the ion-electron system (eV)
  ---------------------------------------------------
  alpha Z        PSCENC =       114.05987479
  Ewald energy   TEWEN  =     -7456.34336914
  -Hartree energ DENC   =      -446.73401881
  -exchange      EXHF   =         0.00000000
  -V(xc)+E(xc)   XCENC  =      -531.01225858
  PAW double counting   =     31531.25755410   -30433.20498390
  entropy T*S    EENTRO =         0.03341835
  eigenvalues    EBANDS =       291.01577470
  atomic energy  EATOM  =      6564.79586099
  Solvation  Ediel_sol  =         0.00000000
  ---------------------------------------------------
  free energy    TOTEN  =      -366.13214751 eV

  energy without entropy =     -366.16556586  energy(sigma->0) =     -366.14328696


--------------------------------------------------------------------------------------------------------




 average (electrostatic) potential at core
  the test charge radii are     0.9892
  (the norm of the test charge is              1.0000)
       1 -82.3675       2 -82.3675       3 -82.3675       4 -82.3675       5 -82.3675
       6 -82.3675       7 -82.3675       8 -82.3675       9 -82.3675      10 -82.3675
      11 -82.3675      12 -82.3675      13 -82.3675      14 -82.3675      15 -82.3675
      16 -82.3675      17 -82.3675      18 -82.3675      19 -82.3675      20 -82.3675
      21 -82.3675      22 -82.3675      23 -82.3675      24 -82.3675      25 -82.3675
      26 -82.3675      27 -82.3675      28 -82.3675      29 -82.3675      30 -82.3675
      31 -82.3675      32 -82.3675      33 -82.3675      34 -82.3675      35 -82.3675
      36 -82.3675      37 -82.3675      38 -82.3675      39 -82.3675      40 -82.3675
      41 -82.3675      42 -82.3675      43 -82.3675      44 -82.3675      45 -82.3675
      46 -82.3675      47 -82.3675      48 -82.3675      49 -82.3675      50 -82.3675
      51 -82.3675      52 -82.3675      53 -82.3675      54 -82.3675      55 -82.3675
      56 -82.3675      57 -82.3675      58 -82.3675      59 -82.3675      60 -82.3675
      61 -82.3675      62 -82.3675      63 -82.3675      64 -82.3675
 
 
 
 E-fermi :   6.6390     XC(G=0):  -9.7772     alpha+bet :-12.6978

 val. band max:        6.4245351196   @ k =   0.0000   0.0000   0.0000
 cond. band min:       6.7703908240   @ k =   0.5000  -0.0000   0.0000
 fundamental gap:      0.3458557044
 Fermi energy:         6.6389735613

 k-point     1 :       0.0000    0.0000    0.0000
  band No.  band energies     occupation 
      1      -6.0051      2.00000
      2      -4.8668      2.00000
      3      -4.8668      2.00000
      4      -4.8668      2.00000
      5      -4.8668      2.00000
      6      -4.8569      2.00000
      7      -4.8569      2.00000
      8      -3.8503      2.00000
      9      -3.8503      2.00000
     10      -3.8422      2.00000
     11      -3.8422      2.00000
     12      -3.8422      2.00000
     13      -3.8422      2.00000
     14      -3.8351      2.00000
     15      -3.8351      2.00000
     16      -3.8351      2.00000
     17      -3.8351      2.00000
     18      -3.8197      2.00000
     19      -3.8197      2.00000
     20      -3.5202      2.00000
     21      -3.5202      2.00000
     22      -3.4850      2.00000
     23      -3.4850      2.00000
     24      -1.6589      2.00000
     25      -1.6384      2.00000
     26      -1.6384      2.00000
     27      -1.6182      2.00000
     28      -1.6060      2.00000
     29      -1.6060      2.00000
     30      -1.4594      2.00000
     31      -1.4594      2.00000
     32      -1.4485      2.00000
     33      -1.4485      2.00000
     34      -1.4251      2.00000
     35      -1.4251      2.00000
     36      -1.4251      2.00000
     37      -1.4251      2.00000
     38      -1.4124      2.00000
     39      -1.4124      2.00000
     40      -1.4016      2.00000
     41      -1.4016      2.00000
     42      -0.9079      2.00000
     43      -0.9079      2.00000
     44      -0.9016      2.00000
     45      -0.9016      2.00000
     46       0.7760      2.00000
     47       0.7760      2.00000
     48       0.7850      2.00000
     49       0.7850      2.00000
     50       0.7850      2.00000
     51       0.7850      2.00000
     52       0.7937      2.00000
     53       0.7937      2.00000
     54       0.8045      2.00000
     55       0.8045      2.00000
     56       0.8045      2.00000
     57       0.8045      2.00000
     58       2.2312      2.00000
     59       2.2312      2.00000
     60       2.2323      2.00000
     61       2.2323      2.00000
     62       2.2344      2.00000
     63       2.2344      2.00000
     64       2.2351      2.00000
     65       2.2351      2.00000
     66       2.2351      2.00000
     67       2.2351      2.00000
     68       2.2356      2.00000
     69       2.2356      2.00000
     70       2.3469      2.00000
     71       2.3469      2.00000
     72       2.3529      2.00000
     73       2.3529      2.00000
     74       2.3529      2.00000
     75       2.3529      2.00000
     76       2.3589      2.00000
     77       2.3589      2.00000
     78       2.3824      2.00000
     79       2.3824      2.00000
     80       2.3824      2.00000
     81       2.3824      2.00000
     82       2.8731      2.00000
     83       2.8731      2.00000
     84       2.8735      2.00000
     85       2.8735      2.00000
     86       2.9115      2.00000
     87       2.9116      2.00000
     88       3.3402      2.00000
     89       3.3402      2.00000
     90       3.3517      2.00000
     91       3.3808      2.00000
     92       3.3808      2.00000
     93       3.4099      2.00000
     94       4.3571      2.00000
     95       4.3571      2.00000
     96       4.3571      2.00000
     97       4.3571      2.00000
     98       4.3625      2.00000
     99       4.3625      2.00000
    100       4.3829      2.00000
    101       4.3829      2.00000
    102       4.3941      2.00000
    103       4.3941      2.00000
    104       4.4148      2.00000
    105       4.4148      2.00000
    106       4.9666      2.00000
    107       4.9666      2.00000
    108       4.9666      2.00000
    109       4.9666      2.00000
    110       4.9948      2.00000
    111       4.9948      2.00000
    112       5.0087      2.00000
    113       5.0087      2.00000
    114       5.0087      2.00000
    115       5.0087      2.00000
    116       5.0229      2.00000
    117       5.0229      2.00000
    118       5.1053      2.00000
    119       5.1053      2.00000
    120       5.1317      2.00000
    121       5.1317      2.00000
    122       5.1566      2.00000
    123       5.1566      2.00000
    124       5.1817      2.00000
    125       5.1817      2.00000
    126       6.3853      2.07036
    127       6.3867      2.07052
    128       6.4245      2.06218
    129       6.8378     -0.04902
    130       6.8378     -0.04902
    131       6.8488     -0.05902
    132       6.8792     -0.07074
    133       6.8792     -0.07074
    134       6.9098     -0.06662
    135       7.3459     -0.00001
    136       7.3459     -0.00001
    137       7.3866     -0.00000
    138       7.3866     -0.00000
    139       7.3867     -0.00000
    140       7.3867     -0.00000
    141       8.0445     -0.00000
    142       8.0446     -0.00000
    143       8.0930     -0.00000
    144       8.0930     -0.00000
    145       8.7534     -0.00000
    146       8.7536     -0.00000
[...]
  0.000   0.000   4.170   0.000  -0.000   7.768   0.000  -0.000
 -0.000  -0.000   0.000   4.170   0.000   0.000   7.768   0.000
  0.000   0.000  -0.000   0.000   4.170  -0.000   0.000   7.768
  0.000   0.000   7.768   0.000  -0.000  14.481   0.000  -0.000
 -0.001  -0.001   0.000   7.768   0.000   0.000  14.481   0.000
  0.000   0.000  -0.000   0.000   7.768  -0.000   0.000  14.481
 total augmentation occupancy for first ion, spin component:           1
  6.433  -2.560  -0.000   0.014   0.000  -0.000  -0.005   0.000
 -2.560   1.126   0.000  -0.007   0.000   0.000   0.002   0.000
 -0.000   0.000   3.161   0.000   0.001  -0.724   0.000   0.000
  0.014  -0.007   0.000   3.161  -0.000   0.000  -0.724  -0.000
  0.000   0.000   0.001   0.000   3.151   0.000  -0.000  -0.720
 -0.000   0.000  -0.724   0.000   0.000   0.175   0.000  -0.000
 -0.005   0.002   0.000  -0.724  -0.000   0.000   0.175   0.000
  0.000   0.000   0.000  -0.000  -0.720  -0.000   0.000   0.174


------------------------ aborting loop because EDIFF is reached ----------------------------------------


    CHARGE:  cpu time      0.2438: real time      0.2470
    FORLOC:  cpu time      0.0206: real time      0.0209
    FORNL :  cpu time      0.6681: real time      0.6852
    STRESS:  cpu time      2.0736: real time      2.1248
    FORCOR:  cpu time      0.0842: real time      0.0857
    FORHAR:  cpu time      0.0336: real time      0.0342
    MIXING:  cpu time      0.0038: real time      0.0039
    OFIELD:  cpu time      0.0001: real time      0.0001

  FORCE on cell =-STRESS in cart. coord.  units (eV):
  Direction    XX          YY          ZZ          XY          YZ          ZX
  --------------------------------------------------------------------------------------
  Alpha Z   114.05987   114.05987   114.05987
  Ewald   -2496.90843 -2479.76949 -2479.75864     3.00538    -0.00000    -0.00000
  Hartree   147.09963   149.80285   149.78844     2.14233    -0.00000    -0.00000
  E(xc)    -829.19371  -829.34714  -829.34965    -0.01773    -0.00000    -0.00000
  Local    -891.59558  -911.92606  -911.94786    -5.70058     0.00000     0.00000
  n-local  2520.72423  2523.27308  2523.31446     0.07447     0.00000     0.00000
  augment  -369.54903  -369.53246  -369.53396    -0.18280     0.00000     0.00000
  Kinetic  1856.69647  1851.66407  1851.60733     3.55951    -0.00000    -0.00000
  Fock        0.00000     0.00000     0.00000     0.00000     0.00000     0.00000
  -------------------------------------------------------------------------------------
  Total      51.33346    48.22472    48.17999     2.88057     0.00000     0.00000
  in kB      68.03456    63.91440    63.85511     3.81775     0.00000     0.00000
  external pressure =       65.27 kB  Pullay stress =        0.00 kB


 VOLUME and BASIS-vectors are now :
 -----------------------------------------------------------------------------
  energy-cutoff  :      400.00
  volume of cell :     1208.88
      direct lattice vectors                 reciprocal lattice vectors
    10.617203568 -0.026676004  0.000000000     0.094187351  0.000235465  0.000000000
    -0.026676004 10.670556576  0.000000000     0.000235465  0.093716412  0.000000000
     0.000000000  0.000000000 10.670556576     0.000000000  0.000000000  0.093715824

  length of vectors
    10.617237080 10.670589920 10.670556576     0.094187646  0.093716708  0.093715824


 FORCES acting on ions
    electron-ion (+dipol)            ewald-force                    non-local-force                 convergence-correction
 -----------------------------------------------------------------------------------------------
   0.304E-09 -.652E-10 0.426E+00   0.124E-13 0.377E-13 -.301E+00   -.406E-20 -.261E-20 -.125E+00   -.322E-13 0.378E-14 -.725E-05
   0.304E-09 -.652E-10 0.426E+00   0.124E-13 0.395E-13 -.301E+00   0.371E-20 -.215E-20 -.125E+00   0.374E-13 -.498E-13 -.725E-05
   0.304E-09 -.652E-10 0.426E+00   0.222E-13 0.457E-13 -.301E+00   0.785E-20 -.666E-22 -.125E+00   -.433E-13 0.840E-14 -.725E-05
   0.304E-09 -.652E-10 0.426E+00   0.151E-13 0.404E-13 -.301E+00   -.301E-20 -.245E-20 -.125E+00   0.500E-13 0.602E-13 -.725E-05
   0.304E-09 -.652E-10 0.426E+00   0.180E-13 0.364E-13 -.301E+00   0.454E-20 0.408E-21 -.125E+00   0.293E-13 0.121E-13 -.725E-05
   0.304E-09 -.653E-10 0.426E+00   0.124E-13 0.435E-13 -.301E+00   -.621E-21 -.313E-20 -.125E+00   -.385E-13 -.901E-13 -.725E-05
   0.304E-09 -.657E-10 0.426E+00   0.533E-14 0.377E-13 -.301E+00   -.148E-20 -.228E-20 -.125E+00   0.315E-13 0.324E-14 -.725E-05
   0.304E-09 -.648E-10 0.426E+00   0.213E-13 0.320E-13 -.301E+00   0.221E-20 -.189E-20 -.125E+00   -.405E-13 0.931E-13 -.725E-05
   0.140E-08 0.170E-08 -.426E+00   0.977E-14 0.338E-13 0.301E+00   0.407E-20 0.388E-20 0.125E+00   -.368E-15 0.494E-13 0.725E-05
   0.140E-08 0.170E-08 -.426E+00   0.107E-13 0.338E-13 0.301E+00   0.222E-20 -.229E-20 0.125E+00   -.363E-13 -.920E-15 0.725E-05
   0.140E-08 0.170E-08 -.426E+00   0.120E-13 0.426E-13 0.301E+00   -.532E-20 0.195E-20 0.125E+00   0.913E-14 -.544E-13 0.725E-05
   0.140E-08 0.170E-08 -.426E+00   0.533E-14 0.320E-13 0.301E+00   -.124E-20 0.160E-20 0.125E+00   -.109E-13 -.708E-14 0.725E-05
   0.140E-08 0.170E-08 -.426E+00   0.844E-14 0.338E-13 0.301E+00   -.369E-20 0.656E-21 0.125E+00   -.163E-13 0.162E-13 0.725E-05
   0.140E-08 0.170E-08 -.426E+00   0.355E-14 0.302E-13 0.301E+00   0.622E-21 0.185E-20 0.125E+00   0.264E-13 0.209E-13 0.725E-05
   0.140E-08 0.170E-08 -.426E+00   0.888E-14 0.360E-13 0.301E+00   -.108E-20 0.313E-20 0.125E+00   -.245E-13 -.239E-13 0.725E-05
   0.140E-08 0.170E-08 -.426E+00   0.178E-14 0.373E-13 0.301E+00   0.201E-20 -.169E-20 0.125E+00   -.276E-14 -.312E-13 0.725E-05
   0.304E-09 -.653E-10 0.426E+00   -.666E-14 0.622E-14 -.301E+00   0.416E-20 0.298E-20 -.125E+00   -.355E-13 0.768E-14 -.725E-05
   0.304E-09 -.653E-10 0.426E+00   0.120E-13 0.622E-14 -.301E+00   0.502E-21 0.178E-20 -.125E+00   0.517E-13 -.842E-14 -.725E-05
   0.304E-09 -.652E-10 0.426E+00   0.000E+00 0.151E-13 -.301E+00   -.140E-20 0.200E-20 -.125E+00   -.175E-13 -.390E-14 -.725E-05
   0.304E-09 -.652E-10 0.426E+00   0.711E-14 0.107E-13 -.301E+00   0.285E-21 0.104E-20 -.125E+00   0.876E-14 0.114E-13 -.725E-05
   0.304E-09 -.647E-10 0.426E+00   0.422E-14 -.444E-14 -.301E+00   -.178E-20 0.137E-20 -.125E+00   0.296E-13 0.366E-13 -.725E-05
   0.304E-09 -.655E-10 0.426E+00   0.444E-15 0.266E-14 -.301E+00   -.198E-20 0.141E-20 -.125E+00   -.444E-13 -.323E-13 -.725E-05
   0.304E-09 -.651E-10 0.426E+00   0.355E-14 0.151E-13 -.301E+00   0.195E-20 0.253E-20 -.125E+00   0.166E-13 -.355E-13 -.725E-05
   0.304E-09 -.650E-10 0.426E+00   -.711E-14 0.178E-13 -.301E+00   -.140E-20 0.189E-20 -.125E+00   -.930E-14 0.428E-13 -.725E-05
   0.140E-08 0.170E-08 -.426E+00   0.311E-14 0.395E-14 0.301E+00   -.834E-20 -.921E-21 0.125E+00   -.307E-13 -.558E-13 0.725E-05
   0.140E-08 0.170E-08 -.426E+00   -.444E-15 0.373E-14 0.301E+00   -.818E-20 -.298E-20 0.125E+00   0.213E-14 0.446E-15 0.725E-05
   0.140E-08 0.170E-08 -.426E+00   0.533E-14 0.240E-14 0.301E+00   0.311E-20 -.147E-20 0.125E+00   0.619E-14 0.526E-13 0.725E-05
   0.140E-08 0.170E-08 -.426E+00   -.178E-14 0.173E-14 0.301E+00   0.820E-20 0.967E-21 0.125E+00   -.804E-14 0.114E-14 0.725E-05
   0.140E-08 0.170E-08 -.426E+00   0.799E-14 -.138E-14 0.301E+00   0.261E-20 -.225E-20 0.125E+00   0.909E-14 -.474E-13 0.725E-05
   0.140E-08 0.170E-08 -.426E+00   -.622E-14 0.217E-14 0.301E+00   0.622E-20 0.118E-20 0.125E+00   -.118E-13 -.784E-14 0.725E-05
   0.140E-08 0.170E-08 -.426E+00   -.533E-14 0.417E-14 0.301E+00   -.536E-20 0.198E-21 0.125E+00   -.185E-13 0.470E-13 0.725E-05
   0.140E-08 0.170E-08 -.426E+00   -.888E-14 -.738E-14 0.301E+00   -.532E-20 -.252E-20 0.125E+00   -.849E-14 0.103E-13 0.725E-05
   0.304E-09 -.653E-10 0.426E+00   -.155E-14 -.311E-14 -.301E+00   -.750E-20 -.331E-21 -.125E+00   -.222E-13 -.916E-13 -.725E-05
   0.304E-09 -.652E-10 0.426E+00   -.266E-14 0.444E-15 -.301E+00   -.639E-20 -.172E-20 -.125E+00   0.339E-13 0.375E-13 -.725E-05
   0.304E-09 -.656E-10 0.426E+00   -.577E-14 -.200E-14 -.301E+00   0.507E-20 -.144E-20 -.125E+00   0.921E-14 0.101E-12 -.725E-05
   0.304E-09 -.652E-10 0.426E+00   0.533E-14 0.102E-13 -.301E+00   0.868E-20 -.171E-21 -.125E+00   0.381E-14 -.308E-13 -.725E-05
   0.304E-09 -.652E-10 0.426E+00   0.191E-13 0.888E-15 -.301E+00   0.250E-20 -.200E-20 -.125E+00   0.348E-13 -.738E-13 -.725E-05
   0.304E-09 -.652E-10 0.426E+00   0.577E-14 -.266E-14 -.301E+00   0.693E-20 -.764E-21 -.125E+00   -.243E-13 -.269E-14 -.725E-05
   0.304E-09 -.641E-10 0.426E+00   -.888E-15 -.799E-14 -.301E+00   -.415E-20 -.104E-21 -.125E+00   0.585E-14 0.873E-13 -.725E-05
   0.304E-09 -.657E-10 0.426E+00   -.355E-14 0.107E-13 -.301E+00   -.478E-20 -.145E-20 -.125E+00   0.976E-15 0.741E-14 -.725E-05
   0.140E-08 0.170E-08 -.426E+00   0.500E-15 -.133E-13 0.301E+00   0.745E-20 0.215E-20 0.125E+00   0.158E-13 0.738E-13 0.725E-05
   0.140E-08 0.170E-08 -.426E+00   0.278E-15 -.133E-13 0.301E+00   -.353E-20 0.117E-20 0.125E+00   0.352E-14 -.445E-13 0.725E-05
   0.140E-08 0.170E-08 -.426E+00   -.389E-15 -.133E-13 0.301E+00   -.858E-21 0.398E-20 0.125E+00   0.195E-13 -.781E-13 0.725E-05
   0.140E-08 0.170E-08 -.426E+00   -.439E-14 0.888E-15 0.301E+00   -.206E-21 -.670E-21 0.125E+00   -.223E-14 0.304E-13 0.725E-05
   0.140E-08 0.170E-08 -.426E+00   -.104E-13 -.888E-14 0.301E+00   -.269E-20 0.414E-20 0.125E+00   -.308E-14 0.103E-12 0.725E-05
   0.140E-08 0.170E-08 -.426E+00   -.661E-14 -.888E-14 0.301E+00   -.356E-20 0.724E-21 0.125E+00   0.140E-15 -.488E-13 0.725E-05
   0.140E-08 0.170E-08 -.426E+00   0.338E-14 -.533E-14 0.301E+00   0.328E-20 0.104E-20 0.125E+00   -.132E-13 -.114E-12 0.725E-05
   0.140E-08 0.170E-08 -.426E+00   -.683E-14 -.533E-14 0.301E+00   -.314E-21 0.139E-20 0.125E+00   0.126E-13 0.391E-13 0.725E-05
   0.304E-09 -.650E-10 0.426E+00   -.124E-13 -.413E-13 -.301E+00   -.449E-20 -.601E-21 -.125E+00   -.752E-14 -.232E-13 -.725E-05
   0.304E-09 -.654E-10 0.426E+00   -.444E-14 -.395E-13 -.301E+00   -.210E-20 0.199E-20 -.125E+00   0.245E-14 0.238E-13 -.725E-05
   0.304E-09 -.654E-10 0.426E+00   -.178E-14 -.366E-13 -.301E+00   -.167E-20 0.199E-21 -.125E+00   -.116E-13 0.238E-13 -.725E-05
   0.304E-09 -.654E-10 0.426E+00   0.888E-14 -.342E-13 -.301E+00   -.164E-20 0.300E-20 -.125E+00   0.374E-13 -.181E-13 -.725E-05
   0.304E-09 -.663E-10 0.426E+00   -.122E-13 -.426E-13 -.301E+00   -.514E-20 0.107E-20 -.125E+00   0.229E-13 -.172E-13 -.725E-05
   0.304E-09 -.647E-10 0.426E+00   -.107E-13 -.426E-13 -.301E+00   0.558E-21 0.248E-20 -.125E+00   0.577E-14 0.172E-13 -.725E-05
   0.304E-09 -.651E-10 0.426E+00   -.124E-13 -.306E-13 -.301E+00   -.418E-20 -.837E-21 -.125E+00   0.318E-13 0.169E-13 -.725E-05
   0.304E-09 -.650E-10 0.426E+00   0.355E-14 -.284E-13 -.301E+00   -.659E-21 0.272E-20 -.125E+00   -.328E-13 -.983E-14 -.725E-05
   0.140E-08 0.170E-08 -.426E+00   -.127E-13 -.369E-13 0.301E+00   0.703E-20 -.405E-20 0.125E+00   -.570E-13 -.351E-13 0.725E-05
   0.140E-08 0.170E-08 -.426E+00   -.207E-13 -.387E-13 0.301E+00   -.214E-20 -.289E-21 0.125E+00   0.629E-13 -.757E-14 0.725E-05
   0.140E-08 0.170E-08 -.426E+00   -.300E-13 -.343E-13 0.301E+00   0.592E-20 -.254E-20 0.125E+00   -.243E-13 0.283E-13 0.725E-05
   0.140E-08 0.170E-08 -.426E+00   -.264E-13 -.367E-13 0.301E+00   -.893E-21 0.167E-21 0.125E+00   0.379E-13 0.765E-14 0.725E-05
   0.140E-08 0.170E-08 -.426E+00   -.582E-14 -.393E-13 0.301E+00   0.599E-20 -.107E-20 0.125E+00   0.653E-13 -.407E-13 0.725E-05
   0.140E-08 0.170E-08 -.426E+00   -.109E-13 -.357E-13 0.301E+00   0.292E-21 0.485E-21 0.125E+00   -.568E-13 -.350E-13 0.725E-05
   0.140E-08 0.170E-08 -.426E+00   -.126E-13 -.475E-13 0.301E+00   0.673E-20 -.319E-20 0.125E+00   0.340E-13 0.408E-13 0.725E-05
   0.140E-08 0.170E-08 -.426E+00   -.179E-13 -.355E-13 0.301E+00   -.356E-20 -.125E-20 0.125E+00   -.354E-13 0.339E-13 0.725E-05
 -----------------------------------------------------------------------------------------------
   0.546E-07 0.523E-07 -.262E-04   -.197E-15 0.945E-14 -.441E-13   0.205E-22 0.634E-20 0.255E-14   0.279E-13 0.290E-13 -.141E-09
 
 
 POSITION                                       TOTAL-FORCE (eV/Angst)
 -----------------------------------------------------------------------------------
      0.00000     -0.00000     10.66845         0.000000     -0.000000      0.000018
      0.00000      0.00000      5.33317         0.000000     -0.000000      0.000018
     -0.01334      5.33528     10.66845        -0.000000      0.000000      0.000018
     -0.01334      5.33528      5.33317         0.000000      0.000000      0.000018
      5.30860     -0.01334     10.66845         0.000000     -0.000000      0.000018
      5.30860     -0.01334      5.33317         0.000000     -0.000000      0.000018
      5.29526      5.32194     10.66845        -0.000000      0.000000      0.000018
      5.29526      5.32194      5.33317        -0.000000      0.000000      0.000018
      3.97145      3.99146      1.33593         0.000000     -0.000000     -0.000018
      3.97145      3.99146      6.67121        -0.000000      0.000000     -0.000018
      3.95811      9.32673      1.33593        -0.000000      0.000000     -0.000018
      3.95811      9.32673      6.67121        -0.000000     -0.000000     -0.000018
      9.28005      3.97812      1.33593         0.000000     -0.000000     -0.000018
      9.28005      3.97812      6.67121        -0.000000      0.000000     -0.000018
      9.26671      9.31340      1.33593         0.000000     -0.000000     -0.000018
      9.26671      9.31340      6.67121         0.000000     -0.000000     -0.000018
     -0.00667      2.66764      2.66553        -0.000000     -0.000000      0.000018
     -0.00667      2.66764      8.00081         0.000000     -0.000000      0.000018
     -0.02001      8.00292      2.66553        -0.000000     -0.000000      0.000018
     -0.02001      8.00292      8.00081        -0.000000      0.000000      0.000018
      5.30193      2.65430      2.66553        -0.000000     -0.000000      0.000018
      5.30193      2.65430      8.00081        -0.000000     -0.000000      0.000018
      5.28859      7.98958      2.66553         0.000000     -0.000000      0.000018
      5.28859      7.98958      8.00081         0.000000     -0.000000      0.000018
      3.97812      1.32382      4.00357         0.000000      0.000000     -0.000018
      3.97812      1.32382      9.33884        -0.000000      0.000000     -0.000018
      3.96478      6.65909      4.00357         0.000000     -0.000000     -0.000018
      3.96478      6.65909      9.33884        -0.000000     -0.000000     -0.000018
      9.28672      1.31048      4.00357        -0.000000      0.000000     -0.000018
      9.28672      1.31048      9.33884         0.000000      0.000000     -0.000018
      9.27338      6.64576      4.00357        -0.000000     -0.000000     -0.000018
      9.27338      6.64576      9.33884         0.000000     -0.000000     -0.000018
      2.65430     -0.00667      2.66553         0.000000     -0.000000      0.000018
      2.65430     -0.00667      8.00081         0.000000     -0.000000      0.000018
      2.64096      5.32861      2.66553        -0.000000      0.000000      0.000018
      2.64096      5.32861      8.00081        -0.000000      0.000000      0.000018
      7.96290     -0.02001      2.66553         0.000000     -0.000000      0.000018
      7.96290     -0.02001      8.00081         0.000000     -0.000000      0.000018
      7.94956      5.31527      2.66553        -0.000000      0.000000      0.000018
      7.94956      5.31527      8.00081        -0.000000      0.000000      0.000018
      1.31715      3.99812      4.00357         0.000000      0.000000     -0.000018
      1.31715      3.99812      9.33884        -0.000000      0.000000     -0.000018
      1.30381      9.33340      4.00357        -0.000000      0.000000     -0.000018
      1.30381      9.33340      9.33884        -0.000000     -0.000000     -0.000018
      6.62575      3.98479      4.00357         0.000000      0.000000     -0.000018
      6.62575      3.98479      9.33884         0.000000     -0.000000     -0.000018
      6.61241      9.32006      4.00357         0.000000      0.000000     -0.000018
      6.61241      9.32006      9.33884         0.000000     -0.000000     -0.000018
      2.64763      2.66097     10.66845         0.000000     -0.000000      0.000018
      2.64763      2.66097      5.33317         0.000000     -0.000000      0.000018
      2.63429      7.99625     10.66845        -0.000000      0.000000      0.000018
      2.63429      7.99625      5.33317         0.000000      0.000000      0.000018
      7.95623      2.64763     10.66845         0.000000     -0.000000      0.000018
      7.95623      2.64763      5.33317        -0.000000     -0.000000      0.000018
      7.94290      7.98291     10.66845         0.000000      0.000000      0.000018
      7.94290      7.98291      5.33317         0.000000      0.000000      0.000018
      1.32382      1.33049      1.33593         0.000000      0.000000     -0.000018
      1.32382      1.33049      6.67121         0.000000      0.000000     -0.000018
      1.31048      6.66576      1.33593        -0.000000     -0.000000     -0.000018
      1.31048      6.66576      6.67121        -0.000000     -0.000000     -0.000018
      6.63242      1.31715      1.33593        -0.000000      0.000000     -0.000018
      6.63242      1.31715      6.67121        -0.000000      0.000000     -0.000018
      6.61908      6.65243      1.33593        -0.000000     -0.000000     -0.000018
      6.61908      6.65243      6.67121        -0.000000     -0.000000     -0.000018
 -----------------------------------------------------------------------------------
    total drift:                                0.000000      0.000000     -0.000026


--------------------------------------------------------------------------------------------------------



  FREE ENERGIE OF THE ION-ELECTRON SYSTEM (eV)
  ---------------------------------------------------
  free  energy   TOTEN  =      -366.13643575 eV

  energy  without entropy=     -366.16912557  energy(sigma->0) =     -366.14733235
 
 d Force = 0.8994086E-03[ 0.112E-05, 0.180E-02]  d Energy = 0.9020057E-03-0.260E-05
 d Force =-0.1704062E-01[-0.186E-01,-0.155E-01]  d Ewald  =-0.1704061E-01-0.640E-08


--------------------------------------------------------------------------------------------------------


    POTLOK:  cpu time      0.1401: real time      0.1435


--------------------------------------------------------------------------------------------------------




--------------------------------------------------------------------------------------------------------


  
 reached required accuracy - stopping structural energy minimisation
     LOOP+:  cpu time     12.3512: real time     12.6330
    4ORBIT:  cpu time      0.0000: real time      0.0000

 total amount of memory used by VASP MPI-rank0    79113. kBytes
=======================================================================

   base      :      30000. kBytes
   nonlr-proj:       4689. kBytes
   fftplans  :      17992. kBytes
   grid      :       6881. kBytes
   one-center:         18. kBytes
   wavefun   :      19533. kBytes
 
  
  
 General timing and accounting informations for this job:
 ========================================================
  
                  Total CPU time used (sec):       61.230
                            User time (sec):       57.778
                          System time (sec):        3.452
                         Elapsed time (sec):       64.958
  
                   Maximum memory used (kb):      407840.
                   Average memory used (kb):          N/A
  
                          Minor page faults:        94029
                          Major page faults:            0
                 Voluntary context switches:         9079
