       N       E                     dE             d eps       ncg     rms          rms(c)
DAV:   1     0.563287919660E+03    0.56329E+03   -0.84221E+04  2592   0.106E+03
DAV:   2    -0.310410982423E+03   -0.87370E+03   -0.82902E+03  3090   0.173E+02
DAV:   3    -0.373272524885E+03   -0.62862E+02   -0.61532E+02  3136   0.411E+01
DAV:   4    -0.374918688379E+03   -0.16462E+01   -0.16338E+01  3144   0.801E+00
DAV:   5    -0.374968580810E+03   -0.49892E-01   -0.49770E-01  3078   0.132E+00    0.291E+01
RMM:   6    -0.369590399013E+03    0.53782E+01   -0.27342E+00  2592   0.259E+00    0.175E+01
RMM:   7    -0.367171649525E+03    0.24187E+01   -0.69870E+00  2647   0.414E+00    0.102E+00
RMM:   8    -0.367212425569E+03   -0.40776E-01   -0.65979E-01  2619   0.158E+00    0.506E-01
RMM:   9    -0.367233081919E+03   -0.20656E-01   -0.19268E-01  2668   0.773E-01    0.582E-01
RMM:  10    -0.367236653404E+03   -0.35715E-02   -0.34070E-02  2740   0.364E-01    0.745E-01
RMM:  11    -0.367233749259E+03    0.29041E-02   -0.11264E-02  2592   0.216E-01    0.716E-01
RMM:  12    -0.367233828483E+03   -0.79224E-04   -0.17676E-03  2603   0.997E-02    0.742E-01
RMM:  13    -0.367233891732E+03   -0.63250E-04   -0.33921E-04  2758   0.409E-02    0.800E-01
RMM:  14    -0.367233809150E+03    0.82582E-04   -0.10923E-04  2594   0.250E-02    0.542E-01
RMM:  15    -0.367233949408E+03   -0.14026E-03   -0.53518E-05  2616   0.146E-02    0.481E-01
RMM:  16    -0.367234083111E+03   -0.13370E-03   -0.47586E-05  2592   0.158E-02    0.342E-01
RMM:  17    -0.367234129825E+03   -0.46714E-04   -0.24454E-05  2592   0.117E-02    0.174E-01
RMM:  18    -0.367234142302E+03   -0.12477E-04   -0.59796E-06  2377   0.603E-03    0.787E-02
RMM:  19    -0.367234149154E+03   -0.68520E-05   -0.31182E-06  1822   0.415E-03    0.180E-02
RMM:  20    -0.367234150201E+03   -0.10468E-05   -0.13364E-06  1568   0.262E-03    0.735E-03
RMM:  21    -0.367234150617E+03   -0.41606E-06   -0.26140E-07  1516   0.104E-03
   1 F= -.36723415E+03 E0= -.36724451E+03  d E =-.367234E+03
       N       E                     dE             d eps       ncg     rms          rms(c)
DAV:   1    -0.367243390038E+03   -0.92398E-02   -0.50054E-01  2944   0.136E+00    0.310E-01
RMM:   2    -0.367245887957E+03   -0.24979E-02   -0.26041E-02  2592   0.339E-01    0.125E-01
RMM:   3    -0.367246281103E+03   -0.39315E-03   -0.41961E-03  2641   0.152E-01    0.532E-02
RMM:   4    -0.367246282802E+03   -0.16991E-05   -0.57314E-04  2666   0.634E-02    0.189E-02
RMM:   5    -0.367246286747E+03   -0.39452E-05   -0.98112E-05  2666   0.251E-02    0.419E-03
RMM:   6    -0.367246289146E+03   -0.23991E-05   -0.23860E-05  2672   0.111E-02    0.877E-04
RMM:   7    -0.367246289414E+03   -0.26763E-06   -0.27811E-06  1795   0.383E-03    0.995E-04
RMM:   8    -0.367246289466E+03   -0.52721E-07   -0.61501E-07  1459   0.173E-03
   2 F= -.36724629E+03 E0= -.36725621E+03  d E =-.121388E-01
       N       E                     dE             d eps       ncg     rms          rms(c)
DAV:   1    -0.367247998238E+03   -0.17088E-02   -0.36373E-02  2944   0.365E-01    0.833E-02
RMM:   2    -0.367248177405E+03   -0.17917E-03   -0.18577E-03  2592   0.908E-02    0.338E-02
RMM:   3    -0.367248205121E+03   -0.27717E-04   -0.29353E-04  2642   0.408E-02    0.142E-02
RMM:   4    -0.367248205388E+03   -0.26682E-06   -0.39716E-05  2655   0.169E-02    0.500E-03
RMM:   5    -0.367248205723E+03   -0.33532E-06   -0.69059E-06  2185   0.673E-03    0.115E-03
RMM:   6    -0.367248205860E+03   -0.13699E-06   -0.15276E-06  1620   0.294E-03    0.230E-04
RMM:   7    -0.367248205891E+03   -0.30992E-07   -0.30854E-07  1429   0.124E-03    0.221E-04
RMM:   8    -0.367248205902E+03   -0.11019E-07   -0.80258E-08   947   0.666E-04
   3 F= -.36724821E+03 E0= -.36725832E+03  d E =-.140553E-01
