 vasp.6.4.3 19Mar24 (build Oct 21 2024 22:36:34) complex                        
  
 executed on             LinuxIFC date 2024.11.01  22:51:11
 running   96 mpi-ranks, on    1 nodes
 distrk:  each k-point on   24 cores,    4 groups
 distr:  one band on NCORE=  12 cores,    2 groups


--------------------------------------------------------------------------------------------------------


 INCAR:
   SYSTEM = Si64
   ISTART = 0
   ICHARG = 2
   LREAL = Auto
   PREC = Accurate
   LWAVE = .False.
   LCHARG = .False.
   ADDGRID = .True.
   ENCUT = 400
   GGA = PS
   GGA_COMPAT = .FALSE.
   ISMEAR = 1
   SIGMA = 0.2
   NELM = 60
   NELMIN = 8
   EDIFF = 1e-06
   EDIFFG = -0.01
   NSW = 60
   IBRION = 2
   ISIF = 2
   KPAR = 4
   NPAR = 2
   ALGO = Fast

 POTCAR:    PAW_PBE Si 05Jan2001                  
 POTCAR:    PAW_PBE Si 05Jan2001                  
   VRHFIN =Si: s2p2                                                                                 
   LEXCH  = PE                                                                                      
   EATOM  =   103.0669 eV,    7.5752 Ry                                                             
                                                                                                    
   TITEL  = PAW_PBE Si 05Jan2001                                                                    
   LULTRA =        F    use ultrasoft PP ?                                                          
   IUNSCR =        1    unscreen: 0-lin 1-nonlin 2-no                                               
   RPACOR =    1.500    partial core radius                                                         
   POMASS =   28.085; ZVAL   =    4.000    mass and valenz                                          
   RCORE  =    1.900    outmost cutoff radius                                                       
   RWIGS  =    2.480; RWIGS  =    1.312    wigner-seitz radius (au A)                               
   ENMAX  =  245.345; ENMIN  =  184.009 eV                                                          
   ICORE  =        2    local potential                                                             
   LCOR   =        T    correct aug charges                                                         
   LPAW   =        T    paw PP                                                                      
   EAUG   =  322.069                                                                                
   DEXC   =    0.000                                                                                
   RMAX   =    1.950    core radius for proj-oper                                                   
   RAUG   =    1.300    factor for augmentation sphere                                              
   RDEP   =    1.993    radius for radial grids                                                     
   RDEPT  =    1.837    core radius for aug-charge                                                  
                                                                                                    
   Atomic configuration                                                                             
    6 entries                                                                                       
     n  l   j            E        occ.                                                              
     1  0  0.50     -1785.8828   2.0000                                                             
     2  0  0.50      -139.4969   2.0000                                                             
     2  1  1.50       -95.5546   6.0000                                                             
     3  0  0.50       -10.8127   2.0000                                                             
     3  1  0.50        -4.0811   2.0000                                                             
     3  2  1.50        -4.0817   0.0000                                                             
   Description                                                                                      
     l       E           TYP  RCUT    TYP  RCUT                                                     
     0    -10.8127223     23  1.900                                                                 
     0     -7.6451159     23  1.900                                                                 
     1     -4.0811372     23  1.900                                                                 
     1      2.4879257     23  1.900                                                                 
     2     -4.0817478      7  1.900                                                                 
  local pseudopotential read in
  partial core-charges read in
  partial kinetic energy density read in
  atomic valenz-charges read in
  non local Contribution for L=           0  read in
    real space projection operators read in
  non local Contribution for L=           0  read in
    real space projection operators read in
  non local Contribution for L=           1  read in
    real space projection operators read in
  non local Contribution for L=           1  read in
    real space projection operators read in
    PAW grid and wavefunctions read in
 
   number of l-projection  operators is LMAX  =           4
   number of lm-projection operators is LMMAX =           8
 
 Optimization of the real space projectors (new method)

 maximal supplied QI-value         = 19.84
 optimisation between [QCUT,QGAM] = [ 10.12, 20.44] = [ 28.68,116.96] Ry 
 Optimized for a Real-space Cutoff    1.38 Angstroem

   l    n(q)    QCUT    max X(q) W(low)/X(q) W(high)/X(q)  e(spline) 
   0      8    10.119   159.560    0.58E-04    0.11E-03    0.54E-07
   0      8    10.119   115.863    0.56E-04    0.11E-03    0.54E-07
   1      8    10.119    88.339    0.22E-03    0.17E-03    0.19E-06
   1      8    10.119    48.592    0.22E-03    0.17E-03    0.18E-06
 -----------------------------------------------------------------------------
|                                                                             |
|               ----> ADVICE to this user running VASP <----                  |
|                                                                             |
|     You enforced a specific xc type in the INCAR file but a different       |
|     type was found in the POTCAR file.                                      |
|     I HOPE YOU KNOW WHAT YOU ARE DOING!                                     |
|                                                                             |
 -----------------------------------------------------------------------------

  PAW_PBE Si 05Jan2001                  :
 energy of atom  1       EATOM= -103.0669
 kinetic energy error for atom=    0.0012 (will be added to EATOM!!)
 
 
 POSCAR: Si8
  positions in direct lattice
  velocities in cartesian coordinates


 exchange-correlation table for PS
   RHO(1)=    0.500       N(1)  =     2000
   RHO(2)=  100.500       N(2)  =     4000
 


--------------------------------------------------------------------------------------------------------


 ion  position               nearest neighbor table
   1  0.000  0.000  0.000-  30 2.32  44 2.32  15 2.34  57 2.34
   2  0.000  0.000  0.500-  29 2.32  43 2.32  16 2.34  58 2.34
   3  0.000  0.500  0.000-  32 2.32  42 2.32  13 2.34  59 2.34
   4  0.000  0.500  0.500-  31 2.32  41 2.32  14 2.34  60 2.34
   5  0.500  0.000  0.000-  26 2.32  48 2.32  11 2.34  61 2.34
   6  0.500  0.000  0.500-  25 2.32  47 2.32  12 2.34  62 2.34
   7  0.500  0.500  0.000-  28 2.32  46 2.32   9 2.34  63 2.34
   8  0.500  0.500  0.500-  27 2.32  45 2.32  10 2.34  64 2.34
   9  0.375  0.375  0.125-  21 2.32  35 2.32   7 2.34  49 2.34
  10  0.375  0.375  0.625-  22 2.32  36 2.32   8 2.34  50 2.34
  11  0.375  0.875  0.125-  23 2.32  33 2.32   5 2.34  51 2.34
  12  0.375  0.875  0.625-  24 2.32  34 2.32   6 2.34  52 2.34
  13  0.875  0.375  0.125-  17 2.32  39 2.32   3 2.34  53 2.34
  14  0.875  0.375  0.625-  18 2.32  40 2.32   4 2.34  54 2.34
  15  0.875  0.875  0.125-  19 2.32  37 2.32   1 2.34  55 2.34
  16  0.875  0.875  0.625-  20 2.32  38 2.32   2 2.34  56 2.34
  17  0.000  0.250  0.250-  13 2.32  57 2.32  41 2.34  29 2.34
  18  0.000  0.250  0.750-  14 2.32  58 2.32  42 2.34  30 2.34
  19  0.000  0.750  0.250-  15 2.32  59 2.32  43 2.34  31 2.34
  20  0.000  0.750  0.750-  16 2.32  60 2.32  44 2.34  32 2.34
  21  0.500  0.250  0.250-   9 2.32  61 2.32  45 2.34  25 2.34
  22  0.500  0.250  0.750-  10 2.32  62 2.32  46 2.34  26 2.34
  23  0.500  0.750  0.250-  11 2.32  63 2.32  47 2.34  27 2.34
  24  0.500  0.750  0.750-  12 2.32  64 2.32  48 2.34  28 2.34
  25  0.375  0.125  0.375-   6 2.32  50 2.32  33 2.34  21 2.34
  26  0.375  0.125  0.875-   5 2.32  49 2.32  34 2.34  22 2.34
  27  0.375  0.625  0.375-   8 2.32  52 2.32  35 2.34  23 2.34
  28  0.375  0.625  0.875-   7 2.32  51 2.32  36 2.34  24 2.34
  29  0.875  0.125  0.375-   2 2.32  54 2.32  37 2.34  17 2.34
  30  0.875  0.125  0.875-   1 2.32  53 2.32  38 2.34  18 2.34
  31  0.875  0.625  0.375-   4 2.32  56 2.32  39 2.34  19 2.34
  32  0.875  0.625  0.875-   3 2.32  55 2.32  40 2.34  20 2.34
  33  0.250  0.000  0.250-  11 2.32  57 2.32  43 2.34  25 2.34
  34  0.250  0.000  0.750-  12 2.32  58 2.32  44 2.34  26 2.34
  35  0.250  0.500  0.250-   9 2.32  59 2.32  41 2.34  27 2.34
  36  0.250  0.500  0.750-  10 2.32  60 2.32  42 2.34  28 2.34
  37  0.750  0.000  0.250-  15 2.32  61 2.32  47 2.34  29 2.34
  38  0.750  0.000  0.750-  16 2.32  62 2.32  48 2.34  30 2.34
  39  0.750  0.500  0.250-  13 2.32  63 2.32  45 2.34  31 2.34
  40  0.750  0.500  0.750-  14 2.32  64 2.32  46 2.34  32 2.34
  41  0.125  0.375  0.375-   4 2.32  50 2.32  35 2.34  17 2.34
  42  0.125  0.375  0.875-   3 2.32  49 2.32  36 2.34  18 2.34
  43  0.125  0.875  0.375-   2 2.32  52 2.32  33 2.34  19 2.34
  44  0.125  0.875  0.875-   1 2.32  51 2.32  34 2.34  20 2.34
  45  0.625  0.375  0.375-   8 2.32  54 2.32  39 2.34  21 2.34
  46  0.625  0.375  0.875-   7 2.32  53 2.32  40 2.34  22 2.34
  47  0.625  0.875  0.375-   6 2.32  56 2.32  37 2.34  23 2.34
  48  0.625  0.875  0.875-   5 2.32  55 2.32  38 2.34  24 2.34
  49  0.250  0.250  0.000-  26 2.32  42 2.32   9 2.34  57 2.34
  50  0.250  0.250  0.500-  25 2.32  41 2.32  10 2.34  58 2.34
  51  0.250  0.750  0.000-  28 2.32  44 2.32  11 2.34  59 2.34
  52  0.250  0.750  0.500-  27 2.32  43 2.32  12 2.34  60 2.34
  53  0.750  0.250  0.000-  30 2.32  46 2.32  13 2.34  61 2.34
  54  0.750  0.250  0.500-  29 2.32  45 2.32  14 2.34  62 2.34
  55  0.750  0.750  0.000-  32 2.32  48 2.32  15 2.34  63 2.34
  56  0.750  0.750  0.500-  31 2.32  47 2.32  16 2.34  64 2.34
  57  0.125  0.125  0.125-  17 2.32  33 2.32   1 2.34  49 2.34
  58  0.125  0.125  0.625-  18 2.32  34 2.32   2 2.34  50 2.34
  59  0.125  0.625  0.125-  19 2.32  35 2.32   3 2.34  51 2.34
  60  0.125  0.625  0.625-  20 2.32  36 2.32   4 2.34  52 2.34
  61  0.625  0.125  0.125-  21 2.32  37 2.32   5 2.34  53 2.34
  62  0.625  0.125  0.625-  22 2.32  38 2.32   6 2.34  54 2.34
  63  0.625  0.625  0.125-  23 2.32  39 2.32   7 2.34  55 2.34
  64  0.625  0.625  0.625-  24 2.32  40 2.32   8 2.34  56 2.34
 
  LATTYP: Found a simple monoclinic cell.
 ALAT       =    10.7313797234
 B/A-ratio  =     0.9999875003
 C/A-ratio  =     1.0099997102
 COS(beta)  =    -0.0099502081
  
  Lattice vectors:
  
 A1 = (   0.0536560079,  10.7312455848,   0.0000000000)
 A2 = (   0.0000000000,   0.0000000000, -10.7312455848)
 A3 = ( -10.8385576006,  -0.0536560079,   0.0000000000)


Analysis of symmetry for initial positions (statically):
=====================================================================
 Subroutine PRICEL returns following result:
 
  LATTYP: Found a base centered monoclinic cell.
 ALAT       =     5.3656898617
 B/A-ratio  =     0.9999875003
 C/A-ratio  =     0.7071067812
 COS(beta)  =    -0.7000005650
  
  Lattice vectors:
  
 A1 = (   0.0134140020,   2.6828113962,  -2.6828113962)
 A2 = (   0.0134140020,   2.6828113962,   2.6828113962)
 A3 = (   2.6962253982,  -2.6693973942,   0.0000000000)
 
  32 primitive cells build up your supercell.
 

 Routine SETGRP: Setting up the symmetry group for a 
 simple monoclinic supercell.


 Subroutine GETGRP returns: Found  4 space group operations
 (whereof  2 operations were pure point group operations)
 out of a pool of  4 trial point group operations.


The static configuration has the point symmetry C_2 .
 The point group associated with its full space group is C_2h.


Analysis of symmetry for dynamics (positions and initial velocities):
=====================================================================
 Subroutine PRICEL returns following result:
 
  LATTYP: Found a base centered monoclinic cell.
 ALAT       =     5.3656898617
 B/A-ratio  =     0.9999875003
 C/A-ratio  =     0.7071067812
 COS(beta)  =    -0.7000005650
  
  Lattice vectors:
  
 A1 = (   0.0134140020,   2.6828113962,  -2.6828113962)
 A2 = (   0.0134140020,   2.6828113962,   2.6828113962)
 A3 = (   2.6962253982,  -2.6693973942,   0.0000000000)
 
  32 primitive cells build up your supercell.
 

 Routine SETGRP: Setting up the symmetry group for a 
 simple monoclinic supercell.


 Subroutine GETGRP returns: Found  4 space group operations
 (whereof  2 operations were pure point group operations)
 out of a pool of  4 trial point group operations.


The dynamic configuration has the point symmetry C_2 .
 The point group associated with its full space group is C_2h.


 Subroutine INISYM returns: Found  4 space group operations
 (whereof  2 operations are pure point group operations),
 and found    32 'primitive' translations


----------------------------------------------------------------------------------------

                                     Primitive cell                                     

  volume of cell :      39.0042

  direct lattice vectors                    reciprocal lattice vectors
     0.013414002  2.682811396 -2.682811396     0.183608315  0.185453617 -0.186371655
     0.013414002  2.682811396  2.682811396     0.183608315  0.185453617  0.186371655
     2.696225398 -2.669397394  0.000000000     0.369061932 -0.001845302 -0.000000000

  length of vectors
     3.794091974  3.794091974  3.794115687     0.320685908  0.320685908  0.369066546

  position of ions in fractional coordinates (direct lattice)
     0.000000000  0.000000000  0.000000000
     0.250000000  0.750000000  0.500000000

  ion indices of the primitive-cell ions
   primitive index   ion index
                 1           1
                 2          15

----------------------------------------------------------------------------------------

 
 
 KPOINTS: Automatic mesh                          

Automatic generation of k-mesh.
 Grid dimensions read from file:
 generate k-points for:    2    2    2

 Generating k-lattice:

  Cartesian coordinates                     Fractional coordinates (reciprocal lattice)
     0.046132742 -0.000230663  0.000000000     0.500000000  0.000000000  0.000000000
    -0.000230663  0.046594067  0.000000000    -0.000000000  0.500000000  0.000000000
     0.000000000  0.000000000  0.046592914     0.000000000  0.000000000  0.500000000

  Length of vectors
     0.046133318  0.046594638  0.046592914

  Shift w.r.t. Gamma in fractional coordinates (k-lattice)
     0.000000000  0.000000000  0.000000000

 
 Subroutine IBZKPT returns following result:
 ===========================================
 
 Found      8 irreducible k-points:
 
 Following reciprocal coordinates:
            Coordinates               Weight
  0.000000  0.000000  0.000000      1.000000
  0.500000  0.000000  0.000000      1.000000
 -0.000000  0.500000  0.000000      1.000000
  0.500000  0.500000  0.000000      1.000000
  0.000000  0.000000  0.500000      1.000000
  0.500000  0.000000  0.500000      1.000000
 -0.000000  0.500000  0.500000      1.000000
  0.500000  0.500000  0.500000      1.000000
 
 Following cartesian coordinates:
            Coordinates               Weight
  0.000000  0.000000  0.000000      1.000000
  0.046133 -0.000231  0.000000      1.000000
 -0.000231  0.046594  0.000000      1.000000
  0.045902  0.046363  0.000000      1.000000
  0.000000  0.000000  0.046593      1.000000
  0.046133 -0.000231  0.046593      1.000000
 -0.000231  0.046594  0.046593      1.000000
  0.045902  0.046363  0.046593      1.000000
 


--------------------------------------------------------------------------------------------------------




 Dimension of arrays:
   k-points           NKPTS =      8   k-points in BZ     NKDIM =      8   number of bands    NBANDS=    162
   number of dos      NEDOS =    301   number of ions     NIONS =     64
   non local maximal  LDIM  =      4   non local SUM 2l+1 LMDIM =      8
   total plane-waves  NPLWV = 352800
   max r-space proj   IRMAX =   3165   max aug-charges    IRDMAX=  75797
   dimension x,y,z NGX =    72 NGY =   70 NGZ =   70
   dimension x,y,z NGXF=   144 NGYF=  140 NGZF=  140
   support grid    NGXF=   288 NGYF=  280 NGZF=  280
   ions per type =              64
   NGX,Y,Z   is equivalent  to a cutoff of  11.04, 10.84, 10.84 a.u.
   NGXF,Y,Z  is equivalent  to a cutoff of  22.09, 21.69, 21.69 a.u.

 SYSTEM =  Si64                                    
 POSCAR =  Si8                                     

 Startparameter for this run:
   NWRITE =      2    write-flag & timer
   PREC   = accura    normal or accurate (medium, high low for compatibility)
   ISTART =      0    job   : 0-new  1-cont  2-samecut
   ICHARG =      2    charge: 1-file 2-atom 10-const
   ISPIN  =      1    spin polarized calculation?
   LNONCOLLINEAR =      F non collinear calculations
   LSORBIT =      F    spin-orbit coupling
   INIWAV =      1    electr: 0-lowe 1-rand  2-diag
   LASPH  =      F    aspherical Exc in radial PAW
 Electronic Relaxation 1
   ENCUT  =  400.0 eV  29.40 Ry    5.42 a.u.  17.68 17.50 17.50*2*pi/ulx,y,z
   ENINI  =  400.0     initial cutoff
   ENAUG  =  322.1 eV  augmentation charge cutoff
   NELM   =     60;   NELMIN=  8; NELMDL= -5     # of ELM steps 
   EDIFF  = 0.1E-05   stopping-criterion for ELM
   LREAL  =      T    real-space projection
   NLSPLINE    = F    spline interpolate recip. space projectors
   LCOMPAT=      F    compatible to vasp.4.4
   GGA_COMPAT  = F    GGA compatible to vasp.4.4-vasp.4.6
   LMAXPAW     = -100 max onsite density
   LMAXMIX     =    2 max onsite mixed and CHGCAR
   VOSKOWN=      0    Vosko Wilk Nusair interpolation
   ROPT   =   -0.00025
 Ionic relaxation
   EDIFFG = -.1E-01   stopping-criterion for IOM
   NSW    =     60    number of steps for IOM
   NBLOCK =      1;   KBLOCK =     60    inner block; outer block 
   IBRION =      2    ionic relax: 0-MD 1-quasi-New 2-CG
   NFREE  =      1    steps in history (QN), initial steepest desc. (CG)
   ISIF   =      2    stress and relaxation
   IWAVPR =     11    prediction:  0-non 1-charg 2-wave 3-comb
   ISYM   =      2    0-nonsym 1-usesym 2-fastsym
   LCORR  =      T    Harris-Foulkes like correction to forces

   POTIM  = 0.5000    time-step for ionic-motion
   TEIN   =    0.0    initial temperature
   TEBEG  =    0.0;   TEEND  =   0.0 temperature during run
   SMASS  =  -3.00    Nose mass-parameter (am)
   estimated Nose-frequenzy (Omega)   =  0.10E-29 period in steps = 0.13E+47 mass=  -0.268E-26a.u.
   SCALEE = 1.0000    scale energy and forces
   NPACO  =    256;   APACO  = 10.0  distance and # of slots for P.C.
   PSTRESS=    0.0 pullay stress

  Mass of Ions in am
   POMASS =  28.09
  Ionic Valenz
   ZVAL   =   4.00
  Atomic Wigner-Seitz radii
   RWIGS  =  -1.00
  virtual crystal weights 
   VCA    =   1.00
   NELECT =     256.0000    total number of electrons
   NUPDOWN=      -1.0000    fix difference up-down

 DOS related values:
   EMIN   =  10.00;   EMAX   =-10.00  energy-range for DOS
   EFERMI =   0.00;   METHOD = LEGACY      
   ISMEAR =     1;   SIGMA  =   0.20  broadening in eV -4-tet -1-fermi 0-gaus

 Electronic relaxation 2 (details)
   IALGO  =     68    algorithm
   LDIAG  =      T    sub-space diagonalisation (order eigenvalues)
   LSUBROT=      F    optimize rotation matrix (better conditioning)
   TURBO    =      0    0=normal 1=particle mesh
   IRESTART =      0    0=no restart 2=restart with 2 vectors
   NREBOOT  =      0    no. of reboots
   NMIN     =      0    reboot dimension
   EREF     =   0.00    reference energy to select bands
   IMIX   =      4    mixing-type and parameters
     AMIX     =   0.40;   BMIX     =  1.00
     AMIX_MAG =   1.60;   BMIX_MAG =  1.00
     AMIN     =   0.10
     WC   =   100.;   INIMIX=   1;  MIXPRE=   1;  MAXMIX= -45

 Intra band minimization:
   WEIMIN = 0.0010     energy-eigenvalue tresh-hold
   EBREAK =  0.15E-08  absolut break condition
   DEPER  =   0.30     relativ break condition  

   TIME   =   0.40     timestep for ELM

  volume/ion in A,a.u.               =      19.50       131.61
  Fermi-wavevector in a.u.,A,eV,Ry     =   0.965460  1.824456 12.682179  0.932114
  Thomas-Fermi vector in A             =   2.095179
 
 Write flags
   LWAVE        =      F    write WAVECAR
   LDOWNSAMPLE  =      F    k-point downsampling of WAVECAR
   LCHARG       =      F    write CHGCAR
   LVTOT        =      F    write LOCPOT, total local potential
   LVHAR        =      F    write LOCPOT, Hartree potential only
   WRT_POTENTIAL= false  ! write potential to hdf5 file
   LELF         =      F    write electronic localiz. function (ELF)
   LORBIT       =      0    0 simple, 1 ext, 2 COOP (PROOUT), +10 PAW based schemes


 Dipole corrections
   LMONO      =      F    monopole corrections only (constant potential shift)
   LDIPOL     =      F    correct potential (dipole corrections)
   IDIPOL     =      0    1-x, 2-y, 3-z, 4-all directions 
   EPSILON    =  1.0000000 bulk dielectric constant
   LVACPOTAV  =      F  vacuum potentials using an averaging scheme for the charge density
   VACPOTFLAT =  0.1000000 required flatness to determine vacuum potential
 Exchange correlation treatment:
   GGA     = PS    functional components
   XC_C    = 1    coefficients multiplying the functional components
   LIBXC   =     F    Libxc                    
   VOSKOWN =     0    Vosko Wilk Nusair interpolation
   LHFCALC =     F    Hartree Fock is set to
   LHFONE  =     F    Hartree Fock one center treatment
   AEXX    =    0.0000 exact exchange contribution

 Parameters of functionals:
   PS:
     No parameter
 
 Van der Waals corrections
   IVDW    =     0    specifies the selected vdW correction

 Linear response parameters
   LEPSILON=     F    determine dielectric tensor
   LRPA    =     F    only Hartree local field effects (RPA)
   LNABLA  =     F    use nabla operator in PAW spheres
   LVEL    =     F    velocity operator in full k-point grid
   CSHIFT  =0.1000    complex shift for real part using Kramers Kronig
   OMEGAMAX=  -1.0    maximum frequency
   DEG_THRESHOLD= 0.2000000E-02 threshold for treating states as degnerate
   RTIME   =   -0.100 relaxation time in fs
  (WPLASMAI=    0.000 imaginary part of plasma frequency in eV, 0.658/RTIME)
   DFIELD  = 0.0000000 0.0000000 0.0000000 field for delta impulse in time
 
  Optional k-point grid parameters
   LKPOINTS_OPT  =     F    use optional k-point grid
   KPOINTS_OPT_MODE=     1    mode for optional k-point grid
 
 Orbital magnetization related:
   ORBITALMAG=     F  switch on orbital magnetization
   LCHIMAG   =     F  perturbation theory with respect to B field
   DQ        =  0.001000  dq finite difference perturbation B field
   LLRAUG    =     F  two centre corrections for induced B field
   LBONE     =     F  B-component reconstruction in AE one-centre
   LVGVCALC  =     T  calculate vGv susceptibility
   LVGVAPPL  =     F  apply vGv susceptibility instead of pGv for G=0

 Random number generation:
   RANDOM_GENERATOR = DEFAULT
   PCG_SEED         = not used


--------------------------------------------------------------------------------------------------------


 conjugate gradient relaxation of ions
 charge density and potential will be updated during run
 non-spin polarized calculation
 RMM-DIIS sequential band-by-band and
  variant of blocked Davidson during initial phase
 perform sub-space diagonalisation
    before iterative eigenvector-optimisation
 modified Broyden-mixing scheme, WC =      100.0
 initial mixing is a Kerker type mixing with AMIX =  0.4000 and BMIX =      1.0000
 Hartree-type preconditioning will be used
 using additional bands           34
 real space projection scheme for non local part
 use partial core corrections
 calculate Harris-corrections to forces 
   (improved forces if not selfconsistent)
 use gradient corrections 
 use of overlap-Matrix (Vanderbilt PP)
 Methfessel and Paxton  Order N= 1 SIGMA  =   0.20


--------------------------------------------------------------------------------------------------------


  energy-cutoff  :      400.00
  volume of cell :     1248.13
      direct lattice vectors                 reciprocal lattice vectors
    10.838557601  0.053656008  0.000000000     0.092265483 -0.000461326  0.000000000
     0.053656008 10.731245585  0.000000000    -0.000461326  0.093188134  0.000000000
     0.000000000  0.000000000 10.731245585     0.000000000  0.000000000  0.093185828

  length of vectors
    10.838690411 10.731379723 10.731245585     0.092266636  0.093189276  0.093185828


 
 k-points in units of 2pi/SCALE and weight: Automatic mesh                          
   0.00000000  0.00000000  0.00000000       0.125
   0.04613275 -0.00023066  0.00000000       0.125
  -0.00023066  0.04659407  0.00000000       0.125
   0.04590209  0.04636341  0.00000000       0.125
   0.00000000  0.00000000  0.04659292       0.125
   0.04613275 -0.00023066  0.04659292       0.125
  -0.00023066  0.04659407  0.04659292       0.125
   0.04590209  0.04636341  0.04659292       0.125
 
 k-points in reciprocal lattice and weights: Automatic mesh                          
   0.00000000  0.00000000  0.00000000       0.125
   0.50000000  0.00000000  0.00000000       0.125
  -0.00000000  0.50000000  0.00000000       0.125
   0.50000000  0.50000000  0.00000000       0.125
   0.00000000  0.00000000  0.50000000       0.125
   0.50000000  0.00000000  0.50000000       0.125
  -0.00000000  0.50000000  0.50000000       0.125
   0.50000000  0.50000000  0.50000000       0.125
 
 position of ions in fractional coordinates (direct lattice) 
   0.00000000  0.00000000  0.00000000
   0.00000000  0.00000000  0.50000000
   0.00000000  0.50000000  0.00000000
   0.00000000  0.50000000  0.50000000
   0.50000000  0.00000000  0.00000000
   0.50000000  0.00000000  0.50000000
   0.50000000  0.50000000  0.00000000
   0.50000000  0.50000000  0.50000000
   0.37500000  0.37500000  0.12500000
   0.37500000  0.37500000  0.62500000
   0.37500000  0.87500000  0.12500000
   0.37500000  0.87500000  0.62500000
   0.87500000  0.37500000  0.12500000
   0.87500000  0.37500000  0.62500000
   0.87500000  0.87500000  0.12500000
   0.87500000  0.87500000  0.62500000
   0.00000000  0.25000000  0.25000000
   0.00000000  0.25000000  0.75000000
   0.00000000  0.75000000  0.25000000
   0.00000000  0.75000000  0.75000000
   0.50000000  0.25000000  0.25000000
   0.50000000  0.25000000  0.75000000
   0.50000000  0.75000000  0.25000000
   0.50000000  0.75000000  0.75000000
   0.37500000  0.12500000  0.37500000
   0.37500000  0.12500000  0.87500000
   0.37500000  0.62500000  0.37500000
   0.37500000  0.62500000  0.87500000
   0.87500000  0.12500000  0.37500000
   0.87500000  0.12500000  0.87500000
   0.87500000  0.62500000  0.37500000
   0.87500000  0.62500000  0.87500000
   0.25000000  0.00000000  0.25000000
   0.25000000  0.00000000  0.75000000
   0.25000000  0.50000000  0.25000000
   0.25000000  0.50000000  0.75000000
   0.75000000  0.00000000  0.25000000
   0.75000000  0.00000000  0.75000000
   0.75000000  0.50000000  0.25000000
   0.75000000  0.50000000  0.75000000
   0.12500000  0.37500000  0.37500000
   0.12500000  0.37500000  0.87500000
   0.12500000  0.87500000  0.37500000
   0.12500000  0.87500000  0.87500000
   0.62500000  0.37500000  0.37500000
   0.62500000  0.37500000  0.87500000
   0.62500000  0.87500000  0.37500000
   0.62500000  0.87500000  0.87500000
   0.25000000  0.25000000  0.00000000
   0.25000000  0.25000000  0.50000000
   0.25000000  0.75000000  0.00000000
   0.25000000  0.75000000  0.50000000
   0.75000000  0.25000000  0.00000000
   0.75000000  0.25000000  0.50000000
   0.75000000  0.75000000  0.00000000
   0.75000000  0.75000000  0.50000000
   0.12500000  0.12500000  0.12500000
   0.12500000  0.12500000  0.62500000
   0.12500000  0.62500000  0.12500000
   0.12500000  0.62500000  0.62500000
   0.62500000  0.12500000  0.12500000
   0.62500000  0.12500000  0.62500000
   0.62500000  0.62500000  0.12500000
   0.62500000  0.62500000  0.62500000
 
 position of ions in cartesian coordinates  (Angst):
   0.00000000  0.00000000  0.00000000
   0.00000000  0.00000000  5.36562279
   0.02682800  5.36562279  0.00000000
   0.02682800  5.36562279  5.36562279
   5.41927880  0.02682800  0.00000000
   5.41927880  0.02682800  5.36562279
   5.44610680  5.39245080  0.00000000
   5.44610680  5.39245080  5.36562279
   4.08458010  4.04433810  1.34140570
   4.08458010  4.04433810  6.70702849
   4.11140811  9.40996089  1.34140570
   4.11140811  9.40996089  6.70702849
   9.50385890  4.07116610  1.34140570
   9.50385890  4.07116610  6.70702849
   9.53068691  9.43678889  1.34140570
   9.53068691  9.43678889  6.70702849
   0.01341400  2.68281140  2.68281140
   0.01341400  2.68281140  8.04843419
   0.04024201  8.04843419  2.68281140
   0.04024201  8.04843419  8.04843419
   5.43269280  2.70963940  2.68281140
   5.43269280  2.70963940  8.04843419
   5.45952081  8.07526219  2.68281140
   5.45952081  8.07526219  8.04843419
   4.07116610  1.36152670  4.02421709
   4.07116610  1.36152670  9.38983989
   4.09799411  6.72714949  4.02421709
   4.09799411  6.72714949  9.38983989
   9.49044490  1.38835471  4.02421709
   9.49044490  1.38835471  9.38983989
   9.51727291  6.75397750  4.02421709
   9.51727291  6.75397750  9.38983989
   2.70963940  0.01341400  2.68281140
   2.70963940  0.01341400  8.04843419
   2.73646740  5.37903679  2.68281140
   2.73646740  5.37903679  8.04843419
   8.12891820  0.04024201  2.68281140
   8.12891820  0.04024201  8.04843419
   8.15574620  5.40586480  2.68281140
   8.15574620  5.40586480  8.04843419
   1.37494070  4.03092410  4.02421709
   1.37494070  4.03092410  9.38983989
   1.40176871  9.39654689  4.02421709
   1.40176871  9.39654689  9.38983989
   6.79421950  4.05775210  4.02421709
   6.79421950  4.05775210  9.38983989
   6.82104751  9.42337489  4.02421709
   6.82104751  9.42337489  9.38983989
   2.72305340  2.69622540  0.00000000
   2.72305340  2.69622540  5.36562279
   2.74988141  8.06184819  0.00000000
   2.74988141  8.06184819  5.36562279
   8.14233220  2.72305340  0.00000000
   8.14233220  2.72305340  5.36562279
   8.16916021  8.08867619  0.00000000
   8.16916021  8.08867619  5.36562279
   1.36152670  1.34811270  1.34140570
   1.36152670  1.34811270  6.70702849
   1.38835471  6.71373549  1.34140570
   1.38835471  6.71373549  6.70702849
   6.78080550  1.37494070  1.34140570
   6.78080550  1.37494070  6.70702849
   6.80763351  6.74056350  1.34140570
   6.80763351  6.74056350  6.70702849
 


--------------------------------------------------------------------------------------------------------


 k-point     1 :   0.0000 0.0000 0.0000  plane waves:   22695
 k-point     2 :   0.5000 0.0000 0.0000  plane waves:   22704
 k-point     3 :  -0.0000 0.5000 0.0000  plane waves:   22668
 k-point     4 :   0.5000 0.5000 0.0000  plane waves:   22664
 k-point     5 :   0.0000 0.0000 0.5000  plane waves:   22658
 k-point     6 :   0.5000 0.0000 0.5000  plane waves:   22660
 k-point     7 :  -0.0000 0.5000 0.5000  plane waves:   22664
 k-point     8 :   0.5000 0.5000 0.5000  plane waves:   22596

 maximum and minimum number of plane-waves per node :      1933     1861

 maximum number of plane-waves:     22704
 maximum index in each direction: 
   IXMAX=   17   IYMAX=   17   IZMAX=   17
   IXMIN=  -18   IYMIN=  -17   IZMIN=  -17


 real space projection operators:
  total allocation   :      12056.50 KBytes
  max/ min on nodes  :       1016.50        981.00


 parallel 3D FFT for wavefunctions:
    minimum data exchange during FFTs selected (reduces bandwidth)
 parallel 3D FFT for charge:
    minimum data exchange during FFTs selected (reduces bandwidth)


 total amount of memory used by VASP MPI-rank0    79901. kBytes
=======================================================================

   base      :      30000. kBytes
   nonlr-proj:       4630. kBytes
   fftplans  :      18113. kBytes
   grid      :       6881. kBytes
   one-center:         18. kBytes
   wavefun   :      20259. kBytes
 
     INWAV:  cpu time      0.0000: real time      0.0000
 Broyden mixing: mesh for mixing (old mesh)
   NGX = 35   NGY = 35   NGZ = 35
  (NGX  =144   NGY  =140   NGZ  =140)
  gives a total of  42875 points

 initial charge density was supplied:
 charge density of overlapping atoms calculated
 number of electron     256.0000000 magnetization 
 keeping initial charge density in first step


--------------------------------------------------------------------------------------------------------


 Maximum index for non-local projection operator          280
 Maximum index for augmentation-charges         3312 (set IRDMAX)


--------------------------------------------------------------------------------------------------------


 First call to EWALD:  gamma=   0.165
 Maximum number of real-space cells 3x 3x 3
 Maximum number of reciprocal cells 3x 3x 3

    FEWALD:  cpu time      0.0079: real time      0.0079


--------------------------------------- Ionic step        1  -------------------------------------------




--------------------------------------- Iteration      1(   1)  ---------------------------------------


    POTLOK:  cpu time      0.0946: real time      0.1035
    SETDIJ:  cpu time      0.0885: real time      0.0940
     EDDAV:  cpu time      1.2919: real time      1.3567
       DOS:  cpu time      0.0112: real time      0.0141
    --------------------------------------------
      LOOP:  cpu time      1.4862: real time      1.5684

 eigenvalue-minimisations  :  2592
 total energy-change (2. order) : 0.5632879E+03  (-0.8422063E+04)
 number of electron     256.0000000 magnetization 
 augmentation part      256.0000000 magnetization 

 Free energy of the ion-electron system (eV)
  ---------------------------------------------------
  alpha Z        PSCENC =       110.47231242
  Ewald energy   TEWEN  =     -7377.31454494
  -Hartree energ DENC   =      -339.74266302
  -exchange      EXHF   =         0.00000000
  -V(xc)+E(xc)   XCENC  =      -555.51329819
  PAW double counting   =      5598.62625415    -4492.17844134
  entropy T*S    EENTRO =         0.00808799
  eigenvalues    EBANDS =      1054.13435159
  atomic energy  EATOM  =      6564.79586099
  Solvation  Ediel_sol  =         0.00000000
  ---------------------------------------------------
  free energy    TOTEN  =       563.28791966 eV

  energy without entropy =      563.27983167  energy(sigma->0) =      563.28522366


--------------------------------------------------------------------------------------------------------




--------------------------------------- Iteration      1(   2)  ---------------------------------------


     EDDAV:  cpu time      1.3519: real time      1.3669
       DOS:  cpu time      0.0017: real time      0.0017
    --------------------------------------------
      LOOP:  cpu time      1.3535: real time      1.3685

 eigenvalue-minimisations  :  3090
 total energy-change (2. order) :-0.8736989E+03  (-0.8290203E+03)
 number of electron     256.0000000 magnetization 
 augmentation part      256.0000000 magnetization 

 Free energy of the ion-electron system (eV)
  ---------------------------------------------------
  alpha Z        PSCENC =       110.47231242
  Ewald energy   TEWEN  =     -7377.31454494
  -Hartree energ DENC   =      -339.74266302
  -exchange      EXHF   =         0.00000000
  -V(xc)+E(xc)   XCENC  =      -555.51329819
  PAW double counting   =      5598.62625415    -4492.17844134
  entropy T*S    EENTRO =         0.01012831
  eigenvalues    EBANDS =       180.43340919
  atomic energy  EATOM  =      6564.79586099
  Solvation  Ediel_sol  =         0.00000000
  ---------------------------------------------------
  free energy    TOTEN  =      -310.41098242 eV

  energy without entropy =     -310.42111073  energy(sigma->0) =     -310.41435853


--------------------------------------------------------------------------------------------------------




--------------------------------------- Iteration      1(   3)  ---------------------------------------


     EDDAV:  cpu time      1.3477: real time      1.3616
       DOS:  cpu time      0.0012: real time      0.0013
    --------------------------------------------
      LOOP:  cpu time      1.3488: real time      1.3629

 eigenvalue-minimisations  :  3136
 total energy-change (2. order) :-0.6286154E+02  (-0.6153208E+02)
 number of electron     256.0000000 magnetization 
 augmentation part      256.0000000 magnetization 

 Free energy of the ion-electron system (eV)
  ---------------------------------------------------
  alpha Z        PSCENC =       110.47231242
  Ewald energy   TEWEN  =     -7377.31454494
  -Hartree energ DENC   =      -339.74266302
  -exchange      EXHF   =         0.00000000
  -V(xc)+E(xc)   XCENC  =      -555.51329819
  PAW double counting   =      5598.62625415    -4492.17844134
  entropy T*S    EENTRO =         0.00717245
  eigenvalues    EBANDS =       117.57482259
  atomic energy  EATOM  =      6564.79586099
  Solvation  Ediel_sol  =         0.00000000
  ---------------------------------------------------
  free energy    TOTEN  =      -373.27252488 eV

  energy without entropy =     -373.27969733  energy(sigma->0) =     -373.27491570


--------------------------------------------------------------------------------------------------------




--------------------------------------- Iteration      1(   4)  ---------------------------------------


     EDDAV:  cpu time      1.3534: real time      1.3688
       DOS:  cpu time      0.0014: real time      0.0014
    --------------------------------------------
      LOOP:  cpu time      1.3548: real time      1.3702

 eigenvalue-minimisations  :  3144
 total energy-change (2. order) :-0.1646163E+01  (-0.1633787E+01)
 number of electron     256.0000000 magnetization 
 augmentation part      256.0000000 magnetization 

 Free energy of the ion-electron system (eV)
  ---------------------------------------------------
  alpha Z        PSCENC =       110.47231242
  Ewald energy   TEWEN  =     -7377.31454494
  -Hartree energ DENC   =      -339.74266302
  -exchange      EXHF   =         0.00000000
  -V(xc)+E(xc)   XCENC  =      -555.51329819
  PAW double counting   =      5598.62625415    -4492.17844134
  entropy T*S    EENTRO =         0.00823081
  eigenvalues    EBANDS =       115.92760074
  atomic energy  EATOM  =      6564.79586099
  Solvation  Ediel_sol  =         0.00000000
  ---------------------------------------------------
  free energy    TOTEN  =      -374.91868838 eV

  energy without entropy =     -374.92691919  energy(sigma->0) =     -374.92143198


--------------------------------------------------------------------------------------------------------




--------------------------------------- Iteration      1(   5)  ---------------------------------------


     EDDAV:  cpu time      1.3345: real time      1.3511
       DOS:  cpu time      0.0012: real time      0.0012
    CHARGE:  cpu time      0.2499: real time      0.2532
    MIXING:  cpu time      0.0108: real time      0.0126
    --------------------------------------------
      LOOP:  cpu time      1.5964: real time      1.6181

 eigenvalue-minimisations  :  3078
 total energy-change (2. order) :-0.4989243E-01  (-0.4976990E-01)
 number of electron     256.0000001 magnetization 
 augmentation part      -15.0247878 magnetization 

 Broyden mixing:
  rms(total) = 0.29103E+01    rms(broyden)= 0.29102E+01
  rms(prec ) = 0.32052E+01
  weight for this iteration     100.00

 Free energy of the ion-electron system (eV)
  ---------------------------------------------------
  alpha Z        PSCENC =       110.47231242
  Ewald energy   TEWEN  =     -7377.31454494
  -Hartree energ DENC   =      -339.74266302
  -exchange      EXHF   =         0.00000000
  -V(xc)+E(xc)   XCENC  =      -555.51329819
  PAW double counting   =      5598.62625415    -4492.17844134
  entropy T*S    EENTRO =         0.00823620
  eigenvalues    EBANDS =       115.87770292
  atomic energy  EATOM  =      6564.79586099
  Solvation  Ediel_sol  =         0.00000000
  ---------------------------------------------------
  free energy    TOTEN  =      -374.96858081 eV

  energy without entropy =     -374.97681701  energy(sigma->0) =     -374.97132621


--------------------------------------------------------------------------------------------------------




--------------------------------------- Iteration      1(   6)  ---------------------------------------


    POTLOK:  cpu time      0.0786: real time      0.0931
    SETDIJ:  cpu time      0.0753: real time      0.0755
    EDDIAG:  cpu time      0.1406: real time      0.1437
  RMM-DIIS:  cpu time      0.7028: real time      0.7070
    ORTHCH:  cpu time      0.0213: real time      0.0214
       DOS:  cpu time      0.0014: real time      0.0014
    CHARGE:  cpu time      0.2401: real time      0.2406
    MIXING:  cpu time      0.0059: real time      0.0088
    --------------------------------------------
      LOOP:  cpu time      1.2660: real time      1.2915

 eigenvalue-minimisations  :  2592
 total energy-change (2. order) : 0.5378182E+01  (-0.2734206E+00)
 number of electron     256.0000001 magnetization 
 augmentation part      -14.8553354 magnetization 

 Broyden mixing:
  rms(total) = 0.17524E+01    rms(broyden)= 0.17524E+01
  rms(prec ) = 0.19201E+01
  weight for this iteration     100.00

 eigenvalues of (default mixing * dielectric matrix)
  average eigenvalue GAMMA=   2.5080
  2.5080

 Free energy of the ion-electron system (eV)
  ---------------------------------------------------
  alpha Z        PSCENC =       110.47231242
  Ewald energy   TEWEN  =     -7377.31454494
  -Hartree energ DENC   =      -387.26794756
  -exchange      EXHF   =         0.00000000
  -V(xc)+E(xc)   XCENC  =      -547.99829766
  PAW double counting   =     12694.42815308   -11591.52083284
  entropy T*S    EENTRO =         0.01001702
  eigenvalues    EBANDS =       164.80488047
  atomic energy  EATOM  =      6564.79586099
  Solvation  Ediel_sol  =         0.00000000
  ---------------------------------------------------
  free energy    TOTEN  =      -369.59039901 eV

  energy without entropy =     -369.60041603  energy(sigma->0) =     -369.59373802


--------------------------------------------------------------------------------------------------------




--------------------------------------- Iteration      1(   7)  ---------------------------------------


    POTLOK:  cpu time      0.0768: real time      0.0893
    SETDIJ:  cpu time      0.0747: real time      0.0748
    EDDIAG:  cpu time      0.1335: real time      0.1338
  RMM-DIIS:  cpu time      0.7077: real time      0.7097
    ORTHCH:  cpu time      0.0209: real time      0.0210
       DOS:  cpu time      0.0025: real time      0.0025
    CHARGE:  cpu time      0.2410: real time      0.2416
    MIXING:  cpu time      0.0062: real time      0.0077
    --------------------------------------------
      LOOP:  cpu time      1.2632: real time      1.2804

 eigenvalue-minimisations  :  2647
 total energy-change (2. order) : 0.2418749E+01  (-0.6986983E+00)
 number of electron     256.0000001 magnetization 
 augmentation part      -14.6169361 magnetization 

 Broyden mixing:
  rms(total) = 0.10185E+00    rms(broyden)= 0.10185E+00
  rms(prec ) = 0.12796E+00
  weight for this iteration     100.00

 eigenvalues of (default mixing * dielectric matrix)
  average eigenvalue GAMMA=   2.2753
  2.2753  2.2753

 Free energy of the ion-electron system (eV)
  ---------------------------------------------------
  alpha Z        PSCENC =       110.47231242
  Ewald energy   TEWEN  =     -7377.31454494
  -Hartree energ DENC   =      -465.72057450
  -exchange      EXHF   =         0.00000000
  -V(xc)+E(xc)   XCENC  =      -535.01887717
  PAW double counting   =     29863.84097931   -28765.85108601
  entropy T*S    EENTRO =         0.03225759
  eigenvalues    EBANDS =       237.59202278
  atomic energy  EATOM  =      6564.79586099
  Solvation  Ediel_sol  =         0.00000000
  ---------------------------------------------------
  free energy    TOTEN  =      -367.17164952 eV

  energy without entropy =     -367.20390711  energy(sigma->0) =     -367.18240205


--------------------------------------------------------------------------------------------------------




--------------------------------------- Iteration      1(   8)  ---------------------------------------


    POTLOK:  cpu time      0.0802: real time      0.0938
    SETDIJ:  cpu time      0.0719: real time      0.0722
    EDDIAG:  cpu time      0.1335: real time      0.1339
  RMM-DIIS:  cpu time      0.7054: real time      0.7073
    ORTHCH:  cpu time      0.0208: real time      0.0208
       DOS:  cpu time      0.0017: real time      0.0017
    CHARGE:  cpu time      0.2359: real time      0.2365
    MIXING:  cpu time      0.0092: real time      0.0098
    --------------------------------------------
      LOOP:  cpu time      1.2586: real time      1.2759

 eigenvalue-minimisations  :  2619
 total energy-change (2. order) :-0.4077604E-01  (-0.6597937E-01)
 number of electron     256.0000001 magnetization 
 augmentation part      -14.6700696 magnetization 

 Broyden mixing:
  rms(total) = 0.50625E-01    rms(broyden)= 0.50625E-01
  rms(prec ) = 0.54029E-01
  weight for this iteration     100.00

 eigenvalues of (default mixing * dielectric matrix)
  average eigenvalue GAMMA=   2.1311
  2.5526  1.9204  1.9204

 Free energy of the ion-electron system (eV)
  ---------------------------------------------------
  alpha Z        PSCENC =       110.47231242
  Ewald energy   TEWEN  =     -7377.31454494
  -Hartree energ DENC   =      -457.98092488
  -exchange      EXHF   =         0.00000000
  -V(xc)+E(xc)   XCENC  =      -535.65196650
  PAW double counting   =     29539.98225538   -28441.04960854
  entropy T*S    EENTRO =         0.03133062
  eigenvalues    EBANDS =       229.50285988
  atomic energy  EATOM  =      6564.79586099
  Solvation  Ediel_sol  =         0.00000000
  ---------------------------------------------------
  free energy    TOTEN  =      -367.21242557 eV

  energy without entropy =     -367.24375618  energy(sigma->0) =     -367.22286911


--------------------------------------------------------------------------------------------------------




--------------------------------------- Iteration      1(   9)  ---------------------------------------


    POTLOK:  cpu time      0.0757: real time      0.0906
    SETDIJ:  cpu time      0.0756: real time      0.0758
    EDDIAG:  cpu time      0.1348: real time      0.1351
  RMM-DIIS:  cpu time      0.7172: real time      0.7191
    ORTHCH:  cpu time      0.0210: real time      0.0211
       DOS:  cpu time      0.0018: real time      0.0018
    CHARGE:  cpu time      0.2361: real time      0.2367
    MIXING:  cpu time      0.0072: real time      0.0072
    --------------------------------------------
      LOOP:  cpu time      1.2694: real time      1.2873

 eigenvalue-minimisations  :  2668
 total energy-change (2. order) :-0.2065635E-01  (-0.1926761E-01)
 number of electron     256.0000001 magnetization 
 augmentation part      -14.6582782 magnetization 

 Broyden mixing:
  rms(total) = 0.58210E-01    rms(broyden)= 0.58210E-01
  rms(prec ) = 0.65457E-01
  weight for this iteration     100.00

 eigenvalues of (default mixing * dielectric matrix)
  average eigenvalue GAMMA=   1.9218
  2.5432  2.3794  2.3794  0.3852

 Free energy of the ion-electron system (eV)
  ---------------------------------------------------
  alpha Z        PSCENC =       110.47231242
  Ewald energy   TEWEN  =     -7377.31454494
  -Hartree energ DENC   =      -460.85768989
  -exchange      EXHF   =         0.00000000
  -V(xc)+E(xc)   XCENC  =      -535.25985729
  PAW double counting   =     29900.38235336   -28801.68681388
  entropy T*S    EENTRO =         0.03173430
  eigenvalues    EBANDS =       232.20356301
  atomic energy  EATOM  =      6564.79586099
  Solvation  Ediel_sol  =         0.00000000
  ---------------------------------------------------
  free energy    TOTEN  =      -367.23308192 eV

  energy without entropy =     -367.26481622  energy(sigma->0) =     -367.24366002


--------------------------------------------------------------------------------------------------------




--------------------------------------- Iteration      1(  10)  ---------------------------------------


    POTLOK:  cpu time      0.0772: real time      0.0943
    SETDIJ:  cpu time      0.0716: real time      0.0717
    EDDIAG:  cpu time      0.1342: real time      0.1345
  RMM-DIIS:  cpu time      0.7292: real time      0.7311
    ORTHCH:  cpu time      0.0210: real time      0.0210
       DOS:  cpu time      0.0017: real time      0.0017
    CHARGE:  cpu time      0.2532: real time      0.2539
    MIXING:  cpu time      0.0077: real time      0.0077
    --------------------------------------------
      LOOP:  cpu time      1.2958: real time      1.3160

 eigenvalue-minimisations  :  2740
 total energy-change (2. order) :-0.3571485E-02  (-0.3407008E-02)
 number of electron     256.0000001 magnetization 
 augmentation part      -14.6647712 magnetization 

 Broyden mixing:
  rms(total) = 0.74472E-01    rms(broyden)= 0.74471E-01
  rms(prec ) = 0.80869E-01
  weight for this iteration     100.00

 eigenvalues of (default mixing * dielectric matrix)
  average eigenvalue GAMMA=   1.5211
  2.6484  2.0422  2.0422  0.5502  0.3226

 Free energy of the ion-electron system (eV)
  ---------------------------------------------------
  alpha Z        PSCENC =       110.47231242
  Ewald energy   TEWEN  =     -7377.31454494
  -Hartree energ DENC   =      -460.92096220
  -exchange      EXHF   =         0.00000000
  -V(xc)+E(xc)   XCENC  =      -535.25254317
  PAW double counting   =     29915.70835461   -28817.01546222
  entropy T*S    EENTRO =         0.03174745
  eigenvalues    EBANDS =       232.25858366
  atomic energy  EATOM  =      6564.79586099
  Solvation  Ediel_sol  =         0.00000000
  ---------------------------------------------------
  free energy    TOTEN  =      -367.23665340 eV

  energy without entropy =     -367.26840085  energy(sigma->0) =     -367.24723589


--------------------------------------------------------------------------------------------------------




--------------------------------------- Iteration      1(  11)  ---------------------------------------


    POTLOK:  cpu time      0.0867: real time      0.0954
    SETDIJ:  cpu time      0.0701: real time      0.0703
    EDDIAG:  cpu time      0.1329: real time      0.1333
  RMM-DIIS:  cpu time      0.6954: real time      0.6974
    ORTHCH:  cpu time      0.0206: real time      0.0206
       DOS:  cpu time      0.0017: real time      0.0017
    CHARGE:  cpu time      0.2359: real time      0.2365
    MIXING:  cpu time      0.0084: real time      0.0085
    --------------------------------------------
      LOOP:  cpu time      1.2518: real time      1.2636

 eigenvalue-minimisations  :  2592
 total energy-change (2. order) : 0.2904145E-02  (-0.1126411E-02)
 number of electron     256.0000001 magnetization 
 augmentation part      -14.6782924 magnetization 

 Broyden mixing:
  rms(total) = 0.71634E-01    rms(broyden)= 0.71634E-01
  rms(prec ) = 0.72317E-01
  weight for this iteration     100.00

 eigenvalues of (default mixing * dielectric matrix)
  average eigenvalue GAMMA=   1.3800
  2.5319  2.5319  1.3637  0.8041  0.8041  0.2441

 Free energy of the ion-electron system (eV)
  ---------------------------------------------------
  alpha Z        PSCENC =       110.47231242
  Ewald energy   TEWEN  =     -7377.31454494
  -Hartree energ DENC   =      -458.60590275
  -exchange      EXHF   =         0.00000000
  -V(xc)+E(xc)   XCENC  =      -535.41035216
  PAW double counting   =     29888.22938804   -28789.28685166
  entropy T*S    EENTRO =         0.03117899
  eigenvalues    EBANDS =       229.85516180
  atomic energy  EATOM  =      6564.79586099
  Solvation  Ediel_sol  =         0.00000000
  ---------------------------------------------------
  free energy    TOTEN  =      -367.23374926 eV

  energy without entropy =     -367.26492825  energy(sigma->0) =     -367.24414226


--------------------------------------------------------------------------------------------------------




--------------------------------------- Iteration      1(  12)  ---------------------------------------


    POTLOK:  cpu time      0.0768: real time      0.0896
    SETDIJ:  cpu time      0.0746: real time      0.0747
    EDDIAG:  cpu time      0.1331: real time      0.1334
  RMM-DIIS:  cpu time      0.6961: real time      0.6982
    ORTHCH:  cpu time      0.0204: real time      0.0204
       DOS:  cpu time      0.0017: real time      0.0017
    CHARGE:  cpu time      0.2348: real time      0.2353
    MIXING:  cpu time      0.0074: real time      0.0074
    --------------------------------------------
      LOOP:  cpu time      1.2448: real time      1.2608

 eigenvalue-minimisations  :  2603
 total energy-change (2. order) :-0.7922433E-04  (-0.1767572E-03)
 number of electron     256.0000001 magnetization 
 augmentation part      -14.6818933 magnetization 

 Broyden mixing:
  rms(total) = 0.74169E-01    rms(broyden)= 0.74169E-01
  rms(prec ) = 0.74656E-01
  weight for this iteration     100.00

 eigenvalues of (default mixing * dielectric matrix)
  average eigenvalue GAMMA=   1.2583
  2.5366  2.5366  1.3924  0.8532  0.8532  0.2703  0.3656

 Free energy of the ion-electron system (eV)
  ---------------------------------------------------
  alpha Z        PSCENC =       110.47231242
  Ewald energy   TEWEN  =     -7377.31454494
  -Hartree energ DENC   =      -458.36797412
  -exchange      EXHF   =         0.00000000
  -V(xc)+E(xc)   XCENC  =      -535.44703406
  PAW double counting   =     29812.45679721   -28713.52117045
  entropy T*S    EENTRO =         0.03114748
  eigenvalues    EBANDS =       229.66077699
  atomic energy  EATOM  =      6564.79586099
  Solvation  Ediel_sol  =         0.00000000
  ---------------------------------------------------
  free energy    TOTEN  =      -367.23382848 eV

  energy without entropy =     -367.26497596  energy(sigma->0) =     -367.24421098


--------------------------------------------------------------------------------------------------------




--------------------------------------- Iteration      1(  13)  ---------------------------------------


    POTLOK:  cpu time      0.0798: real time      0.0940
    SETDIJ:  cpu time      0.0717: real time      0.0718
    EDDIAG:  cpu time      0.1329: real time      0.1333
  RMM-DIIS:  cpu time      0.7240: real time      0.7262
    ORTHCH:  cpu time      0.0208: real time      0.0209
       DOS:  cpu time      0.0017: real time      0.0017
    CHARGE:  cpu time      0.2345: real time      0.2350
    MIXING:  cpu time      0.0085: real time      0.0085
    --------------------------------------------
      LOOP:  cpu time      1.2738: real time      1.2913

 eigenvalue-minimisations  :  2758
 total energy-change (2. order) :-0.6324951E-04  (-0.3392078E-04)
 number of electron     256.0000001 magnetization 
 augmentation part      -14.6822760 magnetization 

 Broyden mixing:
  rms(total) = 0.80036E-01    rms(broyden)= 0.80036E-01
  rms(prec ) = 0.80499E-01
  weight for this iteration     100.00

 eigenvalues of (default mixing * dielectric matrix)
  average eigenvalue GAMMA=   1.5682
  2.6718  2.6718  2.5066  1.7990  1.0485  0.7814  0.7814  0.2856

 Free energy of the ion-electron system (eV)
  ---------------------------------------------------
  alpha Z        PSCENC =       110.47231242
  Ewald energy   TEWEN  =     -7377.31454494
  -Hartree energ DENC   =      -458.41498399
  -exchange      EXHF   =         0.00000000
  -V(xc)+E(xc)   XCENC  =      -535.43899370
  PAW double counting   =     29850.63106613   -28751.69414232
  entropy T*S    EENTRO =         0.03115127
  eigenvalues    EBANDS =       229.69838241
  atomic energy  EATOM  =      6564.79586099
  Solvation  Ediel_sol  =         0.00000000
  ---------------------------------------------------
  free energy    TOTEN  =      -367.23389173 eV

  energy without entropy =     -367.26504300  energy(sigma->0) =     -367.24427549


--------------------------------------------------------------------------------------------------------




--------------------------------------- Iteration      1(  14)  ---------------------------------------


    POTLOK:  cpu time      0.0771: real time      0.0903
    SETDIJ:  cpu time      0.0746: real time      0.0748
    EDDIAG:  cpu time      0.1321: real time      0.1326
  RMM-DIIS:  cpu time      0.6980: real time      0.6998
    ORTHCH:  cpu time      0.0204: real time      0.0205
       DOS:  cpu time      0.0017: real time      0.0017
    CHARGE:  cpu time      0.2350: real time      0.2356
    MIXING:  cpu time      0.0083: real time      0.0083
    --------------------------------------------
      LOOP:  cpu time      1.2475: real time      1.2637

 eigenvalue-minimisations  :  2594
 total energy-change (2. order) : 0.8258236E-04  (-0.1092340E-04)
 number of electron     256.0000001 magnetization 
 augmentation part      -14.6830505 magnetization 

 Broyden mixing:
  rms(total) = 0.54198E-01    rms(broyden)= 0.54198E-01
  rms(prec ) = 0.54731E-01
  weight for this iteration     100.00

 eigenvalues of (default mixing * dielectric matrix)
  average eigenvalue GAMMA=   1.4297
  2.6306  2.4962  2.4962  1.4635  1.0068  1.0068  0.8071  0.6726  0.2875

 Free energy of the ion-electron system (eV)
  ---------------------------------------------------
  alpha Z        PSCENC =       110.47231242
  Ewald energy   TEWEN  =     -7377.31454494
  -Hartree energ DENC   =      -458.11339941
  -exchange      EXHF   =         0.00000000
  -V(xc)+E(xc)   XCENC  =      -535.48242674
  PAW double counting   =     29623.50272035   -28524.59693272
  entropy T*S    EENTRO =         0.03111903
  eigenvalues    EBANDS =       229.47148186
  atomic energy  EATOM  =      6564.79586099
  Solvation  Ediel_sol  =         0.00000000
  ---------------------------------------------------
  free energy    TOTEN  =      -367.23380915 eV

  energy without entropy =     -367.26492818  energy(sigma->0) =     -367.24418216


--------------------------------------------------------------------------------------------------------




--------------------------------------- Iteration      1(  15)  ---------------------------------------


    POTLOK:  cpu time      0.0803: real time      0.0959
    SETDIJ:  cpu time      0.0713: real time      0.0715
    EDDIAG:  cpu time      0.1324: real time      0.1328
  RMM-DIIS:  cpu time      0.7010: real time      0.7026
    ORTHCH:  cpu time      0.0222: real time      0.0223
       DOS:  cpu time      0.0018: real time      0.0018
    CHARGE:  cpu time      0.2384: real time      0.2390
    MIXING:  cpu time      0.0069: real time      0.0070
    --------------------------------------------
      LOOP:  cpu time      1.2542: real time      1.2726

 eigenvalue-minimisations  :  2616
 total energy-change (2. order) :-0.1402582E-03  (-0.5351776E-05)
 number of electron     256.0000001 magnetization 
 augmentation part      -14.6835004 magnetization 

 Broyden mixing:
  rms(total) = 0.48055E-01    rms(broyden)= 0.48055E-01
  rms(prec ) = 0.48483E-01
  weight for this iteration     100.00

 eigenvalues of (default mixing * dielectric matrix)
  average eigenvalue GAMMA=   1.4224
  2.6275  2.6275  2.4126  1.2769  1.2769  1.1793  0.8600  0.8384  0.8384  0.2866

 Free energy of the ion-electron system (eV)
  ---------------------------------------------------
  alpha Z        PSCENC =       110.47231242
  Ewald energy   TEWEN  =     -7377.31454494
  -Hartree energ DENC   =      -458.07115040
  -exchange      EXHF   =         0.00000000
  -V(xc)+E(xc)   XCENC  =      -535.48197099
  PAW double counting   =     29608.08188555   -28509.17004634
  entropy T*S    EENTRO =         0.03108578
  eigenvalues    EBANDS =       229.42261852
  atomic energy  EATOM  =      6564.79586099
  Solvation  Ediel_sol  =         0.00000000
  ---------------------------------------------------
  free energy    TOTEN  =      -367.23394941 eV

  energy without entropy =     -367.26503519  energy(sigma->0) =     -367.24431134


--------------------------------------------------------------------------------------------------------




--------------------------------------- Iteration      1(  16)  ---------------------------------------


    POTLOK:  cpu time      0.0763: real time      0.0922
    SETDIJ:  cpu time      0.0730: real time      0.0731
    EDDIAG:  cpu time      0.1350: real time      0.1354
  RMM-DIIS:  cpu time      0.6961: real time      0.6978
    ORTHCH:  cpu time      0.0211: real time      0.0211
       DOS:  cpu time      0.0015: real time      0.0015
    CHARGE:  cpu time      0.2350: real time      0.2356
    MIXING:  cpu time      0.0091: real time      0.0096
    --------------------------------------------
      LOOP:  cpu time      1.2471: real time      1.2664

 eigenvalue-minimisations  :  2592
 total energy-change (2. order) :-0.1337025E-03  (-0.4758573E-05)
 number of electron     256.0000001 magnetization 
 augmentation part      -14.6828376 magnetization 

 Broyden mixing:
  rms(total) = 0.34158E-01    rms(broyden)= 0.34158E-01
  rms(prec ) = 0.34380E-01
  weight for this iteration     100.00

 eigenvalues of (default mixing * dielectric matrix)
  average eigenvalue GAMMA=   1.4339
  2.6795  2.6795  2.3325  1.7006  1.3532  1.3532  0.9092  0.9092  0.7845  0.7845
  0.2867

 Free energy of the ion-electron system (eV)
  ---------------------------------------------------
  alpha Z        PSCENC =       110.47231242
  Ewald energy   TEWEN  =     -7377.31454494
  -Hartree energ DENC   =      -458.28097394
  -exchange      EXHF   =         0.00000000
  -V(xc)+E(xc)   XCENC  =      -535.46336113
  PAW double counting   =     29576.29769511   -28477.38969572
  entropy T*S    EENTRO =         0.03109017
  eigenvalues    EBANDS =       229.61753392
  atomic energy  EATOM  =      6564.79586099
  Solvation  Ediel_sol  =         0.00000000
  ---------------------------------------------------
  free energy    TOTEN  =      -367.23408311 eV

  energy without entropy =     -367.26517328  energy(sigma->0) =     -367.24444650


--------------------------------------------------------------------------------------------------------




--------------------------------------- Iteration      1(  17)  ---------------------------------------


    POTLOK:  cpu time      0.0817: real time      0.0945
    SETDIJ:  cpu time      0.0704: real time      0.0706
    EDDIAG:  cpu time      0.1328: real time      0.1333
  RMM-DIIS:  cpu time      0.6909: real time      0.6932
    ORTHCH:  cpu time      0.0207: real time      0.0208
       DOS:  cpu time      0.0016: real time      0.0016
    CHARGE:  cpu time      0.2345: real time      0.2351
    MIXING:  cpu time      0.0109: real time      0.0109
    --------------------------------------------
      LOOP:  cpu time      1.2435: real time      1.2599

 eigenvalue-minimisations  :  2592
 total energy-change (2. order) :-0.4671444E-04  (-0.2445371E-05)
 number of electron     256.0000001 magnetization 
 augmentation part      -14.6822519 magnetization 

 Broyden mixing:
  rms(total) = 0.17420E-01    rms(broyden)= 0.17420E-01
  rms(prec ) = 0.17540E-01
  weight for this iteration     100.00

 eigenvalues of (default mixing * dielectric matrix)
  average eigenvalue GAMMA=   1.5015
  1.8939  1.8939  2.6472  2.6472  2.4363  1.7892  0.9883  0.9883  0.8694  0.7888
  0.7888  0.2867

 Free energy of the ion-electron system (eV)
  ---------------------------------------------------
  alpha Z        PSCENC =       110.47231242
  Ewald energy   TEWEN  =     -7377.31454494
  -Hartree energ DENC   =      -458.36681956
  -exchange      EXHF   =         0.00000000
  -V(xc)+E(xc)   XCENC  =      -535.46355439
  PAW double counting   =     29489.49918488   -28390.59529750
  entropy T*S    EENTRO =         0.03108793
  eigenvalues    EBANDS =       229.70764034
  atomic energy  EATOM  =      6564.79586099
  Solvation  Ediel_sol  =         0.00000000
  ---------------------------------------------------
  free energy    TOTEN  =      -367.23412983 eV

  energy without entropy =     -367.26521775  energy(sigma->0) =     -367.24449247


--------------------------------------------------------------------------------------------------------




--------------------------------------- Iteration      1(  18)  ---------------------------------------


    POTLOK:  cpu time      0.0805: real time      0.0948
    SETDIJ:  cpu time      0.0709: real time      0.0710
    EDDIAG:  cpu time      0.1344: real time      0.1349
  RMM-DIIS:  cpu time      0.6380: real time      0.6395
    ORTHCH:  cpu time      0.0206: real time      0.0206
       DOS:  cpu time      0.0020: real time      0.0020
    CHARGE:  cpu time      0.2345: real time      0.2350
    MIXING:  cpu time      0.0094: real time      0.0094
    --------------------------------------------
      LOOP:  cpu time      1.1903: real time      1.2073

 eigenvalue-minimisations  :  2377
 total energy-change (2. order) :-0.1247678E-04  (-0.5979598E-06)
 number of electron     256.0000001 magnetization 
 augmentation part      -14.6820224 magnetization 

 Broyden mixing:
  rms(total) = 0.78697E-02    rms(broyden)= 0.78697E-02
  rms(prec ) = 0.79549E-02
  weight for this iteration     100.00

 eigenvalues of (default mixing * dielectric matrix)
  average eigenvalue GAMMA=   1.5150
  2.3109  2.3109  2.6542  2.6542  2.4265  1.7141  1.0395  1.0395  0.2867  0.8333
  0.8333  0.8567  0.7347

 Free energy of the ion-electron system (eV)
  ---------------------------------------------------
  alpha Z        PSCENC =       110.47231242
  Ewald energy   TEWEN  =     -7377.31454494
  -Hartree energ DENC   =      -458.38216370
  -exchange      EXHF   =         0.00000000
  -V(xc)+E(xc)   XCENC  =      -535.46738947
  PAW double counting   =     29433.25736113   -28334.35470326
  entropy T*S    EENTRO =         0.03108239
  eigenvalues    EBANDS =       229.72804214
  atomic energy  EATOM  =      6564.79586099
  Solvation  Ediel_sol  =         0.00000000
  ---------------------------------------------------
  free energy    TOTEN  =      -367.23414230 eV

  energy without entropy =     -367.26522469  energy(sigma->0) =     -367.24450310


--------------------------------------------------------------------------------------------------------




--------------------------------------- Iteration      1(  19)  ---------------------------------------


    POTLOK:  cpu time      0.0814: real time      0.0950
    SETDIJ:  cpu time      0.0699: real time      0.0701
    EDDIAG:  cpu time      0.1337: real time      0.1342
  RMM-DIIS:  cpu time      0.5135: real time      0.5147
    ORTHCH:  cpu time      0.0214: real time      0.0215
       DOS:  cpu time      0.0013: real time      0.0013
    CHARGE:  cpu time      0.2334: real time      0.2339
    MIXING:  cpu time      0.0099: real time      0.0100
    --------------------------------------------
      LOOP:  cpu time      1.0646: real time      1.0807

 eigenvalue-minimisations  :  1822
 total energy-change (2. order) :-0.6851966E-05  (-0.3118210E-06)
 number of electron     256.0000001 magnetization 
 augmentation part      -14.6818509 magnetization 

 Broyden mixing:
  rms(total) = 0.17990E-02    rms(broyden)= 0.17990E-02
  rms(prec ) = 0.18534E-02
  weight for this iteration     100.00

 eigenvalues of (default mixing * dielectric matrix)
  average eigenvalue GAMMA=   1.7983
  5.7713  2.9030  2.3676  2.3676  2.1907  2.1907  1.2603  1.2603  0.9917  0.9917
  0.9545  0.8202  0.8202  0.2867

 Free energy of the ion-electron system (eV)
  ---------------------------------------------------
  alpha Z        PSCENC =       110.47231242
  Ewald energy   TEWEN  =     -7377.31454494
  -Hartree energ DENC   =      -458.41052795
  -exchange      EXHF   =         0.00000000
  -V(xc)+E(xc)   XCENC  =      -535.46745369
  PAW double counting   =     29403.61389103   -28304.71151670
  entropy T*S    EENTRO =         0.03107859
  eigenvalues    EBANDS =       229.75675109
  atomic energy  EATOM  =      6564.79586099
  Solvation  Ediel_sol  =         0.00000000
  ---------------------------------------------------
  free energy    TOTEN  =      -367.23414915 eV

  energy without entropy =     -367.26522775  energy(sigma->0) =     -367.24450868


--------------------------------------------------------------------------------------------------------




--------------------------------------- Iteration      1(  20)  ---------------------------------------


    POTLOK:  cpu time      0.0789: real time      0.0960
    SETDIJ:  cpu time      0.0710: real time      0.0711
    EDDIAG:  cpu time      0.1319: real time      0.1322
  RMM-DIIS:  cpu time      0.4502: real time      0.4515
    ORTHCH:  cpu time      0.0213: real time      0.0214
       DOS:  cpu time      0.0014: real time      0.0014
    CHARGE:  cpu time      0.2341: real time      0.2346
    MIXING:  cpu time      0.0100: real time      0.0100
    --------------------------------------------
      LOOP:  cpu time      0.9987: real time      1.0182

 eigenvalue-minimisations  :  1568
 total energy-change (2. order) :-0.1046814E-05  (-0.1336411E-06)
 number of electron     256.0000001 magnetization 
 augmentation part      -14.6817785 magnetization 

 Broyden mixing:
  rms(total) = 0.73518E-03    rms(broyden)= 0.73510E-03
  rms(prec ) = 0.73773E-03
  weight for this iteration     100.00

 eigenvalues of (default mixing * dielectric matrix)
  average eigenvalue GAMMA=   2.1858
 11.8899  2.8165  2.8165  2.5788  2.2564  1.8620  1.8620  0.2867  1.0811  1.0811
  1.0288  0.8080  0.8080  0.8672  0.7442

 Free energy of the ion-electron system (eV)
  ---------------------------------------------------
  alpha Z        PSCENC =       110.47231242
  Ewald energy   TEWEN  =     -7377.31454494
  -Hartree energ DENC   =      -458.42714415
  -exchange      EXHF   =         0.00000000
  -V(xc)+E(xc)   XCENC  =      -535.46622192
  PAW double counting   =     29399.41951357   -28300.51638229
  entropy T*S    EENTRO =         0.03107540
  eigenvalues    EBANDS =       229.77138071
  atomic energy  EATOM  =      6564.79586099
  Solvation  Ediel_sol  =         0.00000000
  ---------------------------------------------------
  free energy    TOTEN  =      -367.23415020 eV

  energy without entropy =     -367.26522560  energy(sigma->0) =     -367.24450867


--------------------------------------------------------------------------------------------------------




--------------------------------------- Iteration      1(  21)  ---------------------------------------


    POTLOK:  cpu time      0.0814: real time      0.0946
    SETDIJ:  cpu time      0.0705: real time      0.0707
    EDDIAG:  cpu time      0.1333: real time      0.1337
  RMM-DIIS:  cpu time      0.4451: real time      0.4465
    ORTHCH:  cpu time      0.0206: real time      0.0207
       DOS:  cpu time      0.0018: real time      0.0018
    --------------------------------------------
      LOOP:  cpu time      0.7528: real time      0.7679

 eigenvalue-minimisations  :  1516
 total energy-change (2. order) :-0.4160602E-06  (-0.2614017E-07)
 number of electron     256.0000001 magnetization 
 augmentation part      -14.6817785 magnetization 

 Free energy of the ion-electron system (eV)
  ---------------------------------------------------
  alpha Z        PSCENC =       110.47231242
  Ewald energy   TEWEN  =     -7377.31454494
  -Hartree energ DENC   =      -458.43443773
  -exchange      EXHF   =         0.00000000
  -V(xc)+E(xc)   XCENC  =      -535.46510676
  PAW double counting   =     29404.41926716   -28305.51615604
  entropy T*S    EENTRO =         0.03107563
  eigenvalues    EBANDS =       229.77757865
  atomic energy  EATOM  =      6564.79586099
  Solvation  Ediel_sol  =         0.00000000
  ---------------------------------------------------
  free energy    TOTEN  =      -367.23415062 eV

  energy without entropy =     -367.26522625  energy(sigma->0) =     -367.24450916


--------------------------------------------------------------------------------------------------------




 average (electrostatic) potential at core
  the test charge radii are     0.9892
  (the norm of the test charge is              1.0000)
       1 -82.7353       2 -82.7353       3 -82.7353       4 -82.7353       5 -82.7353
       6 -82.7353       7 -82.7353       8 -82.7353       9 -82.7353      10 -82.7353
      11 -82.7353      12 -82.7353      13 -82.7353      14 -82.7353      15 -82.7353
      16 -82.7353      17 -82.7353      18 -82.7353      19 -82.7353      20 -82.7353
      21 -82.7353      22 -82.7353      23 -82.7353      24 -82.7353      25 -82.7353
      26 -82.7353      27 -82.7353      28 -82.7353      29 -82.7353      30 -82.7353
      31 -82.7353      32 -82.7353      33 -82.7353      34 -82.7353      35 -82.7353
      36 -82.7353      37 -82.7353      38 -82.7353      39 -82.7353      40 -82.7353
      41 -82.7353      42 -82.7353      43 -82.7353      44 -82.7353      45 -82.7353
      46 -82.7353      47 -82.7353      48 -82.7353      49 -82.7353      50 -82.7353
      51 -82.7353      52 -82.7353      53 -82.7353      54 -82.7353      55 -82.7353
      56 -82.7353      57 -82.7353      58 -82.7353      59 -82.7353      60 -82.7353
      61 -82.7353      62 -82.7353      63 -82.7353      64 -82.7353
 
 
 
 E-fermi :   6.3450     XC(G=0):  -9.6534     alpha+bet :-12.2984

 val. band max:        6.0887560263   @ k =   0.0000   0.0000   0.0000
 cond. band min:       6.4885579969   @ k =   0.0000   0.0000   0.5000
 fundamental gap:      0.3998019706
 Fermi energy:         6.3449601109

 k-point     1 :       0.0000    0.0000    0.0000
  band No.  band energies     occupation 
      1      -6.1128      2.00000
      2      -5.0143      2.00000
      3      -5.0143      2.00000
      4      -4.9956      2.00000
      5      -4.9956      2.00000
      6      -4.9954      2.00000
      7      -4.9954      2.00000
      8      -4.0417      2.00000
      9      -4.0417      2.00000
     10      -4.0123      2.00000
     11      -4.0123      2.00000
     12      -4.0123      2.00000
     13      -4.0123      2.00000
     14      -3.9990      2.00000
     15      -3.9990      2.00000
     16      -3.9990      2.00000
     17      -3.9990      2.00000
     18      -3.9825      2.00000
     19      -3.9824      2.00000
     20      -3.7287      2.00000
     21      -3.7287      2.00000
     22      -3.6608      2.00000
     23      -3.6608      2.00000
     24      -1.8958      2.00000
     25      -1.8958      2.00000
     26      -1.8759      2.00000
     27      -1.8341      2.00000
     28      -1.8341      2.00000
     29      -1.7933      2.00000
     30      -1.7255      2.00000
     31      -1.7255      2.00000
     32      -1.7037      2.00000
     33      -1.7037      2.00000
     34      -1.6794      2.00000
     35      -1.6794      2.00000
     36      -1.6794      2.00000
     37      -1.6794      2.00000
     38      -1.6332      2.00000
     39      -1.6332      2.00000
     40      -1.6119      2.00000
     41      -1.6119      2.00000
     42      -1.0882      2.00000
     43      -1.0882      2.00000
     44      -1.0735      2.00000
     45      -1.0735      2.00000
     46       0.4947      2.00000
     47       0.4947      2.00000
     48       0.4947      2.00000
     49       0.4947      2.00000
     50       0.5117      2.00000
     51       0.5117      2.00000
     52       0.5312      2.00000
     53       0.5312      2.00000
     54       0.5312      2.00000
     55       0.5312      2.00000
     56       0.5498      2.00000
     57       0.5498      2.00000
     58       2.0375      2.00000
     59       2.0375      2.00000
     60       2.0384      2.00000
     61       2.0384      2.00000
     62       2.0384      2.00000
     63       2.0384      2.00000
     64       2.0386      2.00000
     65       2.0386      2.00000
     66       2.0422      2.00000
     67       2.0422      2.00000
     68       2.0437      2.00000
     69       2.0437      2.00000
     70       2.1162      2.00000
     71       2.1162      2.00000
     72       2.1162      2.00000
     73       2.1162      2.00000
     74       2.1610      2.00000
     75       2.1610      2.00000
     76       2.1726      2.00000
     77       2.1726      2.00000
     78       2.1726      2.00000
     79       2.1726      2.00000
     80       2.1837      2.00000
     81       2.1837      2.00000
     82       2.4976      2.00000
     83       2.4977      2.00000
     84       2.5698      2.00000
     85       2.5698      2.00000
     86       2.5713      2.00000
     87       2.5713      2.00000
     88       3.0372      2.00000
     89       3.0917      2.00000
     90       3.0917      2.00000
     91       3.1467      2.00000
     92       3.1698      2.00000
     93       3.1698      2.00000
     94       4.0349      2.00000
     95       4.0349      2.00000
     96       4.0720      2.00000
     97       4.0720      2.00000
     98       4.0945      2.00000
     99       4.0945      2.00000
    100       4.1328      2.00000
    101       4.1328      2.00000
    102       4.1439      2.00000
    103       4.1439      2.00000
    104       4.1440      2.00000
    105       4.1440      2.00000
    106       4.6426      2.00000
    107       4.6426      2.00000
    108       4.6678      2.00000
    109       4.6678      2.00000
    110       4.6678      2.00000
    111       4.6678      2.00000
    112       4.6939      2.00000
    113       4.6939      2.00000
    114       4.7498      2.00000
    115       4.7498      2.00000
    116       4.7498      2.00000
    117       4.7498      2.00000
    118       4.7624      2.00000
    119       4.7624      2.00000
    120       4.8107      2.00000
    121       4.8107      2.00000
    122       4.8593      2.00000
    123       4.8593      2.00000
    124       4.9099      2.00000
    125       4.9099      2.00000
    126       6.0127      2.04055
    127       6.0854      2.06943
    128       6.0888      2.07001
    129       6.5130      0.00080
    130       6.5706     -0.06765
    131       6.5706     -0.06765
    132       6.6291     -0.06200
    133       6.6510     -0.05257
    134       6.6510     -0.05257
    135       7.0434     -0.00001
    136       7.0434     -0.00001
    137       7.0435     -0.00001
    138       7.0435     -0.00001
    139       7.1232     -0.00000
    140       7.1232     -0.00000
    141       7.5661     -0.00000
    142       7.5661     -0.00000
    143       7.6650     -0.00000
    144       7.6650     -0.00000
    145       8.3740     -0.00000
    146       8.3746     -0.00000
[...]
 -0.000  -0.000   4.174   0.000  -0.000   7.775   0.000  -0.000
  0.001   0.001   0.000   4.174   0.000   0.000   7.775   0.000
 -0.000  -0.000  -0.000   0.000   4.174  -0.000   0.000   7.775
 -0.000  -0.000   7.775   0.000  -0.000  14.495   0.000   0.000
  0.001   0.002   0.000   7.775   0.000   0.000  14.495   0.000
 -0.000  -0.000  -0.000   0.000   7.775   0.000   0.000  14.495
 total augmentation occupancy for first ion, spin component:           1
  6.144  -2.399   0.000  -0.027   0.000  -0.000   0.010   0.000
 -2.399   1.045  -0.000   0.014  -0.000  -0.000  -0.005   0.000
  0.000  -0.000   3.027  -0.000  -0.005  -0.682   0.000  -0.000
 -0.027   0.014  -0.000   3.027   0.000   0.000  -0.683   0.000
  0.000  -0.000  -0.005   0.000   3.045  -0.000   0.000  -0.690
 -0.000  -0.000  -0.682   0.000  -0.000   0.163  -0.000   0.000
  0.010  -0.005   0.000  -0.683   0.000   0.000   0.163  -0.000
  0.000   0.000  -0.000   0.000  -0.690   0.000  -0.000   0.165


------------------------ aborting loop because EDIFF is reached ----------------------------------------


    CHARGE:  cpu time      0.2454: real time      0.2462
    FORLOC:  cpu time      0.0214: real time      0.0215
    FORNL :  cpu time      0.6881: real time      0.6905
    STRESS:  cpu time      2.1171: real time      2.1410
    FORCOR:  cpu time      0.0876: real time      0.0879
    FORHAR:  cpu time      0.0365: real time      0.0366
    MIXING:  cpu time      0.0585: real time      0.0587
    OFIELD:  cpu time      0.0000: real time      0.0000

  FORCE on cell =-STRESS in cart. coord.  units (eV):
  Direction    XX          YY          ZZ          XY          YZ          ZX
  --------------------------------------------------------------------------------------
  Alpha Z   110.47231   110.47231   110.47231
  Ewald   -2436.76871 -2470.41287 -2470.35327    -7.34792    -0.00000     0.00000
  Hartree   156.46790   150.95701   150.90100    -4.33494    -0.00000    -0.00000
  E(xc)    -823.03280  -822.73323  -822.74278     0.06828    -0.00000    -0.00000
  Local    -945.42501  -904.82708  -904.93397    12.78521    -0.00000    -0.00000
  n-local  2503.57680  2498.57906  2498.73467    -0.67707    -0.00000     0.00000
  augment  -368.77611  -368.80208  -368.80548     0.38347     0.00000     0.00000
  Kinetic  1821.33463  1831.87124  1831.61339    -6.60659    -0.00000     0.00000
  Fock        0.00000     0.00000     0.00000     0.00000     0.00000     0.00000
  -------------------------------------------------------------------------------------
  Total      17.84902    25.10436    24.88587    -5.72957     0.00000     0.00000
  in kB      22.91204    32.22543    31.94496    -7.35481     0.00000     0.00000
  external pressure =       29.03 kB  Pullay stress =        0.00 kB


 VOLUME and BASIS-vectors are now :
 -----------------------------------------------------------------------------
  energy-cutoff  :      400.00
  volume of cell :     1248.13
      direct lattice vectors                 reciprocal lattice vectors
    10.838557601  0.053656008  0.000000000     0.092265483 -0.000461326  0.000000000
     0.053656008 10.731245585  0.000000000    -0.000461326  0.093188134  0.000000000
     0.000000000  0.000000000 10.731245585     0.000000000  0.000000000  0.093185828

  length of vectors
    10.838690411 10.731379723 10.731245585     0.092266636  0.093189276  0.093185828


 FORCES acting on ions
    electron-ion (+dipol)            ewald-force                    non-local-force                 convergence-correction
 -----------------------------------------------------------------------------------------------
   0.343E-08 -.455E-10 -.847E+00   -.318E-13 0.244E-14 0.603E+00   0.111E-20 0.257E-21 0.244E+00   0.269E-13 0.178E-12 0.102E-04
   0.343E-08 -.454E-10 -.847E+00   -.204E-13 0.266E-14 0.603E+00   -.451E-22 -.952E-20 0.244E+00   -.218E-13 0.648E-13 0.102E-04
   0.343E-08 -.455E-10 -.847E+00   -.129E-13 -.644E-14 0.603E+00   0.385E-21 0.713E-20 0.244E+00   -.187E-14 -.176E-12 0.102E-04
   0.343E-08 -.454E-10 -.847E+00   -.107E-13 -.400E-14 0.603E+00   -.658E-21 0.110E-20 0.244E+00   -.178E-14 -.810E-13 0.102E-04
   0.343E-08 -.454E-10 -.847E+00   -.282E-13 -.888E-15 0.603E+00   -.123E-21 0.697E-20 0.244E+00   -.402E-13 0.189E-12 0.102E-04
   0.343E-08 -.454E-10 -.847E+00   -.298E-13 -.888E-15 0.603E+00   -.430E-22 0.847E-21 0.244E+00   0.322E-13 -.237E-13 0.102E-04
   0.343E-08 -.459E-10 -.847E+00   -.200E-13 -.222E-14 0.603E+00   0.697E-21 0.371E-20 0.244E+00   0.179E-14 -.184E-12 0.102E-04
   0.343E-08 -.458E-10 -.847E+00   -.213E-13 0.000E+00 0.603E+00   0.544E-22 -.686E-20 0.244E+00   0.788E-14 0.399E-14 0.102E-04
   -.186E-08 -.573E-10 0.847E+00   -.133E-13 -.577E-14 -.603E+00   0.206E-21 -.332E-20 -.244E+00   0.209E-13 -.114E-12 -.102E-04
   -.186E-08 -.572E-10 0.847E+00   -.249E-13 -.711E-14 -.603E+00   0.842E-21 0.527E-20 -.244E+00   -.449E-13 0.449E-13 -.102E-04
   -.186E-08 -.576E-10 0.847E+00   -.115E-13 -.222E-14 -.603E+00   0.971E-21 -.550E-20 -.244E+00   0.334E-13 0.111E-12 -.102E-04
   -.186E-08 -.575E-10 0.847E+00   -.178E-13 -.533E-14 -.603E+00   -.136E-22 0.222E-20 -.244E+00   -.319E-13 -.454E-13 -.102E-04
   -.186E-08 -.580E-10 0.847E+00   -.977E-14 -.444E-14 -.603E+00   0.718E-21 -.718E-20 -.244E+00   -.315E-13 -.571E-13 -.102E-04
   -.186E-08 -.580E-10 0.847E+00   -.355E-14 -.711E-14 -.603E+00   0.131E-20 0.622E-20 -.244E+00   0.285E-13 -.559E-13 -.102E-04
   -.186E-08 -.568E-10 0.847E+00   -.315E-13 0.178E-14 -.603E+00   -.349E-21 0.809E-21 -.244E+00   -.447E-13 0.581E-13 -.102E-04
   -.186E-08 -.567E-10 0.847E+00   -.711E-14 -.178E-14 -.603E+00   0.133E-21 -.365E-21 -.244E+00   0.178E-13 0.487E-13 -.102E-04
   0.343E-08 -.455E-10 -.847E+00   -.104E-13 -.169E-13 0.603E+00   -.256E-20 -.197E-21 0.244E+00   0.461E-14 0.317E-13 0.102E-04
   0.343E-08 -.454E-10 -.847E+00   -.844E-14 -.138E-13 0.603E+00   0.106E-20 -.603E-20 0.244E+00   -.411E-13 0.884E-13 0.102E-04
   0.343E-08 -.454E-10 -.847E+00   -.173E-13 -.178E-13 0.603E+00   -.830E-21 0.539E-20 0.244E+00   0.542E-14 -.273E-13 0.102E-04
   0.343E-08 -.455E-10 -.847E+00   -.187E-13 -.151E-13 0.603E+00   -.145E-21 -.300E-20 0.244E+00   0.412E-13 -.823E-13 0.102E-04
   0.343E-08 -.455E-10 -.847E+00   -.155E-13 -.164E-13 0.603E+00   -.355E-22 0.650E-20 0.244E+00   -.687E-14 -.232E-13 0.102E-04
   0.343E-08 -.457E-10 -.847E+00   -.488E-14 -.977E-14 0.603E+00   -.295E-21 -.298E-20 0.244E+00   0.394E-13 0.773E-13 0.102E-04
   0.343E-08 -.459E-10 -.847E+00   -.209E-13 -.138E-13 0.603E+00   -.182E-20 0.374E-20 0.244E+00   -.314E-15 0.292E-13 0.102E-04
   0.343E-08 -.453E-10 -.847E+00   -.284E-13 -.107E-13 0.603E+00   0.162E-20 -.676E-20 0.244E+00   -.448E-13 -.813E-13 0.102E-04
   -.186E-08 -.569E-10 0.847E+00   -.933E-14 -.217E-13 -.603E+00   -.198E-21 -.787E-20 -.244E+00   -.222E-13 0.512E-14 -.102E-04
   -.186E-08 -.570E-10 0.847E+00   -.200E-13 -.220E-13 -.603E+00   -.167E-20 -.357E-21 -.244E+00   0.276E-13 0.159E-12 -.102E-04
   -.186E-08 -.574E-10 0.847E+00   -.888E-14 -.188E-13 -.603E+00   -.388E-21 -.656E-21 -.244E+00   -.261E-13 0.128E-14 -.102E-04
   -.186E-08 -.574E-10 0.847E+00   -.124E-13 -.235E-13 -.603E+00   0.564E-21 0.648E-20 -.244E+00   0.248E-14 -.152E-12 -.102E-04
   -.186E-08 -.584E-10 0.847E+00   -.977E-14 -.195E-13 -.603E+00   -.606E-22 0.633E-22 -.244E+00   0.152E-14 0.624E-13 -.102E-04
   -.186E-08 -.571E-10 0.847E+00   -.417E-13 -.195E-13 -.603E+00   0.149E-21 0.135E-20 -.244E+00   -.343E-13 0.212E-12 -.102E-04
   -.186E-08 -.572E-10 0.847E+00   0.888E-14 -.175E-13 -.603E+00   0.444E-22 -.761E-20 -.244E+00   0.121E-13 -.620E-13 -.102E-04
   -.186E-08 -.574E-10 0.847E+00   -.533E-14 -.215E-13 -.603E+00   -.243E-20 0.318E-20 -.244E+00   -.414E-14 -.200E-12 -.102E-04
   0.343E-08 -.455E-10 -.847E+00   0.142E-13 0.131E-13 0.603E+00   0.153E-20 0.552E-20 0.244E+00   0.463E-13 0.933E-13 0.102E-04
   0.343E-08 -.454E-10 -.847E+00   0.160E-13 0.142E-13 0.603E+00   -.354E-21 0.185E-20 0.244E+00   -.887E-14 0.761E-13 0.102E-04
   0.343E-08 -.455E-10 -.847E+00   0.115E-13 0.220E-13 0.603E+00   0.217E-20 -.552E-21 0.244E+00   -.121E-13 -.985E-13 0.102E-04
   0.343E-08 -.455E-10 -.847E+00   0.622E-14 0.231E-13 0.603E+00   0.102E-21 0.674E-20 0.244E+00   -.136E-13 -.747E-13 0.102E-04
   0.343E-08 -.454E-10 -.847E+00   0.142E-13 0.200E-13 0.603E+00   0.240E-20 -.978E-21 0.244E+00   -.373E-13 0.883E-13 0.102E-04
   0.343E-08 -.454E-10 -.847E+00   0.115E-13 0.195E-13 0.603E+00   -.535E-21 0.482E-20 0.244E+00   0.190E-13 0.158E-12 0.102E-04
   0.343E-08 -.459E-10 -.847E+00   0.169E-13 0.275E-13 0.603E+00   0.204E-20 0.163E-20 0.244E+00   0.151E-13 -.981E-13 0.102E-04
   0.343E-08 -.457E-10 -.847E+00   0.178E-13 0.213E-13 0.603E+00   0.116E-20 0.474E-20 0.244E+00   0.256E-13 -.161E-12 0.102E-04
   -.186E-08 -.573E-10 0.847E+00   0.159E-13 0.169E-13 -.603E+00   0.857E-21 0.431E-20 -.244E+00   -.545E-13 -.281E-13 -.102E-04
   -.186E-08 -.572E-10 0.847E+00   0.987E-14 0.622E-14 -.603E+00   -.585E-21 0.331E-20 -.244E+00   0.343E-14 -.410E-13 -.102E-04
   -.186E-08 -.574E-10 0.847E+00   0.105E-13 0.187E-13 -.603E+00   0.230E-21 0.234E-20 -.244E+00   0.575E-14 0.350E-13 -.102E-04
   -.186E-08 -.574E-10 0.847E+00   0.159E-13 0.187E-13 -.603E+00   0.135E-20 -.705E-20 -.244E+00   0.514E-13 0.428E-13 -.102E-04
   -.186E-08 -.579E-10 0.847E+00   0.201E-13 0.711E-14 -.603E+00   -.463E-21 0.524E-21 -.244E+00   0.692E-13 -.341E-13 -.102E-04
   -.186E-08 -.581E-10 0.847E+00   0.942E-14 0.142E-13 -.603E+00   0.842E-21 -.664E-20 -.244E+00   -.377E-15 -.703E-13 -.102E-04
   -.186E-08 -.569E-10 0.847E+00   0.250E-13 0.124E-13 -.603E+00   0.146E-20 0.557E-20 -.244E+00   0.954E-14 0.439E-13 -.102E-04
   -.186E-08 -.569E-10 0.847E+00   0.290E-13 0.160E-13 -.603E+00   -.948E-21 0.619E-21 -.244E+00   -.532E-13 0.694E-13 -.102E-04
   0.343E-08 -.453E-10 -.847E+00   0.220E-13 0.311E-14 0.603E+00   -.667E-21 -.499E-20 0.244E+00   0.774E-13 0.492E-13 0.102E-04
   0.343E-08 -.457E-10 -.847E+00   0.844E-14 -.888E-15 0.603E+00   -.127E-20 0.798E-21 0.244E+00   -.104E-12 0.388E-13 0.102E-04
   0.343E-08 -.457E-10 -.847E+00   0.151E-13 0.711E-14 0.603E+00   -.261E-20 0.286E-21 0.244E+00   0.655E-13 -.566E-13 0.102E-04
   0.343E-08 -.453E-10 -.847E+00   0.169E-13 -.178E-14 0.603E+00   0.104E-20 0.277E-20 0.244E+00   -.171E-13 -.221E-13 0.102E-04
   0.343E-08 -.447E-10 -.847E+00   0.293E-13 -.133E-14 0.603E+00   -.254E-20 -.138E-21 0.244E+00   -.614E-13 0.892E-13 0.102E-04
   0.343E-08 -.463E-10 -.847E+00   0.275E-13 0.178E-14 0.603E+00   0.885E-21 0.627E-20 0.244E+00   0.103E-12 0.178E-13 0.102E-04
   0.343E-08 -.466E-10 -.847E+00   0.577E-14 0.222E-14 0.603E+00   -.315E-21 -.401E-20 0.244E+00   -.529E-13 -.875E-13 0.102E-04
   0.343E-08 -.454E-10 -.847E+00   0.107E-13 0.000E+00 0.603E+00   -.620E-21 -.480E-21 0.244E+00   0.190E-13 0.958E-15 0.102E-04
   -.186E-08 -.572E-10 0.847E+00   0.104E-13 0.208E-15 -.603E+00   -.894E-22 -.334E-20 -.244E+00   0.731E-13 0.142E-12 -.102E-04
   -.186E-08 -.572E-10 0.847E+00   0.974E-14 0.421E-15 -.603E+00   -.466E-21 -.537E-20 -.244E+00   -.859E-13 0.940E-13 -.102E-04
   -.186E-08 -.570E-10 0.847E+00   0.280E-13 0.735E-14 -.603E+00   -.176E-20 0.578E-20 -.244E+00   0.255E-13 -.132E-12 -.102E-04
   -.186E-08 -.574E-10 0.847E+00   0.262E-13 0.651E-14 -.603E+00   -.243E-21 -.382E-20 -.244E+00   0.212E-14 -.783E-13 -.102E-04
   -.186E-08 -.571E-10 0.847E+00   0.199E-13 -.606E-14 -.603E+00   -.286E-20 0.372E-20 -.244E+00   -.734E-13 0.130E-12 -.102E-04
   -.186E-08 -.584E-10 0.847E+00   0.146E-13 -.562E-14 -.603E+00   -.358E-21 -.331E-20 -.244E+00   0.106E-12 0.810E-13 -.102E-04
   -.186E-08 -.574E-10 0.847E+00   0.293E-13 0.135E-14 -.603E+00   -.312E-21 -.312E-20 -.244E+00   -.137E-13 -.118E-12 -.102E-04
   -.186E-08 -.574E-10 0.847E+00   0.316E-13 0.717E-14 -.603E+00   -.156E-20 -.409E-20 -.244E+00   0.214E-14 -.677E-13 -.102E-04
 -----------------------------------------------------------------------------------------------
   0.503E-07 -.329E-08 0.218E-04   0.318E-13 -.271E-13 0.704E-13   -.428E-20 0.672E-20 0.888E-15   0.362E-13 0.824E-13 0.955E-10
 
 
 POSITION                                       TOTAL-FORCE (eV/Angst)
 -----------------------------------------------------------------------------------
      0.00000      0.00000      0.00394         0.000000      0.000000      0.000016
      0.00000      0.00000      5.36956         0.000000      0.000000      0.000016
      0.02683      5.36562      0.00394         0.000000      0.000000      0.000016
      0.02683      5.36562      5.36956         0.000000      0.000000      0.000016
      5.41928      0.02683      0.00394         0.000000     -0.000000      0.000016
      5.41928      0.02683      5.36956        -0.000000     -0.000000      0.000016
      5.44611      5.39245      0.00394         0.000000     -0.000000      0.000016
      5.44611      5.39245      5.36956         0.000000     -0.000000      0.000016
      4.08458      4.04434      1.33747        -0.000000      0.000000     -0.000016
      4.08458      4.04434      6.70309        -0.000000      0.000000     -0.000016
      4.11141      9.40996      1.33747        -0.000000      0.000000     -0.000016
      4.11141      9.40996      6.70309        -0.000000      0.000000     -0.000016
      9.50386      4.07117      1.33747         0.000000     -0.000000     -0.000016
      9.50386      4.07117      6.70309        -0.000000     -0.000000     -0.000016
      9.53069      9.43679      1.33747         0.000000     -0.000000     -0.000016
      9.53069      9.43679      6.70309        -0.000000     -0.000000     -0.000016
      0.01341      2.68281      2.68675         0.000000      0.000000      0.000016
      0.01341      2.68281      8.05237         0.000000      0.000000      0.000016
      0.04024      8.04843      2.68675        -0.000000      0.000000      0.000016
      0.04024      8.04843      8.05237         0.000000      0.000000      0.000016
      5.43269      2.70964      2.68675         0.000000     -0.000000      0.000016
      5.43269      2.70964      8.05237         0.000000     -0.000000      0.000016
      5.45952      8.07526      2.68675         0.000000     -0.000000      0.000016
      5.45952      8.07526      8.05237        -0.000000     -0.000000      0.000016
      4.07117      1.36153      4.02028        -0.000000      0.000000     -0.000016
      4.07117      1.36153      9.38590         0.000000      0.000000     -0.000016
      4.09799      6.72715      4.02028        -0.000000      0.000000     -0.000016
      4.09799      6.72715      9.38590        -0.000000      0.000000     -0.000016
      9.49044      1.38835      4.02028        -0.000000     -0.000000     -0.000016
      9.49044      1.38835      9.38590        -0.000000     -0.000000     -0.000016
      9.51727      6.75398      4.02028         0.000000     -0.000000     -0.000016
      9.51727      6.75398      9.38590        -0.000000      0.000000     -0.000016
      2.70964      0.01341      2.68675        -0.000000     -0.000000      0.000016
      2.70964      0.01341      8.05237        -0.000000     -0.000000      0.000016
      2.73647      5.37904      2.68675        -0.000000     -0.000000      0.000016
      2.73647      5.37904      8.05237         0.000000      0.000000      0.000016
      8.12892      0.04024      2.68675        -0.000000      0.000000      0.000016
      8.12892      0.04024      8.05237        -0.000000      0.000000      0.000016
      8.15575      5.40586      2.68675        -0.000000     -0.000000      0.000016
      8.15575      5.40586      8.05237        -0.000000      0.000000      0.000016
      1.37494      4.03092      4.02028         0.000000     -0.000000     -0.000016
      1.37494      4.03092      9.38590         0.000000     -0.000000     -0.000016
      1.40177      9.39655      4.02028         0.000000     -0.000000     -0.000016
      1.40177      9.39655      9.38590         0.000000     -0.000000     -0.000016
      6.79422      4.05775      4.02028        -0.000000      0.000000     -0.000016
      6.79422      4.05775      9.38590        -0.000000      0.000000     -0.000016
      6.82105      9.42337      4.02028         0.000000      0.000000     -0.000016
      6.82105      9.42337      9.38590        -0.000000      0.000000     -0.000016
      2.72305      2.69623      0.00394         0.000000     -0.000000      0.000016
      2.72305      2.69623      5.36956         0.000000     -0.000000      0.000016
      2.74988      8.06185      0.00394        -0.000000     -0.000000      0.000016
      2.74988      8.06185      5.36956        -0.000000     -0.000000      0.000016
      8.14233      2.72305      0.00394        -0.000000      0.000000      0.000016
      8.14233      2.72305      5.36956         0.000000      0.000000      0.000016
      8.16916      8.08868      0.00394        -0.000000      0.000000      0.000016
      8.16916      8.08868      5.36956        -0.000000      0.000000      0.000016
      1.36153      1.34811      1.33747        -0.000000     -0.000000     -0.000016
      1.36153      1.34811      6.70309         0.000000     -0.000000     -0.000016
      1.38835      6.71374      1.33747         0.000000     -0.000000     -0.000016
      1.38835      6.71374      6.70309         0.000000     -0.000000     -0.000016
      6.78081      1.37494      1.33747         0.000000      0.000000     -0.000016
      6.78081      1.37494      6.70309        -0.000000      0.000000     -0.000016
      6.80763      6.74056      1.33747         0.000000      0.000000     -0.000016
      6.80763      6.74056      6.70309         0.000000      0.000000     -0.000016
 -----------------------------------------------------------------------------------
    total drift:                                0.000000     -0.000000      0.000022


--------------------------------------------------------------------------------------------------------



  FREE ENERGIE OF THE ION-ELECTRON SYSTEM (eV)
  ---------------------------------------------------
  free  energy   TOTEN  =      -367.24820590 eV

  energy  without entropy=     -367.27855031  energy(sigma->0) =     -367.25832071
 
 d Force = 0.1912992E-02[-0.147E-05, 0.383E-02]  d Energy = 0.1916436E-02-0.344E-05
 d Force =-0.5276016E-01[-0.561E-01,-0.495E-01]  d Ewald  =-0.5276012E-01-0.381E-07


--------------------------------------------------------------------------------------------------------


    POTLOK:  cpu time      0.1487: real time      0.1491


--------------------------------------------------------------------------------------------------------




--------------------------------------------------------------------------------------------------------


  
 reached required accuracy - stopping structural energy minimisation
     LOOP+:  cpu time     12.7980: real time     13.0209
    4ORBIT:  cpu time      0.0000: real time      0.0000

 total amount of memory used by VASP MPI-rank0    79901. kBytes
=======================================================================

   base      :      30000. kBytes
   nonlr-proj:       4630. kBytes
   fftplans  :      18113. kBytes
   grid      :       6881. kBytes
   one-center:         18. kBytes
   wavefun   :      20259. kBytes
 
  
  
 General timing and accounting informations for this job:
 ========================================================
  
                  Total CPU time used (sec):       62.265
                            User time (sec):       58.869
                          System time (sec):        3.396
                         Elapsed time (sec):       65.777
  
                   Maximum memory used (kb):      409016.
                   Average memory used (kb):          N/A
  
                          Minor page faults:        93575
                          Major page faults:            0
                 Voluntary context switches:         9318
