<?xml version="1.0" encoding="ISO-8859-1"?>
<modeling>
 <generator>
  <i name="program" type="string">vasp </i>
  <i name="version" type="string">6.4.3  </i>
  <i name="subversion" type="string">19Mar24 (build Oct 21 2024 22:36:34) complex                          parallel </i>
  <i name="platform" type="string">LinuxIFC </i>
  <i name="date" type="string">2024 11 01 </i>
  <i name="time" type="string">22:51:11 </i>
 </generator>
 <incar>
  <i type="string" name="SYSTEM">Si64</i>
  <i type="int" name="ISTART">     0</i>
  <i type="string" name="PREC">Accurate</i>
  <i type="string" name="ALGO">Fast</i>
  <i type="logical" name="ADDGRID"> T  </i>
  <i type="int" name="ICHARG">     2</i>
  <i type="int" name="NELM">    60</i>
  <i type="int" name="NELMIN">     8</i>
  <i type="int" name="IBRION">     2</i>
  <i name="EDIFF">      0.00000100</i>
  <i name="EDIFFG">     -0.01000000</i>
  <i type="int" name="NSW">    60</i>
  <i type="int" name="ISIF">     2</i>
  <i name="ENCUT">    400.00000000</i>
  <i type="string" name="LREAL">Auto</i>
  <i type="int" name="ISMEAR">     1</i>
  <i name="SIGMA">      0.20000000</i>
  <i type="logical" name="LWAVE"> F  </i>
  <i type="logical" name="LCHARG"> F  </i>
  <i type="logical" name="GGA_COMPAT"> F  </i>
  <i type="string" name="GGA">PS</i>
 </incar>
 <primitive_cell>
  <structure name="primitive_cell" >
   <crystal>
    <varray name="basis" >
     <v>       0.01341400       2.68281140      -2.68281140 </v>
     <v>       0.01341400       2.68281140       2.68281140 </v>
     <v>       2.69622540      -2.66939739       0.00000000 </v>
    </varray>
    <i name="volume">     39.00416899 </i>
    <varray name="rec_basis" >
     <v>       0.18360832       0.18545362      -0.18637166 </v>
     <v>       0.18360832       0.18545362       0.18637166 </v>
     <v>       0.36906193      -0.00184530      -0.00000000 </v>
    </varray>
   </crystal>
   <varray name="positions" >
    <v>       0.00000000       0.00000000       0.00000000 </v>
    <v>       0.25000000       0.75000000       0.50000000 </v>
   </varray>
  </structure>
  <varray name="primitive_index" >
   <v type="int" >        1 </v>
   <v type="int" >       15 </v>
  </varray>
 </primitive_cell>
 <kpoints>
  <generation param="Gamma">
   <v type="int" name="divisions">       2        2        2 </v>
   <v name="usershift">      0.00000000       0.00000000       0.00000000 </v>
   <v name="genvec1">      0.50000000       0.00000000       0.00000000 </v>
   <v name="genvec2">     -0.00000000       0.50000000       0.00000000 </v>
   <v name="genvec3">      0.00000000       0.00000000       0.50000000 </v>
   <v name="shift">      0.00000000       0.00000000       0.00000000 </v>
  </generation>
  <varray name="kpointlist" >
   <v>       0.00000000       0.00000000       0.00000000 </v>
   <v>       0.50000000       0.00000000       0.00000000 </v>
   <v>      -0.00000000       0.50000000       0.00000000 </v>
   <v>       0.50000000       0.50000000       0.00000000 </v>
   <v>       0.00000000       0.00000000       0.50000000 </v>
   <v>       0.50000000       0.00000000       0.50000000 </v>
   <v>      -0.00000000       0.50000000       0.50000000 </v>
   <v>       0.50000000       0.50000000       0.50000000 </v>
  </varray>
  <varray name="weights" >
   <v>       0.12500000 </v>
   <v>       0.12500000 </v>
   <v>       0.12500000 </v>
   <v>       0.12500000 </v>
   <v>       0.12500000 </v>
   <v>       0.12500000 </v>
   <v>       0.12500000 </v>
   <v>       0.12500000 </v>
  </varray>
 </kpoints>
 <parameters>
  <separator name="general" >
   <i type="string" name="SYSTEM">Si64</i>
   <i type="logical" name="LCOMPAT"> F  </i>
  </separator>
  <separator name="electronic" >
   <i type="string" name="PREC">accura</i>
   <i name="ENMAX">    400.00000000</i>
   <i name="ENAUG">    322.06900000</i>
   <i name="EDIFF">      0.00000100</i>
   <i type="int" name="IALGO">    68</i>
   <i type="int" name="IWAVPR">    11</i>
   <i type="int" name="NBANDS">   162</i>
   <i type="int" name="NBANDSLOW">    -1</i>
   <i type="int" name="NBANDSHIGH">    -1</i>
   <i name="NELECT">    256.00000000</i>
   <i type="int" name="TURBO">     0</i>
   <i type="int" name="IRESTART">     0</i>
   <i type="int" name="NREBOOT">     0</i>
   <i type="int" name="NMIN">     0</i>
   <i name="EREF">      0.00000000</i>
   <separator name="electronic smearing" >
    <i type="int" name="ISMEAR">     1</i>
    <i name="SIGMA">      0.20000000</i>
    <i name="KSPACING">      0.50000000</i>
    <i type="logical" name="KGAMMA"> T  </i>
    <i type="logical" name="KBLOWUP"> T  </i>
   </separator>
   <separator name="electronic projectors" >
    <i type="logical" name="LREAL"> T  </i>
    <v name="ROPT">     -0.00025000</v>
    <i type="int" name="LMAXPAW">  -100</i>
    <i type="int" name="LMAXMIX">     2</i>
    <i type="logical" name="NLSPLINE"> F  </i>
   </separator>
   <separator name="electronic startup" >
    <i type="int" name="ISTART">     0</i>
    <i type="int" name="ICHARG">     2</i>
    <i type="int" name="INIWAV">     1</i>
   </separator>
   <separator name="electronic spin" >
    <i type="int" name="ISPIN">     1</i>
    <i type="logical" name="LNONCOLLINEAR"> F  </i>
    <v name="MAGMOM">      1.00000000      1.00000000      1.00000000      1.00000000      1.00000000      1.00000000      1.00000000      1.00000000      1.00000000      1.00000000      1.00000000      1.00000000      1.00000000      1.00000000      1.00000000      1.00000000      1.00000000      1.00000000      1.00000000      1.00000000
      1.00000000      1.00000000      1.00000000      1.00000000      1.00000000      1.00000000      1.00000000      1.00000000      1.00000000      1.00000000      1.00000000      1.00000000      1.00000000      1.00000000      1.00000000      1.00000000      1.00000000      1.00000000      1.00000000      1.00000000
      1.00000000      1.00000000      1.00000000      1.00000000      1.00000000      1.00000000      1.00000000      1.00000000      1.00000000      1.00000000      1.00000000      1.00000000      1.00000000      1.00000000      1.00000000      1.00000000      1.00000000      1.00000000      1.00000000      1.00000000
      1.00000000      1.00000000      1.00000000      1.00000000</v>
    <i name="NUPDOWN">     -1.00000000</i>
    <i type="logical" name="LSORBIT"> F  </i>
    <v name="SAXIS">      0.00000000      0.00000000      1.00000000</v>
    <i type="logical" name="LSPIRAL"> F  </i>
    <v name="QSPIRAL">      0.00000000      0.00000000      0.00000000</v>
    <i type="logical" name="LZEROZ"> F  </i>
   </separator>
   <separator name="electronic exchange-correlation" >
    <i type="logical" name="LASPH"> F  </i>
   </separator>
   <separator name="electronic convergence" >
    <i type="int" name="NELM">    60</i>
    <i type="int" name="NELMDL">    -5</i>
    <i type="int" name="NELMIN">     8</i>
    <i name="ENINI">    400.00000000</i>
    <separator name="electronic convergence detail" >
     <i type="logical" name="LDIAG"> T  </i>
     <i type="logical" name="LSUBROT"> F  </i>
     <i name="WEIMIN">      0.00100000</i>
     <i name="EBREAK">      0.00000000</i>
     <i name="DEPER">      0.30000000</i>
     <i type="int" name="NRMM">     4</i>
     <i name="TIME">      0.40000000</i>
    </separator>
   </separator>
   <separator name="electronic mixer" >
    <i name="AMIX">      0.40000000</i>
    <i name="BMIX">      1.00000000</i>
    <i name="AMIN">      0.10000000</i>
    <i name="AMIX_MAG">      1.60000000</i>
    <i name="BMIX_MAG">      1.00000000</i>
    <separator name="electronic mixer details" >
     <i type="int" name="IMIX">     4</i>
     <i type="logical" name="MIXFIRST"> F  </i>
     <i type="int" name="MAXMIX">   -45</i>
     <i name="WC">    100.00000000</i>
     <i type="int" name="INIMIX">     1</i>
     <i type="int" name="MIXPRE">     1</i>
     <i type="int" name="MREMOVE">     5</i>
    </separator>
   </separator>
   <separator name="electronic dipolcorrection" >
    <i type="logical" name="LDIPOL"> F  </i>
    <i type="logical" name="LMONO"> F  </i>
    <i type="int" name="IDIPOL">     0</i>
    <i name="EPSILON">      1.00000000</i>
    <v name="DIPOL">   -100.00000000   -100.00000000   -100.00000000</v>
    <i name="EFIELD">      0.00000000</i>
    <i type="logical" name="LVACPOTAV"> F  </i>
   </separator>
  </separator>
  <separator name="grids" >
   <i type="int" name="NGX">    72</i>
   <i type="int" name="NGY">    70</i>
   <i type="int" name="NGZ">    70</i>
   <i type="int" name="NGXF">   144</i>
   <i type="int" name="NGYF">   140</i>
   <i type="int" name="NGZF">   140</i>
   <i type="logical" name="ADDGRID"> T  </i>
  </separator>
  <separator name="ionic" >
   <i type="int" name="NSW">    60</i>
   <i type="int" name="IBRION">     2</i>
   <i type="int" name="MDALGO">     0</i>
   <i type="int" name="ISIF">     2</i>
   <i name="PSTRESS">      0.00000000</i>
   <i name="EDIFFG">     -0.01000000</i>
   <i type="int" name="NFREE">     1</i>
   <i name="POTIM">      0.50000000</i>
   <i name="SMASS">     -3.00000000</i>
   <i name="SCALEE">      1.00000000</i>
  </separator>
  <separator name="ionic md" >
   <i name="TEBEG">      0.00010000</i>
   <i name="TEEND">      0.00010000</i>
   <i type="int" name="NBLOCK">     1</i>
   <i type="int" name="KBLOCK">    60</i>
   <i type="int" name="NPACO">   256</i>
   <i name="APACO">     10.00000000</i>
  </separator>
  <separator name="symmetry" >
   <i type="int" name="ISYM">     2</i>
   <i name="SYMPREC">      0.00001000</i>
  </separator>
  <separator name="dos" >
   <i type="int" name="LORBIT">     0</i>
   <v name="RWIGS">     -1.00000000</v>
   <i type="int" name="NEDOS">   301</i>
   <i name="EMIN">     10.00000000</i>
   <i name="EMAX">    -10.00000000</i>
   <i name="EFERMI">      0.00000000</i>
  </separator>
  <separator name="writing" >
   <i type="int" name="NWRITE">     2</i>
   <i type="logical" name="LWAVE"> F  </i>
   <i type="logical" name="LDOWNSAMPLE"> F  </i>
   <i type="logical" name="LCHARG"> F  </i>
   <i type="logical" name="LPARD"> F  </i>
   <i type="logical" name="LVTOT"> F  </i>
   <i type="logical" name="LVHAR"> F  </i>
   <i type="logical" name="LELF"> F  </i>
   <i type="logical" name="LOPTICS"> F  </i>
   <v name="STM">      0.00000000      0.00000000      0.00000000      0.00000000      0.00000000      0.00000000      0.00000000</v>
  </separator>
  <separator name="performance" >
   <i type="int" name="NPAR">     2</i>
   <i type="int" name="NSIM">     4</i>
   <i type="int" name="NBLK">    -1</i>
   <i type="logical" name="LPLANE"> T  </i>
   <i type="logical" name="LSCALAPACK"> T  </i>
   <i type="logical" name="LSCAAWARE"> F  </i>
   <i type="logical" name="LSCALU"> F  </i>
   <i type="logical" name="LASYNC"> F  </i>
   <i type="logical" name="LORBITALREAL"> F  </i>
  </separator>
  <separator name="miscellaneous" >
   <i type="int" name="IDIOT">     3</i>
   <i type="int" name="PHON_NSTRUCT">    -1</i>
   <i type="logical" name="LMUSIC"> F  </i>
   <v name="POMASS">     28.08500000</v>
   <v name="DARWINR">      0.00000000</v>
   <v name="DARWINV">      1.00000000</v>
   <i type="logical" name="LCORR"> T  </i>
  </separator>
  <i type="logical" name="GGA_COMPAT"> F  </i>
  <i type="logical" name="LBERRY"> F  </i>
  <i type="int" name="ICORELEVEL">     0</i>
  <i type="logical" name="LDAU"> F  </i>
  <i type="int" name="I_CONSTRAINED_M">     0</i>
  <separator name="electronic exchange-correlation" >
   <i type="string" name="GGA    ">PS</i>
   <i type="string" name="XC_C">1</i>
   <i type="int" name="VOSKOWN">     0</i>
   <i type="logical" name="LHFCALC"> F  </i>
   <i type="string" name="PRECFOCK"></i>
   <i type="logical" name="LSYMGRAD"> F  </i>
   <i type="logical" name="LHFONE"> F  </i>
   <i type="logical" name="LRHFCALC"> F  </i>
   <i type="logical" name="LTHOMAS"> F  </i>
   <i type="logical" name="LMODELHF"> F  </i>
   <i type="logical" name="LFOCKACE"> F  </i>
   <i name="ENCUT4O">     -1.00000000</i>
   <i type="int" name="EXXOEP">     0</i>
   <i type="int" name="FOURORBIT">     0</i>
   <i name="AEXX">      0.00000000</i>
   <i name="HFALPHA">      0.00000000</i>
   <i name="MCALPHA">      0.00000000</i>
   <i name="ALDAX">      1.00000000</i>
   <i name="AGGAX">      1.00000000</i>
   <i name="AMGGAX">      1.00000000</i>
   <i name="ALDAC">      1.00000000</i>
   <i name="AGGAC">      1.00000000</i>
   <i name="AMGGAC">      1.00000000</i>
   <i type="int" name="NKREDX">     1</i>
   <i type="int" name="NKREDY">     1</i>
   <i type="int" name="NKREDZ">     1</i>
   <i type="logical" name="SHIFTRED"> F  </i>
   <i type="logical" name="ODDONLY"> F  </i>
   <i type="logical" name="EVENONLY"> F  </i>
   <i type="int" name="LMAXFOCK">     0</i>
   <i type="int" name="NMAXFOCKAE">     0</i>
   <i type="logical" name="LFOCKAEDFT"> F  </i>
   <i name="HFSCREEN">      0.00000000</i>
   <i name="HFSCREENC">      0.00000000</i>
   <i type="int" name="NBANDSGWLOW">     0</i>
  </separator>
  <separator name="vdW DFT" >
   <i type="logical" name="LUSE_VDW"> F  </i>
   <i type="int" name="IVDW_NL">    -1</i>
   <i type="logical" name="LSPIN_VDW"> F  </i>
   <i name="ZAB_VDW">     -0.84910000</i>
   <i name="GAMMA_VDW">      1.39626340</i>
   <i name="ALPHA_VDW">      0.00000000</i>
   <i name="PARAM1">      0.12340000</i>
   <i name="PARAM2">      1.00000000</i>
   <i name="BPARAM">      6.30000000</i>
   <i name="CPARAM">      0.00930000</i>
  </separator>
  <separator name="model GW" >
   <i type="int" name="MODEL_GW">     0</i>
   <i name="MODEL_EPS0">     11.70125070</i>
   <i name="MODEL_ALPHA">      1.00000000</i>
  </separator>
  <separator name="linear response parameters" >
   <i type="logical" name="LEPSILON"> F  </i>
   <i type="logical" name="LRPA"> F  </i>
   <i type="logical" name="LNABLA"> F  </i>
   <i type="logical" name="LVEL"> F  </i>
   <i name="CSHIFT">      0.10000000</i>
   <i name="OMEGAMAX">     -1.00000000</i>
   <i name="DEG_THRESHOLD">      0.00200000</i>
   <i name="RTIME">     -0.10000000</i>
   <i name="WPLASMAI">      0.00000000</i>
   <v name="DFIELD">      0.00000000      0.00000000      0.00000000</v>
   <v name="WPLASMA">      0.00000000      0.00000000      0.00000000      0.00000000      0.00000000      0.00000000      0.00000000      0.00000000      0.00000000</v>
  </separator>
  <separator name="orbital magnetization" >
   <i type="logical" name="NUCIND"> F  </i>
   <v name="MAGPOS">      0.00000000      0.00000000      0.00000000</v>
   <i type="logical" name="LNICSALL"> T  </i>
   <i type="logical" name="ORBITALMAG"> F  </i>
   <i type="logical" name="LMAGBLOCH"> F  </i>
   <i type="logical" name="LCHIMAG"> F  </i>
   <i type="logical" name="LGAUGE"> T  </i>
   <i type="int" name="MAGATOM">     0</i>
   <v name="MAGDIPOL">      0.00000000      0.00000000      0.00000000</v>
   <v name="AVECCONST">      0.00000000      0.00000000      0.00000000</v>
  </separator>
  <separator name="response functions" >
   <i type="logical" name="LALL_IN_ONE"> F  </i>
   <i type="int" name="IALL_IN_ONE">    -1</i>
   <i type="int" name="NBANDS_WAVE">    -1</i>
   <i type="logical" name="LFINITE_TEMPERATURE"> F  </i>
   <i type="logical" name="LADDER"> F  </i>
   <i type="logical" name="LRPAFORCE"> F  </i>
   <i type="logical" name="LFXC"> F  </i>
   <i type="logical" name="LHARTREE"> T  </i>
   <i type="int" name="IBSE">     0</i>
   <v type="int" name="KPOINT">    -1     0     0     0</v>
   <i type="logical" name="LTCTC"> F  </i>
   <i type="logical" name="LTCTE"> F  </i>
   <i type="logical" name="LTETE"> F  </i>
   <i type="logical" name="LTRIPLET"> F  </i>
   <i type="logical" name="LFXCEPS"> F  </i>
   <i type="logical" name="LFXHEG"> F  </i>
   <i type="int" name="NATURALO">     2</i>
   <i type="logical" name="LHOLEGF"> F  </i>
   <i type="logical" name="L2ORDER"> F  </i>
   <i type="logical" name="LDMP1"> F  </i>
   <i type="logical" name="LMP2LT"> F  </i>
   <i type="logical" name="LSMP2LT"> F  </i>
   <i type="logical" name="LGWLF"> F  </i>
   <i name="ENCUTGW">     -1.60000002</i>
   <i name="ENCUTGWSOFT">     -1.60000002</i>
   <i name="ENCUTLF">     -1.00000000</i>
   <i type="logical" name="ESF_SPLINES"> F  </i>
   <i name="ESF_CONV">      0.01000000</i>
   <i type="int" name="ESF_NINTER">    15</i>
   <i type="int" name="LMAXMP2">    -1</i>
   <i name="SCISSOR">      0.00000000</i>
   <i type="int" name="NOMEGA">     0</i>
   <i type="int" name="NOMEGAR">     0</i>
   <i type="int" name="NBANDSGW">    -1</i>
   <i type="int" name="NBANDSO">    -1</i>
   <i type="int" name="NBANDSV">    -1</i>
   <i type="int" name="NELMGW">     1</i>
   <i type="int" name="NELMHF">     1</i>
   <i type="int" name="DIM">     3</i>
   <i type="int" name="IESPILON">     4</i>
   <i type="int" name="ANTIRES">     0</i>
   <i name="OMEGAMAX">    -30.00000000</i>
   <i name="OMEGAMIN">    -30.00000000</i>
   <i name="OMEGATL">   -200.00000000</i>
   <i type="int" name="OMEGAGRID">     0</i>
   <i name="CSHIFT">     -0.10000000</i>
   <i type="logical" name="LSELFENERGY"> F  </i>
   <i type="logical" name="LSPECTRAL"> F  </i>
   <i type="logical" name="LSPECTRALGW"> F  </i>
   <i type="logical" name="LSINGLES"> F  </i>
   <i type="logical" name="LFERMIGW"> F  </i>
   <i type="logical" name="ODDONLYGW"> F  </i>
   <i type="logical" name="EVENONLYGW"> F  </i>
   <i type="int" name="NKREDLFX">     1</i>
   <i type="int" name="NKREDLFY">     1</i>
   <i type="int" name="NKREDLFZ">     1</i>
   <i type="int" name="MAXMEM">  2800</i>
   <i type="int" name="TELESCOPE">     0</i>
   <i type="int" name="NTAUPAR">    -1</i>
   <i type="int" name="NOMEGAPAR">    -1</i>
   <i name="DAMP_NEWTON">      0.80000001</i>
   <i name="LAMBDA">      1.00000000</i>
  </separator>
  <separator name="External order field" >
   <i name="OFIELD_KAPPA">      0.00000000</i>
   <v name="OFIELD_K">      0.00000000      0.00000000      0.00000000</v>
   <i name="OFIELD_Q6_NEAR">      0.00000000</i>
   <i name="OFIELD_Q6_FAR">      0.00000000</i>
   <i name="OFIELD_A">      0.00000000</i>
  </separator>
  <separator name="optional k-points parameters" >
   <i type="int" name="KPOINTS_OPT_MODE">     1</i>
   <i type="logical" name="LKPOINTS_OPT"> F  </i>
  </separator>
 </parameters>
 <atominfo>
  <atoms>      64 </atoms>
  <types>       1 </types>
  <array name="atoms" >
   <dimension dim="1">ion</dimension>
   <field type="string">element</field>
   <field type="int">atomtype</field>
   <set>
    <rc><c>Si</c><c>   1</c></rc>
    <rc><c>Si</c><c>   1</c></rc>
    <rc><c>Si</c><c>   1</c></rc>
    <rc><c>Si</c><c>   1</c></rc>
    <rc><c>Si</c><c>   1</c></rc>
    <rc><c>Si</c><c>   1</c></rc>
    <rc><c>Si</c><c>   1</c></rc>
    <rc><c>Si</c><c>   1</c></rc>
    <rc><c>Si</c><c>   1</c></rc>
    <rc><c>Si</c><c>   1</c></rc>
    <rc><c>Si</c><c>   1</c></rc>
    <rc><c>Si</c><c>   1</c></rc>
    <rc><c>Si</c><c>   1</c></rc>
    <rc><c>Si</c><c>   1</c></rc>
    <rc><c>Si</c><c>   1</c></rc>
    <rc><c>Si</c><c>   1</c></rc>
    <rc><c>Si</c><c>   1</c></rc>
    <rc><c>Si</c><c>   1</c></rc>
    <rc><c>Si</c><c>   1</c></rc>
    <rc><c>Si</c><c>   1</c></rc>
    <rc><c>Si</c><c>   1</c></rc>
    <rc><c>Si</c><c>   1</c></rc>
    <rc><c>Si</c><c>   1</c></rc>
    <rc><c>Si</c><c>   1</c></rc>
    <rc><c>Si</c><c>   1</c></rc>
    <rc><c>Si</c><c>   1</c></rc>
    <rc><c>Si</c><c>   1</c></rc>
    <rc><c>Si</c><c>   1</c></rc>
    <rc><c>Si</c><c>   1</c></rc>
    <rc><c>Si</c><c>   1</c></rc>
    <rc><c>Si</c><c>   1</c></rc>
    <rc><c>Si</c><c>   1</c></rc>
    <rc><c>Si</c><c>   1</c></rc>
    <rc><c>Si</c><c>   1</c></rc>
    <rc><c>Si</c><c>   1</c></rc>
    <rc><c>Si</c><c>   1</c></rc>
    <rc><c>Si</c><c>   1</c></rc>
    <rc><c>Si</c><c>   1</c></rc>
    <rc><c>Si</c><c>   1</c></rc>
    <rc><c>Si</c><c>   1</c></rc>
    <rc><c>Si</c><c>   1</c></rc>
    <rc><c>Si</c><c>   1</c></rc>
    <rc><c>Si</c><c>   1</c></rc>
    <rc><c>Si</c><c>   1</c></rc>
    <rc><c>Si</c><c>   1</c></rc>
    <rc><c>Si</c><c>   1</c></rc>
    <rc><c>Si</c><c>   1</c></rc>
    <rc><c>Si</c><c>   1</c></rc>
    <rc><c>Si</c><c>   1</c></rc>
    <rc><c>Si</c><c>   1</c></rc>
    <rc><c>Si</c><c>   1</c></rc>
    <rc><c>Si</c><c>   1</c></rc>
    <rc><c>Si</c><c>   1</c></rc>
    <rc><c>Si</c><c>   1</c></rc>
    <rc><c>Si</c><c>   1</c></rc>
    <rc><c>Si</c><c>   1</c></rc>
    <rc><c>Si</c><c>   1</c></rc>
    <rc><c>Si</c><c>   1</c></rc>
    <rc><c>Si</c><c>   1</c></rc>
    <rc><c>Si</c><c>   1</c></rc>
    <rc><c>Si</c><c>   1</c></rc>
    <rc><c>Si</c><c>   1</c></rc>
    <rc><c>Si</c><c>   1</c></rc>
    <rc><c>Si</c><c>   1</c></rc>
   </set>
  </array>
  <array name="atomtypes" >
   <dimension dim="1">type</dimension>
   <field type="int">atomspertype</field>
   <field type="string">element</field>
   <field>mass</field>
   <field>valence</field>
   <field type="string">pseudopotential</field>
   <set>
    <rc><c>  64</c><c>Si</c><c>     28.08500000</c><c>      4.00000000</c><c>  PAW_PBE Si 05Jan2001                  </c></rc>
   </set>
  </array>
 </atominfo>
 <structure name="initialpos" >
  <crystal>
   <varray name="basis" >
    <v>      10.83855760       0.05365601       0.00000000 </v>
    <v>       0.05365601      10.73124558       0.00000000 </v>
    <v>       0.00000000       0.00000000      10.73124558 </v>
   </varray>
   <i name="volume">   1248.13340764 </i>
   <varray name="rec_basis" >
    <v>       0.09226548      -0.00046133       0.00000000 </v>
    <v>      -0.00046133       0.09318813       0.00000000 </v>
    <v>       0.00000000       0.00000000       0.09318583 </v>
   </varray>
  </crystal>
  <varray name="positions" >
   <v>       0.00000000       0.00000000       0.00000000 </v>
   <v>       0.00000000       0.00000000       0.50000000 </v>
   <v>       0.00000000       0.50000000       0.00000000 </v>
   <v>       0.00000000       0.50000000       0.50000000 </v>
   <v>       0.50000000       0.00000000       0.00000000 </v>
   <v>       0.50000000       0.00000000       0.50000000 </v>
   <v>       0.50000000       0.50000000       0.00000000 </v>
   <v>       0.50000000       0.50000000       0.50000000 </v>
   <v>       0.37500000       0.37500000       0.12500000 </v>
   <v>       0.37500000       0.37500000       0.62500000 </v>
   <v>       0.37500000       0.87500000       0.12500000 </v>
   <v>       0.37500000       0.87500000       0.62500000 </v>
   <v>       0.87500000       0.37500000       0.12500000 </v>
   <v>       0.87500000       0.37500000       0.62500000 </v>
   <v>       0.87500000       0.87500000       0.12500000 </v>
   <v>       0.87500000       0.87500000       0.62500000 </v>
   <v>       0.00000000       0.25000000       0.25000000 </v>
   <v>       0.00000000       0.25000000       0.75000000 </v>
   <v>       0.00000000       0.75000000       0.25000000 </v>
   <v>       0.00000000       0.75000000       0.75000000 </v>
   <v>       0.50000000       0.25000000       0.25000000 </v>
   <v>       0.50000000       0.25000000       0.75000000 </v>
   <v>       0.50000000       0.75000000       0.25000000 </v>
   <v>       0.50000000       0.75000000       0.75000000 </v>
   <v>       0.37500000       0.12500000       0.37500000 </v>
   <v>       0.37500000       0.12500000       0.87500000 </v>
   <v>       0.37500000       0.62500000       0.37500000 </v>
   <v>       0.37500000       0.62500000       0.87500000 </v>
   <v>       0.87500000       0.12500000       0.37500000 </v>
   <v>       0.87500000       0.12500000       0.87500000 </v>
   <v>       0.87500000       0.62500000       0.37500000 </v>
   <v>       0.87500000       0.62500000       0.87500000 </v>
   <v>       0.25000000       0.00000000       0.25000000 </v>
   <v>       0.25000000       0.00000000       0.75000000 </v>
   <v>       0.25000000       0.50000000       0.25000000 </v>
   <v>       0.25000000       0.50000000       0.75000000 </v>
   <v>       0.75000000       0.00000000       0.25000000 </v>
   <v>       0.75000000       0.00000000       0.75000000 </v>
   <v>       0.75000000       0.50000000       0.25000000 </v>
   <v>       0.75000000       0.50000000       0.75000000 </v>
   <v>       0.12500000       0.37500000       0.37500000 </v>
   <v>       0.12500000       0.37500000       0.87500000 </v>
   <v>       0.12500000       0.87500000       0.37500000 </v>
   <v>       0.12500000       0.87500000       0.87500000 </v>
   <v>       0.62500000       0.37500000       0.37500000 </v>
   <v>       0.62500000       0.37500000       0.87500000 </v>
   <v>       0.62500000       0.87500000       0.37500000 </v>
   <v>       0.62500000       0.87500000       0.87500000 </v>
   <v>       0.25000000       0.25000000       0.00000000 </v>
   <v>       0.25000000       0.25000000       0.50000000 </v>
   <v>       0.25000000       0.75000000       0.00000000 </v>
   <v>       0.25000000       0.75000000       0.50000000 </v>
   <v>       0.75000000       0.25000000       0.00000000 </v>
   <v>       0.75000000       0.25000000       0.50000000 </v>
   <v>       0.75000000       0.75000000       0.00000000 </v>
   <v>       0.75000000       0.75000000       0.50000000 </v>
   <v>       0.12500000       0.12500000       0.12500000 </v>
   <v>       0.12500000       0.12500000       0.62500000 </v>
   <v>       0.12500000       0.62500000       0.12500000 </v>
   <v>       0.12500000       0.62500000       0.62500000 </v>
   <v>       0.62500000       0.12500000       0.12500000 </v>
   <v>       0.62500000       0.12500000       0.62500000 </v>
   <v>       0.62500000       0.62500000       0.12500000 </v>
   <v>       0.62500000       0.62500000       0.62500000 </v>
  </varray>
 </structure>
 <calculation>
  <scstep>
   <time name="dav">    1.29    1.36</time>
   <time name="total">    1.49    1.57</time>
   <energy>
    <i name="alphaZ">    110.47231242 </i>
    <i name="ewald">  -7377.31454494 </i>
    <i name="hartreedc">   -339.74266302 </i>
    <i name="XCdc">   -555.51329819 </i>
    <i name="pawpsdc">   5598.62625415 </i>
    <i name="pawaedc">  -4492.17844134 </i>
    <i name="eentropy">      0.00808799 </i>
    <i name="bandstr">   1054.13435159 </i>
    <i name="atom">   6564.79586099 </i>
    <i name="e_fr_energy">    563.28791966 </i>
    <i name="e_wo_entrp">    563.27983167 </i>
    <i name="e_0_energy">    563.28522366 </i>
   </energy>
  </scstep>
  <scstep>
   <time name="dav">    1.35    1.37</time>
   <time name="total">    1.35    1.37</time>
   <energy>
    <i name="e_fr_energy">   -310.41098242 </i>
    <i name="e_wo_entrp">   -310.42111073 </i>
    <i name="e_0_energy">   -310.41435853 </i>
   </energy>
  </scstep>
  <scstep>
   <time name="dav">    1.35    1.36</time>
   <time name="total">    1.35    1.36</time>
   <energy>
    <i name="e_fr_energy">   -373.27252488 </i>
    <i name="e_wo_entrp">   -373.27969733 </i>
    <i name="e_0_energy">   -373.27491570 </i>
   </energy>
  </scstep>
  <scstep>
   <time name="dav">    1.35    1.37</time>
   <time name="total">    1.35    1.37</time>
   <energy>
    <i name="e_fr_energy">   -374.91868838 </i>
    <i name="e_wo_entrp">   -374.92691919 </i>
    <i name="e_0_energy">   -374.92143198 </i>
   </energy>
  </scstep>
  <scstep>
   <time name="dav">    1.33    1.35</time>
   <time name="total">    1.60    1.62</time>
   <energy>
    <i name="e_fr_energy">   -374.96858081 </i>
    <i name="e_wo_entrp">   -374.97681701 </i>
    <i name="e_0_energy">   -374.97132621 </i>
   </energy>
  </scstep>
  <scstep>
   <time name="diag">    0.14    0.14</time>
   <time name="diis">    0.70    0.71</time>
   <time name="orth">    0.02    0.02</time>
   <time name="total">    1.27    1.29</time>
   <energy>
    <i name="e_fr_energy">   -369.59039901 </i>
    <i name="e_wo_entrp">   -369.60041603 </i>
    <i name="e_0_energy">   -369.59373802 </i>
   </energy>
  </scstep>
  <scstep>
   <time name="diag">    0.13    0.13</time>
   <time name="diis">    0.71    0.71</time>
   <time name="orth">    0.02    0.02</time>
   <time name="total">    1.26    1.28</time>
   <energy>
    <i name="e_fr_energy">   -367.17164952 </i>
    <i name="e_wo_entrp">   -367.20390711 </i>
    <i name="e_0_energy">   -367.18240205 </i>
   </energy>
  </scstep>
  <scstep>
   <time name="diag">    0.13    0.13</time>
   <time name="diis">    0.71    0.71</time>
   <time name="orth">    0.02    0.02</time>
   <time name="total">    1.26    1.28</time>
   <energy>
    <i name="e_fr_energy">   -367.21242557 </i>
    <i name="e_wo_entrp">   -367.24375618 </i>
    <i name="e_0_energy">   -367.22286911 </i>
   </energy>
  </scstep>
  <scstep>
   <time name="diag">    0.13    0.14</time>
   <time name="diis">    0.72    0.72</time>
   <time name="orth">    0.02    0.02</time>
   <time name="total">    1.27    1.29</time>
   <energy>
    <i name="e_fr_energy">   -367.23308192 </i>
    <i name="e_wo_entrp">   -367.26481622 </i>
    <i name="e_0_energy">   -367.24366002 </i>
   </energy>
  </scstep>
  <scstep>
   <time name="diag">    0.13    0.13</time>
   <time name="diis">    0.73    0.73</time>
   <time name="orth">    0.02    0.02</time>
   <time name="total">    1.30    1.32</time>
   <energy>
    <i name="e_fr_energy">   -367.23665340 </i>
    <i name="e_wo_entrp">   -367.26840085 </i>
    <i name="e_0_energy">   -367.24723589 </i>
   </energy>
  </scstep>
  <scstep>
   <time name="diag">    0.13    0.13</time>
   <time name="diis">    0.70    0.70</time>
   <time name="orth">    0.02    0.02</time>
   <time name="total">    1.25    1.26</time>
   <energy>
    <i name="e_fr_energy">   -367.23374926 </i>
    <i name="e_wo_entrp">   -367.26492825 </i>
    <i name="e_0_energy">   -367.24414226 </i>
   </energy>
  </scstep>
  <scstep>
   <time name="diag">    0.13    0.13</time>
   <time name="diis">    0.70    0.70</time>
   <time name="orth">    0.02    0.02</time>
   <time name="total">    1.24    1.26</time>
   <energy>
    <i name="e_fr_energy">   -367.23382848 </i>
    <i name="e_wo_entrp">   -367.26497596 </i>
    <i name="e_0_energy">   -367.24421098 </i>
   </energy>
  </scstep>
  <scstep>
   <time name="diag">    0.13    0.13</time>
   <time name="diis">    0.72    0.73</time>
   <time name="orth">    0.02    0.02</time>
   <time name="total">    1.27    1.29</time>
   <energy>
    <i name="e_fr_energy">   -367.23389173 </i>
    <i name="e_wo_entrp">   -367.26504300 </i>
    <i name="e_0_energy">   -367.24427549 </i>
   </energy>
  </scstep>
  <scstep>
   <time name="diag">    0.13    0.13</time>
   <time name="diis">    0.70    0.70</time>
   <time name="orth">    0.02    0.02</time>
   <time name="total">    1.25    1.26</time>
   <energy>
    <i name="e_fr_energy">   -367.23380915 </i>
    <i name="e_wo_entrp">   -367.26492818 </i>
    <i name="e_0_energy">   -367.24418216 </i>
   </energy>
  </scstep>
  <scstep>
   <time name="diag">    0.13    0.13</time>
   <time name="diis">    0.70    0.70</time>
   <time name="orth">    0.02    0.02</time>
   <time name="total">    1.25    1.27</time>
   <energy>
    <i name="e_fr_energy">   -367.23394941 </i>
    <i name="e_wo_entrp">   -367.26503519 </i>
    <i name="e_0_energy">   -367.24431134 </i>
   </energy>
  </scstep>
  <scstep>
   <time name="diag">    0.13    0.14</time>
   <time name="diis">    0.70    0.70</time>
   <time name="orth">    0.02    0.02</time>
   <time name="total">    1.25    1.27</time>
   <energy>
    <i name="e_fr_energy">   -367.23408311 </i>
    <i name="e_wo_entrp">   -367.26517328 </i>
    <i name="e_0_energy">   -367.24444650 </i>
   </energy>
  </scstep>
  <scstep>
   <time name="diag">    0.13    0.13</time>
   <time name="diis">    0.69    0.69</time>
   <time name="orth">    0.02    0.02</time>
   <time name="total">    1.24    1.26</time>
   <energy>
    <i name="e_fr_energy">   -367.23412983 </i>
    <i name="e_wo_entrp">   -367.26521775 </i>
    <i name="e_0_energy">   -367.24449247 </i>
   </energy>
  </scstep>
  <scstep>
   <time name="diag">    0.13    0.13</time>
   <time name="diis">    0.64    0.64</time>
   <time name="orth">    0.02    0.02</time>
   <time name="total">    1.19    1.21</time>
   <energy>
    <i name="e_fr_energy">   -367.23414230 </i>
    <i name="e_wo_entrp">   -367.26522469 </i>
    <i name="e_0_energy">   -367.24450310 </i>
   </energy>
  </scstep>
  <scstep>
   <time name="diag">    0.13    0.13</time>
   <time name="diis">    0.51    0.51</time>
   <time name="orth">    0.02    0.02</time>
   <time name="total">    1.06    1.08</time>
   <energy>
    <i name="e_fr_energy">   -367.23414915 </i>
    <i name="e_wo_entrp">   -367.26522775 </i>
    <i name="e_0_energy">   -367.24450868 </i>
   </energy>
  </scstep>
  <scstep>
   <time name="diag">    0.13    0.13</time>
   <time name="diis">    0.45    0.45</time>
   <time name="orth">    0.02    0.02</time>
   <time name="total">    1.00    1.02</time>
   <energy>
    <i name="e_fr_energy">   -367.23415020 </i>
    <i name="e_wo_entrp">   -367.26522560 </i>
    <i name="e_0_energy">   -367.24450867 </i>
   </energy>
  </scstep>
  <scstep>
   <time name="diag">    0.13    0.13</time>
   <time name="diis">    0.45    0.45</time>
   <time name="orth">    0.02    0.02</time>
   <time name="total">    0.75    0.77</time>
   <energy>
    <i name="alphaZ">    110.47231242 </i>
    <i name="ewald">  -7377.31454494 </i>
    <i name="hartreedc">   -458.43443773 </i>
    <i name="XCdc">   -535.46510676 </i>
    <i name="pawpsdc">  29404.41926716 </i>
    <i name="pawaedc"> -28305.51615604 </i>
    <i name="eentropy">      0.03107563 </i>
    <i name="bandstr">    229.77757865 </i>
    <i name="atom">   6564.79586099 </i>
    <i name="e_fr_energy">   -367.23415062 </i>
    <i name="e_wo_entrp">   -367.26522625 </i>
    <i name="e_0_energy">   -367.24450916 </i>
   </energy>
  </scstep>
  <structure>
   <crystal>
    <varray name="basis" >
     <v>      10.83855760       0.05365601       0.00000000 </v>
     <v>       0.05365601      10.73124558       0.00000000 </v>
     <v>       0.00000000       0.00000000      10.73124558 </v>
    </varray>
    <i name="volume">   1248.13340764 </i>
    <varray name="rec_basis" >
     <v>       0.09226548      -0.00046133       0.00000000 </v>
     <v>      -0.00046133       0.09318813       0.00000000 </v>
     <v>       0.00000000       0.00000000       0.09318583 </v>
    </varray>
   </crystal>
   <varray name="positions" >
    <v>       0.00000000       0.00000000       0.00000000 </v>
    <v>       0.00000000       0.00000000       0.50000000 </v>
    <v>       0.00000000       0.50000000       0.00000000 </v>
    <v>       0.00000000       0.50000000       0.50000000 </v>
    <v>       0.50000000       0.00000000       0.00000000 </v>
    <v>       0.50000000       0.00000000       0.50000000 </v>
    <v>       0.50000000       0.50000000       0.00000000 </v>
    <v>       0.50000000       0.50000000       0.50000000 </v>
    <v>       0.37500000       0.37500000       0.12500000 </v>
    <v>       0.37500000       0.37500000       0.62500000 </v>
    <v>       0.37500000       0.87500000       0.12500000 </v>
    <v>       0.37500000       0.87500000       0.62500000 </v>
    <v>       0.87500000       0.37500000       0.12500000 </v>
    <v>       0.87500000       0.37500000       0.62500000 </v>
    <v>       0.87500000       0.87500000       0.12500000 </v>
    <v>       0.87500000       0.87500000       0.62500000 </v>
    <v>       0.00000000       0.25000000       0.25000000 </v>
    <v>       0.00000000       0.25000000       0.75000000 </v>
    <v>       0.00000000       0.75000000       0.25000000 </v>
    <v>       0.00000000       0.75000000       0.75000000 </v>
    <v>       0.50000000       0.25000000       0.25000000 </v>
    <v>       0.50000000       0.25000000       0.75000000 </v>
    <v>       0.50000000       0.75000000       0.25000000 </v>
    <v>       0.50000000       0.75000000       0.75000000 </v>
    <v>       0.37500000       0.12500000       0.37500000 </v>
    <v>       0.37500000       0.12500000       0.87500000 </v>
    <v>       0.37500000       0.62500000       0.37500000 </v>
    <v>       0.37500000       0.62500000       0.87500000 </v>
    <v>       0.87500000       0.12500000       0.37500000 </v>
    <v>       0.87500000       0.12500000       0.87500000 </v>
    <v>       0.87500000       0.62500000       0.37500000 </v>
    <v>       0.87500000       0.62500000       0.87500000 </v>
    <v>       0.25000000       0.00000000       0.25000000 </v>
    <v>       0.25000000       0.00000000       0.75000000 </v>
    <v>       0.25000000       0.50000000       0.25000000 </v>
    <v>       0.25000000       0.50000000       0.75000000 </v>
    <v>       0.75000000       0.00000000       0.25000000 </v>
    <v>       0.75000000       0.00000000       0.75000000 </v>
    <v>       0.75000000       0.50000000       0.25000000 </v>
    <v>       0.75000000       0.50000000       0.75000000 </v>
    <v>       0.12500000       0.37500000       0.37500000 </v>
    <v>       0.12500000       0.37500000       0.87500000 </v>
    <v>       0.12500000       0.87500000       0.37500000 </v>
    <v>       0.12500000       0.87500000       0.87500000 </v>
    <v>       0.62500000       0.37500000       0.37500000 </v>
    <v>       0.62500000       0.37500000       0.87500000 </v>
    <v>       0.62500000       0.87500000       0.37500000 </v>
    <v>       0.62500000       0.87500000       0.87500000 </v>
    <v>       0.25000000       0.25000000       0.00000000 </v>
    <v>       0.25000000       0.25000000       0.50000000 </v>
    <v>       0.25000000       0.75000000       0.00000000 </v>
    <v>       0.25000000       0.75000000       0.50000000 </v>
    <v>       0.75000000       0.25000000       0.00000000 </v>
    <v>       0.75000000       0.25000000       0.50000000 </v>
    <v>       0.75000000       0.75000000       0.00000000 </v>
    <v>       0.75000000       0.75000000       0.50000000 </v>
    <v>       0.12500000       0.12500000       0.12500000 </v>
    <v>       0.12500000       0.12500000       0.62500000 </v>
    <v>       0.12500000       0.62500000       0.12500000 </v>
    <v>       0.12500000       0.62500000       0.62500000 </v>
    <v>       0.62500000       0.12500000       0.12500000 </v>
    <v>       0.62500000       0.12500000       0.62500000 </v>
    <v>       0.62500000       0.62500000       0.12500000 </v>
    <v>       0.62500000       0.62500000       0.62500000 </v>
   </varray>
  </structure>
  <varray name="forces" >
   <v>      -0.00000000       0.00000000       0.11176268 </v>
   <v>       0.00000000       0.00000000       0.11176268 </v>
   <v>      -0.00000000       0.00000000       0.11176268 </v>
   <v>      -0.00000000       0.00000000       0.11176268 </v>
   <v>      -0.00000000       0.00000000       0.11176268 </v>
   <v>      -0.00000000       0.00000000       0.11176268 </v>
   <v>       0.00000000       0.00000000       0.11176268 </v>
   <v>       0.00000000       0.00000000       0.11176268 </v>
   <v>      -0.00000000      -0.00000000      -0.11176268 </v>
   <v>       0.00000000      -0.00000000      -0.11176268 </v>
   <v>       0.00000000      -0.00000000      -0.11176268 </v>
   <v>       0.00000000      -0.00000000      -0.11176268 </v>
   <v>      -0.00000000      -0.00000000      -0.11176268 </v>
   <v>      -0.00000000      -0.00000000      -0.11176268 </v>
   <v>      -0.00000000      -0.00000000      -0.11176268 </v>
   <v>       0.00000000      -0.00000000      -0.11176268 </v>
   <v>       0.00000000       0.00000000       0.11176268 </v>
   <v>      -0.00000000       0.00000000       0.11176268 </v>
   <v>      -0.00000000       0.00000000       0.11176268 </v>
   <v>      -0.00000000       0.00000000       0.11176268 </v>
   <v>       0.00000000       0.00000000       0.11176268 </v>
   <v>       0.00000000       0.00000000       0.11176268 </v>
   <v>      -0.00000000       0.00000000       0.11176268 </v>
   <v>       0.00000000       0.00000000       0.11176268 </v>
   <v>       0.00000000      -0.00000000      -0.11176268 </v>
   <v>       0.00000000      -0.00000000      -0.11176268 </v>
   <v>      -0.00000000      -0.00000000      -0.11176268 </v>
   <v>      -0.00000000      -0.00000000      -0.11176268 </v>
   <v>      -0.00000000      -0.00000000      -0.11176268 </v>
   <v>      -0.00000000      -0.00000000      -0.11176268 </v>
   <v>      -0.00000000       0.00000000      -0.11176268 </v>
   <v>      -0.00000000      -0.00000000      -0.11176268 </v>
   <v>      -0.00000000      -0.00000000       0.11176268 </v>
   <v>      -0.00000000      -0.00000000       0.11176268 </v>
   <v>      -0.00000000      -0.00000000       0.11176268 </v>
   <v>      -0.00000000      -0.00000000       0.11176268 </v>
   <v>      -0.00000000      -0.00000000       0.11176268 </v>
   <v>       0.00000000      -0.00000000       0.11176268 </v>
   <v>       0.00000000      -0.00000000       0.11176268 </v>
   <v>       0.00000000      -0.00000000       0.11176268 </v>
   <v>      -0.00000000       0.00000000      -0.11176268 </v>
   <v>      -0.00000000       0.00000000      -0.11176268 </v>
   <v>      -0.00000000       0.00000000      -0.11176268 </v>
   <v>       0.00000000       0.00000000      -0.11176268 </v>
   <v>       0.00000000       0.00000000      -0.11176268 </v>
   <v>       0.00000000       0.00000000      -0.11176268 </v>
   <v>       0.00000000      -0.00000000      -0.11176268 </v>
   <v>       0.00000000      -0.00000000      -0.11176268 </v>
   <v>       0.00000000      -0.00000000       0.11176268 </v>
   <v>      -0.00000000      -0.00000000       0.11176268 </v>
   <v>      -0.00000000      -0.00000000       0.11176268 </v>
   <v>      -0.00000000       0.00000000       0.11176268 </v>
   <v>      -0.00000000      -0.00000000       0.11176268 </v>
   <v>       0.00000000      -0.00000000       0.11176268 </v>
   <v>       0.00000000      -0.00000000       0.11176268 </v>
   <v>       0.00000000      -0.00000000       0.11176268 </v>
   <v>      -0.00000000       0.00000000      -0.11176268 </v>
   <v>       0.00000000       0.00000000      -0.11176268 </v>
   <v>      -0.00000000       0.00000000      -0.11176268 </v>
   <v>      -0.00000000       0.00000000      -0.11176268 </v>
   <v>       0.00000000       0.00000000      -0.11176268 </v>
   <v>       0.00000000       0.00000000      -0.11176268 </v>
   <v>       0.00000000       0.00000000      -0.11176268 </v>
   <v>       0.00000000       0.00000000      -0.11176268 </v>
  </varray>
  <varray name="stress" >
   <v>      23.02880026     -11.00040000       0.00000000 </v>
   <v>     -11.00039996      32.30260326       0.00000000 </v>
   <v>       0.00000000       0.00000000      32.13634573 </v>
  </varray>
  <energy>
   <i name="e_fr_energy">   -367.23415062 </i>
   <i name="e_wo_entrp">   -367.26522625 </i>
   <i name="e_0_energy">   -367.24450916 </i>
  </energy>
  <time name="totalsc">   29.96   30.43</time>
 </calculation>
 <calculation>
  <scstep>
   <time name="dav">    1.27    1.29</time>
   <time name="total">    1.66    1.68</time>
   <energy>
    <i name="alphaZ">    110.47231242 </i>
    <i name="ewald">  -7377.54364232 </i>
    <i name="hartreedc">   -458.31375192 </i>
    <i name="XCdc">   -535.46956492 </i>
    <i name="pawpsdc">  29408.41926491 </i>
    <i name="pawaedc"> -28309.51615282 </i>
    <i name="eentropy">      0.02964524 </i>
    <i name="bandstr">    229.88263839 </i>
    <i name="atom">   6564.79586099 </i>
    <i name="e_fr_energy">   -367.24339004 </i>
    <i name="e_wo_entrp">   -367.27303527 </i>
    <i name="e_0_energy">   -367.25327178 </i>
   </energy>
  </scstep>
  <scstep>
   <time name="diag">    0.13    0.13</time>
   <time name="diis">    0.70    0.70</time>
   <time name="orth">    0.02    0.02</time>
   <time name="total">    1.25    1.26</time>
   <energy>
    <i name="e_fr_energy">   -367.24588796 </i>
    <i name="e_wo_entrp">   -367.27551328 </i>
    <i name="e_0_energy">   -367.25576307 </i>
   </energy>
  </scstep>
  <scstep>
   <time name="diag">    0.13    0.13</time>
   <time name="diis">    0.71    0.71</time>
   <time name="orth">    0.02    0.02</time>
   <time name="total">    1.27    1.28</time>
   <energy>
    <i name="e_fr_energy">   -367.24628110 </i>
    <i name="e_wo_entrp">   -367.27596767 </i>
    <i name="e_0_energy">   -367.25617663 </i>
   </energy>
  </scstep>
  <scstep>
   <time name="diag">    0.14    0.14</time>
   <time name="diis">    0.71    0.71</time>
   <time name="orth">    0.02    0.02</time>
   <time name="total">    1.26    1.28</time>
   <energy>
    <i name="e_fr_energy">   -367.24628280 </i>
    <i name="e_wo_entrp">   -367.27602982 </i>
    <i name="e_0_energy">   -367.25619848 </i>
   </energy>
  </scstep>
  <scstep>
   <time name="diag">    0.13    0.13</time>
   <time name="diis">    0.71    0.71</time>
   <time name="orth">    0.02    0.02</time>
   <time name="total">    1.26    1.28</time>
   <energy>
    <i name="e_fr_energy">   -367.24628675 </i>
    <i name="e_wo_entrp">   -367.27605705 </i>
    <i name="e_0_energy">   -367.25621018 </i>
   </energy>
  </scstep>
  <scstep>
   <time name="diag">    0.14    0.14</time>
   <time name="diis">    0.73    0.73</time>
   <time name="orth">    0.02    0.02</time>
   <time name="total">    1.28    1.30</time>
   <energy>
    <i name="e_fr_energy">   -367.24628915 </i>
    <i name="e_wo_entrp">   -367.27605914 </i>
    <i name="e_0_energy">   -367.25621248 </i>
   </energy>
  </scstep>
  <scstep>
   <time name="diag">    0.13    0.13</time>
   <time name="diis">    0.51    0.51</time>
   <time name="orth">    0.02    0.02</time>
   <time name="total">    1.06    1.07</time>
   <energy>
    <i name="e_fr_energy">   -367.24628941 </i>
    <i name="e_wo_entrp">   -367.27605917 </i>
    <i name="e_0_energy">   -367.25621266 </i>
   </energy>
  </scstep>
  <scstep>
   <time name="diag">    0.13    0.13</time>
   <time name="diis">    0.44    0.44</time>
   <time name="orth">    0.02    0.02</time>
   <time name="total">    0.75    0.77</time>
   <energy>
    <i name="alphaZ">    110.47231242 </i>
    <i name="ewald">  -7377.54364232 </i>
    <i name="hartreedc">   -458.28635089 </i>
    <i name="XCdc">   -535.47516414 </i>
    <i name="pawpsdc">  29399.50688677 </i>
    <i name="pawaedc"> -28300.59928352 </i>
    <i name="eentropy">      0.02976976 </i>
    <i name="bandstr">    229.85332146 </i>
    <i name="atom">   6564.79586099 </i>
    <i name="e_fr_energy">   -367.24628947 </i>
    <i name="e_wo_entrp">   -367.27605923 </i>
    <i name="e_0_energy">   -367.25621272 </i>
   </energy>
  </scstep>
  <structure>
   <crystal>
    <varray name="basis" >
     <v>      10.83855760       0.05365601       0.00000000 </v>
     <v>       0.05365601      10.73124558       0.00000000 </v>
     <v>       0.00000000       0.00000000      10.73124558 </v>
    </varray>
    <i name="volume">   1248.13340764 </i>
    <varray name="rec_basis" >
     <v>       0.09226548      -0.00046133       0.00000000 </v>
     <v>      -0.00046133       0.09318813       0.00000000 </v>
     <v>       0.00000000       0.00000000       0.09318583 </v>
    </varray>
   </crystal>
   <varray name="positions" >
    <v>       1.00000000       0.00000000       0.00050243 </v>
    <v>       0.00000000       0.00000000       0.50050243 </v>
    <v>       1.00000000       0.50000000       0.00050243 </v>
    <v>       1.00000000       0.50000000       0.50050243 </v>
    <v>       0.50000000       0.00000000       0.00050243 </v>
    <v>       0.50000000       0.00000000       0.50050243 </v>
    <v>       0.50000000       0.50000000       0.00050243 </v>
    <v>       0.50000000       0.50000000       0.50050243 </v>
    <v>       0.37500000       0.37500000       0.12449757 </v>
    <v>       0.37500000       0.37500000       0.62449757 </v>
    <v>       0.37500000       0.87500000       0.12449757 </v>
    <v>       0.37500000       0.87500000       0.62449757 </v>
    <v>       0.87500000       0.37500000       0.12449757 </v>
    <v>       0.87500000       0.37500000       0.62449757 </v>
    <v>       0.87500000       0.87500000       0.12449757 </v>
    <v>       0.87500000       0.87500000       0.62449757 </v>
    <v>       0.00000000       0.25000000       0.25050243 </v>
    <v>       1.00000000       0.25000000       0.75050243 </v>
    <v>       1.00000000       0.75000000       0.25050243 </v>
    <v>       1.00000000       0.75000000       0.75050243 </v>
    <v>       0.50000000       0.25000000       0.25050243 </v>
    <v>       0.50000000       0.25000000       0.75050243 </v>
    <v>       0.50000000       0.75000000       0.25050243 </v>
    <v>       0.50000000       0.75000000       0.75050243 </v>
    <v>       0.37500000       0.12500000       0.37449757 </v>
    <v>       0.37500000       0.12500000       0.87449757 </v>
    <v>       0.37500000       0.62500000       0.37449757 </v>
    <v>       0.37500000       0.62500000       0.87449757 </v>
    <v>       0.87500000       0.12500000       0.37449757 </v>
    <v>       0.87500000       0.12500000       0.87449757 </v>
    <v>       0.87500000       0.62500000       0.37449757 </v>
    <v>       0.87500000       0.62500000       0.87449757 </v>
    <v>       0.25000000       1.00000000       0.25050243 </v>
    <v>       0.25000000       1.00000000       0.75050243 </v>
    <v>       0.25000000       0.50000000       0.25050243 </v>
    <v>       0.25000000       0.50000000       0.75050243 </v>
    <v>       0.75000000       1.00000000       0.25050243 </v>
    <v>       0.75000000       1.00000000       0.75050243 </v>
    <v>       0.75000000       0.50000000       0.25050243 </v>
    <v>       0.75000000       0.50000000       0.75050243 </v>
    <v>       0.12500000       0.37500000       0.37449757 </v>
    <v>       0.12500000       0.37500000       0.87449757 </v>
    <v>       0.12500000       0.87500000       0.37449757 </v>
    <v>       0.12500000       0.87500000       0.87449757 </v>
    <v>       0.62500000       0.37500000       0.37449757 </v>
    <v>       0.62500000       0.37500000       0.87449757 </v>
    <v>       0.62500000       0.87500000       0.37449757 </v>
    <v>       0.62500000       0.87500000       0.87449757 </v>
    <v>       0.25000000       0.25000000       0.00050243 </v>
    <v>       0.25000000       0.25000000       0.50050243 </v>
    <v>       0.25000000       0.75000000       0.00050243 </v>
    <v>       0.25000000       0.75000000       0.50050243 </v>
    <v>       0.75000000       0.25000000       0.00050243 </v>
    <v>       0.75000000       0.25000000       0.50050243 </v>
    <v>       0.75000000       0.75000000       0.00050243 </v>
    <v>       0.75000000       0.75000000       0.50050243 </v>
    <v>       0.12500000       0.12500000       0.12449757 </v>
    <v>       0.12500000       0.12500000       0.62449757 </v>
    <v>       0.12500000       0.62500000       0.12449757 </v>
    <v>       0.12500000       0.62500000       0.62449757 </v>
    <v>       0.62500000       0.12500000       0.12449757 </v>
    <v>       0.62500000       0.12500000       0.62449757 </v>
    <v>       0.62500000       0.62500000       0.12449757 </v>
    <v>       0.62500000       0.62500000       0.62449757 </v>
   </varray>
  </structure>
  <varray name="forces" >
   <v>      -0.00000000      -0.00000000      -0.04118867 </v>
   <v>      -0.00000000      -0.00000000      -0.04118867 </v>
   <v>      -0.00000000      -0.00000000      -0.04118867 </v>
   <v>      -0.00000000      -0.00000000      -0.04118867 </v>
   <v>      -0.00000000       0.00000000      -0.04118867 </v>
   <v>       0.00000000      -0.00000000      -0.04118867 </v>
   <v>      -0.00000000       0.00000000      -0.04118867 </v>
   <v>       0.00000000       0.00000000      -0.04118867 </v>
   <v>       0.00000000       0.00000000       0.04118867 </v>
   <v>       0.00000000       0.00000000       0.04118867 </v>
   <v>       0.00000000      -0.00000000       0.04118867 </v>
   <v>       0.00000000       0.00000000       0.04118867 </v>
   <v>      -0.00000000      -0.00000000       0.04118867 </v>
   <v>      -0.00000000       0.00000000       0.04118867 </v>
   <v>      -0.00000000      -0.00000000       0.04118867 </v>
   <v>      -0.00000000       0.00000000       0.04118867 </v>
   <v>      -0.00000000       0.00000000      -0.04118867 </v>
   <v>      -0.00000000       0.00000000      -0.04118867 </v>
   <v>      -0.00000000      -0.00000000      -0.04118867 </v>
   <v>      -0.00000000      -0.00000000      -0.04118867 </v>
   <v>       0.00000000      -0.00000000      -0.04118867 </v>
   <v>       0.00000000      -0.00000000      -0.04118867 </v>
   <v>       0.00000000      -0.00000000      -0.04118867 </v>
   <v>      -0.00000000       0.00000000      -0.04118867 </v>
   <v>       0.00000000      -0.00000000       0.04118867 </v>
   <v>       0.00000000       0.00000000       0.04118867 </v>
   <v>       0.00000000       0.00000000       0.04118867 </v>
   <v>       0.00000000       0.00000000       0.04118867 </v>
   <v>      -0.00000000       0.00000000       0.04118867 </v>
   <v>      -0.00000000      -0.00000000       0.04118867 </v>
   <v>      -0.00000000       0.00000000       0.04118867 </v>
   <v>      -0.00000000      -0.00000000       0.04118867 </v>
   <v>       0.00000000      -0.00000000      -0.04118867 </v>
   <v>      -0.00000000      -0.00000000      -0.04118867 </v>
   <v>       0.00000000       0.00000000      -0.04118867 </v>
   <v>       0.00000000       0.00000000      -0.04118867 </v>
   <v>       0.00000000       0.00000000      -0.04118867 </v>
   <v>      -0.00000000      -0.00000000      -0.04118867 </v>
   <v>       0.00000000       0.00000000      -0.04118867 </v>
   <v>      -0.00000000      -0.00000000      -0.04118867 </v>
   <v>      -0.00000000       0.00000000       0.04118867 </v>
   <v>      -0.00000000       0.00000000       0.04118867 </v>
   <v>       0.00000000       0.00000000       0.04118867 </v>
   <v>      -0.00000000       0.00000000       0.04118867 </v>
   <v>       0.00000000      -0.00000000       0.04118867 </v>
   <v>      -0.00000000      -0.00000000       0.04118867 </v>
   <v>       0.00000000      -0.00000000       0.04118867 </v>
   <v>       0.00000000      -0.00000000       0.04118867 </v>
   <v>      -0.00000000      -0.00000000      -0.04118867 </v>
   <v>       0.00000000       0.00000000      -0.04118867 </v>
   <v>      -0.00000000       0.00000000      -0.04118867 </v>
   <v>       0.00000000       0.00000000      -0.04118867 </v>
   <v>       0.00000000       0.00000000      -0.04118867 </v>
   <v>      -0.00000000      -0.00000000      -0.04118867 </v>
   <v>       0.00000000       0.00000000      -0.04118867 </v>
   <v>      -0.00000000      -0.00000000      -0.04118867 </v>
   <v>      -0.00000000       0.00000000       0.04118867 </v>
   <v>      -0.00000000       0.00000000       0.04118867 </v>
   <v>      -0.00000000       0.00000000       0.04118867 </v>
   <v>      -0.00000000      -0.00000000       0.04118867 </v>
   <v>       0.00000000      -0.00000000       0.04118867 </v>
   <v>       0.00000000      -0.00000000       0.04118867 </v>
   <v>       0.00000000       0.00000000       0.04118867 </v>
   <v>       0.00000000      -0.00000000       0.04118867 </v>
  </varray>
  <varray name="stress" >
   <v>      22.89240732      -6.01088720       0.00000000 </v>
   <v>      -6.01088722      32.21656442       0.00000000 </v>
   <v>       0.00000000       0.00000000      31.87105507 </v>
  </varray>
  <energy>
   <i name="e_fr_energy">   -367.24628947 </i>
   <i name="e_wo_entrp">   -367.27605923 </i>
   <i name="e_0_energy">   -367.25621272 </i>
  </energy>
  <time name="totalsc">   13.48   13.65</time>
 </calculation>
 <calculation>
  <scstep>
   <time name="dav">    1.31    1.32</time>
   <time name="total">    1.71    1.71</time>
   <energy>
    <i name="alphaZ">    110.47231242 </i>
    <i name="ewald">  -7377.49088220 </i>
    <i name="hartreedc">   -458.31739293 </i>
    <i name="XCdc">   -535.47375410 </i>
    <i name="pawpsdc">  29399.41299942 </i>
    <i name="pawaedc"> -28300.50538935 </i>
    <i name="eentropy">      0.03036796 </i>
    <i name="bandstr">    229.82787955 </i>
    <i name="atom">   6564.79586099 </i>
    <i name="e_fr_energy">   -367.24799824 </i>
    <i name="e_wo_entrp">   -367.27836620 </i>
    <i name="e_0_energy">   -367.25812089 </i>
   </energy>
  </scstep>
  <scstep>
   <time name="diag">    0.14    0.14</time>
   <time name="diis">    0.67    0.69</time>
   <time name="orth">    0.02    0.02</time>
   <time name="total">    1.24    1.29</time>
   <energy>
    <i name="e_fr_energy">   -367.24817740 </i>
    <i name="e_wo_entrp">   -367.27854841 </i>
    <i name="e_0_energy">   -367.25830107 </i>
   </energy>
  </scstep>
  <scstep>
   <time name="diag">    0.13    0.13</time>
   <time name="diis">    0.71    0.72</time>
   <time name="orth">    0.02    0.02</time>
   <time name="total">    1.26    1.28</time>
   <energy>
    <i name="e_fr_energy">   -367.24820512 </i>
    <i name="e_wo_entrp">   -367.27856491 </i>
    <i name="e_0_energy">   -367.25832505 </i>
   </energy>
  </scstep>
  <scstep>
   <time name="diag">    0.13    0.13</time>
   <time name="diis">    0.69    0.71</time>
   <time name="orth">    0.02    0.02</time>
   <time name="total">    1.24    1.28</time>
   <energy>
    <i name="e_fr_energy">   -367.24820539 </i>
    <i name="e_wo_entrp">   -367.27855407 </i>
    <i name="e_0_energy">   -367.25832162 </i>
   </energy>
  </scstep>
  <scstep>
   <time name="diag">    0.13    0.13</time>
   <time name="diis">    0.60    0.60</time>
   <time name="orth">    0.02    0.02</time>
   <time name="total">    1.15    1.17</time>
   <energy>
    <i name="e_fr_energy">   -367.24820572 </i>
    <i name="e_wo_entrp">   -367.27855003 </i>
    <i name="e_0_energy">   -367.25832049 </i>
   </energy>
  </scstep>
  <scstep>
   <time name="diag">    0.13    0.13</time>
   <time name="diis">    0.46    0.47</time>
   <time name="orth">    0.02    0.02</time>
   <time name="total">    1.02    1.03</time>
   <energy>
    <i name="e_fr_energy">   -367.24820586 </i>
    <i name="e_wo_entrp">   -367.27855022 </i>
    <i name="e_0_energy">   -367.25832065 </i>
   </energy>
  </scstep>
  <scstep>
   <time name="diag">    0.13    0.13</time>
   <time name="diis">    0.43    0.43</time>
   <time name="orth">    0.02    0.02</time>
   <time name="total">    0.98    1.00</time>
   <energy>
    <i name="e_fr_energy">   -367.24820589 </i>
    <i name="e_wo_entrp">   -367.27855031 </i>
    <i name="e_0_energy">   -367.25832070 </i>
   </energy>
  </scstep>
  <scstep>
   <time name="diag">    0.13    0.13</time>
   <time name="diis">    0.37    0.37</time>
   <time name="orth">    0.02    0.02</time>
   <time name="total">    0.68    0.69</time>
   <energy>
    <i name="alphaZ">    110.47231242 </i>
    <i name="ewald">  -7377.49088220 </i>
    <i name="hartreedc">   -458.32588130 </i>
    <i name="XCdc">   -535.47223044 </i>
    <i name="pawpsdc">  29401.63548090 </i>
    <i name="pawaedc"> -28302.72892180 </i>
    <i name="eentropy">      0.03034441 </i>
    <i name="bandstr">    229.83571110 </i>
    <i name="atom">   6564.79586099 </i>
    <i name="e_fr_energy">   -367.24820590 </i>
    <i name="e_wo_entrp">   -367.27855031 </i>
    <i name="e_0_energy">   -367.25832071 </i>
   </energy>
  </scstep>
  <structure>
   <crystal>
    <varray name="basis" >
     <v>      10.83855760       0.05365601       0.00000000 </v>
     <v>       0.05365601      10.73124558       0.00000000 </v>
     <v>       0.00000000       0.00000000      10.73124558 </v>
    </varray>
    <i name="volume">   1248.13340764 </i>
    <varray name="rec_basis" >
     <v>       0.09226548      -0.00046133       0.00000000 </v>
     <v>      -0.00046133       0.09318813       0.00000000 </v>
     <v>       0.00000000       0.00000000       0.09318583 </v>
    </varray>
   </crystal>
   <varray name="positions" >
    <v>       0.00000000       0.00000000       0.00036713 </v>
    <v>       0.00000000       0.00000000       0.50036713 </v>
    <v>       0.00000000       0.50000000       0.00036713 </v>
    <v>       0.00000000       0.50000000       0.50036713 </v>
    <v>       0.50000000       0.00000000       0.00036713 </v>
    <v>       0.50000000       0.00000000       0.50036713 </v>
    <v>       0.50000000       0.50000000       0.00036713 </v>
    <v>       0.50000000       0.50000000       0.50036713 </v>
    <v>       0.37500000       0.37500000       0.12463287 </v>
    <v>       0.37500000       0.37500000       0.62463287 </v>
    <v>       0.37500000       0.87500000       0.12463287 </v>
    <v>       0.37500000       0.87500000       0.62463287 </v>
    <v>       0.87500000       0.37500000       0.12463287 </v>
    <v>       0.87500000       0.37500000       0.62463287 </v>
    <v>       0.87500000       0.87500000       0.12463287 </v>
    <v>       0.87500000       0.87500000       0.62463287 </v>
    <v>       0.00000000       0.25000000       0.25036713 </v>
    <v>       0.00000000       0.25000000       0.75036713 </v>
    <v>       0.00000000       0.75000000       0.25036713 </v>
    <v>       0.00000000       0.75000000       0.75036713 </v>
    <v>       0.50000000       0.25000000       0.25036713 </v>
    <v>       0.50000000       0.25000000       0.75036713 </v>
    <v>       0.50000000       0.75000000       0.25036713 </v>
    <v>       0.50000000       0.75000000       0.75036713 </v>
    <v>       0.37500000       0.12500000       0.37463287 </v>
    <v>       0.37500000       0.12500000       0.87463287 </v>
    <v>       0.37500000       0.62500000       0.37463287 </v>
    <v>       0.37500000       0.62500000       0.87463287 </v>
    <v>       0.87500000       0.12500000       0.37463287 </v>
    <v>       0.87500000       0.12500000       0.87463287 </v>
    <v>       0.87500000       0.62500000       0.37463287 </v>
    <v>       0.87500000       0.62500000       0.87463287 </v>
    <v>       0.25000000       0.00000000       0.25036713 </v>
    <v>       0.25000000       0.00000000       0.75036713 </v>
    <v>       0.25000000       0.50000000       0.25036713 </v>
    <v>       0.25000000       0.50000000       0.75036713 </v>
    <v>       0.75000000       0.00000000       0.25036713 </v>
    <v>       0.75000000       0.00000000       0.75036713 </v>
    <v>       0.75000000       0.50000000       0.25036713 </v>
    <v>       0.75000000       0.50000000       0.75036713 </v>
    <v>       0.12500000       0.37500000       0.37463287 </v>
    <v>       0.12500000       0.37500000       0.87463287 </v>
    <v>       0.12500000       0.87500000       0.37463287 </v>
    <v>       0.12500000       0.87500000       0.87463287 </v>
    <v>       0.62500000       0.37500000       0.37463287 </v>
    <v>       0.62500000       0.37500000       0.87463287 </v>
    <v>       0.62500000       0.87500000       0.37463287 </v>
    <v>       0.62500000       0.87500000       0.87463287 </v>
    <v>       0.25000000       0.25000000       0.00036713 </v>
    <v>       0.25000000       0.25000000       0.50036713 </v>
    <v>       0.25000000       0.75000000       0.00036713 </v>
    <v>       0.25000000       0.75000000       0.50036713 </v>
    <v>       0.75000000       0.25000000       0.00036713 </v>
    <v>       0.75000000       0.25000000       0.50036713 </v>
    <v>       0.75000000       0.75000000       0.00036713 </v>
    <v>       0.75000000       0.75000000       0.50036713 </v>
    <v>       0.12500000       0.12500000       0.12463287 </v>
    <v>       0.12500000       0.12500000       0.62463287 </v>
    <v>       0.12500000       0.62500000       0.12463287 </v>
    <v>       0.12500000       0.62500000       0.62463287 </v>
    <v>       0.62500000       0.12500000       0.12463287 </v>
    <v>       0.62500000       0.12500000       0.62463287 </v>
    <v>       0.62500000       0.62500000       0.12463287 </v>
    <v>       0.62500000       0.62500000       0.62463287 </v>
   </varray>
  </structure>
  <varray name="forces" >
   <v>       0.00000000       0.00000000       0.00001585 </v>
   <v>       0.00000000       0.00000000       0.00001585 </v>
   <v>       0.00000000       0.00000000       0.00001585 </v>
   <v>       0.00000000       0.00000000       0.00001585 </v>
   <v>       0.00000000      -0.00000000       0.00001585 </v>
   <v>      -0.00000000      -0.00000000       0.00001585 </v>
   <v>       0.00000000      -0.00000000       0.00001585 </v>
   <v>       0.00000000      -0.00000000       0.00001585 </v>
   <v>      -0.00000000       0.00000000      -0.00001585 </v>
   <v>      -0.00000000       0.00000000      -0.00001585 </v>
   <v>      -0.00000000       0.00000000      -0.00001585 </v>
   <v>      -0.00000000       0.00000000      -0.00001585 </v>
   <v>       0.00000000      -0.00000000      -0.00001585 </v>
   <v>      -0.00000000      -0.00000000      -0.00001585 </v>
   <v>       0.00000000      -0.00000000      -0.00001585 </v>
   <v>      -0.00000000      -0.00000000      -0.00001585 </v>
   <v>       0.00000000       0.00000000       0.00001585 </v>
   <v>       0.00000000       0.00000000       0.00001585 </v>
   <v>      -0.00000000       0.00000000       0.00001585 </v>
   <v>       0.00000000       0.00000000       0.00001585 </v>
   <v>       0.00000000      -0.00000000       0.00001585 </v>
   <v>       0.00000000      -0.00000000       0.00001585 </v>
   <v>       0.00000000      -0.00000000       0.00001585 </v>
   <v>      -0.00000000      -0.00000000       0.00001585 </v>
   <v>      -0.00000000       0.00000000      -0.00001585 </v>
   <v>       0.00000000       0.00000000      -0.00001585 </v>
   <v>      -0.00000000       0.00000000      -0.00001585 </v>
   <v>      -0.00000000       0.00000000      -0.00001585 </v>
   <v>      -0.00000000      -0.00000000      -0.00001585 </v>
   <v>      -0.00000000      -0.00000000      -0.00001585 </v>
   <v>       0.00000000      -0.00000000      -0.00001585 </v>
   <v>      -0.00000000       0.00000000      -0.00001585 </v>
   <v>      -0.00000000      -0.00000000       0.00001585 </v>
   <v>      -0.00000000      -0.00000000       0.00001585 </v>
   <v>      -0.00000000      -0.00000000       0.00001585 </v>
   <v>       0.00000000       0.00000000       0.00001585 </v>
   <v>      -0.00000000       0.00000000       0.00001585 </v>
   <v>      -0.00000000       0.00000000       0.00001585 </v>
   <v>      -0.00000000      -0.00000000       0.00001585 </v>
   <v>      -0.00000000       0.00000000       0.00001585 </v>
   <v>       0.00000000      -0.00000000      -0.00001585 </v>
   <v>       0.00000000      -0.00000000      -0.00001585 </v>
   <v>       0.00000000      -0.00000000      -0.00001585 </v>
   <v>       0.00000000      -0.00000000      -0.00001585 </v>
   <v>      -0.00000000       0.00000000      -0.00001585 </v>
   <v>      -0.00000000       0.00000000      -0.00001585 </v>
   <v>       0.00000000       0.00000000      -0.00001585 </v>
   <v>      -0.00000000       0.00000000      -0.00001585 </v>
   <v>       0.00000000      -0.00000000       0.00001585 </v>
   <v>       0.00000000      -0.00000000       0.00001585 </v>
   <v>      -0.00000000      -0.00000000       0.00001585 </v>
   <v>      -0.00000000      -0.00000000       0.00001585 </v>
   <v>      -0.00000000       0.00000000       0.00001585 </v>
   <v>       0.00000000       0.00000000       0.00001585 </v>
   <v>      -0.00000000       0.00000000       0.00001585 </v>
   <v>      -0.00000000       0.00000000       0.00001585 </v>
   <v>      -0.00000000      -0.00000000      -0.00001585 </v>
   <v>       0.00000000      -0.00000000      -0.00001585 </v>
   <v>       0.00000000      -0.00000000      -0.00001585 </v>
   <v>       0.00000000      -0.00000000      -0.00001585 </v>
   <v>       0.00000000       0.00000000      -0.00001585 </v>
   <v>      -0.00000000       0.00000000      -0.00001585 </v>
   <v>       0.00000000       0.00000000      -0.00001585 </v>
   <v>       0.00000000       0.00000000      -0.00001585 </v>
  </varray>
  <varray name="stress" >
   <v>      22.91204488      -7.35480684       0.00000000 </v>
   <v>      -7.35480683      32.22543067       0.00000000 </v>
   <v>       0.00000000       0.00000000      31.94495824 </v>
  </varray>
  <energy>
   <i name="e_fr_energy">   -367.24820590 </i>
   <i name="e_wo_entrp">   -367.27855031 </i>
   <i name="e_0_energy">   -367.25832071 </i>
  </energy>
  <time name="totalsc">   12.80   13.02</time>
  <eigenvalues>
   <array>
    <dimension dim="1">band</dimension>
    <dimension dim="2">kpoint</dimension>
    <dimension dim="3">spin</dimension>
    <field>eigene</field>
    <field>occ</field>
    <set>
     <set comment="spin 1">
      <set comment="kpoint 1">
       <r>   -6.1125    1.0000 </r>
       <r>   -5.0140    1.0000 </r>
       <r>   -5.0140    1.0000 </r>
       <r>   -4.9953    1.0000 </r>
       <r>   -4.9953    1.0000 </r>
       <r>   -4.9951    1.0000 </r>
       <r>   -4.9951    1.0000 </r>
       <r>   -4.0358    1.0000 </r>
       <r>   -4.0358    1.0000 </r>
       <r>   -4.0119    1.0000 </r>
       <r>   -4.0119    1.0000 </r>
       <r>   -4.0119    1.0000 </r>
       <r>   -4.0119    1.0000 </r>
       <r>   -3.9986    1.0000 </r>
       <r>   -3.9986    1.0000 </r>
       <r>   -3.9986    1.0000 </r>
       <r>   -3.9986    1.0000 </r>
       <r>   -3.9877    1.0000 </r>
       <r>   -3.9877    1.0000 </r>
       <r>   -3.7195    1.0000 </r>
       <r>   -3.7195    1.0000 </r>
       <r>   -3.6694    1.0000 </r>
       <r>   -3.6694    1.0000 </r>
       <r>   -1.8954    1.0000 </r>
       <r>   -1.8954    1.0000 </r>
       <r>   -1.8511    1.0000 </r>
       <r>   -1.8338    1.0000 </r>
       <r>   -1.8338    1.0000 </r>
       <r>   -1.8175    1.0000 </r>
       <r>   -1.7066    1.0000 </r>
       <r>   -1.7066    1.0000 </r>
       <r>   -1.6846    1.0000 </r>
       <r>   -1.6846    1.0000 </r>
       <r>   -1.6790    1.0000 </r>
       <r>   -1.6790    1.0000 </r>
       <r>   -1.6790    1.0000 </r>
       <r>   -1.6790    1.0000 </r>
       <r>   -1.6518    1.0000 </r>
       <r>   -1.6518    1.0000 </r>
       <r>   -1.6308    1.0000 </r>
       <r>   -1.6308    1.0000 </r>
       <r>   -1.0919    1.0000 </r>
       <r>   -1.0919    1.0000 </r>
       <r>   -1.0695    1.0000 </r>
       <r>   -1.0695    1.0000 </r>
       <r>    0.4944    1.0000 </r>
       <r>    0.4944    1.0000 </r>
       <r>    0.4944    1.0000 </r>
       <r>    0.4944    1.0000 </r>
       <r>    0.5249    1.0000 </r>
       <r>    0.5249    1.0000 </r>
       <r>    0.5309    1.0000 </r>
       <r>    0.5309    1.0000 </r>
       <r>    0.5309    1.0000 </r>
       <r>    0.5309    1.0000 </r>
       <r>    0.5372    1.0000 </r>
       <r>    0.5372    1.0000 </r>
       <r>    2.0267    1.0000 </r>
       <r>    2.0267    1.0000 </r>
       <r>    2.0311    1.0000 </r>
       <r>    2.0311    1.0000 </r>
       <r>    2.0383    1.0000 </r>
       <r>    2.0383    1.0000 </r>
       <r>    2.0383    1.0000 </r>
       <r>    2.0383    1.0000 </r>
       <r>    2.0500    1.0000 </r>
       <r>    2.0500    1.0000 </r>
       <r>    2.0554    1.0000 </r>
       <r>    2.0554    1.0000 </r>
       <r>    2.1169    1.0000 </r>
       <r>    2.1169    1.0000 </r>
       <r>    2.1169    1.0000 </r>
       <r>    2.1169    1.0000 </r>
       <r>    2.1632    1.0000 </r>
       <r>    2.1632    1.0000 </r>
       <r>    2.1733    1.0000 </r>
       <r>    2.1733    1.0000 </r>
       <r>    2.1733    1.0000 </r>
       <r>    2.1733    1.0000 </r>
       <r>    2.1816    1.0000 </r>
       <r>    2.1816    1.0000 </r>
       <r>    2.4976    1.0000 </r>
       <r>    2.4976    1.0000 </r>
       <r>    2.5700    1.0000 </r>
       <r>    2.5700    1.0000 </r>
       <r>    2.5712    1.0000 </r>
       <r>    2.5712    1.0000 </r>
       <r>    3.0242    1.0000 </r>
       <r>    3.0918    1.0000 </r>
       <r>    3.0918    1.0000 </r>
       <r>    3.1603    1.0000 </r>
       <r>    3.1698    1.0000 </r>
       <r>    3.1698    1.0000 </r>
       <r>    4.0188    1.0000 </r>
       <r>    4.0188    1.0000 </r>
       <r>    4.0727    1.0000 </r>
       <r>    4.0727    1.0000 </r>
       <r>    4.0947    1.0000 </r>
       <r>    4.0947    1.0000 </r>
       <r>    4.1442    1.0000 </r>
       <r>    4.1442    1.0000 </r>
       <r>    4.1446    1.0000 </r>
       <r>    4.1446    1.0000 </r>
       <r>    4.1496    1.0000 </r>
       <r>    4.1496    1.0000 </r>
       <r>    4.6207    1.0000 </r>
       <r>    4.6207    1.0000 </r>
       <r>    4.6678    1.0000 </r>
       <r>    4.6678    1.0000 </r>
       <r>    4.6678    1.0000 </r>
       <r>    4.6678    1.0000 </r>
       <r>    4.7165    1.0000 </r>
       <r>    4.7165    1.0000 </r>
       <r>    4.7463    1.0000 </r>
       <r>    4.7463    1.0000 </r>
       <r>    4.7498    1.0000 </r>
       <r>    4.7498    1.0000 </r>
       <r>    4.7498    1.0000 </r>
       <r>    4.7498    1.0000 </r>
       <r>    4.8225    1.0000 </r>
       <r>    4.8225    1.0000 </r>
       <r>    4.8669    1.0000 </r>
       <r>    4.8669    1.0000 </r>
       <r>    4.9075    1.0000 </r>
       <r>    4.9075    1.0000 </r>
       <r>    5.9888    1.0161 </r>
       <r>    6.0855    1.0351 </r>
       <r>    6.1133    1.0341 </r>
       <r>    6.4945    0.0182 </r>
       <r>    6.5706   -0.0345 </r>
       <r>    6.5706   -0.0345 </r>
       <r>    6.6473   -0.0261 </r>
       <r>    6.6510   -0.0253 </r>
       <r>    6.6510   -0.0253 </r>
       <r>    7.0421   -0.0000 </r>
       <r>    7.0421   -0.0000 </r>
       <r>    7.0434   -0.0000 </r>
       <r>    7.0434   -0.0000 </r>
       <r>    7.1232   -0.0000 </r>
       <r>    7.1232   -0.0000 </r>
       <r>    7.5619   -0.0000 </r>
       <r>    7.5619   -0.0000 </r>
       <r>    7.6691   -0.0000 </r>
       <r>    7.6691   -0.0000 </r>
       <r>    8.3533   -0.0000 </r>
       <r>    8.3533   -0.0000 </r>
       <r>    8.4075   -0.0000 </r>
       <r>    8.4075   -0.0000 </r>
       <r>    8.4075   -0.0000 </r>
       <r>    8.4075   -0.0000 </r>
       <r>    8.4630   -0.0000 </r>
       <r>    8.4630   -0.0000 </r>
       <r>    8.5020   -0.0000 </r>
       <r>    8.5020   -0.0000 </r>
       <r>    8.5020   -0.0000 </r>
       <r>    8.5020   -0.0000 </r>
       <r>    8.5365   -0.0000 </r>
       <r>    8.5683   -0.0000 </r>
       <r>    8.6537   -0.0000 </r>
       <r>    9.0664   -0.0000 </r>
       <r>    9.0696   -0.0000 </r>
       <r>    9.0839   -0.0000 </r>
      </set>
      <set comment="kpoint 2">
       <r>   -5.8355    1.0000 </r>
       <r>   -5.8355    1.0000 </r>
       <r>   -4.7551    1.0000 </r>
       <r>   -4.7551    1.0000 </r>
       <r>   -4.7427    1.0000 </r>
       <r>   -4.7427    1.0000 </r>
       <r>   -4.7427    1.0000 </r>
       <r>   -4.7427    1.0000 </r>
       <r>   -4.7301    1.0000 </r>
       <r>   -4.7301    1.0000 </r>
       <r>   -3.8778    1.0000 </r>
       <r>   -3.8778    1.0000 </r>
       <r>   -3.8778    1.0000 </r>
       <r>   -3.8778    1.0000 </r>
       <r>   -3.8468    1.0000 </r>
       <r>   -3.8468    1.0000 </r>
       <r>   -3.8468    1.0000 </r>
       <r>   -3.8468    1.0000 </r>
       <r>   -3.6792    1.0000 </r>
       <r>   -3.6792    1.0000 </r>
       <r>   -2.9399    1.0000 </r>
       <r>   -2.9399    1.0000 </r>
       <r>   -2.9083    1.0000 </r>
       <r>   -2.9083    1.0000 </r>
       <r>   -2.9083    1.0000 </r>
       <r>   -2.9083    1.0000 </r>
       <r>   -2.8765    1.0000 </r>
       <r>   -2.8765    1.0000 </r>
       <r>   -1.7712    1.0000 </r>
       <r>   -1.7712    1.0000 </r>
       <r>   -1.7699    1.0000 </r>
       <r>   -1.7699    1.0000 </r>
       <r>   -1.7306    1.0000 </r>
       <r>   -1.7306    1.0000 </r>
       <r>   -1.7302    1.0000 </r>
       <r>   -1.7302    1.0000 </r>
       <r>   -0.5815    1.0000 </r>
       <r>   -0.5815    1.0000 </r>
       <r>   -0.5714    1.0000 </r>
       <r>   -0.5714    1.0000 </r>
       <r>   -0.5714    1.0000 </r>
       <r>   -0.5714    1.0000 </r>
       <r>   -0.5623    1.0000 </r>
       <r>   -0.5623    1.0000 </r>
       <r>   -0.4809    1.0000 </r>
       <r>   -0.4809    1.0000 </r>
       <r>   -0.4809    1.0000 </r>
       <r>   -0.4809    1.0000 </r>
       <r>   -0.4446    1.0000 </r>
       <r>   -0.4446    1.0000 </r>
       <r>   -0.4446    1.0000 </r>
       <r>   -0.4446    1.0000 </r>
       <r>    0.2218    1.0000 </r>
       <r>    0.2218    1.0000 </r>
       <r>    1.6708    1.0000 </r>
       <r>    1.6708    1.0000 </r>
       <r>    1.6754    1.0000 </r>
       <r>    1.6754    1.0000 </r>
       <r>    1.6754    1.0000 </r>
       <r>    1.6754    1.0000 </r>
       <r>    1.6796    1.0000 </r>
       <r>    1.6796    1.0000 </r>
       <r>    1.7378    1.0000 </r>
       <r>    1.7378    1.0000 </r>
       <r>    1.7492    1.0000 </r>
       <r>    1.7492    1.0000 </r>
       <r>    1.7492    1.0000 </r>
       <r>    1.7492    1.0000 </r>
       <r>    1.7633    1.0000 </r>
       <r>    1.7633    1.0000 </r>
       <r>    2.4532    1.0000 </r>
       <r>    2.4532    1.0000 </r>
       <r>    2.4933    1.0000 </r>
       <r>    2.4933    1.0000 </r>
       <r>    2.5025    1.0000 </r>
       <r>    2.5025    1.0000 </r>
       <r>    2.5435    1.0000 </r>
       <r>    2.5435    1.0000 </r>
       <r>    3.2254    1.0000 </r>
       <r>    3.2254    1.0000 </r>
       <r>    3.2417    1.0000 </r>
       <r>    3.2417    1.0000 </r>
       <r>    3.2417    1.0000 </r>
       <r>    3.2417    1.0000 </r>
       <r>    3.2552    1.0000 </r>
       <r>    3.2552    1.0000 </r>
       <r>    3.3042    1.0000 </r>
       <r>    3.3042    1.0000 </r>
       <r>    3.3377    1.0000 </r>
       <r>    3.3377    1.0000 </r>
       <r>    3.3377    1.0000 </r>
       <r>    3.3377    1.0000 </r>
       <r>    3.3719    1.0000 </r>
       <r>    3.3719    1.0000 </r>
       <r>    3.4181    1.0000 </r>
       <r>    3.4181    1.0000 </r>
       <r>    3.4183    1.0000 </r>
       <r>    3.4183    1.0000 </r>
       <r>    3.4410    1.0000 </r>
       <r>    3.4410    1.0000 </r>
       <r>    3.4410    1.0000 </r>
       <r>    3.4410    1.0000 </r>
       <r>    3.5154    1.0000 </r>
       <r>    3.5154    1.0000 </r>
       <r>    3.5154    1.0000 </r>
       <r>    3.5154    1.0000 </r>
       <r>    4.5517    1.0000 </r>
       <r>    4.5517    1.0000 </r>
       <r>    4.5775    1.0000 </r>
       <r>    4.5775    1.0000 </r>
       <r>    4.5775    1.0000 </r>
       <r>    4.5775    1.0000 </r>
       <r>    4.6045    1.0000 </r>
       <r>    4.6045    1.0000 </r>
       <r>    4.7021    1.0000 </r>
       <r>    4.7021    1.0000 </r>
       <r>    4.8014    1.0000 </r>
       <r>    4.8014    1.0000 </r>
       <r>    4.8014    1.0000 </r>
       <r>    4.8014    1.0000 </r>
       <r>    4.8279    1.0000 </r>
       <r>    4.8279    1.0000 </r>
       <r>    4.8279    1.0000 </r>
       <r>    4.8279    1.0000 </r>
       <r>    5.2480    1.0000 </r>
       <r>    5.2480    1.0000 </r>
       <r>    5.2521    1.0000 </r>
       <r>    5.2521    1.0000 </r>
       <r>    6.5814   -0.0354 </r>
       <r>    6.5814   -0.0354 </r>
       <r>    7.4600   -0.0000 </r>
       <r>    7.4600   -0.0000 </r>
       <r>    7.7687   -0.0000 </r>
       <r>    7.7687   -0.0000 </r>
[...]
      </set>
     </set>
    </set>
   </array>
  </eigenvalues>
  <separator name="orbital magnetization" >
   <v name="MAGDIPOLOUT">      0.00000000      0.00000000      0.00000000</v>
  </separator>
  <dos>
   <i name="efermi">      6.34056460 </i>
   <total>
    <array>
     <dimension dim="1">gridpoints</dimension>
     <dimension dim="2">spin</dimension>
     <field>energy</field>
     <field>total</field>
     <field>integrated</field>
     <set>
      <set comment="spin 1">
       <r>    -8.1125     0.0000     0.0000 </r>
       <r>    -8.0471     0.0000     0.0000 </r>
       <r>    -7.9816     0.0000     0.0000 </r>
       <r>    -7.9162     0.0000     0.0000 </r>
       <r>    -7.8508     0.0000     0.0000 </r>
       <r>    -7.7853     0.0000     0.0000 </r>
       <r>    -7.7199    -0.0000    -0.0000 </r>
       <r>    -7.6544    -0.0000    -0.0000 </r>
       <r>    -7.5890    -0.0000    -0.0000 </r>
       <r>    -7.5236    -0.0000    -0.0000 </r>
       <r>    -7.4581    -0.0000    -0.0000 </r>
       <r>    -7.3927    -0.0000    -0.0000 </r>
       <r>    -7.3273    -0.0000    -0.0000 </r>
       <r>    -7.2618    -0.0000    -0.0000 </r>
       <r>    -7.1964    -0.0000    -0.0000 </r>
       <r>    -7.1309    -0.0000    -0.0000 </r>
       <r>    -7.0655    -0.0000    -0.0000 </r>
       <r>    -7.0001    -0.0000    -0.0000 </r>
       <r>    -6.9346    -0.0000    -0.0000 </r>
       <r>    -6.8692    -0.0000    -0.0000 </r>
       <r>    -6.8037    -0.0000    -0.0000 </r>
       <r>    -6.7383    -0.0001    -0.0000 </r>
       <r>    -6.6729    -0.0009    -0.0001 </r>
       <r>    -6.6074    -0.0039    -0.0003 </r>
       <r>    -6.5420    -0.0135    -0.0012 </r>
       <r>    -6.4766    -0.0343    -0.0035 </r>
       <r>    -6.4111    -0.0579    -0.0072 </r>
       <r>    -6.3457    -0.0422    -0.0100 </r>
       <r>    -6.2802     0.0771    -0.0050 </r>
       <r>    -6.2148     0.3068     0.0151 </r>
       <r>    -6.1494     0.5449     0.0508 </r>
       <r>    -6.0839     0.7538     0.1001 </r>
       <r>    -6.0185     1.2339     0.1808 </r>
       <r>    -5.9530     2.4188     0.3391 </r>
       <r>    -5.8876     4.1315     0.6095 </r>
       <r>    -5.8222     5.4821     0.9682 </r>
       <r>    -5.7567     6.1224     1.3689 </r>
       <r>    -5.6913     7.0837     1.8324 </r>
       <r>    -5.6259     9.2696     2.4390 </r>
       <r>    -5.5604    11.5471     3.1946 </r>
       <r>    -5.4950    11.9005     3.9734 </r>
       <r>    -5.4295    10.3078     4.6479 </r>
       <r>    -5.3641     8.6897     5.2165 </r>
       <r>    -5.2987     8.0000     5.7400 </r>
       <r>    -5.2332     7.2834     6.2167 </r>
       <r>    -5.1678     5.8485     6.5994 </r>
       <r>    -5.1023     4.5074     6.8943 </r>
       <r>    -5.0369     4.2293     7.1711 </r>
       <r>    -4.9715     5.3205     7.5192 </r>
       <r>    -4.9060     8.4097     8.0696 </r>
       <r>    -4.8406    14.1490     8.9954 </r>
       <r>    -4.7752    21.0045    10.3699 </r>
       <r>    -4.7097    25.6989    12.0516 </r>
       <r>    -4.6443    27.1516    13.8284 </r>
       <r>    -4.5788    27.3114    15.6156 </r>
       <r>    -4.5134    26.8179    17.3705 </r>
       <r>    -4.4480    23.2417    18.8914 </r>
       <r>    -4.3825    15.3685    19.8971 </r>
       <r>    -4.3171     6.1674    20.3007 </r>
       <r>    -4.2516    -0.0566    20.2970 </r>
       <r>    -4.1862    -1.2059    20.2181 </r>
       <r>    -4.1208     2.6232    20.3897 </r>
       <r>    -4.0553    10.4162    21.0714 </r>
       <r>    -3.9899    20.1500    22.3899 </r>
       <r>    -3.9245    28.3804    24.2471 </r>
       <r>    -3.8590    31.4635    26.3060 </r>
       <r>    -3.7936    28.1639    28.1490 </r>
       <r>    -3.7281    21.0280    29.5251 </r>
       <r>    -3.6627    14.7449    30.4899 </r>
       <r>    -3.5973    13.2598    31.3576 </r>
       <r>    -3.5318    17.9867    32.5347 </r>
       <r>    -3.4664    27.1208    34.3094 </r>
       <r>    -3.4009    36.3188    36.6860 </r>
       <r>    -3.3355    41.5268    39.4035 </r>
       <r>    -3.2701    41.6931    42.1318 </r>
       <r>    -3.2046    38.2839    44.6370 </r>
       <r>    -3.1392    33.0624    46.8006 </r>
       <r>    -3.0738    27.7572    48.6170 </r>
       <r>    -3.0083    24.6544    50.2303 </r>
       <r>    -2.9429    24.5859    51.8392 </r>
       <r>    -2.8774    24.6038    53.4492 </r>
       <r>    -2.8120    20.6544    54.8008 </r>
       <r>    -2.7466    12.6462    55.6283 </r>
       <r>    -2.6811     4.5008    55.9229 </r>
       <r>    -2.6157    -0.4465    55.8937 </r>
       <r>    -2.5503    -1.9348    55.7670 </r>
       <r>    -2.4848    -1.0680    55.6972 </r>
       <r>    -2.4194     1.7126    55.8092 </r>
       <r>    -2.3539     6.1182    56.2096 </r>
       <r>    -2.2885    10.4220    56.8916 </r>
       <r>    -2.2231    11.8359    57.6661 </r>
       <r>    -2.1576     9.1076    58.2621 </r>
       <r>    -2.0922     4.2174    58.5381 </r>
       <r>    -2.0267     1.1695    58.6146 </r>
       <r>    -1.9613     3.4799    58.8423 </r>
       <r>    -1.8959    12.2148    59.6416 </r>
       <r>    -1.8304    24.7023    61.2581 </r>
       <r>    -1.7650    34.8696    63.5399 </r>
       <r>    -1.6996    36.7520    65.9449 </r>
       <r>    -1.6341    29.1628    67.8533 </r>
       <r>    -1.5687    16.7275    68.9479 </r>
       <r>    -1.5032     6.1049    69.3474 </r>
       <r>    -1.4378     1.4796    69.4442 </r>
       <r>    -1.3724     2.9654    69.6383 </r>
       <r>    -1.3069     7.6007    70.1356 </r>
       <r>    -1.2415    11.3962    70.8814 </r>
       <r>    -1.1760    11.8311    71.6556 </r>
       <r>    -1.1106     9.6785    72.2889 </r>
       <r>    -1.0452     8.4616    72.8427 </r>
       <r>    -0.9797    11.3357    73.5845 </r>
       <r>    -0.9143    17.5415    74.7323 </r>
       <r>    -0.8489    22.2982    76.1915 </r>
       <r>    -0.7834    21.9892    77.6304 </r>
       <r>    -0.7180    19.4768    78.9050 </r>
       <r>    -0.6525    22.0397    80.3472 </r>
       <r>    -0.5871    33.4584    82.5367 </r>
       <r>    -0.5217    49.2759    85.7612 </r>
       <r>    -0.4562    59.5931    89.6609 </r>
       <r>    -0.3908    56.3944    93.3512 </r>
       <r>    -0.3253    39.9778    95.9673 </r>
       <r>    -0.2599    19.1126    97.2180 </r>
       <r>    -0.1945     4.2754    97.4978 </r>
       <r>    -0.1290     0.7321    97.5457 </r>
       <r>    -0.0636     7.0310    98.0058 </r>
       <r>     0.0018    17.1716    99.1295 </r>
       <r>     0.0673    23.9416   100.6962 </r>
       <r>     0.1327    23.2938   102.2205 </r>
       <r>     0.1982    16.9484   103.3295 </r>
       <r>     0.2636     9.9092   103.9780 </r>
       <r>     0.3290     5.9208   104.3654 </r>
       <r>     0.3945     6.0823   104.7634 </r>
       <r>     0.4599    10.1486   105.4276 </r>
       <r>     0.5254    17.1093   106.5472 </r>
       <r>     0.5908    24.6303   108.1589 </r>
       <r>     0.6562    29.1046   110.0635 </r>
       <r>     0.7217    27.4449   111.8594 </r>
       <r>     0.7871    19.7750   113.1535 </r>
       <r>     0.8525     9.9647   113.8055 </r>
       <r>     0.9180     2.5233   113.9707 </r>
       <r>     0.9834    -0.8406   113.9157 </r>
       <r>     1.0489    -1.3440   113.8277 </r>
       <r>     1.1143    -0.9313   113.7668 </r>
       <r>     1.1797    -0.7750   113.7161 </r>
       <r>     1.2452    -1.2162   113.6365 </r>
       <r>     1.3106    -1.9277   113.5103 </r>
       <r>     1.3760    -1.5225   113.4107 </r>
       <r>     1.4415     2.6726   113.5856 </r>
       <r>     1.5069    13.2168   114.4505 </r>
       <r>     1.5724    29.4409   116.3770 </r>
       <r>     1.6378    45.4014   119.3480 </r>
       <r>     1.7032    52.4751   122.7819 </r>
       <r>     1.7687    46.1804   125.8039 </r>
       <r>     1.8341    31.1526   127.8425 </r>
       <r>     1.8996    18.1504   129.0302 </r>
       <r>     1.9650    14.8578   130.0025 </r>
       <r>     2.0304    19.5780   131.2836 </r>
       <r>     2.0959    24.1929   132.8668 </r>
       <r>     2.1613    23.0475   134.3749 </r>
       <r>     2.2267    18.9718   135.6164 </r>
       <r>     2.2922    21.1050   136.9975 </r>
       <r>     2.3576    36.4326   139.3816 </r>
       <r>     2.4231    61.8560   143.4293 </r>
       <r>     2.4885    83.8549   148.9167 </r>
       <r>     2.5539    87.7529   154.6591 </r>
       <r>     2.6194    69.7522   159.2235 </r>
       <r>     2.6848    40.1068   161.8481 </r>
       <r>     2.7503    13.7807   162.7499 </r>
       <r>     2.8157    -1.2082   162.6708 </r>
       <r>     2.8811    -6.0832   162.2727 </r>
       <r>     2.9466    -4.8418   161.9559 </r>
       <r>     3.0120     1.7557   162.0708 </r>
       <r>     3.0774    15.7124   163.0990 </r>
       <r>     3.1429    36.6587   165.4978 </r>
       <r>     3.2083    58.8263   169.3473 </r>
       <r>     3.2738    74.4301   174.2179 </r>
       <r>     3.3392    79.4630   179.4178 </r>
       <r>     3.4046    75.1054   184.3326 </r>
       <r>     3.4701    64.8457   188.5760 </r>
       <r>     3.5355    52.3256   192.0001 </r>
       <r>     3.6010    41.6111   194.7231 </r>
       <r>     3.6664    36.9833   197.1432 </r>
       <r>     3.7318    39.6105   199.7353 </r>
       <r>     3.7973    44.2541   202.6312 </r>
       <r>     3.8627    42.8347   205.4342 </r>
       <r>     3.9281    33.5114   207.6271 </r>
       <r>     3.9936    23.6105   209.1722 </r>
       <r>     4.0590    21.2934   210.5656 </r>
       <r>     4.1245    26.5794   212.3049 </r>
       <r>     4.1899    32.9211   214.4592 </r>
       <r>     4.2553    35.7105   216.7960 </r>
       <r>     4.3208    36.0701   219.1564 </r>
       <r>     4.3862    36.9460   221.5741 </r>
       <r>     4.4517    39.1612   224.1367 </r>
       <r>     4.5171    42.3098   226.9054 </r>
       <r>     4.5825    46.5389   229.9508 </r>
       <r>     4.6480    51.4261   233.3161 </r>
       <r>     4.7134    54.2644   236.8670 </r>
       <r>     4.7788    51.1351   240.2132 </r>
       <r>     4.8443    40.3550   242.8540 </r>
       <r>     4.9097    24.8917   244.4829 </r>
       <r>     4.9752    11.0146   245.2036 </r>
       <r>     5.0406     4.2852   245.4841 </r>
       <r>     5.1060     6.3803   245.9016 </r>
       <r>     5.1715    14.4310   246.8459 </r>
       <r>     5.2369    22.5390   248.3208 </r>
       <r>     5.3023    25.0897   249.9627 </r>
       <r>     5.3678    20.4069   251.2980 </r>
       <r>     5.4332    11.6577   252.0609 </r>
       <r>     5.4987     3.9627   252.3202 </r>
       <r>     5.5641     0.7347   252.3683 </r>
       <r>     5.6295     2.3281   252.5206 </r>
       <r>     5.6950     6.6873   252.9583 </r>
       <r>     5.7604    10.5995   253.6519 </r>
       <r>     5.8259    11.4863   254.4035 </r>
       <r>     5.8913     9.1775   255.0041 </r>
       <r>     5.9567     5.7639   255.3813 </r>
       <r>     6.0222     3.3510   255.6005 </r>
       <r>     6.0876     2.2913   255.7505 </r>
       <r>     6.1530     1.6723   255.8599 </r>
       <r>     6.2185     0.8888   255.9181 </r>
       <r>     6.2839     0.3814   255.9430 </r>
       <r>     6.3494     1.1314   256.0171 </r>
       <r>     6.4148     3.6316   256.2547 </r>
       <r>     6.4802     7.1472   256.7224 </r>
       <r>     6.5457     9.9097   257.3709 </r>
       <r>     6.6111    10.2882   258.0441 </r>
       <r>     6.6766     8.0033   258.5678 </r>
       <r>     6.7420     4.3318   258.8513 </r>
       <r>     6.8074     1.3157   258.9374 </r>
       <r>     6.8729     0.7775   258.9883 </r>
       <r>     6.9383     3.5295   259.2192 </r>
       <r>     7.0037     8.6648   259.7863 </r>
       <r>     7.0692    13.4963   260.6694 </r>
       <r>     7.1346    15.2484   261.6673 </r>
       <r>     7.2001    13.8710   262.5750 </r>
       <r>     7.2655    12.8728   263.4173 </r>
       <r>     7.3309    16.0694   264.4689 </r>
       <r>     7.3964    22.9354   265.9697 </r>
       <r>     7.4618    28.1081   267.8091 </r>
       <r>     7.5273    26.5431   269.5460 </r>
       <r>     7.5927    18.9416   270.7855 </r>
       <r>     7.6581    11.5720   271.5428 </r>
       <r>     7.7236    11.1149   272.2701 </r>
       <r>     7.7890    19.6383   273.5552 </r>
       <r>     7.8544    33.1531   275.7247 </r>
       <r>     7.9199    44.1408   278.6132 </r>
       <r>     7.9853    46.6651   281.6669 </r>
       <r>     8.0508    40.8295   284.3387 </r>
       <r>     8.1162    32.7786   286.4837 </r>
       <r>     8.1816    29.8603   288.4377 </r>
       <r>     8.2471    35.3871   290.7534 </r>
       <r>     8.3125    47.3264   293.8503 </r>
       <r>     8.3780    60.4019   297.8029 </r>
       <r>     8.4434    68.7891   302.3044 </r>
       <r>     8.5088    68.4810   306.7856 </r>
       <r>     8.5743    59.1483   310.6562 </r>
       <r>     8.6397    44.3180   313.5563 </r>
       <r>     8.7051    29.3205   315.4750 </r>
       <r>     8.7706    18.3888   316.6783 </r>
       <r>     8.8360    13.0795   317.5342 </r>
       <r>     8.9015    12.7696   318.3699 </r>
       <r>     8.9669    15.6541   319.3942 </r>
       <r>     9.0323    18.8945   320.6307 </r>
       <r>     9.0978    19.2276   321.8889 </r>
       <r>     9.1632    15.1764   322.8820 </r>
       <r>     9.2287     8.5624   323.4423 </r>
       <r>     9.2941     2.8680   323.6300 </r>
       <r>     9.3595     0.1987   323.6430 </r>
       <r>     9.4250     0.1885   323.6553 </r>
       <r>     9.4904     1.1812   323.7326 </r>
       <r>     9.5558     1.7748   323.8488 </r>
       <r>     9.6213     1.5340   323.9492 </r>
       <r>     9.6867     0.8304   324.0035 </r>
       <r>     9.7522     0.2159   324.0176 </r>
       <r>     9.8176    -0.0683   324.0132 </r>
       <r>     9.8830    -0.1064   324.0062 </r>
       <r>     9.9485    -0.0622   324.0021 </r>
       <r>    10.0139    -0.0240   324.0006 </r>
       <r>    10.0793    -0.0068   324.0001 </r>
       <r>    10.1448    -0.0015   324.0000 </r>
       <r>    10.2102    -0.0002   324.0000 </r>
       <r>    10.2757    -0.0000   324.0000 </r>
       <r>    10.3411    -0.0000   324.0000 </r>
       <r>    10.4065    -0.0000   324.0000 </r>
       <r>    10.4720    -0.0000   324.0000 </r>
       <r>    10.5374    -0.0000   324.0000 </r>
       <r>    10.6029    -0.0000   324.0000 </r>
       <r>    10.6683    -0.0000   324.0000 </r>
       <r>    10.7337    -0.0000   324.0000 </r>
       <r>    10.7992    -0.0000   324.0000 </r>
       <r>    10.8646     0.0000   324.0000 </r>
       <r>    10.9300     0.0000   324.0000 </r>
       <r>    10.9955     0.0000   324.0000 </r>
       <r>    11.0609     0.0000   324.0000 </r>
       <r>    11.1264     0.0000   324.0000 </r>
       <r>    11.1918     0.0000   324.0000 </r>
       <r>    11.2572     0.0000   324.0000 </r>
       <r>    11.3227     0.0000   324.0000 </r>
       <r>    11.3881     0.0000   324.0000 </r>
       <r>    11.4536     0.0000   324.0000 </r>
       <r>    11.5190     0.0000   324.0000 </r>
      </set>
     </set>
    </array>
   </total>
  </dos>
 </calculation>
 <structure name="finalpos" >
  <crystal>
   <varray name="basis" >
    <v>      10.83855760       0.05365601       0.00000000 </v>
    <v>       0.05365601      10.73124558       0.00000000 </v>
    <v>       0.00000000       0.00000000      10.73124558 </v>
   </varray>
   <i name="volume">   1248.13340764 </i>
   <varray name="rec_basis" >
    <v>       0.09226548      -0.00046133       0.00000000 </v>
    <v>      -0.00046133       0.09318813       0.00000000 </v>
    <v>       0.00000000       0.00000000       0.09318583 </v>
   </varray>
  </crystal>
  <varray name="positions" >
   <v>       0.00000000       0.00000000       0.00036713 </v>
   <v>       0.00000000       0.00000000       0.50036713 </v>
   <v>       0.00000000       0.50000000       0.00036713 </v>
   <v>       0.00000000       0.50000000       0.50036713 </v>
   <v>       0.50000000       0.00000000       0.00036713 </v>
   <v>       0.50000000       0.00000000       0.50036713 </v>
   <v>       0.50000000       0.50000000       0.00036713 </v>
   <v>       0.50000000       0.50000000       0.50036713 </v>
   <v>       0.37500000       0.37500000       0.12463287 </v>
   <v>       0.37500000       0.37500000       0.62463287 </v>
   <v>       0.37500000       0.87500000       0.12463287 </v>
   <v>       0.37500000       0.87500000       0.62463287 </v>
   <v>       0.87500000       0.37500000       0.12463287 </v>
   <v>       0.87500000       0.37500000       0.62463287 </v>
   <v>       0.87500000       0.87500000       0.12463287 </v>
   <v>       0.87500000       0.87500000       0.62463287 </v>
   <v>       0.00000000       0.25000000       0.25036713 </v>
   <v>       0.00000000       0.25000000       0.75036713 </v>
   <v>       0.00000000       0.75000000       0.25036713 </v>
   <v>       0.00000000       0.75000000       0.75036713 </v>
   <v>       0.50000000       0.25000000       0.25036713 </v>
   <v>       0.50000000       0.25000000       0.75036713 </v>
   <v>       0.50000000       0.75000000       0.25036713 </v>
   <v>       0.50000000       0.75000000       0.75036713 </v>
   <v>       0.37500000       0.12500000       0.37463287 </v>
   <v>       0.37500000       0.12500000       0.87463287 </v>
   <v>       0.37500000       0.62500000       0.37463287 </v>
   <v>       0.37500000       0.62500000       0.87463287 </v>
   <v>       0.87500000       0.12500000       0.37463287 </v>
   <v>       0.87500000       0.12500000       0.87463287 </v>
   <v>       0.87500000       0.62500000       0.37463287 </v>
   <v>       0.87500000       0.62500000       0.87463287 </v>
   <v>       0.25000000       0.00000000       0.25036713 </v>
   <v>       0.25000000       0.00000000       0.75036713 </v>
   <v>       0.25000000       0.50000000       0.25036713 </v>
   <v>       0.25000000       0.50000000       0.75036713 </v>
   <v>       0.75000000       0.00000000       0.25036713 </v>
   <v>       0.75000000       0.00000000       0.75036713 </v>
   <v>       0.75000000       0.50000000       0.25036713 </v>
   <v>       0.75000000       0.50000000       0.75036713 </v>
   <v>       0.12500000       0.37500000       0.37463287 </v>
   <v>       0.12500000       0.37500000       0.87463287 </v>
   <v>       0.12500000       0.87500000       0.37463287 </v>
   <v>       0.12500000       0.87500000       0.87463287 </v>
   <v>       0.62500000       0.37500000       0.37463287 </v>
   <v>       0.62500000       0.37500000       0.87463287 </v>
   <v>       0.62500000       0.87500000       0.37463287 </v>
   <v>       0.62500000       0.87500000       0.87463287 </v>
   <v>       0.25000000       0.25000000       0.00036713 </v>
   <v>       0.25000000       0.25000000       0.50036713 </v>
   <v>       0.25000000       0.75000000       0.00036713 </v>
   <v>       0.25000000       0.75000000       0.50036713 </v>
   <v>       0.75000000       0.25000000       0.00036713 </v>
   <v>       0.75000000       0.25000000       0.50036713 </v>
   <v>       0.75000000       0.75000000       0.00036713 </v>
   <v>       0.75000000       0.75000000       0.50036713 </v>
   <v>       0.12500000       0.12500000       0.12463287 </v>
   <v>       0.12500000       0.12500000       0.62463287 </v>
   <v>       0.12500000       0.62500000       0.12463287 </v>
   <v>       0.12500000       0.62500000       0.62463287 </v>
   <v>       0.62500000       0.12500000       0.12463287 </v>
   <v>       0.62500000       0.12500000       0.62463287 </v>
   <v>       0.62500000       0.62500000       0.12463287 </v>
   <v>       0.62500000       0.62500000       0.62463287 </v>
  </varray>
 </structure>
</modeling>
