Si64                                    
           1
    10.838558    0.053656    0.000000
     0.053656   10.731246    0.000000
     0.000000    0.000000   10.731246
   Si
    64
Direct configuration=     1
   0.00000000  0.00000000  0.00000000
   0.00000000  0.00000000  0.50000000
   0.00000000  0.50000000  0.00000000
   0.00000000  0.50000000  0.50000000
   0.50000000  0.00000000  0.00000000
   0.50000000  0.00000000  0.50000000
   0.50000000  0.50000000  0.00000000
   0.50000000  0.50000000  0.50000000
   0.37500000  0.37500000  0.12500000
   0.37500000  0.37500000  0.62500000
   0.37500000  0.87500000  0.12500000
   0.37500000  0.87500000  0.62500000
   0.87500000  0.37500000  0.12500000
   0.87500000  0.37500000  0.62500000
   0.87500000  0.87500000  0.12500000
   0.87500000  0.87500000  0.62500000
   0.00000000  0.25000000  0.25000000
   0.00000000  0.25000000  0.75000000
   0.00000000  0.75000000  0.25000000
   0.00000000  0.75000000  0.75000000
   0.50000000  0.25000000  0.25000000
   0.50000000  0.25000000  0.75000000
   0.50000000  0.75000000  0.25000000
   0.50000000  0.75000000  0.75000000
   0.37500000  0.12500000  0.37500000
   0.37500000  0.12500000  0.87500000
   0.37500000  0.62500000  0.37500000
   0.37500000  0.62500000  0.87500000
   0.87500000  0.12500000  0.37500000
   0.87500000  0.12500000  0.87500000
   0.87500000  0.62500000  0.37500000
   0.87500000  0.62500000  0.87500000
   0.25000000  0.00000000  0.25000000
   0.25000000  0.00000000  0.75000000
   0.25000000  0.50000000  0.25000000
   0.25000000  0.50000000  0.75000000
   0.75000000  0.00000000  0.25000000
   0.75000000  0.00000000  0.75000000
   0.75000000  0.50000000  0.25000000
   0.75000000  0.50000000  0.75000000
   0.12500000  0.37500000  0.37500000
   0.12500000  0.37500000  0.87500000
   0.12500000  0.87500000  0.37500000
   0.12500000  0.87500000  0.87500000
   0.62500000  0.37500000  0.37500000
   0.62500000  0.37500000  0.87500000
   0.62500000  0.87500000  0.37500000
   0.62500000  0.87500000  0.87500000
   0.25000000  0.25000000  0.00000000
   0.25000000  0.25000000  0.50000000
   0.25000000  0.75000000  0.00000000
   0.25000000  0.75000000  0.50000000
   0.75000000  0.25000000  0.00000000
   0.75000000  0.25000000  0.50000000
   0.75000000  0.75000000  0.00000000
   0.75000000  0.75000000  0.50000000
   0.12500000  0.12500000  0.12500000
   0.12500000  0.12500000  0.62500000
   0.12500000  0.62500000  0.12500000
   0.12500000  0.62500000  0.62500000
   0.62500000  0.12500000  0.12500000
   0.62500000  0.12500000  0.62500000
   0.62500000  0.62500000  0.12500000
   0.62500000  0.62500000  0.62500000
Direct configuration=     2
   1.00000000  0.00000000  0.00050243
   0.00000000  0.00000000  0.50050243
   1.00000000  0.50000000  0.00050243
   1.00000000  0.50000000  0.50050243
   0.50000000  0.00000000  0.00050243
   0.50000000  0.00000000  0.50050243
   0.50000000  0.50000000  0.00050243
   0.50000000  0.50000000  0.50050243
   0.37500000  0.37500000  0.12449757
   0.37500000  0.37500000  0.62449757
   0.37500000  0.87500000  0.12449757
   0.37500000  0.87500000  0.62449757
   0.87500000  0.37500000  0.12449757
   0.87500000  0.37500000  0.62449757
   0.87500000  0.87500000  0.12449757
   0.87500000  0.87500000  0.62449757
   0.00000000  0.25000000  0.25050243
   1.00000000  0.25000000  0.75050243
   1.00000000  0.75000000  0.25050243
   1.00000000  0.75000000  0.75050243
   0.50000000  0.25000000  0.25050243
   0.50000000  0.25000000  0.75050243
   0.50000000  0.75000000  0.25050243
   0.50000000  0.75000000  0.75050243
   0.37500000  0.12500000  0.37449757
   0.37500000  0.12500000  0.87449757
   0.37500000  0.62500000  0.37449757
   0.37500000  0.62500000  0.87449757
   0.87500000  0.12500000  0.37449757
   0.87500000  0.12500000  0.87449757
   0.87500000  0.62500000  0.37449757
   0.87500000  0.62500000  0.87449757
   0.25000000  1.00000000  0.25050243
   0.25000000  1.00000000  0.75050243
   0.25000000  0.50000000  0.25050243
   0.25000000  0.50000000  0.75050243
   0.75000000  1.00000000  0.25050243
   0.75000000  1.00000000  0.75050243
   0.75000000  0.50000000  0.25050243
   0.75000000  0.50000000  0.75050243
   0.12500000  0.37500000  0.37449757
   0.12500000  0.37500000  0.87449757
   0.12500000  0.87500000  0.37449757
   0.12500000  0.87500000  0.87449757
   0.62500000  0.37500000  0.37449757
   0.62500000  0.37500000  0.87449757
   0.62500000  0.87500000  0.37449757
   0.62500000  0.87500000  0.87449757
   0.25000000  0.25000000  0.00050243
   0.25000000  0.25000000  0.50050243
   0.25000000  0.75000000  0.00050243
   0.25000000  0.75000000  0.50050243
   0.75000000  0.25000000  0.00050243
   0.75000000  0.25000000  0.50050243
   0.75000000  0.75000000  0.00050243
   0.75000000  0.75000000  0.50050243
   0.12500000  0.12500000  0.12449757
   0.12500000  0.12500000  0.62449757
   0.12500000  0.62500000  0.12449757
   0.12500000  0.62500000  0.62449757
   0.62500000  0.12500000  0.12449757
   0.62500000  0.12500000  0.62449757
   0.62500000  0.62500000  0.12449757
   0.62500000  0.62500000  0.62449757
Direct configuration=     3
   0.00000000  0.00000000  0.00036713
   0.00000000  0.00000000  0.50036713
   0.00000000  0.50000000  0.00036713
   0.00000000  0.50000000  0.50036713
   0.50000000  0.00000000  0.00036713
   0.50000000  0.00000000  0.50036713
   0.50000000  0.50000000  0.00036713
   0.50000000  0.50000000  0.50036713
   0.37500000  0.37500000  0.12463287
   0.37500000  0.37500000  0.62463287
   0.37500000  0.87500000  0.12463287
   0.37500000  0.87500000  0.62463287
   0.87500000  0.37500000  0.12463287
   0.87500000  0.37500000  0.62463287
   0.87500000  0.87500000  0.12463287
   0.87500000  0.87500000  0.62463287
   0.00000000  0.25000000  0.25036713
   0.00000000  0.25000000  0.75036713
   0.00000000  0.75000000  0.25036713
   0.00000000  0.75000000  0.75036713
   0.50000000  0.25000000  0.25036713
   0.50000000  0.25000000  0.75036713
   0.50000000  0.75000000  0.25036713
   0.50000000  0.75000000  0.75036713
   0.37500000  0.12500000  0.37463287
   0.37500000  0.12500000  0.87463287
   0.37500000  0.62500000  0.37463287
   0.37500000  0.62500000  0.87463287
   0.87500000  0.12500000  0.37463287
   0.87500000  0.12500000  0.87463287
   0.87500000  0.62500000  0.37463287
   0.87500000  0.62500000  0.87463287
   0.25000000  0.00000000  0.25036713
   0.25000000  0.00000000  0.75036713
   0.25000000  0.50000000  0.25036713
   0.25000000  0.50000000  0.75036713
   0.75000000  0.00000000  0.25036713
   0.75000000  0.00000000  0.75036713
   0.75000000  0.50000000  0.25036713
   0.75000000  0.50000000  0.75036713
   0.12500000  0.37500000  0.37463287
   0.12500000  0.37500000  0.87463287
   0.12500000  0.87500000  0.37463287
   0.12500000  0.87500000  0.87463287
   0.62500000  0.37500000  0.37463287
   0.62500000  0.37500000  0.87463287
   0.62500000  0.87500000  0.37463287
   0.62500000  0.87500000  0.87463287
   0.25000000  0.25000000  0.00036713
   0.25000000  0.25000000  0.50036713
   0.25000000  0.75000000  0.00036713
   0.25000000  0.75000000  0.50036713
   0.75000000  0.25000000  0.00036713
   0.75000000  0.25000000  0.50036713
   0.75000000  0.75000000  0.00036713
   0.75000000  0.75000000  0.50036713
   0.12500000  0.12500000  0.12463287
   0.12500000  0.12500000  0.62463287
   0.12500000  0.62500000  0.12463287
   0.12500000  0.62500000  0.62463287
   0.62500000  0.12500000  0.12463287
   0.62500000  0.12500000  0.62463287
   0.62500000  0.62500000  0.12463287
   0.62500000  0.62500000  0.62463287
