       N       E                     dE             d eps       ncg     rms          rms(c)
DAV:   1     0.572993157852E+03    0.57299E+03   -0.84911E+04  2592   0.107E+03
DAV:   2    -0.309317210213E+03   -0.88231E+03   -0.83643E+03  3088   0.175E+02
DAV:   3    -0.372661350601E+03   -0.63344E+02   -0.61997E+02  3128   0.413E+01
DAV:   4    -0.374283665456E+03   -0.16223E+01   -0.16094E+01  3120   0.801E+00
DAV:   5    -0.374335598654E+03   -0.51933E-01   -0.51820E-01  3072   0.133E+00    0.306E+01
RMM:   6    -0.368330845977E+03    0.60048E+01   -0.31458E+00  2592   0.279E+00    0.185E+01
RMM:   7    -0.365705162695E+03    0.26257E+01   -0.79690E+00  2658   0.442E+00    0.117E+00
RMM:   8    -0.365738703453E+03   -0.33541E-01   -0.72053E-01  2611   0.168E+00    0.534E-01
RMM:   9    -0.365761795394E+03   -0.23092E-01   -0.22065E-01  2671   0.818E-01    0.608E-01
RMM:  10    -0.365765867338E+03   -0.40719E-02   -0.38395E-02  2732   0.385E-01    0.782E-01
RMM:  11    -0.365761561951E+03    0.43054E-02   -0.13075E-02  2592   0.231E-01    0.717E-01
RMM:  12    -0.365761679850E+03   -0.11790E-03   -0.18799E-03  2607   0.103E-01    0.737E-01
RMM:  13    -0.365761746474E+03   -0.66625E-04   -0.36824E-04  2745   0.423E-02    0.794E-01
RMM:  14    -0.365761623273E+03    0.12320E-03   -0.11930E-04  2592   0.266E-02    0.467E-01
RMM:  15    -0.365761796176E+03   -0.17290E-03   -0.61645E-05  2614   0.158E-02    0.439E-01
RMM:  16    -0.365761934867E+03   -0.13869E-03   -0.51738E-05  2592   0.164E-02    0.350E-01
RMM:  17    -0.365761973265E+03   -0.38398E-04   -0.17561E-05  2592   0.109E-02    0.160E-01
RMM:  18    -0.365761986351E+03   -0.13086E-04   -0.77619E-06  2518   0.703E-03    0.464E-02
RMM:  19    -0.365761989618E+03   -0.32667E-05   -0.24727E-06  1688   0.386E-03    0.963E-03
RMM:  20    -0.365761990512E+03   -0.89381E-06   -0.50973E-07  1571   0.165E-03
   1 F= -.36576199E+03 E0= -.36577307E+03  d E =-.365762E+03
       N       E                     dE             d eps       ncg     rms          rms(c)
DAV:   1    -0.365764537391E+03   -0.25478E-02   -0.17656E-01  2984   0.810E-01    0.193E-01
RMM:   2    -0.365765395521E+03   -0.85813E-03   -0.88878E-03  2593   0.200E-01    0.774E-02
RMM:   3    -0.365765508066E+03   -0.11254E-03   -0.13771E-03  2639   0.887E-02    0.323E-02
RMM:   4    -0.365765504590E+03    0.34761E-05   -0.18458E-04  2631   0.366E-02    0.116E-02
RMM:   5    -0.365765506193E+03   -0.16026E-05   -0.34846E-05  2658   0.147E-02    0.264E-03
RMM:   6    -0.365765506987E+03   -0.79481E-06   -0.78573E-06  2170   0.645E-03    0.476E-04
RMM:   7    -0.365765507091E+03   -0.10388E-06   -0.11360E-06  1587   0.242E-03    0.495E-04
RMM:   8    -0.365765507110E+03   -0.18308E-07   -0.24647E-07  1332   0.111E-03
   2 F= -.36576551E+03 E0= -.36577616E+03  d E =-.351660E-02
       N       E                     dE             d eps       ncg     rms          rms(c)
DAV:   1    -0.365766411960E+03   -0.90487E-03   -0.18003E-02  2952   0.258E-01    0.614E-02
RMM:   2    -0.365766497624E+03   -0.85664E-04   -0.88358E-04  2592   0.636E-02    0.248E-02
RMM:   3    -0.365766508739E+03   -0.11115E-04   -0.13525E-04  2640   0.281E-02    0.102E-02
RMM:   4    -0.365766508453E+03    0.28581E-06   -0.17850E-05  2612   0.116E-02    0.368E-03
RMM:   5    -0.365766508605E+03   -0.15238E-06   -0.33620E-06  1853   0.463E-03    0.814E-04
RMM:   6    -0.365766508666E+03   -0.60683E-07   -0.71755E-07  1540   0.201E-03    0.181E-04
RMM:   7    -0.365766508681E+03   -0.15320E-07   -0.15997E-07  1129   0.935E-04    0.220E-04
RMM:   8    -0.365766508688E+03   -0.69986E-08   -0.34751E-08   737   0.573E-04
   3 F= -.36576651E+03 E0= -.36577735E+03  d E =-.451818E-02
