 vasp.6.4.3 19Mar24 (build Oct 21 2024 22:36:34) complex                        
  
 executed on             LinuxIFC date 2024.11.01  22:56:38
 running   96 mpi-ranks, on    1 nodes
 distrk:  each k-point on   24 cores,    4 groups
 distr:  one band on NCORE=  12 cores,    2 groups


--------------------------------------------------------------------------------------------------------


 INCAR:
   SYSTEM = Si64
   ISTART = 0
   ICHARG = 2
   LREAL = Auto
   PREC = Accurate
   LWAVE = .False.
   LCHARG = .False.
   ADDGRID = .True.
   ENCUT = 400
   GGA = PS
   GGA_COMPAT = .FALSE.
   ISMEAR = 1
   SIGMA = 0.2
   NELM = 60
   NELMIN = 8
   EDIFF = 1e-06
   EDIFFG = -0.01
   NSW = 60
   IBRION = 2
   ISIF = 2
   KPAR = 4
   NPAR = 2
   ALGO = Fast

 POTCAR:    PAW_PBE Si 05Jan2001                  
 POTCAR:    PAW_PBE Si 05Jan2001                  
   VRHFIN =Si: s2p2                                                                                 
   LEXCH  = PE                                                                                      
   EATOM  =   103.0669 eV,    7.5752 Ry                                                             
                                                                                                    
   TITEL  = PAW_PBE Si 05Jan2001                                                                    
   LULTRA =        F    use ultrasoft PP ?                                                          
   IUNSCR =        1    unscreen: 0-lin 1-nonlin 2-no                                               
   RPACOR =    1.500    partial core radius                                                         
   POMASS =   28.085; ZVAL   =    4.000    mass and valenz                                          
   RCORE  =    1.900    outmost cutoff radius                                                       
   RWIGS  =    2.480; RWIGS  =    1.312    wigner-seitz radius (au A)                               
   ENMAX  =  245.345; ENMIN  =  184.009 eV                                                          
   ICORE  =        2    local potential                                                             
   LCOR   =        T    correct aug charges                                                         
   LPAW   =        T    paw PP                                                                      
   EAUG   =  322.069                                                                                
   DEXC   =    0.000                                                                                
   RMAX   =    1.950    core radius for proj-oper                                                   
   RAUG   =    1.300    factor for augmentation sphere                                              
   RDEP   =    1.993    radius for radial grids                                                     
   RDEPT  =    1.837    core radius for aug-charge                                                  
                                                                                                    
   Atomic configuration                                                                             
    6 entries                                                                                       
     n  l   j            E        occ.                                                              
     1  0  0.50     -1785.8828   2.0000                                                             
     2  0  0.50      -139.4969   2.0000                                                             
     2  1  1.50       -95.5546   6.0000                                                             
     3  0  0.50       -10.8127   2.0000                                                             
     3  1  0.50        -4.0811   2.0000                                                             
     3  2  1.50        -4.0817   0.0000                                                             
   Description                                                                                      
     l       E           TYP  RCUT    TYP  RCUT                                                     
     0    -10.8127223     23  1.900                                                                 
     0     -7.6451159     23  1.900                                                                 
     1     -4.0811372     23  1.900                                                                 
     1      2.4879257     23  1.900                                                                 
     2     -4.0817478      7  1.900                                                                 
  local pseudopotential read in
  partial core-charges read in
  partial kinetic energy density read in
  atomic valenz-charges read in
  non local Contribution for L=           0  read in
    real space projection operators read in
  non local Contribution for L=           0  read in
    real space projection operators read in
  non local Contribution for L=           1  read in
    real space projection operators read in
  non local Contribution for L=           1  read in
    real space projection operators read in
    PAW grid and wavefunctions read in
 
   number of l-projection  operators is LMAX  =           4
   number of lm-projection operators is LMMAX =           8
 
 Optimization of the real space projectors (new method)

 maximal supplied QI-value         = 19.84
 optimisation between [QCUT,QGAM] = [ 10.12, 20.44] = [ 28.68,116.96] Ry 
 Optimized for a Real-space Cutoff    1.38 Angstroem

   l    n(q)    QCUT    max X(q) W(low)/X(q) W(high)/X(q)  e(spline) 
   0      8    10.119   159.560    0.58E-04    0.11E-03    0.54E-07
   0      8    10.119   115.863    0.56E-04    0.11E-03    0.54E-07
   1      8    10.119    88.339    0.22E-03    0.17E-03    0.19E-06
   1      8    10.119    48.592    0.22E-03    0.17E-03    0.18E-06
 -----------------------------------------------------------------------------
|                                                                             |
|               ----> ADVICE to this user running VASP <----                  |
|                                                                             |
|     You enforced a specific xc type in the INCAR file but a different       |
|     type was found in the POTCAR file.                                      |
|     I HOPE YOU KNOW WHAT YOU ARE DOING!                                     |
|                                                                             |
 -----------------------------------------------------------------------------

  PAW_PBE Si 05Jan2001                  :
 energy of atom  1       EATOM= -103.0669
 kinetic energy error for atom=    0.0012 (will be added to EATOM!!)
 
 
 POSCAR: Si8
  positions in direct lattice
  velocities in cartesian coordinates


 exchange-correlation table for PS
   RHO(1)=    0.500       N(1)  =     2000
   RHO(2)=  100.500       N(2)  =     4000
 


--------------------------------------------------------------------------------------------------------


 ion  position               nearest neighbor table
   1  0.000  0.000  0.000-  30 2.30  44 2.30  15 2.30  57 2.30
   2  0.000  0.000  0.500-  29 2.30  43 2.30  16 2.30  58 2.30
   3  0.000  0.500  0.000-  32 2.30  42 2.30  13 2.30  59 2.30
   4  0.000  0.500  0.500-  31 2.30  41 2.30  14 2.30  60 2.30
   5  0.500  0.000  0.000-  26 2.30  48 2.30  11 2.30  61 2.30
   6  0.500  0.000  0.500-  25 2.30  47 2.30  12 2.30  62 2.30
   7  0.500  0.500  0.000-  28 2.30  46 2.30   9 2.30  63 2.30
   8  0.500  0.500  0.500-  27 2.30  45 2.30  10 2.30  64 2.30
   9  0.375  0.375  0.125-  21 2.30  35 2.30   7 2.30  49 2.30
  10  0.375  0.375  0.625-  22 2.30  36 2.30   8 2.30  50 2.30
  11  0.375  0.875  0.125-  23 2.30  33 2.30   5 2.30  51 2.30
  12  0.375  0.875  0.625-  24 2.30  34 2.30   6 2.30  52 2.30
  13  0.875  0.375  0.125-  17 2.30  39 2.30   3 2.30  53 2.30
  14  0.875  0.375  0.625-  18 2.30  40 2.30   4 2.30  54 2.30
  15  0.875  0.875  0.125-  19 2.30  37 2.30   1 2.30  55 2.30
  16  0.875  0.875  0.625-  20 2.30  38 2.30   2 2.30  56 2.30
  17  0.000  0.250  0.250-  13 2.30  57 2.30  41 2.30  29 2.30
  18  0.000  0.250  0.750-  14 2.30  58 2.30  42 2.30  30 2.30
  19  0.000  0.750  0.250-  15 2.30  59 2.30  43 2.30  31 2.30
  20  0.000  0.750  0.750-  16 2.30  60 2.30  44 2.30  32 2.30
  21  0.500  0.250  0.250-   9 2.30  61 2.30  45 2.30  25 2.30
  22  0.500  0.250  0.750-  10 2.30  62 2.30  46 2.30  26 2.30
  23  0.500  0.750  0.250-  11 2.30  63 2.30  47 2.30  27 2.30
  24  0.500  0.750  0.750-  12 2.30  64 2.30  48 2.30  28 2.30
  25  0.375  0.125  0.375-   6 2.30  50 2.30  33 2.30  21 2.30
  26  0.375  0.125  0.875-   5 2.30  49 2.30  34 2.30  22 2.30
  27  0.375  0.625  0.375-   8 2.30  52 2.30  35 2.30  23 2.30
  28  0.375  0.625  0.875-   7 2.30  51 2.30  36 2.30  24 2.30
  29  0.875  0.125  0.375-   2 2.30  54 2.30  37 2.30  17 2.30
  30  0.875  0.125  0.875-   1 2.30  53 2.30  38 2.30  18 2.30
  31  0.875  0.625  0.375-   4 2.30  56 2.30  39 2.30  19 2.30
  32  0.875  0.625  0.875-   3 2.30  55 2.30  40 2.30  20 2.30
  33  0.250  0.000  0.250-  11 2.30  57 2.30  43 2.30  25 2.30
  34  0.250  0.000  0.750-  12 2.30  58 2.30  44 2.30  26 2.30
  35  0.250  0.500  0.250-   9 2.30  59 2.30  41 2.30  27 2.30
  36  0.250  0.500  0.750-  10 2.30  60 2.30  42 2.30  28 2.30
  37  0.750  0.000  0.250-  15 2.30  61 2.30  47 2.30  29 2.30
  38  0.750  0.000  0.750-  16 2.30  62 2.30  48 2.30  30 2.30
  39  0.750  0.500  0.250-  13 2.30  63 2.30  45 2.30  31 2.30
  40  0.750  0.500  0.750-  14 2.30  64 2.30  46 2.30  32 2.30
  41  0.125  0.375  0.375-   4 2.30  50 2.30  35 2.30  17 2.30
  42  0.125  0.375  0.875-   3 2.30  49 2.30  36 2.30  18 2.30
  43  0.125  0.875  0.375-   2 2.30  52 2.30  33 2.30  19 2.30
  44  0.125  0.875  0.875-   1 2.30  51 2.30  34 2.30  20 2.30
  45  0.625  0.375  0.375-   8 2.30  54 2.30  39 2.30  21 2.30
  46  0.625  0.375  0.875-   7 2.30  53 2.30  40 2.30  22 2.30
  47  0.625  0.875  0.375-   6 2.30  56 2.30  37 2.30  23 2.30
  48  0.625  0.875  0.875-   5 2.30  55 2.30  38 2.30  24 2.30
  49  0.250  0.250  0.000-  26 2.30  42 2.30   9 2.30  57 2.30
  50  0.250  0.250  0.500-  25 2.30  41 2.30  10 2.30  58 2.30
  51  0.250  0.750  0.000-  28 2.30  44 2.30  11 2.30  59 2.30
  52  0.250  0.750  0.500-  27 2.30  43 2.30  12 2.30  60 2.30
  53  0.750  0.250  0.000-  30 2.30  46 2.30  13 2.30  61 2.30
  54  0.750  0.250  0.500-  29 2.30  45 2.30  14 2.30  62 2.30
  55  0.750  0.750  0.000-  32 2.30  48 2.30  15 2.30  63 2.30
  56  0.750  0.750  0.500-  31 2.30  47 2.30  16 2.30  64 2.30
  57  0.125  0.125  0.125-  17 2.30  33 2.30   1 2.30  49 2.30
  58  0.125  0.125  0.625-  18 2.30  34 2.30   2 2.30  50 2.30
  59  0.125  0.625  0.125-  19 2.30  35 2.30   3 2.30  51 2.30
  60  0.125  0.625  0.625-  20 2.30  36 2.30   4 2.30  52 2.30
  61  0.625  0.125  0.125-  21 2.30  37 2.30   5 2.30  53 2.30
  62  0.625  0.125  0.625-  22 2.30  38 2.30   6 2.30  54 2.30
  63  0.625  0.625  0.125-  23 2.30  39 2.30   7 2.30  55 2.30
  64  0.625  0.625  0.625-  24 2.30  40 2.30   8 2.30  56 2.30
 
  LATTYP: Found a simple monoclinic cell.
 ALAT       =    10.6101067229
 B/A-ratio  =     0.9999968751
 C/A-ratio  =     1.0050000291
 COS(beta)  =    -0.0049874972
  
  Lattice vectors:
  
 A1 = (   0.0265250039,  10.6100735669,   0.0000000000)
 A2 = (   0.0000000000,   0.0000000000, -10.6100735669)
 A3 = ( -10.6631245747,  -0.0265250039,   0.0000000000)


Analysis of symmetry for initial positions (statically):
=====================================================================
 Subroutine PRICEL returns following result:
 
  LATTYP: Found a base centered monoclinic cell.
 ALAT       =     5.3050533614
 B/A-ratio  =     0.9999968751
 C/A-ratio  =     0.7071068146
 COS(beta)  =    -0.7035624213
  
  Lattice vectors:
  
 A1 = (   0.0066312510,   2.6525183917,  -2.6525183917)
 A2 = (   0.0066312510,   2.6525183917,   2.6525183917)
 A3 = (   2.6591498927,  -2.6458871407,   0.0000000000)
 
  32 primitive cells build up your supercell.
 

 Routine SETGRP: Setting up the symmetry group for a 
 simple monoclinic supercell.


 Subroutine GETGRP returns: Found  4 space group operations
 (whereof  2 operations were pure point group operations)
 out of a pool of  4 trial point group operations.


The static configuration has the point symmetry C_2 .
 The point group associated with its full space group is C_2h.


Analysis of symmetry for dynamics (positions and initial velocities):
=====================================================================
 Subroutine PRICEL returns following result:
 
  LATTYP: Found a base centered monoclinic cell.
 ALAT       =     5.3050533614
 B/A-ratio  =     0.9999968751
 C/A-ratio  =     0.7071068146
 COS(beta)  =    -0.7035624213
  
  Lattice vectors:
  
 A1 = (   0.0066312510,   2.6525183917,  -2.6525183917)
 A2 = (   0.0066312510,   2.6525183917,   2.6525183917)
 A3 = (   2.6591498927,  -2.6458871407,   0.0000000000)
 
  32 primitive cells build up your supercell.
 

 Routine SETGRP: Setting up the symmetry group for a 
 simple monoclinic supercell.


 Subroutine GETGRP returns: Found  4 space group operations
 (whereof  2 operations were pure point group operations)
 out of a pool of  4 trial point group operations.


The dynamic configuration has the point symmetry C_2 .
 The point group associated with its full space group is C_2h.


 Subroutine INISYM returns: Found  4 space group operations
 (whereof  2 operations are pure point group operations),
 and found    32 'primitive' translations


----------------------------------------------------------------------------------------

                                     Primitive cell                                     

  volume of cell :      37.5119

  direct lattice vectors                    reciprocal lattice vectors
     0.006631251  2.652518392 -2.652518392     0.187094545  0.188032374 -0.188500107
     0.006631251  2.652518392  2.652518392     0.187094545  0.188032374  0.188500107
     2.659149893 -2.645887141  0.000000000     0.375126901 -0.000937811  0.000000000

  length of vectors
     3.751233345  3.751233345  3.751239384     0.325411789  0.325411789  0.375128073

  position of ions in fractional coordinates (direct lattice)
     0.000000000  0.000000000  0.000000000
     0.250000000  0.750000000  0.500000000

  ion indices of the primitive-cell ions
   primitive index   ion index
                 1           1
                 2          15

----------------------------------------------------------------------------------------

 
 
 KPOINTS: Automatic mesh                          

Automatic generation of k-mesh.
 Grid dimensions read from file:
 generate k-points for:    2    2    2

 Generating k-lattice:

  Cartesian coordinates                     Fractional coordinates (reciprocal lattice)
     0.046890863 -0.000117226  0.000000000     0.500000000 -0.000000000  0.000000000
    -0.000117226  0.047125320  0.000000000    -0.000000000  0.500000000  0.000000000
     0.000000000  0.000000000  0.047125027     0.000000000  0.000000000  0.500000000

  Length of vectors
     0.046891009  0.047125466  0.047125027

  Shift w.r.t. Gamma in fractional coordinates (k-lattice)
     0.000000000  0.000000000  0.000000000

 
 Subroutine IBZKPT returns following result:
 ===========================================
 
 Found      8 irreducible k-points:
 
 Following reciprocal coordinates:
            Coordinates               Weight
  0.000000  0.000000  0.000000      1.000000
  0.500000  0.000000  0.000000      1.000000
  0.000000  0.500000  0.000000      1.000000
  0.500000  0.500000  0.000000      1.000000
  0.000000  0.000000  0.500000      1.000000
  0.500000  0.000000  0.500000      1.000000
  0.000000  0.500000  0.500000      1.000000
  0.500000  0.500000  0.500000      1.000000
 
 Following cartesian coordinates:
            Coordinates               Weight
  0.000000  0.000000  0.000000      1.000000
  0.046891 -0.000117  0.000000      1.000000
 -0.000117  0.047125  0.000000      1.000000
  0.046774  0.047008  0.000000      1.000000
  0.000000  0.000000  0.047125      1.000000
  0.046891 -0.000117  0.047125      1.000000
 -0.000117  0.047125  0.047125      1.000000
  0.046774  0.047008  0.047125      1.000000
 


--------------------------------------------------------------------------------------------------------




 Dimension of arrays:
   k-points           NKPTS =      8   k-points in BZ     NKDIM =      8   number of bands    NBANDS=    162
   number of dos      NEDOS =    301   number of ions     NIONS =     64
   non local maximal  LDIM  =      4   non local SUM 2l+1 LMDIM =      8
   total plane-waves  NPLWV = 343000
   max r-space proj   IRMAX =   3199   max aug-charges    IRDMAX=  76621
   dimension x,y,z NGX =    70 NGY =   70 NGZ =   70
   dimension x,y,z NGXF=   140 NGYF=  140 NGZF=  140
   support grid    NGXF=   280 NGYF=  280 NGZF=  280
   ions per type =              64
   NGX,Y,Z   is equivalent  to a cutoff of  10.91, 10.97, 10.97 a.u.
   NGXF,Y,Z  is equivalent  to a cutoff of  21.83, 21.94, 21.94 a.u.

 SYSTEM =  Si64                                    
 POSCAR =  Si8                                     

 Startparameter for this run:
   NWRITE =      2    write-flag & timer
   PREC   = accura    normal or accurate (medium, high low for compatibility)
   ISTART =      0    job   : 0-new  1-cont  2-samecut
   ICHARG =      2    charge: 1-file 2-atom 10-const
   ISPIN  =      1    spin polarized calculation?
   LNONCOLLINEAR =      F non collinear calculations
   LSORBIT =      F    spin-orbit coupling
   INIWAV =      1    electr: 0-lowe 1-rand  2-diag
   LASPH  =      F    aspherical Exc in radial PAW
 Electronic Relaxation 1
   ENCUT  =  400.0 eV  29.40 Ry    5.42 a.u.  17.39 17.30 17.30*2*pi/ulx,y,z
   ENINI  =  400.0     initial cutoff
   ENAUG  =  322.1 eV  augmentation charge cutoff
   NELM   =     60;   NELMIN=  8; NELMDL= -5     # of ELM steps 
   EDIFF  = 0.1E-05   stopping-criterion for ELM
   LREAL  =      T    real-space projection
   NLSPLINE    = F    spline interpolate recip. space projectors
   LCOMPAT=      F    compatible to vasp.4.4
   GGA_COMPAT  = F    GGA compatible to vasp.4.4-vasp.4.6
   LMAXPAW     = -100 max onsite density
   LMAXMIX     =    2 max onsite mixed and CHGCAR
   VOSKOWN=      0    Vosko Wilk Nusair interpolation
   ROPT   =   -0.00025
 Ionic relaxation
   EDIFFG = -.1E-01   stopping-criterion for IOM
   NSW    =     60    number of steps for IOM
   NBLOCK =      1;   KBLOCK =     60    inner block; outer block 
   IBRION =      2    ionic relax: 0-MD 1-quasi-New 2-CG
   NFREE  =      1    steps in history (QN), initial steepest desc. (CG)
   ISIF   =      2    stress and relaxation
   IWAVPR =     11    prediction:  0-non 1-charg 2-wave 3-comb
   ISYM   =      2    0-nonsym 1-usesym 2-fastsym
   LCORR  =      T    Harris-Foulkes like correction to forces

   POTIM  = 0.5000    time-step for ionic-motion
   TEIN   =    0.0    initial temperature
   TEBEG  =    0.0;   TEEND  =   0.0 temperature during run
   SMASS  =  -3.00    Nose mass-parameter (am)
   estimated Nose-frequenzy (Omega)   =  0.10E-29 period in steps = 0.13E+47 mass=  -0.260E-26a.u.
   SCALEE = 1.0000    scale energy and forces
   NPACO  =    256;   APACO  = 10.0  distance and # of slots for P.C.
   PSTRESS=    0.0 pullay stress

  Mass of Ions in am
   POMASS =  28.09
  Ionic Valenz
   ZVAL   =   4.00
  Atomic Wigner-Seitz radii
   RWIGS  =  -1.00
  virtual crystal weights 
   VCA    =   1.00
   NELECT =     256.0000    total number of electrons
   NUPDOWN=      -1.0000    fix difference up-down

 DOS related values:
   EMIN   =  10.00;   EMAX   =-10.00  energy-range for DOS
   EFERMI =   0.00;   METHOD = LEGACY      
   ISMEAR =     1;   SIGMA  =   0.20  broadening in eV -4-tet -1-fermi 0-gaus

 Electronic relaxation 2 (details)
   IALGO  =     68    algorithm
   LDIAG  =      T    sub-space diagonalisation (order eigenvalues)
   LSUBROT=      F    optimize rotation matrix (better conditioning)
   TURBO    =      0    0=normal 1=particle mesh
   IRESTART =      0    0=no restart 2=restart with 2 vectors
   NREBOOT  =      0    no. of reboots
   NMIN     =      0    reboot dimension
   EREF     =   0.00    reference energy to select bands
   IMIX   =      4    mixing-type and parameters
     AMIX     =   0.40;   BMIX     =  1.00
     AMIX_MAG =   1.60;   BMIX_MAG =  1.00
     AMIN     =   0.10
     WC   =   100.;   INIMIX=   1;  MIXPRE=   1;  MAXMIX= -45

 Intra band minimization:
   WEIMIN = 0.0010     energy-eigenvalue tresh-hold
   EBREAK =  0.15E-08  absolut break condition
   DEPER  =   0.30     relativ break condition  

   TIME   =   0.40     timestep for ELM

  volume/ion in A,a.u.               =      18.76       126.57
  Fermi-wavevector in a.u.,A,eV,Ry     =   0.978097  1.848335 13.016339  0.956674
  Thomas-Fermi vector in A             =   2.108846
 
 Write flags
   LWAVE        =      F    write WAVECAR
   LDOWNSAMPLE  =      F    k-point downsampling of WAVECAR
   LCHARG       =      F    write CHGCAR
   LVTOT        =      F    write LOCPOT, total local potential
   LVHAR        =      F    write LOCPOT, Hartree potential only
   WRT_POTENTIAL= false  ! write potential to hdf5 file
   LELF         =      F    write electronic localiz. function (ELF)
   LORBIT       =      0    0 simple, 1 ext, 2 COOP (PROOUT), +10 PAW based schemes


 Dipole corrections
   LMONO      =      F    monopole corrections only (constant potential shift)
   LDIPOL     =      F    correct potential (dipole corrections)
   IDIPOL     =      0    1-x, 2-y, 3-z, 4-all directions 
   EPSILON    =  1.0000000 bulk dielectric constant
   LVACPOTAV  =      F  vacuum potentials using an averaging scheme for the charge density
   VACPOTFLAT =  0.1000000 required flatness to determine vacuum potential
 Exchange correlation treatment:
   GGA     = PS    functional components
   XC_C    = 1    coefficients multiplying the functional components
   LIBXC   =     F    Libxc                    
   VOSKOWN =     0    Vosko Wilk Nusair interpolation
   LHFCALC =     F    Hartree Fock is set to
   LHFONE  =     F    Hartree Fock one center treatment
   AEXX    =    0.0000 exact exchange contribution

 Parameters of functionals:
   PS:
     No parameter
 
 Van der Waals corrections
   IVDW    =     0    specifies the selected vdW correction

 Linear response parameters
   LEPSILON=     F    determine dielectric tensor
   LRPA    =     F    only Hartree local field effects (RPA)
   LNABLA  =     F    use nabla operator in PAW spheres
   LVEL    =     F    velocity operator in full k-point grid
   CSHIFT  =0.1000    complex shift for real part using Kramers Kronig
   OMEGAMAX=  -1.0    maximum frequency
   DEG_THRESHOLD= 0.2000000E-02 threshold for treating states as degnerate
   RTIME   =   -0.100 relaxation time in fs
  (WPLASMAI=    0.000 imaginary part of plasma frequency in eV, 0.658/RTIME)
   DFIELD  = 0.0000000 0.0000000 0.0000000 field for delta impulse in time
 
  Optional k-point grid parameters
   LKPOINTS_OPT  =     F    use optional k-point grid
   KPOINTS_OPT_MODE=     1    mode for optional k-point grid
 
 Orbital magnetization related:
   ORBITALMAG=     F  switch on orbital magnetization
   LCHIMAG   =     F  perturbation theory with respect to B field
   DQ        =  0.001000  dq finite difference perturbation B field
   LLRAUG    =     F  two centre corrections for induced B field
   LBONE     =     F  B-component reconstruction in AE one-centre
   LVGVCALC  =     T  calculate vGv susceptibility
   LVGVAPPL  =     F  apply vGv susceptibility instead of pGv for G=0

 Random number generation:
   RANDOM_GENERATOR = DEFAULT
   PCG_SEED         = not used


--------------------------------------------------------------------------------------------------------


 conjugate gradient relaxation of ions
 charge density and potential will be updated during run
 non-spin polarized calculation
 RMM-DIIS sequential band-by-band and
  variant of blocked Davidson during initial phase
 perform sub-space diagonalisation
    before iterative eigenvector-optimisation
 modified Broyden-mixing scheme, WC =      100.0
 initial mixing is a Kerker type mixing with AMIX =  0.4000 and BMIX =      1.0000
 Hartree-type preconditioning will be used
 using additional bands           34
 real space projection scheme for non local part
 use partial core corrections
 calculate Harris-corrections to forces 
   (improved forces if not selfconsistent)
 use gradient corrections 
 use of overlap-Matrix (Vanderbilt PP)
 Methfessel and Paxton  Order N= 1 SIGMA  =   0.20


--------------------------------------------------------------------------------------------------------


  energy-cutoff  :      400.00
  volume of cell :     1200.38
      direct lattice vectors                 reciprocal lattice vectors
    10.663124575  0.026525004  0.000000000     0.093781725 -0.000234453  0.000000000
     0.026525004 10.610073567  0.000000000    -0.000234453  0.094250640  0.000000000
     0.000000000  0.000000000 10.610073567     0.000000000  0.000000000  0.094250053

  length of vectors
    10.663157566 10.610106723 10.610073567     0.093782018  0.094250931  0.094250053


 
 k-points in units of 2pi/SCALE and weight: Automatic mesh                          
   0.00000000  0.00000000  0.00000000       0.125
   0.04689087 -0.00011723  0.00000000       0.125
  -0.00011723  0.04712533  0.00000000       0.125
   0.04677364  0.04700810  0.00000000       0.125
   0.00000000  0.00000000  0.04712503       0.125
   0.04689087 -0.00011723  0.04712503       0.125
  -0.00011723  0.04712533  0.04712503       0.125
   0.04677364  0.04700810  0.04712503       0.125
 
 k-points in reciprocal lattice and weights: Automatic mesh                          
   0.00000000  0.00000000  0.00000000       0.125
   0.50000000  0.00000000  0.00000000       0.125
   0.00000000  0.50000000  0.00000000       0.125
   0.50000000  0.50000000  0.00000000       0.125
   0.00000000  0.00000000  0.50000000       0.125
   0.50000000  0.00000000  0.50000000       0.125
   0.00000000  0.50000000  0.50000000       0.125
   0.50000000  0.50000000  0.50000000       0.125
 
 position of ions in fractional coordinates (direct lattice) 
   0.00000000  0.00000000  0.00000000
   0.00000000  0.00000000  0.50000000
   0.00000000  0.50000000  0.00000000
   0.00000000  0.50000000  0.50000000
   0.50000000  0.00000000  0.00000000
   0.50000000  0.00000000  0.50000000
   0.50000000  0.50000000  0.00000000
   0.50000000  0.50000000  0.50000000
   0.37500000  0.37500000  0.12500000
   0.37500000  0.37500000  0.62500000
   0.37500000  0.87500000  0.12500000
   0.37500000  0.87500000  0.62500000
   0.87500000  0.37500000  0.12500000
   0.87500000  0.37500000  0.62500000
   0.87500000  0.87500000  0.12500000
   0.87500000  0.87500000  0.62500000
   0.00000000  0.25000000  0.25000000
   0.00000000  0.25000000  0.75000000
   0.00000000  0.75000000  0.25000000
   0.00000000  0.75000000  0.75000000
   0.50000000  0.25000000  0.25000000
   0.50000000  0.25000000  0.75000000
   0.50000000  0.75000000  0.25000000
   0.50000000  0.75000000  0.75000000
   0.37500000  0.12500000  0.37500000
   0.37500000  0.12500000  0.87500000
   0.37500000  0.62500000  0.37500000
   0.37500000  0.62500000  0.87500000
   0.87500000  0.12500000  0.37500000
   0.87500000  0.12500000  0.87500000
   0.87500000  0.62500000  0.37500000
   0.87500000  0.62500000  0.87500000
   0.25000000  0.00000000  0.25000000
   0.25000000  0.00000000  0.75000000
   0.25000000  0.50000000  0.25000000
   0.25000000  0.50000000  0.75000000
   0.75000000  0.00000000  0.25000000
   0.75000000  0.00000000  0.75000000
   0.75000000  0.50000000  0.25000000
   0.75000000  0.50000000  0.75000000
   0.12500000  0.37500000  0.37500000
   0.12500000  0.37500000  0.87500000
   0.12500000  0.87500000  0.37500000
   0.12500000  0.87500000  0.87500000
   0.62500000  0.37500000  0.37500000
   0.62500000  0.37500000  0.87500000
   0.62500000  0.87500000  0.37500000
   0.62500000  0.87500000  0.87500000
   0.25000000  0.25000000  0.00000000
   0.25000000  0.25000000  0.50000000
   0.25000000  0.75000000  0.00000000
   0.25000000  0.75000000  0.50000000
   0.75000000  0.25000000  0.00000000
   0.75000000  0.25000000  0.50000000
   0.75000000  0.75000000  0.00000000
   0.75000000  0.75000000  0.50000000
   0.12500000  0.12500000  0.12500000
   0.12500000  0.12500000  0.62500000
   0.12500000  0.62500000  0.12500000
   0.12500000  0.62500000  0.62500000
   0.62500000  0.12500000  0.12500000
   0.62500000  0.12500000  0.62500000
   0.62500000  0.62500000  0.12500000
   0.62500000  0.62500000  0.62500000
 
 position of ions in cartesian coordinates  (Angst):
   0.00000000  0.00000000  0.00000000
   0.00000000  0.00000000  5.30503678
   0.01326250  5.30503678  0.00000000
   0.01326250  5.30503678  5.30503678
   5.33156229  0.01326250  0.00000000
   5.33156229  0.01326250  5.30503678
   5.34482479  5.31829929  0.00000000
   5.34482479  5.31829929  5.30503678
   4.00861859  3.98872446  1.32625920
   4.00861859  3.98872446  6.63129598
   4.02188109  9.29376125  1.32625920
   4.02188109  9.29376125  6.63129598
   9.34018088  4.00198697  1.32625920
   9.34018088  4.00198697  6.63129598
   9.35344338  9.30702375  1.32625920
   9.35344338  9.30702375  6.63129598
   0.00663125  2.65251839  2.65251839
   0.00663125  2.65251839  7.95755518
   0.01989375  7.95755518  2.65251839
   0.01989375  7.95755518  7.95755518
   5.33819354  2.66578089  2.65251839
   5.33819354  2.66578089  7.95755518
   5.35145604  7.97081768  2.65251839
   5.35145604  7.97081768  7.95755518
   4.00198734  1.33620607  3.97877759
   4.00198734  1.33620607  9.28381437
   4.01524984  6.64124286  3.97877759
   4.01524984  6.64124286  9.28381437
   9.33354963  1.34946857  3.97877759
   9.33354963  1.34946857  9.28381437
   9.34681213  6.65450536  3.97877759
   9.34681213  6.65450536  9.28381437
   2.66578114  0.00663125  2.65251839
   2.66578114  0.00663125  7.95755518
   2.67904365  5.31166803  2.65251839
   2.67904365  5.31166803  7.95755518
   7.99734343  0.01989375  2.65251839
   7.99734343  0.01989375  7.95755518
   8.01060593  5.32493054  2.65251839
   8.01060593  5.32493054  7.95755518
   1.34283745  3.98209321  3.97877759
   1.34283745  3.98209321  9.28381437
   1.35609995  9.28713000  3.97877759
   1.35609995  9.28713000  9.28381437
   6.67439974  3.99535572  3.97877759
   6.67439974  3.99535572  9.28381437
   6.68766224  9.30039250  3.97877759
   6.68766224  9.30039250  9.28381437
   2.67241239  2.65914964  0.00000000
   2.67241239  2.65914964  5.30503678
   2.68567490  7.96418643  0.00000000
   2.68567490  7.96418643  5.30503678
   8.00397468  2.67241214  0.00000000
   8.00397468  2.67241214  5.30503678
   8.01723718  7.97744893  0.00000000
   8.01723718  7.97744893  5.30503678
   1.33620620  1.32957482  1.32625920
   1.33620620  1.32957482  6.63129598
   1.34946870  6.63461160  1.32625920
   1.34946870  6.63461160  6.63129598
   6.66776848  1.34283732  1.32625920
   6.66776848  1.34283732  6.63129598
   6.68103099  6.64787411  1.32625920
   6.68103099  6.64787411  6.63129598
 


--------------------------------------------------------------------------------------------------------


 k-point     1 :   0.0000 0.0000 0.0000  plane waves:   21879
 k-point     2 :   0.5000 0.0000 0.0000  plane waves:   21790
 k-point     3 :   0.0000 0.5000 0.0000  plane waves:   21798
 k-point     4 :   0.5000 0.5000 0.0000  plane waves:   21782
 k-point     5 :   0.0000 0.0000 0.5000  plane waves:   21786
 k-point     6 :   0.5000 0.0000 0.5000  plane waves:   21760
 k-point     7 :   0.0000 0.5000 0.5000  plane waves:   21792
 k-point     8 :   0.5000 0.5000 0.5000  plane waves:   21844

 maximum and minimum number of plane-waves per node :      1854     1790

 maximum number of plane-waves:     21879
 maximum index in each direction: 
   IXMAX=   17   IYMAX=   17   IZMAX=   17
   IXMIN=  -17   IYMIN=  -17   IZMIN=  -17


 real space projection operators:
  total allocation   :      12207.50 KBytes
  max/ min on nodes  :       1059.75        881.25


 parallel 3D FFT for wavefunctions:
    minimum data exchange during FFTs selected (reduces bandwidth)
 parallel 3D FFT for charge:
    minimum data exchange during FFTs selected (reduces bandwidth)


 total amount of memory used by VASP MPI-rank0    79116. kBytes
=======================================================================

   base      :      30000. kBytes
   nonlr-proj:       4714. kBytes
   fftplans  :      17991. kBytes
   grid      :       6881. kBytes
   one-center:         18. kBytes
   wavefun   :      19512. kBytes
 
     INWAV:  cpu time      0.0000: real time      0.0004
 Broyden mixing: mesh for mixing (old mesh)
   NGX = 35   NGY = 35   NGZ = 35
  (NGX  =140   NGY  =140   NGZ  =140)
  gives a total of  42875 points

 initial charge density was supplied:
 charge density of overlapping atoms calculated
 number of electron     256.0000000 magnetization 
 keeping initial charge density in first step


--------------------------------------------------------------------------------------------------------


 Maximum index for non-local projection operator          282
 Maximum index for augmentation-charges         3786 (set IRDMAX)


--------------------------------------------------------------------------------------------------------


 First call to EWALD:  gamma=   0.167
 Maximum number of real-space cells 3x 3x 3
 Maximum number of reciprocal cells 3x 3x 3

    FEWALD:  cpu time      0.0035: real time      0.0035


--------------------------------------- Ionic step        1  -------------------------------------------




--------------------------------------- Iteration      1(   1)  ---------------------------------------


    POTLOK:  cpu time      0.0822: real time      0.0857
    SETDIJ:  cpu time      0.0806: real time      0.0810
     EDDAV:  cpu time      1.2500: real time      1.3183
       DOS:  cpu time      0.0044: real time      0.0045
    --------------------------------------------
      LOOP:  cpu time      1.4172: real time      1.4895

 eigenvalue-minimisations  :  2592
 total energy-change (2. order) : 0.5729932E+03  (-0.8491107E+04)
 number of electron     256.0000000 magnetization 
 augmentation part      256.0000000 magnetization 

 Free energy of the ion-electron system (eV)
  ---------------------------------------------------
  alpha Z        PSCENC =       114.86715905
  Ewald energy   TEWEN  =     -7473.89344473
  -Hartree energ DENC   =      -321.58455134
  -exchange      EXHF   =         0.00000000
  -V(xc)+E(xc)   XCENC  =      -550.82847867
  PAW double counting   =      5598.62625415    -4492.17844134
  entropy T*S    EENTRO =         0.03515697
  eigenvalues    EBANDS =      1133.15364277
  atomic energy  EATOM  =      6564.79586099
  Solvation  Ediel_sol  =         0.00000000
  ---------------------------------------------------
  free energy    TOTEN  =       572.99315785 eV

  energy without entropy =      572.95800088  energy(sigma->0) =      572.98143886


--------------------------------------------------------------------------------------------------------




--------------------------------------- Iteration      1(   2)  ---------------------------------------


     EDDAV:  cpu time      1.3250: real time      1.3371
       DOS:  cpu time      0.0011: real time      0.0011
    --------------------------------------------
      LOOP:  cpu time      1.3261: real time      1.3382

 eigenvalue-minimisations  :  3088
 total energy-change (2. order) :-0.8823104E+03  (-0.8364343E+03)
 number of electron     256.0000000 magnetization 
 augmentation part      256.0000000 magnetization 

 Free energy of the ion-electron system (eV)
  ---------------------------------------------------
  alpha Z        PSCENC =       114.86715905
  Ewald energy   TEWEN  =     -7473.89344473
  -Hartree energ DENC   =      -321.58455134
  -exchange      EXHF   =         0.00000000
  -V(xc)+E(xc)   XCENC  =      -550.82847867
  PAW double counting   =      5598.62625415    -4492.17844134
  entropy T*S    EENTRO =        -0.00612431
  eigenvalues    EBANDS =       250.88455599
  atomic energy  EATOM  =      6564.79586099
  Solvation  Ediel_sol  =         0.00000000
  ---------------------------------------------------
  free energy    TOTEN  =      -309.31721021 eV

  energy without entropy =     -309.31108590  energy(sigma->0) =     -309.31516878


--------------------------------------------------------------------------------------------------------




--------------------------------------- Iteration      1(   3)  ---------------------------------------


     EDDAV:  cpu time      1.3322: real time      1.3462
       DOS:  cpu time      0.0013: real time      0.0013
    --------------------------------------------
      LOOP:  cpu time      1.3336: real time      1.3476

 eigenvalue-minimisations  :  3128
 total energy-change (2. order) :-0.6334414E+02  (-0.6199718E+02)
 number of electron     256.0000000 magnetization 
 augmentation part      256.0000000 magnetization 

 Free energy of the ion-electron system (eV)
  ---------------------------------------------------
  alpha Z        PSCENC =       114.86715905
  Ewald energy   TEWEN  =     -7473.89344473
  -Hartree energ DENC   =      -321.58455134
  -exchange      EXHF   =         0.00000000
  -V(xc)+E(xc)   XCENC  =      -550.82847867
  PAW double counting   =      5598.62625415    -4492.17844134
  entropy T*S    EENTRO =         0.00733188
  eigenvalues    EBANDS =       187.52695942
  atomic energy  EATOM  =      6564.79586099
  Solvation  Ediel_sol  =         0.00000000
  ---------------------------------------------------
  free energy    TOTEN  =      -372.66135060 eV

  energy without entropy =     -372.66868248  energy(sigma->0) =     -372.66379456


--------------------------------------------------------------------------------------------------------




--------------------------------------- Iteration      1(   4)  ---------------------------------------


     EDDAV:  cpu time      1.3126: real time      1.3268
       DOS:  cpu time      0.0011: real time      0.0011
    --------------------------------------------
      LOOP:  cpu time      1.3137: real time      1.3280

 eigenvalue-minimisations  :  3120
 total energy-change (2. order) :-0.1622315E+01  (-0.1609376E+01)
 number of electron     256.0000000 magnetization 
 augmentation part      256.0000000 magnetization 

 Free energy of the ion-electron system (eV)
  ---------------------------------------------------
  alpha Z        PSCENC =       114.86715905
  Ewald energy   TEWEN  =     -7473.89344473
  -Hartree energ DENC   =      -321.58455134
  -exchange      EXHF   =         0.00000000
  -V(xc)+E(xc)   XCENC  =      -550.82847867
  PAW double counting   =      5598.62625415    -4492.17844134
  entropy T*S    EENTRO =         0.00804048
  eigenvalues    EBANDS =       185.90393596
  atomic energy  EATOM  =      6564.79586099
  Solvation  Ediel_sol  =         0.00000000
  ---------------------------------------------------
  free energy    TOTEN  =      -374.28366546 eV

  energy without entropy =     -374.29170593  energy(sigma->0) =     -374.28634561


--------------------------------------------------------------------------------------------------------




--------------------------------------- Iteration      1(   5)  ---------------------------------------


     EDDAV:  cpu time      1.2933: real time      1.3042
       DOS:  cpu time      0.0013: real time      0.0013
    CHARGE:  cpu time      0.2667: real time      0.2684
    MIXING:  cpu time      0.0071: real time      0.0072
    --------------------------------------------
      LOOP:  cpu time      1.5685: real time      1.5811

 eigenvalue-minimisations  :  3072
 total energy-change (2. order) :-0.5193320E-01  (-0.5181963E-01)
 number of electron     255.9999999 magnetization 
 augmentation part      -15.1198449 magnetization 

 Broyden mixing:
  rms(total) = 0.30609E+01    rms(broyden)= 0.30609E+01
  rms(prec ) = 0.33697E+01
  weight for this iteration     100.00

 Free energy of the ion-electron system (eV)
  ---------------------------------------------------
  alpha Z        PSCENC =       114.86715905
  Ewald energy   TEWEN  =     -7473.89344473
  -Hartree energ DENC   =      -321.58455134
  -exchange      EXHF   =         0.00000000
  -V(xc)+E(xc)   XCENC  =      -550.82847867
  PAW double counting   =      5598.62625415    -4492.17844134
  entropy T*S    EENTRO =         0.00802825
  eigenvalues    EBANDS =       185.85201499
  atomic energy  EATOM  =      6564.79586099
  Solvation  Ediel_sol  =         0.00000000
  ---------------------------------------------------
  free energy    TOTEN  =      -374.33559865 eV

  energy without entropy =     -374.34362690  energy(sigma->0) =     -374.33827474


--------------------------------------------------------------------------------------------------------




--------------------------------------- Iteration      1(   6)  ---------------------------------------


    POTLOK:  cpu time      0.0723: real time      0.0876
    SETDIJ:  cpu time      0.0741: real time      0.0743
    EDDIAG:  cpu time      0.1333: real time      0.1340
  RMM-DIIS:  cpu time      0.6912: real time      0.6931
    ORTHCH:  cpu time      0.0197: real time      0.0198
       DOS:  cpu time      0.0026: real time      0.0026
    CHARGE:  cpu time      0.2591: real time      0.2597
    MIXING:  cpu time      0.0064: real time      0.0083
    --------------------------------------------
      LOOP:  cpu time      1.2587: real time      1.2795

 eigenvalue-minimisations  :  2592
 total energy-change (2. order) : 0.6004753E+01  (-0.3145760E+00)
 number of electron     255.9999999 magnetization 
 augmentation part      -14.9334201 magnetization 

 Broyden mixing:
  rms(total) = 0.18472E+01    rms(broyden)= 0.18472E+01
  rms(prec ) = 0.20203E+01
  weight for this iteration     100.00

 eigenvalues of (default mixing * dielectric matrix)
  average eigenvalue GAMMA=   2.5157
  2.5157

 Free energy of the ion-electron system (eV)
  ---------------------------------------------------
  alpha Z        PSCENC =       114.86715905
  Ewald energy   TEWEN  =     -7473.89344473
  -Hartree energ DENC   =      -371.07214228
  -exchange      EXHF   =         0.00000000
  -V(xc)+E(xc)   XCENC  =      -542.98417511
  PAW double counting   =     13281.75733674   -12179.30208753
  entropy T*S    EENTRO =         0.01294189
  eigenvalues    EBANDS =       237.48770500
  atomic energy  EATOM  =      6564.79586099
  Solvation  Ediel_sol  =         0.00000000
  ---------------------------------------------------
  free energy    TOTEN  =      -368.33084598 eV

  energy without entropy =     -368.34378787  energy(sigma->0) =     -368.33515994


--------------------------------------------------------------------------------------------------------




--------------------------------------- Iteration      1(   7)  ---------------------------------------


    POTLOK:  cpu time      0.0729: real time      0.0864
    SETDIJ:  cpu time      0.0735: real time      0.0737
    EDDIAG:  cpu time      0.1335: real time      0.1345
  RMM-DIIS:  cpu time      0.7025: real time      0.7044
    ORTHCH:  cpu time      0.0202: real time      0.0202
       DOS:  cpu time      0.0026: real time      0.0026
    CHARGE:  cpu time      0.2609: real time      0.2615
    MIXING:  cpu time      0.0059: real time      0.0059
    --------------------------------------------
      LOOP:  cpu time      1.2720: real time      1.2892

 eigenvalue-minimisations  :  2658
 total energy-change (2. order) : 0.2625683E+01  (-0.7968967E+00)
 number of electron     255.9999999 magnetization 
 augmentation part      -14.6699965 magnetization 

 Broyden mixing:
  rms(total) = 0.11660E+00    rms(broyden)= 0.11660E+00
  rms(prec ) = 0.14609E+00
  weight for this iteration     100.00

 eigenvalues of (default mixing * dielectric matrix)
  average eigenvalue GAMMA=   2.2934
  2.2934  2.2934

 Free energy of the ion-electron system (eV)
  ---------------------------------------------------
  alpha Z        PSCENC =       114.86715905
  Ewald energy   TEWEN  =     -7473.89344473
  -Hartree energ DENC   =      -452.55609591
  -exchange      EXHF   =         0.00000000
  -V(xc)+E(xc)   XCENC  =      -529.48138467
  PAW double counting   =     32314.99762808   -31218.15041748
  entropy T*S    EENTRO =         0.03022749
  eigenvalues    EBANDS =       313.68530448
  atomic energy  EATOM  =      6564.79586099
  Solvation  Ediel_sol  =         0.00000000
  ---------------------------------------------------
  free energy    TOTEN  =      -365.70516269 eV

  energy without entropy =     -365.73539018  energy(sigma->0) =     -365.71523852


--------------------------------------------------------------------------------------------------------




--------------------------------------- Iteration      1(   8)  ---------------------------------------


    POTLOK:  cpu time      0.0732: real time      0.0873
    SETDIJ:  cpu time      0.0758: real time      0.0760
    EDDIAG:  cpu time      0.1339: real time      0.1346
  RMM-DIIS:  cpu time      0.7041: real time      0.7062
    ORTHCH:  cpu time      0.0204: real time      0.0205
       DOS:  cpu time      0.0026: real time      0.0026
    CHARGE:  cpu time      0.2621: real time      0.2627
    MIXING:  cpu time      0.0050: real time      0.0051
    --------------------------------------------
      LOOP:  cpu time      1.2771: real time      1.2951

 eigenvalue-minimisations  :  2611
 total energy-change (2. order) :-0.3354076E-01  (-0.7205282E-01)
 number of electron     255.9999999 magnetization 
 augmentation part      -14.7285053 magnetization 

 Broyden mixing:
  rms(total) = 0.53449E-01    rms(broyden)= 0.53449E-01
  rms(prec ) = 0.57210E-01
  weight for this iteration     100.00

 eigenvalues of (default mixing * dielectric matrix)
  average eigenvalue GAMMA=   2.0994
  2.5555  1.8713  1.8713

 Free energy of the ion-electron system (eV)
  ---------------------------------------------------
  alpha Z        PSCENC =       114.86715905
  Ewald energy   TEWEN  =     -7473.89344473
  -Hartree energ DENC   =      -443.48034441
  -exchange      EXHF   =         0.00000000
  -V(xc)+E(xc)   XCENC  =      -530.24071390
  PAW double counting   =     32100.69570103   -31002.76905015
  entropy T*S    EENTRO =         0.03316502
  eigenvalues    EBANDS =       304.25296365
  atomic energy  EATOM  =      6564.79586099
  Solvation  Ediel_sol  =         0.00000000
  ---------------------------------------------------
  free energy    TOTEN  =      -365.73870345 eV

  energy without entropy =     -365.77186847  energy(sigma->0) =     -365.74975846


--------------------------------------------------------------------------------------------------------




--------------------------------------- Iteration      1(   9)  ---------------------------------------


    POTLOK:  cpu time      0.0748: real time      0.0886
    SETDIJ:  cpu time      0.0738: real time      0.0740
    EDDIAG:  cpu time      0.1328: real time      0.1336
  RMM-DIIS:  cpu time      0.7461: real time      0.7516
    ORTHCH:  cpu time      0.0203: real time      0.0204
       DOS:  cpu time      0.0017: real time      0.0017
    CHARGE:  cpu time      0.2600: real time      0.2606
    MIXING:  cpu time      0.0053: real time      0.0054
    --------------------------------------------
      LOOP:  cpu time      1.3149: real time      1.3359

 eigenvalue-minimisations  :  2671
 total energy-change (2. order) :-0.2309194E-01  (-0.2206538E-01)
 number of electron     255.9999999 magnetization 
 augmentation part      -14.7135781 magnetization 

 Broyden mixing:
  rms(total) = 0.60754E-01    rms(broyden)= 0.60754E-01
  rms(prec ) = 0.69283E-01
  weight for this iteration     100.00

 eigenvalues of (default mixing * dielectric matrix)
  average eigenvalue GAMMA=   1.9925
  2.5422  2.4796  2.4796  0.4688

 Free energy of the ion-electron system (eV)
  ---------------------------------------------------
  alpha Z        PSCENC =       114.86715905
  Ewald energy   TEWEN  =     -7473.89344473
  -Hartree energ DENC   =      -446.91729797
  -exchange      EXHF   =         0.00000000
  -V(xc)+E(xc)   XCENC  =      -529.78340776
  PAW double counting   =     32524.42422949   -31426.79855670
  entropy T*S    EENTRO =         0.03272326
  eigenvalues    EBANDS =       307.51093898
  atomic energy  EATOM  =      6564.79586099
  Solvation  Ediel_sol  =         0.00000000
  ---------------------------------------------------
  free energy    TOTEN  =      -365.76179539 eV

  energy without entropy =     -365.79451865  energy(sigma->0) =     -365.77270315


--------------------------------------------------------------------------------------------------------




--------------------------------------- Iteration      1(  10)  ---------------------------------------


    POTLOK:  cpu time      0.0729: real time      0.0887
    SETDIJ:  cpu time      0.0737: real time      0.0739
    EDDIAG:  cpu time      0.1325: real time      0.1328
  RMM-DIIS:  cpu time      0.7197: real time      0.7215
    ORTHCH:  cpu time      0.0206: real time      0.0206
       DOS:  cpu time      0.0021: real time      0.0021
    CHARGE:  cpu time      0.2620: real time      0.2626
    MIXING:  cpu time      0.0049: real time      0.0049
    --------------------------------------------
      LOOP:  cpu time      1.2882: real time      1.3070

 eigenvalue-minimisations  :  2732
 total energy-change (2. order) :-0.4071944E-02  (-0.3839465E-02)
 number of electron     255.9999999 magnetization 
 augmentation part      -14.7199929 magnetization 

 Broyden mixing:
  rms(total) = 0.78186E-01    rms(broyden)= 0.78186E-01
  rms(prec ) = 0.85754E-01
  weight for this iteration     100.00

 eigenvalues of (default mixing * dielectric matrix)
  average eigenvalue GAMMA=   1.5343
  2.6330  2.0446  2.0446  0.6269  0.3224

 Free energy of the ion-electron system (eV)
  ---------------------------------------------------
  alpha Z        PSCENC =       114.86715905
  Ewald energy   TEWEN  =     -7473.89344473
  -Hartree energ DENC   =      -446.99199407
  -exchange      EXHF   =         0.00000000
  -V(xc)+E(xc)   XCENC  =      -529.77515528
  PAW double counting   =     32542.53973879   -31444.91733882
  entropy T*S    EENTRO =         0.03270370
  eigenvalues    EBANDS =       307.57660303
  atomic energy  EATOM  =      6564.79586099
  Solvation  Ediel_sol  =         0.00000000
  ---------------------------------------------------
  free energy    TOTEN  =      -365.76586734 eV

  energy without entropy =     -365.79857104  energy(sigma->0) =     -365.77676857


--------------------------------------------------------------------------------------------------------




--------------------------------------- Iteration      1(  11)  ---------------------------------------


    POTLOK:  cpu time      0.0744: real time      0.0880
    SETDIJ:  cpu time      0.0722: real time      0.0724
    EDDIAG:  cpu time      0.1310: real time      0.1313
  RMM-DIIS:  cpu time      0.6871: real time      0.6891
    ORTHCH:  cpu time      0.0199: real time      0.0200
       DOS:  cpu time      0.0017: real time      0.0017
    CHARGE:  cpu time      0.2587: real time      0.2594
    MIXING:  cpu time      0.0054: real time      0.0054
    --------------------------------------------
      LOOP:  cpu time      1.2505: real time      1.2673

 eigenvalue-minimisations  :  2592
 total energy-change (2. order) : 0.4305387E-02  (-0.1307503E-02)
 number of electron     255.9999999 magnetization 
 augmentation part      -14.7346785 magnetization 

 Broyden mixing:
  rms(total) = 0.71658E-01    rms(broyden)= 0.71658E-01
  rms(prec ) = 0.72357E-01
  weight for this iteration     100.00

 eigenvalues of (default mixing * dielectric matrix)
  average eigenvalue GAMMA=   1.3713
  2.5003  2.5003  1.5378  0.7251  0.7251  0.2389

 Free energy of the ion-electron system (eV)
  ---------------------------------------------------
  alpha Z        PSCENC =       114.86715905
  Ewald energy   TEWEN  =     -7473.89344473
  -Hartree energ DENC   =      -444.32828601
  -exchange      EXHF   =         0.00000000
  -V(xc)+E(xc)   XCENC  =      -529.97390432
  PAW double counting   =     32517.22161416   -31419.32380853
  entropy T*S    EENTRO =         0.03319864
  eigenvalues    EBANDS =       304.84004881
  atomic energy  EATOM  =      6564.79586099
  Solvation  Ediel_sol  =         0.00000000
  ---------------------------------------------------
  free energy    TOTEN  =      -365.76156195 eV

  energy without entropy =     -365.79476059  energy(sigma->0) =     -365.77262816


--------------------------------------------------------------------------------------------------------




--------------------------------------- Iteration      1(  12)  ---------------------------------------


    POTLOK:  cpu time      0.0724: real time      0.0886
    SETDIJ:  cpu time      0.0761: real time      0.0763
    EDDIAG:  cpu time      0.1316: real time      0.1319
  RMM-DIIS:  cpu time      0.6875: real time      0.6894
    ORTHCH:  cpu time      0.0201: real time      0.0201
       DOS:  cpu time      0.0017: real time      0.0017
    CHARGE:  cpu time      0.2598: real time      0.2605
    MIXING:  cpu time      0.0054: real time      0.0055
    --------------------------------------------
      LOOP:  cpu time      1.2547: real time      1.2739

 eigenvalue-minimisations  :  2607
 total energy-change (2. order) :-0.1178992E-03  (-0.1879924E-03)
 number of electron     255.9999999 magnetization 
 augmentation part      -14.7379823 magnetization 

 Broyden mixing:
  rms(total) = 0.73713E-01    rms(broyden)= 0.73713E-01
  rms(prec ) = 0.74224E-01
  weight for this iteration     100.00

 eigenvalues of (default mixing * dielectric matrix)
  average eigenvalue GAMMA=   1.2397
  2.5051  2.5051  1.5516  0.7922  0.7922  0.2692  0.2622

 Free energy of the ion-electron system (eV)
  ---------------------------------------------------
  alpha Z        PSCENC =       114.86715905
  Ewald energy   TEWEN  =     -7473.89344473
  -Hartree energ DENC   =      -444.14541929
  -exchange      EXHF   =         0.00000000
  -V(xc)+E(xc)   XCENC  =      -530.00364883
  PAW double counting   =     32441.01360136   -31343.12336703
  entropy T*S    EENTRO =         0.03320878
  eigenvalues    EBANDS =       304.69436984
  atomic energy  EATOM  =      6564.79586099
  Solvation  Ediel_sol  =         0.00000000
  ---------------------------------------------------
  free energy    TOTEN  =      -365.76167985 eV

  energy without entropy =     -365.79488863  energy(sigma->0) =     -365.77274944


--------------------------------------------------------------------------------------------------------




--------------------------------------- Iteration      1(  13)  ---------------------------------------


    POTLOK:  cpu time      0.0732: real time      0.0878
    SETDIJ:  cpu time      0.0784: real time      0.0786
    EDDIAG:  cpu time      0.1306: real time      0.1310
  RMM-DIIS:  cpu time      0.7230: real time      0.7251
    ORTHCH:  cpu time      0.0203: real time      0.0203
       DOS:  cpu time      0.0024: real time      0.0024
    CHARGE:  cpu time      0.2590: real time      0.2596
    MIXING:  cpu time      0.0055: real time      0.0055
    --------------------------------------------
      LOOP:  cpu time      1.2923: real time      1.3103

 eigenvalue-minimisations  :  2745
 total energy-change (2. order) :-0.6662462E-04  (-0.3682369E-04)
 number of electron     255.9999999 magnetization 
 augmentation part      -14.7385088 magnetization 

 Broyden mixing:
  rms(total) = 0.79373E-01    rms(broyden)= 0.79373E-01
  rms(prec ) = 0.79845E-01
  weight for this iteration     100.00

 eigenvalues of (default mixing * dielectric matrix)
  average eigenvalue GAMMA=   1.6609
  2.9473  2.9473  2.4854  1.9498  1.0021  0.8325  0.8325  0.2898

 Free energy of the ion-electron system (eV)
  ---------------------------------------------------
  alpha Z        PSCENC =       114.86715905
  Ewald energy   TEWEN  =     -7473.89344473
  -Hartree energ DENC   =      -444.17414780
  -exchange      EXHF   =         0.00000000
  -V(xc)+E(xc)   XCENC  =      -529.99692932
  PAW double counting   =     32480.71411144   -31382.82389097
  entropy T*S    EENTRO =         0.03320884
  eigenvalues    EBANDS =       304.71632602
  atomic energy  EATOM  =      6564.79586099
  Solvation  Ediel_sol  =         0.00000000
  ---------------------------------------------------
  free energy    TOTEN  =      -365.76174647 eV

  energy without entropy =     -365.79495532  energy(sigma->0) =     -365.77281609


--------------------------------------------------------------------------------------------------------




--------------------------------------- Iteration      1(  14)  ---------------------------------------


    POTLOK:  cpu time      0.0812: real time      0.0961
    SETDIJ:  cpu time      0.0711: real time      0.0713
    EDDIAG:  cpu time      0.1320: real time      0.1324
  RMM-DIIS:  cpu time      0.6853: real time      0.6890
    ORTHCH:  cpu time      0.0200: real time      0.0200
       DOS:  cpu time      0.0045: real time      0.0046
    CHARGE:  cpu time      0.2592: real time      0.2604
    MIXING:  cpu time      0.0053: real time      0.0053
    --------------------------------------------
      LOOP:  cpu time      1.2586: real time      1.2790

 eigenvalue-minimisations  :  2592
 total energy-change (2. order) : 0.1232011E-03  (-0.1193011E-04)
 number of electron     255.9999999 magnetization 
 augmentation part      -14.7391457 magnetization 

 Broyden mixing:
  rms(total) = 0.46673E-01    rms(broyden)= 0.46673E-01
  rms(prec ) = 0.47287E-01
  weight for this iteration     100.00

 eigenvalues of (default mixing * dielectric matrix)
  average eigenvalue GAMMA=   1.4582
  2.6333  2.5141  2.5141  1.6408  0.9665  0.9665  0.8471  0.7507  0.2913

 Free energy of the ion-electron system (eV)
  ---------------------------------------------------
  alpha Z        PSCENC =       114.86715905
  Ewald energy   TEWEN  =     -7473.89344473
  -Hartree energ DENC   =      -443.85322662
  -exchange      EXHF   =         0.00000000
  -V(xc)+E(xc)   XCENC  =      -530.05053338
  PAW double counting   =     32158.70981648   -31060.85391510
  entropy T*S    EENTRO =         0.03321873
  eigenvalues    EBANDS =       304.48344131
  atomic energy  EATOM  =      6564.79586099
  Solvation  Ediel_sol  =         0.00000000
  ---------------------------------------------------
  free energy    TOTEN  =      -365.76162327 eV

  energy without entropy =     -365.79484200  energy(sigma->0) =     -365.77269618


--------------------------------------------------------------------------------------------------------




--------------------------------------- Iteration      1(  15)  ---------------------------------------


    POTLOK:  cpu time      0.0800: real time      0.0970
    SETDIJ:  cpu time      0.0710: real time      0.0712
    EDDIAG:  cpu time      0.1323: real time      0.1328
  RMM-DIIS:  cpu time      0.6854: real time      0.7076
    ORTHCH:  cpu time      0.0199: real time      0.0201
       DOS:  cpu time      0.0030: real time      0.0030
    CHARGE:  cpu time      0.2558: real time      0.2602
    MIXING:  cpu time      0.0057: real time      0.0057
    --------------------------------------------
      LOOP:  cpu time      1.2530: real time      1.2976

 eigenvalue-minimisations  :  2614
 total energy-change (2. order) :-0.1729031E-03  (-0.6164479E-05)
 number of electron     255.9999999 magnetization 
 augmentation part      -14.7395914 magnetization 

 Broyden mixing:
  rms(total) = 0.43872E-01    rms(broyden)= 0.43872E-01
  rms(prec ) = 0.44310E-01
  weight for this iteration     100.00

 eigenvalues of (default mixing * dielectric matrix)
  average eigenvalue GAMMA=   1.4111
  2.6132  2.6132  2.4353  1.3531  1.0326  1.0326  0.8666  0.9372  0.9372  0.2905

 Free energy of the ion-electron system (eV)
  ---------------------------------------------------
  alpha Z        PSCENC =       114.86715905
  Ewald energy   TEWEN  =     -7473.89344473
  -Hartree energ DENC   =      -443.84974418
  -exchange      EXHF   =         0.00000000
  -V(xc)+E(xc)   XCENC  =      -530.04020920
  PAW double counting   =     32194.83052694   -31096.96597418
  entropy T*S    EENTRO =         0.03323196
  eigenvalues    EBANDS =       304.46079716
  atomic energy  EATOM  =      6564.79586099
  Solvation  Ediel_sol  =         0.00000000
  ---------------------------------------------------
  free energy    TOTEN  =      -365.76179618 eV

  energy without entropy =     -365.79502813  energy(sigma->0) =     -365.77287349


--------------------------------------------------------------------------------------------------------




--------------------------------------- Iteration      1(  16)  ---------------------------------------


    POTLOK:  cpu time      0.0830: real time      0.1013
    SETDIJ:  cpu time      0.0698: real time      0.0701
    EDDIAG:  cpu time      0.1385: real time      0.1395
  RMM-DIIS:  cpu time      0.6888: real time      0.6923
    ORTHCH:  cpu time      0.0204: real time      0.0204
       DOS:  cpu time      0.0020: real time      0.0021
    CHARGE:  cpu time      0.2598: real time      0.2616
    MIXING:  cpu time      0.0074: real time      0.0075
    --------------------------------------------
      LOOP:  cpu time      1.2698: real time      1.2948

 eigenvalue-minimisations  :  2592
 total energy-change (2. order) :-0.1386902E-03  (-0.5173814E-05)
 number of electron     255.9999999 magnetization 
 augmentation part      -14.7388631 magnetization 

 Broyden mixing:
  rms(total) = 0.34989E-01    rms(broyden)= 0.34989E-01
  rms(prec ) = 0.35206E-01
  weight for this iteration     100.00

 eigenvalues of (default mixing * dielectric matrix)
  average eigenvalue GAMMA=   1.4684
  2.6800  2.6800  2.3359  2.0029  1.3040  1.3040  0.9189  0.9189  0.8586  0.8586
  0.2906

 Free energy of the ion-electron system (eV)
  ---------------------------------------------------
  alpha Z        PSCENC =       114.86715905
  Ewald energy   TEWEN  =     -7473.89344473
  -Hartree energ DENC   =      -444.09405962
  -exchange      EXHF   =         0.00000000
  -V(xc)+E(xc)   XCENC  =      -530.01405840
  PAW double counting   =     32214.55666547   -31116.69532365
  entropy T*S    EENTRO =         0.03322808
  eigenvalues    EBANDS =       304.68203795
  atomic energy  EATOM  =      6564.79586099
  Solvation  Ediel_sol  =         0.00000000
  ---------------------------------------------------
  free energy    TOTEN  =      -365.76193487 eV

  energy without entropy =     -365.79516294  energy(sigma->0) =     -365.77301089


--------------------------------------------------------------------------------------------------------




--------------------------------------- Iteration      1(  17)  ---------------------------------------


    POTLOK:  cpu time      0.0762: real time      0.0892
    SETDIJ:  cpu time      0.0745: real time      0.0749
    EDDIAG:  cpu time      0.1319: real time      0.1325
  RMM-DIIS:  cpu time      0.6821: real time      0.6859
    ORTHCH:  cpu time      0.0199: real time      0.0199
       DOS:  cpu time      0.0024: real time      0.0025
    CHARGE:  cpu time      0.2595: real time      0.2608
    MIXING:  cpu time      0.0075: real time      0.0075
    --------------------------------------------
      LOOP:  cpu time      1.2541: real time      1.2733

 eigenvalue-minimisations  :  2592
 total energy-change (2. order) :-0.3839796E-04  (-0.1756072E-05)
 number of electron     255.9999999 magnetization 
 augmentation part      -14.7385584 magnetization 

 Broyden mixing:
  rms(total) = 0.16049E-01    rms(broyden)= 0.16049E-01
  rms(prec ) = 0.16171E-01
  weight for this iteration     100.00

 eigenvalues of (default mixing * dielectric matrix)
  average eigenvalue GAMMA=   1.5984
  2.0070  2.0070  2.7647  2.7647  2.5031  2.1443  1.0125  1.0125  0.8976  0.8976
  0.8794  0.2906

 Free energy of the ion-electron system (eV)
  ---------------------------------------------------
  alpha Z        PSCENC =       114.86715905
  Ewald energy   TEWEN  =     -7473.89344473
  -Hartree energ DENC   =      -444.12565146
  -exchange      EXHF   =         0.00000000
  -V(xc)+E(xc)   XCENC  =      -530.02139367
  PAW double counting   =     32101.78071092   -31003.92150072
  entropy T*S    EENTRO =         0.03323182
  eigenvalues    EBANDS =       304.72305454
  atomic energy  EATOM  =      6564.79586099
  Solvation  Ediel_sol  =         0.00000000
  ---------------------------------------------------
  free energy    TOTEN  =      -365.76197326 eV

  energy without entropy =     -365.79520508  energy(sigma->0) =     -365.77305054


--------------------------------------------------------------------------------------------------------




--------------------------------------- Iteration      1(  18)  ---------------------------------------


    POTLOK:  cpu time      0.0825: real time      0.0936
    SETDIJ:  cpu time      0.0698: real time      0.0701
    EDDIAG:  cpu time      0.1321: real time      0.1327
  RMM-DIIS:  cpu time      0.6684: real time      0.6720
    ORTHCH:  cpu time      0.0202: real time      0.0203
       DOS:  cpu time      0.0015: real time      0.0015
    CHARGE:  cpu time      0.2595: real time      0.2606
    MIXING:  cpu time      0.0064: real time      0.0064
    --------------------------------------------
      LOOP:  cpu time      1.2403: real time      1.2573

 eigenvalue-minimisations  :  2518
 total energy-change (2. order) :-0.1308645E-04  (-0.7761878E-06)
 number of electron     255.9999999 magnetization 
 augmentation part      -14.7383533 magnetization 

 Broyden mixing:
  rms(total) = 0.46442E-02    rms(broyden)= 0.46442E-02
  rms(prec ) = 0.47082E-02
  weight for this iteration     100.00

 eigenvalues of (default mixing * dielectric matrix)
  average eigenvalue GAMMA=   1.8896
  5.5928  3.1789  2.4865  2.4399  2.4399  1.6783  1.6783  0.2906  1.2040  0.8822
  0.8822  0.9147  0.8966

 Free energy of the ion-electron system (eV)
  ---------------------------------------------------
  alpha Z        PSCENC =       114.86715905
  Ewald energy   TEWEN  =     -7473.89344473
  -Hartree energ DENC   =      -444.13782887
  -exchange      EXHF   =         0.00000000
  -V(xc)+E(xc)   XCENC  =      -530.02569020
  PAW double counting   =     32037.19520551   -30939.33652249
  entropy T*S    EENTRO =         0.03323516
  eigenvalues    EBANDS =       304.74003923
  atomic energy  EATOM  =      6564.79586099
  Solvation  Ediel_sol  =         0.00000000
  ---------------------------------------------------
  free energy    TOTEN  =      -365.76198635 eV

  energy without entropy =     -365.79522151  energy(sigma->0) =     -365.77306474


--------------------------------------------------------------------------------------------------------




--------------------------------------- Iteration      1(  19)  ---------------------------------------


    POTLOK:  cpu time      0.0784: real time      0.0968
    SETDIJ:  cpu time      0.0696: real time      0.0698
    EDDIAG:  cpu time      0.1324: real time      0.1331
  RMM-DIIS:  cpu time      0.4747: real time      0.4773
    ORTHCH:  cpu time      0.0200: real time      0.0201
       DOS:  cpu time      0.0025: real time      0.0025
    CHARGE:  cpu time      0.2588: real time      0.2601
    MIXING:  cpu time      0.0065: real time      0.0065
    --------------------------------------------
      LOOP:  cpu time      1.0429: real time      1.0662

 eigenvalue-minimisations  :  1688
 total energy-change (2. order) :-0.3266706E-05  (-0.2472746E-06)
 number of electron     255.9999999 magnetization 
 augmentation part      -14.7382085 magnetization 

 Broyden mixing:
  rms(total) = 0.96344E-03    rms(broyden)= 0.96337E-03
  rms(prec ) = 0.98927E-03
  weight for this iteration     100.00

 eigenvalues of (default mixing * dielectric matrix)
  average eigenvalue GAMMA=   1.9391
  7.9903  2.8769  2.4813  2.4813  2.4237  1.6603  1.6603  1.1930  0.8800  0.8800
  0.8979  0.8979  0.2906  0.5343

 Free energy of the ion-electron system (eV)
  ---------------------------------------------------
  alpha Z        PSCENC =       114.86715905
  Ewald energy   TEWEN  =     -7473.89344473
  -Hartree energ DENC   =      -444.15098743
  -exchange      EXHF   =         0.00000000
  -V(xc)+E(xc)   XCENC  =      -530.02629538
  PAW double counting   =     32016.77527088   -30918.91700979
  entropy T*S    EENTRO =         0.03323636
  eigenvalues    EBANDS =       304.75422043
  atomic energy  EATOM  =      6564.79586099
  Solvation  Ediel_sol  =         0.00000000
  ---------------------------------------------------
  free energy    TOTEN  =      -365.76198962 eV

  energy without entropy =     -365.79522598  energy(sigma->0) =     -365.77306840


--------------------------------------------------------------------------------------------------------




--------------------------------------- Iteration      1(  20)  ---------------------------------------


    POTLOK:  cpu time      0.0814: real time      0.0966
    SETDIJ:  cpu time      0.0697: real time      0.0700
    EDDIAG:  cpu time      0.1316: real time      0.1321
  RMM-DIIS:  cpu time      0.4420: real time      0.4461
    ORTHCH:  cpu time      0.0202: real time      0.0202
       DOS:  cpu time      0.0015: real time      0.0015
    --------------------------------------------
      LOOP:  cpu time      0.7463: real time      0.7665

 eigenvalue-minimisations  :  1571
 total energy-change (2. order) :-0.8938068E-06  (-0.5097319E-07)
 number of electron     255.9999999 magnetization 
 augmentation part      -14.7382085 magnetization 

 Free energy of the ion-electron system (eV)
  ---------------------------------------------------
  alpha Z        PSCENC =       114.86715905
  Ewald energy   TEWEN  =     -7473.89344473
  -Hartree energ DENC   =      -444.16148535
  -exchange      EXHF   =         0.00000000
  -V(xc)+E(xc)   XCENC  =      -530.02523732
  PAW double counting   =     32019.17631759   -30921.31819974
  entropy T*S    EENTRO =         0.03323664
  eigenvalues    EBANDS =       304.76380236
  atomic energy  EATOM  =      6564.79586099
  Solvation  Ediel_sol  =         0.00000000
  ---------------------------------------------------
  free energy    TOTEN  =      -365.76199051 eV

  energy without entropy =     -365.79522715  energy(sigma->0) =     -365.77306939


--------------------------------------------------------------------------------------------------------




 average (electrostatic) potential at core
  the test charge radii are     0.9892
  (the norm of the test charge is              1.0000)
       1 -82.2855       2 -82.2855       3 -82.2855       4 -82.2855       5 -82.2855
       6 -82.2855       7 -82.2855       8 -82.2855       9 -82.2855      10 -82.2855
      11 -82.2855      12 -82.2855      13 -82.2855      14 -82.2855      15 -82.2855
      16 -82.2855      17 -82.2855      18 -82.2855      19 -82.2855      20 -82.2855
      21 -82.2855      22 -82.2855      23 -82.2855      24 -82.2855      25 -82.2855
      26 -82.2855      27 -82.2855      28 -82.2855      29 -82.2855      30 -82.2855
      31 -82.2855      32 -82.2855      33 -82.2855      34 -82.2855      35 -82.2855
      36 -82.2855      37 -82.2855      38 -82.2855      39 -82.2855      40 -82.2855
      41 -82.2855      42 -82.2855      43 -82.2855      44 -82.2855      45 -82.2855
      46 -82.2855      47 -82.2855      48 -82.2855      49 -82.2855      50 -82.2855
      51 -82.2855      52 -82.2855      53 -82.2855      54 -82.2855      55 -82.2855
      56 -82.2855      57 -82.2855      58 -82.2855      59 -82.2855      60 -82.2855
      61 -82.2855      62 -82.2855      63 -82.2855      64 -82.2855
 
 
 
 E-fermi :   6.7015     XC(G=0):  -9.8046     alpha+bet :-12.7877

 val. band max:        6.4881598189   @ k =   0.0000   0.0000   0.0000
 cond. band min:       6.8481235456   @ k =   0.0000   0.0000   0.5000
 fundamental gap:      0.3599637268
 Fermi energy:         6.7014711450

 k-point     1 :       0.0000    0.0000    0.0000
  band No.  band energies     occupation 
      1      -5.9809      2.00000
      2      -4.8391      2.00000
      3      -4.8391      2.00000
      4      -4.8292      2.00000
      5      -4.8292      2.00000
      6      -4.8292      2.00000
      7      -4.8292      2.00000
      8      -3.8168      2.00000
      9      -3.8168      2.00000
     10      -3.8017      2.00000
     11      -3.8017      2.00000
     12      -3.8017      2.00000
     13      -3.8017      2.00000
     14      -3.7945      2.00000
     15      -3.7945      2.00000
     16      -3.7945      2.00000
     17      -3.7945      2.00000
     18      -3.7864      2.00000
     19      -3.7864      2.00000
     20      -3.4770      2.00000
     21      -3.4770      2.00000
     22      -3.4419      2.00000
     23      -3.4419      2.00000
     24      -1.5985      2.00000
     25      -1.5985      2.00000
     26      -1.5864      2.00000
     27      -1.5659      2.00000
     28      -1.5659      2.00000
     29      -1.5456      2.00000
     30      -1.4013      2.00000
     31      -1.4013      2.00000
     32      -1.3901      2.00000
     33      -1.3901      2.00000
     34      -1.3778      2.00000
     35      -1.3778      2.00000
     36      -1.3778      2.00000
     37      -1.3778      2.00000
     38      -1.3542      2.00000
     39      -1.3542      2.00000
     40      -1.3431      2.00000
     41      -1.3431      2.00000
     42      -0.8687      2.00000
     43      -0.8687      2.00000
     44      -0.8624      2.00000
     45      -0.8624      2.00000
     46       0.8394      2.00000
     47       0.8394      2.00000
     48       0.8394      2.00000
     49       0.8394      2.00000
     50       0.8499      2.00000
     51       0.8499      2.00000
     52       0.8590      2.00000
     53       0.8590      2.00000
     54       0.8590      2.00000
     55       0.8590      2.00000
     56       0.8679      2.00000
     57       0.8679      2.00000
     58       2.2761      2.00000
     59       2.2761      2.00000
     60       2.2767      2.00000
     61       2.2767      2.00000
     62       2.2767      2.00000
     63       2.2767      2.00000
     64       2.2771      2.00000
     65       2.2771      2.00000
     66       2.2790      2.00000
     67       2.2791      2.00000
     68       2.2802      2.00000
     69       2.2802      2.00000
     70       2.3902      2.00000
     71       2.3902      2.00000
     72       2.3902      2.00000
     73       2.3902      2.00000
     74       2.4135      2.00000
     75       2.4135      2.00000
     76       2.4196      2.00000
     77       2.4197      2.00000
     78       2.4197      2.00000
     79       2.4197      2.00000
     80       2.4257      2.00000
     81       2.4257      2.00000
     82       2.9363      2.00000
     83       2.9363      2.00000
     84       2.9746      2.00000
     85       2.9746      2.00000
     86       2.9750      2.00000
     87       2.9750      2.00000
     88       3.3810      2.00000
     89       3.4099      2.00000
     90       3.4099      2.00000
     91       3.4389      2.00000
     92       3.4505      2.00000
     93       3.4505      2.00000
     94       4.4033      2.00000
     95       4.4033      2.00000
     96       4.4236      2.00000
     97       4.4236      2.00000
     98       4.4348      2.00000
     99       4.4348      2.00000
    100       4.4554      2.00000
    101       4.4554      2.00000
    102       4.4608      2.00000
    103       4.4608      2.00000
    104       4.4608      2.00000
    105       4.4608      2.00000
    106       5.0340      2.00000
    107       5.0340      2.00000
    108       5.0478      2.00000
    109       5.0478      2.00000
    110       5.0478      2.00000
    111       5.0478      2.00000
    112       5.0619      2.00000
    113       5.0619      2.00000
    114       5.0905      2.00000
    115       5.0905      2.00000
    116       5.0905      2.00000
    117       5.0905      2.00000
    118       5.1750      2.00000
    119       5.1750      2.00000
    120       5.2005      2.00000
    121       5.2005      2.00000
    122       5.2255      2.00000
    123       5.2255      2.00000
    124       5.2518      2.00000
    125       5.2518      2.00000
    126       6.4490      2.07050
    127       6.4864      2.06257
    128       6.4882      2.06145
    129       6.8814     -0.02267
    130       6.9116     -0.05921
    131       6.9116     -0.05921
    132       6.9420     -0.07076
    133       6.9529     -0.07061
    134       6.9529     -0.07061
    135       7.4275     -0.00000
    136       7.4275     -0.00000
    137       7.4276     -0.00000
    138       7.4276     -0.00000
    139       7.4681     -0.00000
    140       7.4681     -0.00000
    141       8.1442     -0.00000
    142       8.1442     -0.00000
    143       8.1946     -0.00000
    144       8.1946     -0.00000
    145       8.8299     -0.00000
    146       8.8309     -0.00000
    147       8.8466     -0.00000
    148       8.8469     -0.00000
    149       8.8470     -0.00000
    150       8.8478     -0.00000
    151       8.8641     -0.00000
    152       8.8657     -0.00000
    153       8.8950     -0.00000
    154       8.8951     -0.00000
    155       8.8956     -0.00000
    156       8.8989     -0.00000
    157       8.9758     -0.00000
    158       9.0106     -0.00000
    159       9.0597     -0.00000
    160       9.4661     -0.00000
    161       9.4994     -0.00000
    162       9.5733     -0.00000

 k-point     2 :       0.5000    0.0000    0.0000
  band No.  band energies     occupation 
      1      -5.6930      2.00000
      2      -5.6930      2.00000
      3      -4.5730      2.00000
      4      -4.5730      2.00000
      5      -4.5654      2.00000
      6      -4.5654      2.00000
      7      -4.5654      2.00000
      8      -4.5654      2.00000
      9      -4.5577      2.00000
     10      -4.5577      2.00000
     11      -3.6563      2.00000
     12      -3.6563      2.00000
     13      -3.6562      2.00000
     14      -3.6562      2.00000
     15      -3.6352      2.00000
     16      -3.6352      2.00000
     17      -3.6352      2.00000
     18      -3.6352      2.00000
     19      -3.4517      2.00000
     20      -3.4517      2.00000
     21      -2.6708      2.00000
     22      -2.6708      2.00000
     23      -2.6489      2.00000
     24      -2.6489      2.00000
     25      -2.6489      2.00000
     26      -2.6489      2.00000
     27      -2.6268      2.00000
     28      -2.6268      2.00000
     29      -1.4943      2.00000
     30      -1.4943      2.00000
     31      -1.4869      2.00000
     32      -1.4869      2.00000
     33      -1.4572      2.00000
     34      -1.4572      2.00000
     35      -1.4500      2.00000
     36      -1.4500      2.00000
     37      -0.2753      2.00000
     38      -0.2753      2.00000
     39      -0.2586      2.00000
     40      -0.2586      2.00000
     41      -0.2586      2.00000
     42      -0.2586      2.00000
[...]
 -0.000  -0.000   4.169   0.000   0.000   7.766   0.000   0.000
  0.000   0.000   0.000   4.169   0.000   0.000   7.766   0.000
 -0.000  -0.000   0.000   0.000   4.169   0.000   0.000   7.766
 -0.000  -0.000   7.766   0.000   0.000  14.478   0.000   0.000
  0.001   0.001   0.000   7.766   0.000   0.000  14.478   0.000
 -0.000  -0.000   0.000   0.000   7.766   0.000   0.000  14.477
 total augmentation occupancy for first ion, spin component:           1
  6.499  -2.597   0.000  -0.014  -0.000  -0.000   0.005   0.000
 -2.597   1.145   0.000   0.007   0.000   0.000  -0.002  -0.000
  0.000   0.000   3.182  -0.000  -0.001  -0.729   0.000  -0.000
 -0.014   0.007  -0.000   3.182   0.000   0.000  -0.729   0.000
 -0.000   0.000  -0.001  -0.000   3.192  -0.000   0.000  -0.733
 -0.000   0.000  -0.729   0.000  -0.000   0.177  -0.000   0.000
  0.005  -0.002   0.000  -0.729   0.000  -0.000   0.177   0.000
  0.000  -0.000  -0.000   0.000  -0.733   0.000   0.000   0.178


------------------------ aborting loop because EDIFF is reached ----------------------------------------


    CHARGE:  cpu time      0.2440: real time      0.2446
    FORLOC:  cpu time      0.0220: real time      0.0221
    FORNL :  cpu time      0.6899: real time      0.6919
    STRESS:  cpu time      2.1304: real time      2.1437
    FORCOR:  cpu time      0.0858: real time      0.0862
    FORHAR:  cpu time      0.0345: real time      0.0346
    MIXING:  cpu time      0.0259: real time      0.0260
    OFIELD:  cpu time      0.0000: real time      0.0000

  FORCE on cell =-STRESS in cart. coord.  units (eV):
  Direction    XX          YY          ZZ          XY          YZ          ZX
  --------------------------------------------------------------------------------------
  Alpha Z   114.86716   114.86716   114.86716
  Ewald   -2479.93959 -2497.03045 -2497.01922    -2.65696    -0.00000    -0.00000
  Hartree   149.81723   147.15934   147.14478    -2.05929    -0.00000    -0.00000
  E(xc)    -830.84683  -830.68819  -830.69133     0.01543    -0.00000    -0.00000
  Local    -915.77559  -895.49194  -895.53438     5.27734     0.00000     0.00000
  n-local  2529.30132  2526.64908  2526.72327    -0.04668    -0.00000     0.00000
  augment  -369.72625  -369.74215  -369.74500     0.17808     0.00000     0.00000
  Kinetic  1855.51934  1860.70809  1860.63865    -3.47555    -0.00000    -0.00000
  Fock        0.00000     0.00000     0.00000     0.00000     0.00000     0.00000
  -------------------------------------------------------------------------------------
  Total      53.21679    56.43095    56.38392    -2.76763     0.00000     0.00000
  in kB      71.02981    75.31984    75.25707    -3.69403     0.00000     0.00000
  external pressure =       73.87 kB  Pullay stress =        0.00 kB


 VOLUME and BASIS-vectors are now :
 -----------------------------------------------------------------------------
  energy-cutoff  :      400.00
  volume of cell :     1200.38
      direct lattice vectors                 reciprocal lattice vectors
    10.663124575  0.026525004  0.000000000     0.093781725 -0.000234453  0.000000000
     0.026525004 10.610073567  0.000000000    -0.000234453  0.094250640  0.000000000
     0.000000000  0.000000000 10.610073567     0.000000000  0.000000000  0.094250053

  length of vectors
    10.663157566 10.610106723 10.610073567     0.093782018  0.094250931  0.094250053


 FORCES acting on ions
    electron-ion (+dipol)            ewald-force                    non-local-force                 convergence-correction
 -----------------------------------------------------------------------------------------------
   -.651E-09 -.356E-09 -.423E+00   -.244E-13 0.555E-14 0.299E+00   0.561E-20 -.633E-20 0.124E+00   -.315E-13 0.202E-13 0.767E-05
   -.651E-09 -.356E-09 -.423E+00   -.315E-13 0.933E-14 0.299E+00   0.383E-20 0.464E-20 0.124E+00   0.783E-13 -.912E-13 0.767E-05
   -.651E-09 -.356E-09 -.423E+00   -.320E-13 0.999E-14 0.299E+00   -.105E-19 -.947E-20 0.124E+00   -.317E-13 -.235E-13 0.767E-05
   -.651E-09 -.356E-09 -.423E+00   -.178E-13 0.266E-14 0.299E+00   -.307E-20 0.565E-20 0.124E+00   0.789E-13 0.986E-13 0.767E-05
   -.651E-09 -.356E-09 -.423E+00   -.264E-13 0.266E-14 0.299E+00   -.182E-20 -.106E-19 0.124E+00   0.529E-13 0.358E-13 0.767E-05
   -.651E-09 -.356E-09 -.423E+00   -.191E-13 0.977E-14 0.299E+00   0.131E-20 0.261E-20 0.124E+00   -.882E-13 -.115E-12 0.767E-05
   -.651E-09 -.356E-09 -.423E+00   -.289E-13 0.666E-14 0.299E+00   -.531E-20 -.866E-20 0.124E+00   0.400E-13 -.388E-13 0.767E-05
   -.651E-09 -.355E-09 -.423E+00   -.284E-13 0.711E-14 0.299E+00   0.303E-20 0.614E-21 0.124E+00   -.769E-13 0.118E-12 0.767E-05
   0.215E-08 0.181E-08 0.423E+00   -.400E-14 -.311E-14 -.299E+00   -.450E-20 0.160E-19 -.124E+00   -.147E-13 -.144E-14 -.767E-05
   0.215E-08 0.181E-08 0.423E+00   -.107E-13 -.355E-14 -.299E+00   0.160E-19 0.144E-19 -.124E+00   0.618E-14 0.166E-13 -.767E-05
   0.215E-08 0.181E-08 0.423E+00   -.355E-14 0.844E-14 -.299E+00   -.166E-19 0.270E-20 -.124E+00   0.222E-13 -.826E-14 -.767E-05
   0.215E-08 0.181E-08 0.423E+00   0.178E-14 0.711E-14 -.299E+00   -.155E-19 -.823E-20 -.124E+00   -.478E-13 -.239E-13 -.767E-05
   0.215E-08 0.181E-08 0.423E+00   -.142E-13 0.888E-15 -.299E+00   -.854E-20 0.309E-20 -.124E+00   0.173E-13 0.429E-13 -.767E-05
   0.215E-08 0.181E-08 0.423E+00   -.124E-13 -.355E-14 -.299E+00   -.824E-20 -.691E-20 -.124E+00   -.738E-14 -.475E-13 -.767E-05
   0.215E-08 0.181E-08 0.423E+00   -.142E-13 0.844E-14 -.299E+00   0.152E-20 0.508E-20 -.124E+00   -.204E-13 -.444E-13 -.767E-05
   0.215E-08 0.181E-08 0.423E+00   -.178E-14 0.533E-14 -.299E+00   0.132E-19 0.529E-20 -.124E+00   0.494E-13 0.401E-13 -.767E-05
   -.651E-09 -.356E-09 -.423E+00   -.291E-13 -.488E-14 0.299E+00   0.264E-19 -.632E-20 0.124E+00   0.791E-13 -.259E-13 0.767E-05
   -.651E-09 -.356E-09 -.423E+00   -.258E-13 -.488E-14 0.299E+00   0.189E-19 -.185E-19 0.124E+00   -.372E-13 -.470E-13 0.767E-05
   -.651E-09 -.356E-09 -.423E+00   -.373E-13 -.777E-14 0.299E+00   0.111E-20 -.163E-19 0.124E+00   0.300E-13 0.348E-13 0.767E-05
   -.651E-09 -.356E-09 -.423E+00   -.444E-13 -.400E-14 0.299E+00   -.122E-19 -.108E-19 0.124E+00   0.144E-13 0.525E-13 0.767E-05
   -.651E-09 -.356E-09 -.423E+00   -.269E-13 -.888E-15 0.299E+00   -.446E-20 -.151E-19 0.124E+00   -.774E-13 -.376E-13 0.767E-05
   -.651E-09 -.355E-09 -.423E+00   -.346E-13 -.888E-15 0.299E+00   -.169E-19 -.816E-20 0.124E+00   0.487E-13 -.502E-14 0.767E-05
   -.651E-09 -.356E-09 -.423E+00   -.488E-13 -.107E-13 0.299E+00   0.190E-19 -.104E-19 0.124E+00   -.276E-13 0.355E-13 0.767E-05
   -.651E-09 -.356E-09 -.423E+00   -.497E-13 -.711E-14 0.299E+00   0.180E-19 -.678E-20 0.124E+00   -.446E-14 0.648E-14 0.767E-05
   0.215E-08 0.181E-08 0.423E+00   -.266E-13 -.103E-13 -.299E+00   -.625E-20 -.735E-20 -.124E+00   -.974E-13 -.115E-12 -.767E-05
   0.215E-08 0.181E-08 0.423E+00   -.231E-13 -.103E-13 -.299E+00   -.393E-20 0.947E-20 -.124E+00   0.773E-13 0.364E-13 -.767E-05
   0.215E-08 0.181E-08 0.423E+00   -.178E-13 -.924E-14 -.299E+00   0.378E-20 -.126E-20 -.124E+00   -.542E-13 0.120E-12 -.767E-05
   0.215E-08 0.181E-08 0.423E+00   -.107E-13 -.813E-14 -.299E+00   0.105E-19 0.114E-19 -.124E+00   0.471E-13 -.325E-13 -.767E-05
   0.215E-08 0.181E-08 0.423E+00   -.240E-13 -.161E-13 -.299E+00   -.896E-20 -.399E-20 -.124E+00   0.913E-13 -.143E-12 -.767E-05
   0.215E-08 0.181E-08 0.423E+00   -.204E-13 -.857E-14 -.299E+00   0.955E-20 0.137E-19 -.124E+00   -.656E-13 0.415E-13 -.767E-05
   0.215E-08 0.181E-08 0.423E+00   -.888E-14 -.106E-13 -.299E+00   -.555E-20 -.598E-20 -.124E+00   0.533E-13 0.156E-12 -.767E-05
   0.215E-08 0.181E-08 0.423E+00   -.160E-13 -.657E-14 -.299E+00   0.776E-20 0.720E-20 -.124E+00   -.431E-13 -.477E-13 -.767E-05
   -.651E-09 -.356E-09 -.423E+00   0.282E-13 0.244E-14 0.299E+00   -.105E-19 -.109E-19 0.124E+00   -.822E-14 -.106E-12 0.767E-05
   -.651E-09 -.356E-09 -.423E+00   0.204E-13 0.888E-14 0.299E+00   -.369E-20 0.112E-19 0.124E+00   -.107E-14 0.355E-13 0.767E-05
   -.651E-09 -.356E-09 -.423E+00   0.120E-13 -.133E-14 0.299E+00   -.688E-20 0.225E-19 0.124E+00   -.131E-13 0.110E-12 0.767E-05
   -.651E-09 -.356E-09 -.423E+00   0.187E-13 0.222E-14 0.299E+00   0.785E-20 -.296E-20 0.124E+00   0.430E-13 -.353E-13 0.767E-05
   -.651E-09 -.356E-09 -.423E+00   0.284E-13 0.147E-13 0.299E+00   -.146E-20 0.179E-19 0.124E+00   0.544E-14 -.158E-12 0.767E-05
   -.651E-09 -.356E-09 -.423E+00   0.160E-13 0.142E-13 0.299E+00   0.135E-19 -.354E-20 0.124E+00   -.101E-13 0.902E-13 0.767E-05
   -.651E-09 -.356E-09 -.423E+00   0.306E-13 -.311E-14 0.299E+00   -.119E-19 -.133E-19 0.124E+00   0.121E-13 0.156E-12 0.767E-05
   -.651E-09 -.355E-09 -.423E+00   0.178E-13 0.711E-14 0.299E+00   -.477E-20 0.143E-19 0.124E+00   -.542E-13 -.847E-13 0.767E-05
   0.215E-08 0.181E-08 0.423E+00   0.171E-13 0.444E-15 -.299E+00   0.115E-19 0.766E-21 -.124E+00   0.667E-13 0.583E-13 -.767E-05
   0.215E-08 0.181E-08 0.423E+00   0.226E-13 0.400E-14 -.299E+00   -.224E-19 -.102E-19 -.124E+00   -.170E-13 -.606E-13 -.767E-05
   0.215E-08 0.181E-08 0.423E+00   0.552E-14 0.888E-14 -.299E+00   0.430E-20 0.309E-20 -.124E+00   0.335E-13 -.661E-13 -.767E-05
   0.215E-08 0.181E-08 0.423E+00   0.162E-13 0.888E-14 -.299E+00   0.178E-20 -.107E-19 -.124E+00   -.594E-14 0.605E-13 -.767E-05
   0.215E-08 0.181E-08 0.423E+00   0.391E-13 -.355E-14 -.299E+00   -.191E-20 0.347E-20 -.124E+00   -.560E-13 0.971E-13 -.767E-05
   0.215E-08 0.181E-08 0.423E+00   0.335E-13 -.355E-14 -.299E+00   0.452E-20 -.147E-19 -.124E+00   0.128E-13 -.868E-13 -.767E-05
   0.215E-08 0.181E-08 0.423E+00   0.386E-13 0.888E-14 -.299E+00   0.123E-19 0.420E-20 -.124E+00   -.277E-13 -.109E-12 -.767E-05
   0.215E-08 0.181E-08 0.423E+00   0.400E-13 0.888E-14 -.299E+00   -.103E-19 -.100E-19 -.124E+00   0.420E-14 0.874E-13 -.767E-05
   -.651E-09 -.356E-09 -.423E+00   0.400E-14 -.577E-14 0.299E+00   0.634E-20 0.684E-20 0.124E+00   0.263E-13 -.142E-13 0.767E-05
   -.651E-09 -.356E-09 -.423E+00   -.355E-14 0.133E-14 0.299E+00   -.473E-20 -.415E-20 0.124E+00   -.219E-13 -.375E-13 0.767E-05
   -.651E-09 -.356E-09 -.423E+00   0.222E-14 -.111E-14 0.299E+00   0.500E-20 0.141E-19 0.124E+00   0.112E-13 0.251E-13 0.767E-05
   -.651E-09 -.356E-09 -.423E+00   -.533E-14 0.355E-14 0.299E+00   0.502E-20 0.302E-21 0.124E+00   -.997E-15 0.378E-13 0.767E-05
   -.651E-09 -.357E-09 -.423E+00   0.198E-13 0.533E-14 0.299E+00   0.567E-21 0.130E-19 0.124E+00   -.414E-13 -.209E-13 0.767E-05
   -.651E-09 -.355E-09 -.423E+00   0.262E-13 -.178E-14 0.299E+00   0.104E-19 -.347E-20 0.124E+00   0.263E-13 -.313E-13 0.767E-05
   -.651E-09 -.356E-09 -.423E+00   0.258E-13 -.400E-14 0.299E+00   0.179E-20 0.661E-20 0.124E+00   -.262E-13 0.309E-13 0.767E-05
   -.651E-09 -.356E-09 -.423E+00   0.178E-13 -.355E-14 0.299E+00   -.106E-19 0.872E-21 0.124E+00   0.480E-14 0.328E-13 0.767E-05
   0.215E-08 0.181E-08 0.423E+00   0.194E-13 -.152E-13 -.299E+00   0.210E-19 -.254E-20 -.124E+00   0.289E-13 -.408E-13 -.767E-05
   0.215E-08 0.181E-08 0.423E+00   0.828E-14 -.152E-13 -.299E+00   0.689E-20 -.111E-19 -.124E+00   0.262E-14 -.563E-13 -.767E-05
   0.215E-08 0.181E-08 0.423E+00   0.167E-13 -.269E-14 -.299E+00   -.308E-20 -.294E-19 -.124E+00   -.822E-14 0.453E-13 -.767E-05
   0.215E-08 0.181E-08 0.423E+00   0.127E-13 -.734E-14 -.299E+00   -.183E-19 -.107E-19 -.124E+00   0.631E-13 0.629E-13 -.767E-05
   0.215E-08 0.181E-08 0.423E+00   0.296E-13 -.122E-13 -.299E+00   -.539E-20 -.309E-19 -.124E+00   -.309E-13 -.783E-13 -.767E-05
   0.215E-08 0.181E-08 0.423E+00   0.232E-13 -.868E-14 -.299E+00   -.202E-19 -.138E-19 -.124E+00   0.519E-14 -.955E-15 -.767E-05
   0.215E-08 0.181E-08 0.423E+00   0.166E-13 -.345E-14 -.299E+00   0.255E-19 0.353E-20 -.124E+00   0.117E-13 0.834E-13 -.767E-05
   0.215E-08 0.181E-08 0.423E+00   0.388E-13 0.322E-14 -.299E+00   0.184E-19 -.812E-20 -.124E+00   -.612E-13 0.609E-14 -.767E-05
 -----------------------------------------------------------------------------------------------
   0.481E-07 0.465E-07 0.180E-04   -.748E-13 -.369E-13 -.845E-13   0.475E-19 -.127E-18 -.930E-15   0.344E-13 0.402E-13 0.139E-09
 
 
 POSITION                                       TOTAL-FORCE (eV/Angst)
 -----------------------------------------------------------------------------------
      0.00000      0.00000      0.00215         0.000000     -0.000000     -0.000034
      0.00000      0.00000      5.30719         0.000000     -0.000000     -0.000034
      0.01326      5.30504      0.00215        -0.000000     -0.000000     -0.000034
      0.01326      5.30504      5.30719        -0.000000     -0.000000     -0.000034
      5.33156      0.01326      0.00215         0.000000      0.000000     -0.000034
      5.33156      0.01326      5.30719         0.000000      0.000000     -0.000034
      5.34482      5.31830      0.00215         0.000000      0.000000     -0.000034
      5.34482      5.31830      5.30719        -0.000000      0.000000     -0.000034
      4.00862      3.98872      1.32410         0.000000     -0.000000      0.000034
      4.00862      3.98872      6.62914        -0.000000      0.000000      0.000034
      4.02188      9.29376      1.32410        -0.000000     -0.000000      0.000034
      4.02188      9.29376      6.62914        -0.000000      0.000000      0.000034
      9.34018      4.00199      1.32410         0.000000     -0.000000      0.000034
      9.34018      4.00199      6.62914        -0.000000     -0.000000      0.000034
      9.35344      9.30702      1.32410         0.000000     -0.000000      0.000034
      9.35344      9.30702      6.62914         0.000000      0.000000      0.000034
      0.00663      2.65252      2.65467         0.000000     -0.000000     -0.000034
      0.00663      2.65252      7.95971        -0.000000     -0.000000     -0.000034
      0.01989      7.95756      2.65467        -0.000000     -0.000000     -0.000034
      0.01989      7.95756      7.95971        -0.000000     -0.000000     -0.000034
      5.33819      2.66578      2.65467         0.000000      0.000000     -0.000034
      5.33819      2.66578      7.95971        -0.000000      0.000000     -0.000034
      5.35146      7.97082      2.65467         0.000000      0.000000     -0.000034
      5.35146      7.97082      7.95971         0.000000      0.000000     -0.000034
      4.00199      1.33621      3.97662        -0.000000     -0.000000      0.000034
      4.00199      1.33621      9.28166        -0.000000      0.000000      0.000034
      4.01525      6.64124      3.97662        -0.000000     -0.000000      0.000034
      4.01525      6.64124      9.28166        -0.000000      0.000000      0.000034
      9.33355      1.34947      3.97662         0.000000      0.000000      0.000034
      9.33355      1.34947      9.28166         0.000000      0.000000      0.000034
      9.34681      6.65451      3.97662         0.000000      0.000000      0.000034
      9.34681      6.65451      9.28166         0.000000      0.000000      0.000034
      2.66578      0.00663      2.65467        -0.000000     -0.000000     -0.000034
      2.66578      0.00663      7.95971        -0.000000     -0.000000     -0.000034
      2.67904      5.31167      2.65467        -0.000000      0.000000     -0.000034
      2.67904      5.31167      7.95971         0.000000     -0.000000     -0.000034
      7.99734      0.01989      2.65467         0.000000     -0.000000     -0.000034
      7.99734      0.01989      7.95971        -0.000000     -0.000000     -0.000034
      8.01061      5.32493      2.65467         0.000000      0.000000     -0.000034
      8.01061      5.32493      7.95971        -0.000000      0.000000     -0.000034
      1.34284      3.98209      3.97662         0.000000      0.000000      0.000034
      1.34284      3.98209      9.28166         0.000000      0.000000      0.000034
      1.35610      9.28713      3.97662         0.000000      0.000000      0.000034
      1.35610      9.28713      9.28166         0.000000      0.000000      0.000034
      6.67440      3.99536      3.97662        -0.000000     -0.000000      0.000034
      6.67440      3.99536      9.28166        -0.000000     -0.000000      0.000034
      6.68766      9.30039      3.97662        -0.000000     -0.000000      0.000034
      6.68766      9.30039      9.28166         0.000000     -0.000000      0.000034
      2.67241      2.65915      0.00215        -0.000000      0.000000     -0.000034
      2.67241      2.65915      5.30719         0.000000     -0.000000     -0.000034
      2.68567      7.96419      0.00215        -0.000000      0.000000     -0.000034
      2.68567      7.96419      5.30719         0.000000     -0.000000     -0.000034
      8.00397      2.67241      0.00215         0.000000      0.000000     -0.000034
      8.00397      2.67241      5.30719        -0.000000      0.000000     -0.000034
      8.01724      7.97745      0.00215         0.000000      0.000000     -0.000034
      8.01724      7.97745      5.30719        -0.000000      0.000000     -0.000034
      1.33621      1.32957      1.32410         0.000000      0.000000      0.000034
      1.33621      1.32957      6.62914         0.000000      0.000000      0.000034
      1.34947      6.63461      1.32410         0.000000      0.000000      0.000034
      1.34947      6.63461      6.62914        -0.000000      0.000000      0.000034
      6.66777      1.34284      1.32410        -0.000000     -0.000000      0.000034
      6.66777      1.34284      6.62914        -0.000000     -0.000000      0.000034
      6.68103      6.64787      1.32410         0.000000     -0.000000      0.000034
      6.68103      6.64787      6.62914        -0.000000     -0.000000      0.000034
 -----------------------------------------------------------------------------------
    total drift:                                0.000000      0.000000      0.000018


--------------------------------------------------------------------------------------------------------



  FREE ENERGIE OF THE ION-ELECTRON SYSTEM (eV)
  ---------------------------------------------------
  free  energy   TOTEN  =      -365.76650869 eV

  energy  without entropy=     -365.79904362  energy(sigma->0) =     -365.77735367
 
 d Force = 0.9954633E-03[ 0.223E-05, 0.199E-02]  d Energy = 0.1001579E-02-0.612E-05
 d Force =-0.1767439E-01[-0.193E-01,-0.160E-01]  d Ewald  =-0.1767438E-01-0.692E-08


--------------------------------------------------------------------------------------------------------


    POTLOK:  cpu time      0.1456: real time      0.1459


--------------------------------------------------------------------------------------------------------




--------------------------------------------------------------------------------------------------------


  
 reached required accuracy - stopping structural energy minimisation
     LOOP+:  cpu time     12.6386: real time     12.7978
    4ORBIT:  cpu time      0.0000: real time      0.0000

 total amount of memory used by VASP MPI-rank0    79116. kBytes
=======================================================================

   base      :      30000. kBytes
   nonlr-proj:       4714. kBytes
   fftplans  :      17991. kBytes
   grid      :       6881. kBytes
   one-center:         18. kBytes
   wavefun   :      19512. kBytes
 
  
  
 General timing and accounting informations for this job:
 ========================================================
  
                  Total CPU time used (sec):       60.518
                            User time (sec):       57.207
                          System time (sec):        3.311
                         Elapsed time (sec):       64.130
  
                   Maximum memory used (kb):      405308.
                   Average memory used (kb):          N/A
  
                          Minor page faults:        96088
                          Major page faults:            0
                 Voluntary context switches:         8991
