<?xml version="1.0" encoding="ISO-8859-1"?>
<modeling>
 <generator>
  <i name="program" type="string">vasp </i>
  <i name="version" type="string">6.4.3  </i>
  <i name="subversion" type="string">19Mar24 (build Oct 21 2024 22:36:34) complex                          parallel </i>
  <i name="platform" type="string">LinuxIFC </i>
  <i name="date" type="string">2024 11 01 </i>
  <i name="time" type="string">22:56:38 </i>
 </generator>
 <incar>
  <i type="string" name="SYSTEM">Si64</i>
  <i type="int" name="ISTART">     0</i>
  <i type="string" name="PREC">Accurate</i>
  <i type="string" name="ALGO">Fast</i>
  <i type="logical" name="ADDGRID"> T  </i>
  <i type="int" name="ICHARG">     2</i>
  <i type="int" name="NELM">    60</i>
  <i type="int" name="NELMIN">     8</i>
  <i type="int" name="IBRION">     2</i>
  <i name="EDIFF">      0.00000100</i>
  <i name="EDIFFG">     -0.01000000</i>
  <i type="int" name="NSW">    60</i>
  <i type="int" name="ISIF">     2</i>
  <i name="ENCUT">    400.00000000</i>
  <i type="string" name="LREAL">Auto</i>
  <i type="int" name="ISMEAR">     1</i>
  <i name="SIGMA">      0.20000000</i>
  <i type="logical" name="LWAVE"> F  </i>
  <i type="logical" name="LCHARG"> F  </i>
  <i type="logical" name="GGA_COMPAT"> F  </i>
  <i type="string" name="GGA">PS</i>
 </incar>
 <primitive_cell>
  <structure name="primitive_cell" >
   <crystal>
    <varray name="basis" >
     <v>       0.00663125       2.65251839      -2.65251839 </v>
     <v>       0.00663125       2.65251839       2.65251839 </v>
     <v>       2.65914989      -2.64588714       0.00000000 </v>
    </varray>
    <i name="volume">     37.51185960 </i>
    <varray name="rec_basis" >
     <v>       0.18709454       0.18803237      -0.18850011 </v>
     <v>       0.18709454       0.18803237       0.18850011 </v>
     <v>       0.37512690      -0.00093781       0.00000000 </v>
    </varray>
   </crystal>
   <varray name="positions" >
    <v>       0.00000000       0.00000000       0.00000000 </v>
    <v>       0.25000000       0.75000000       0.50000000 </v>
   </varray>
  </structure>
  <varray name="primitive_index" >
   <v type="int" >        1 </v>
   <v type="int" >       15 </v>
  </varray>
 </primitive_cell>
 <kpoints>
  <generation param="Gamma">
   <v type="int" name="divisions">       2        2        2 </v>
   <v name="usershift">      0.00000000       0.00000000       0.00000000 </v>
   <v name="genvec1">      0.50000000      -0.00000000       0.00000000 </v>
   <v name="genvec2">     -0.00000000       0.50000000       0.00000000 </v>
   <v name="genvec3">      0.00000000       0.00000000       0.50000000 </v>
   <v name="shift">      0.00000000       0.00000000       0.00000000 </v>
  </generation>
  <varray name="kpointlist" >
   <v>       0.00000000       0.00000000       0.00000000 </v>
   <v>       0.50000000       0.00000000       0.00000000 </v>
   <v>       0.00000000       0.50000000       0.00000000 </v>
   <v>       0.50000000       0.50000000       0.00000000 </v>
   <v>       0.00000000       0.00000000       0.50000000 </v>
   <v>       0.50000000       0.00000000       0.50000000 </v>
   <v>       0.00000000       0.50000000       0.50000000 </v>
   <v>       0.50000000       0.50000000       0.50000000 </v>
  </varray>
  <varray name="weights" >
   <v>       0.12500000 </v>
   <v>       0.12500000 </v>
   <v>       0.12500000 </v>
   <v>       0.12500000 </v>
   <v>       0.12500000 </v>
   <v>       0.12500000 </v>
   <v>       0.12500000 </v>
   <v>       0.12500000 </v>
  </varray>
 </kpoints>
 <parameters>
  <separator name="general" >
   <i type="string" name="SYSTEM">Si64</i>
   <i type="logical" name="LCOMPAT"> F  </i>
  </separator>
  <separator name="electronic" >
   <i type="string" name="PREC">accura</i>
   <i name="ENMAX">    400.00000000</i>
   <i name="ENAUG">    322.06900000</i>
   <i name="EDIFF">      0.00000100</i>
   <i type="int" name="IALGO">    68</i>
   <i type="int" name="IWAVPR">    11</i>
   <i type="int" name="NBANDS">   162</i>
   <i type="int" name="NBANDSLOW">    -1</i>
   <i type="int" name="NBANDSHIGH">    -1</i>
   <i name="NELECT">    256.00000000</i>
   <i type="int" name="TURBO">     0</i>
   <i type="int" name="IRESTART">     0</i>
   <i type="int" name="NREBOOT">     0</i>
   <i type="int" name="NMIN">     0</i>
   <i name="EREF">      0.00000000</i>
   <separator name="electronic smearing" >
    <i type="int" name="ISMEAR">     1</i>
    <i name="SIGMA">      0.20000000</i>
    <i name="KSPACING">      0.50000000</i>
    <i type="logical" name="KGAMMA"> T  </i>
    <i type="logical" name="KBLOWUP"> T  </i>
   </separator>
   <separator name="electronic projectors" >
    <i type="logical" name="LREAL"> T  </i>
    <v name="ROPT">     -0.00025000</v>
    <i type="int" name="LMAXPAW">  -100</i>
    <i type="int" name="LMAXMIX">     2</i>
    <i type="logical" name="NLSPLINE"> F  </i>
   </separator>
   <separator name="electronic startup" >
    <i type="int" name="ISTART">     0</i>
    <i type="int" name="ICHARG">     2</i>
    <i type="int" name="INIWAV">     1</i>
   </separator>
   <separator name="electronic spin" >
    <i type="int" name="ISPIN">     1</i>
    <i type="logical" name="LNONCOLLINEAR"> F  </i>
    <v name="MAGMOM">      1.00000000      1.00000000      1.00000000      1.00000000      1.00000000      1.00000000      1.00000000      1.00000000      1.00000000      1.00000000      1.00000000      1.00000000      1.00000000      1.00000000      1.00000000      1.00000000      1.00000000      1.00000000      1.00000000      1.00000000
      1.00000000      1.00000000      1.00000000      1.00000000      1.00000000      1.00000000      1.00000000      1.00000000      1.00000000      1.00000000      1.00000000      1.00000000      1.00000000      1.00000000      1.00000000      1.00000000      1.00000000      1.00000000      1.00000000      1.00000000
      1.00000000      1.00000000      1.00000000      1.00000000      1.00000000      1.00000000      1.00000000      1.00000000      1.00000000      1.00000000      1.00000000      1.00000000      1.00000000      1.00000000      1.00000000      1.00000000      1.00000000      1.00000000      1.00000000      1.00000000
      1.00000000      1.00000000      1.00000000      1.00000000</v>
    <i name="NUPDOWN">     -1.00000000</i>
    <i type="logical" name="LSORBIT"> F  </i>
    <v name="SAXIS">      0.00000000      0.00000000      1.00000000</v>
    <i type="logical" name="LSPIRAL"> F  </i>
    <v name="QSPIRAL">      0.00000000      0.00000000      0.00000000</v>
    <i type="logical" name="LZEROZ"> F  </i>
   </separator>
   <separator name="electronic exchange-correlation" >
    <i type="logical" name="LASPH"> F  </i>
   </separator>
   <separator name="electronic convergence" >
    <i type="int" name="NELM">    60</i>
    <i type="int" name="NELMDL">    -5</i>
    <i type="int" name="NELMIN">     8</i>
    <i name="ENINI">    400.00000000</i>
    <separator name="electronic convergence detail" >
     <i type="logical" name="LDIAG"> T  </i>
     <i type="logical" name="LSUBROT"> F  </i>
     <i name="WEIMIN">      0.00100000</i>
     <i name="EBREAK">      0.00000000</i>
     <i name="DEPER">      0.30000000</i>
     <i type="int" name="NRMM">     4</i>
     <i name="TIME">      0.40000000</i>
    </separator>
   </separator>
   <separator name="electronic mixer" >
    <i name="AMIX">      0.40000000</i>
    <i name="BMIX">      1.00000000</i>
    <i name="AMIN">      0.10000000</i>
    <i name="AMIX_MAG">      1.60000000</i>
    <i name="BMIX_MAG">      1.00000000</i>
    <separator name="electronic mixer details" >
     <i type="int" name="IMIX">     4</i>
     <i type="logical" name="MIXFIRST"> F  </i>
     <i type="int" name="MAXMIX">   -45</i>
     <i name="WC">    100.00000000</i>
     <i type="int" name="INIMIX">     1</i>
     <i type="int" name="MIXPRE">     1</i>
     <i type="int" name="MREMOVE">     5</i>
    </separator>
   </separator>
   <separator name="electronic dipolcorrection" >
    <i type="logical" name="LDIPOL"> F  </i>
    <i type="logical" name="LMONO"> F  </i>
    <i type="int" name="IDIPOL">     0</i>
    <i name="EPSILON">      1.00000000</i>
    <v name="DIPOL">   -100.00000000   -100.00000000   -100.00000000</v>
    <i name="EFIELD">      0.00000000</i>
    <i type="logical" name="LVACPOTAV"> F  </i>
   </separator>
  </separator>
  <separator name="grids" >
   <i type="int" name="NGX">    70</i>
   <i type="int" name="NGY">    70</i>
   <i type="int" name="NGZ">    70</i>
   <i type="int" name="NGXF">   140</i>
   <i type="int" name="NGYF">   140</i>
   <i type="int" name="NGZF">   140</i>
   <i type="logical" name="ADDGRID"> T  </i>
  </separator>
  <separator name="ionic" >
   <i type="int" name="NSW">    60</i>
   <i type="int" name="IBRION">     2</i>
   <i type="int" name="MDALGO">     0</i>
   <i type="int" name="ISIF">     2</i>
   <i name="PSTRESS">      0.00000000</i>
   <i name="EDIFFG">     -0.01000000</i>
   <i type="int" name="NFREE">     1</i>
   <i name="POTIM">      0.50000000</i>
   <i name="SMASS">     -3.00000000</i>
   <i name="SCALEE">      1.00000000</i>
  </separator>
  <separator name="ionic md" >
   <i name="TEBEG">      0.00010000</i>
   <i name="TEEND">      0.00010000</i>
   <i type="int" name="NBLOCK">     1</i>
   <i type="int" name="KBLOCK">    60</i>
   <i type="int" name="NPACO">   256</i>
   <i name="APACO">     10.00000000</i>
  </separator>
  <separator name="symmetry" >
   <i type="int" name="ISYM">     2</i>
   <i name="SYMPREC">      0.00001000</i>
  </separator>
  <separator name="dos" >
   <i type="int" name="LORBIT">     0</i>
   <v name="RWIGS">     -1.00000000</v>
   <i type="int" name="NEDOS">   301</i>
   <i name="EMIN">     10.00000000</i>
   <i name="EMAX">    -10.00000000</i>
   <i name="EFERMI">      0.00000000</i>
  </separator>
  <separator name="writing" >
   <i type="int" name="NWRITE">     2</i>
   <i type="logical" name="LWAVE"> F  </i>
   <i type="logical" name="LDOWNSAMPLE"> F  </i>
   <i type="logical" name="LCHARG"> F  </i>
   <i type="logical" name="LPARD"> F  </i>
   <i type="logical" name="LVTOT"> F  </i>
   <i type="logical" name="LVHAR"> F  </i>
   <i type="logical" name="LELF"> F  </i>
   <i type="logical" name="LOPTICS"> F  </i>
   <v name="STM">      0.00000000      0.00000000      0.00000000      0.00000000      0.00000000      0.00000000      0.00000000</v>
  </separator>
  <separator name="performance" >
   <i type="int" name="NPAR">     2</i>
   <i type="int" name="NSIM">     4</i>
   <i type="int" name="NBLK">    -1</i>
   <i type="logical" name="LPLANE"> T  </i>
   <i type="logical" name="LSCALAPACK"> T  </i>
   <i type="logical" name="LSCAAWARE"> F  </i>
   <i type="logical" name="LSCALU"> F  </i>
   <i type="logical" name="LASYNC"> F  </i>
   <i type="logical" name="LORBITALREAL"> F  </i>
  </separator>
  <separator name="miscellaneous" >
   <i type="int" name="IDIOT">     3</i>
   <i type="int" name="PHON_NSTRUCT">    -1</i>
   <i type="logical" name="LMUSIC"> F  </i>
   <v name="POMASS">     28.08500000</v>
   <v name="DARWINR">      0.00000000</v>
   <v name="DARWINV">      1.00000000</v>
   <i type="logical" name="LCORR"> T  </i>
  </separator>
  <i type="logical" name="GGA_COMPAT"> F  </i>
  <i type="logical" name="LBERRY"> F  </i>
  <i type="int" name="ICORELEVEL">     0</i>
  <i type="logical" name="LDAU"> F  </i>
  <i type="int" name="I_CONSTRAINED_M">     0</i>
  <separator name="electronic exchange-correlation" >
   <i type="string" name="GGA    ">PS</i>
   <i type="string" name="XC_C">1</i>
   <i type="int" name="VOSKOWN">     0</i>
   <i type="logical" name="LHFCALC"> F  </i>
   <i type="string" name="PRECFOCK"></i>
   <i type="logical" name="LSYMGRAD"> F  </i>
   <i type="logical" name="LHFONE"> F  </i>
   <i type="logical" name="LRHFCALC"> F  </i>
   <i type="logical" name="LTHOMAS"> F  </i>
   <i type="logical" name="LMODELHF"> F  </i>
   <i type="logical" name="LFOCKACE"> F  </i>
   <i name="ENCUT4O">     -1.00000000</i>
   <i type="int" name="EXXOEP">     0</i>
   <i type="int" name="FOURORBIT">     0</i>
   <i name="AEXX">      0.00000000</i>
   <i name="HFALPHA">      0.00000000</i>
   <i name="MCALPHA">      0.00000000</i>
   <i name="ALDAX">      1.00000000</i>
   <i name="AGGAX">      1.00000000</i>
   <i name="AMGGAX">      1.00000000</i>
   <i name="ALDAC">      1.00000000</i>
   <i name="AGGAC">      1.00000000</i>
   <i name="AMGGAC">      1.00000000</i>
   <i type="int" name="NKREDX">     1</i>
   <i type="int" name="NKREDY">     1</i>
   <i type="int" name="NKREDZ">     1</i>
   <i type="logical" name="SHIFTRED"> F  </i>
   <i type="logical" name="ODDONLY"> F  </i>
   <i type="logical" name="EVENONLY"> F  </i>
   <i type="int" name="LMAXFOCK">     0</i>
   <i type="int" name="NMAXFOCKAE">     0</i>
   <i type="logical" name="LFOCKAEDFT"> F  </i>
   <i name="HFSCREEN">      0.00000000</i>
   <i name="HFSCREENC">      0.00000000</i>
   <i type="int" name="NBANDSGWLOW">     0</i>
  </separator>
  <separator name="vdW DFT" >
   <i type="logical" name="LUSE_VDW"> F  </i>
   <i type="int" name="IVDW_NL">    -1</i>
   <i type="logical" name="LSPIN_VDW"> F  </i>
   <i name="ZAB_VDW">     -0.84910000</i>
   <i name="GAMMA_VDW">      1.39626340</i>
   <i name="ALPHA_VDW">      0.00000000</i>
   <i name="PARAM1">      0.12340000</i>
   <i name="PARAM2">      1.00000000</i>
   <i name="BPARAM">      6.30000000</i>
   <i name="CPARAM">      0.00930000</i>
  </separator>
  <separator name="model GW" >
   <i type="int" name="MODEL_GW">     0</i>
   <i name="MODEL_EPS0">     11.25355788</i>
   <i name="MODEL_ALPHA">      1.00000000</i>
  </separator>
  <separator name="linear response parameters" >
   <i type="logical" name="LEPSILON"> F  </i>
   <i type="logical" name="LRPA"> F  </i>
   <i type="logical" name="LNABLA"> F  </i>
   <i type="logical" name="LVEL"> F  </i>
   <i name="CSHIFT">      0.10000000</i>
   <i name="OMEGAMAX">     -1.00000000</i>
   <i name="DEG_THRESHOLD">      0.00200000</i>
   <i name="RTIME">     -0.10000000</i>
   <i name="WPLASMAI">      0.00000000</i>
   <v name="DFIELD">      0.00000000      0.00000000      0.00000000</v>
   <v name="WPLASMA">      0.00000000      0.00000000      0.00000000      0.00000000      0.00000000      0.00000000      0.00000000      0.00000000      0.00000000</v>
  </separator>
  <separator name="orbital magnetization" >
   <i type="logical" name="NUCIND"> F  </i>
   <v name="MAGPOS">      0.00000000      0.00000000      0.00000000</v>
   <i type="logical" name="LNICSALL"> T  </i>
   <i type="logical" name="ORBITALMAG"> F  </i>
   <i type="logical" name="LMAGBLOCH"> F  </i>
   <i type="logical" name="LCHIMAG"> F  </i>
   <i type="logical" name="LGAUGE"> T  </i>
   <i type="int" name="MAGATOM">     0</i>
   <v name="MAGDIPOL">      0.00000000      0.00000000      0.00000000</v>
   <v name="AVECCONST">      0.00000000      0.00000000      0.00000000</v>
  </separator>
  <separator name="response functions" >
   <i type="logical" name="LALL_IN_ONE"> F  </i>
   <i type="int" name="IALL_IN_ONE">    -1</i>
   <i type="int" name="NBANDS_WAVE">    -1</i>
   <i type="logical" name="LFINITE_TEMPERATURE"> F  </i>
   <i type="logical" name="LADDER"> F  </i>
   <i type="logical" name="LRPAFORCE"> F  </i>
   <i type="logical" name="LFXC"> F  </i>
   <i type="logical" name="LHARTREE"> T  </i>
   <i type="int" name="IBSE">     0</i>
   <v type="int" name="KPOINT">    -1     0     0     0</v>
   <i type="logical" name="LTCTC"> F  </i>
   <i type="logical" name="LTCTE"> F  </i>
   <i type="logical" name="LTETE"> F  </i>
   <i type="logical" name="LTRIPLET"> F  </i>
   <i type="logical" name="LFXCEPS"> F  </i>
   <i type="logical" name="LFXHEG"> F  </i>
   <i type="int" name="NATURALO">     2</i>
   <i type="logical" name="LHOLEGF"> F  </i>
   <i type="logical" name="L2ORDER"> F  </i>
   <i type="logical" name="LDMP1"> F  </i>
   <i type="logical" name="LMP2LT"> F  </i>
   <i type="logical" name="LSMP2LT"> F  </i>
   <i type="logical" name="LGWLF"> F  </i>
   <i name="ENCUTGW">     -1.60000002</i>
   <i name="ENCUTGWSOFT">     -1.60000002</i>
   <i name="ENCUTLF">     -1.00000000</i>
   <i type="logical" name="ESF_SPLINES"> F  </i>
   <i name="ESF_CONV">      0.01000000</i>
   <i type="int" name="ESF_NINTER">    15</i>
   <i type="int" name="LMAXMP2">    -1</i>
   <i name="SCISSOR">      0.00000000</i>
   <i type="int" name="NOMEGA">     0</i>
   <i type="int" name="NOMEGAR">     0</i>
   <i type="int" name="NBANDSGW">    -1</i>
   <i type="int" name="NBANDSO">    -1</i>
   <i type="int" name="NBANDSV">    -1</i>
   <i type="int" name="NELMGW">     1</i>
   <i type="int" name="NELMHF">     1</i>
   <i type="int" name="DIM">     3</i>
   <i type="int" name="IESPILON">     4</i>
   <i type="int" name="ANTIRES">     0</i>
   <i name="OMEGAMAX">    -30.00000000</i>
   <i name="OMEGAMIN">    -30.00000000</i>
   <i name="OMEGATL">   -200.00000000</i>
   <i type="int" name="OMEGAGRID">     0</i>
   <i name="CSHIFT">     -0.10000000</i>
   <i type="logical" name="LSELFENERGY"> F  </i>
   <i type="logical" name="LSPECTRAL"> F  </i>
   <i type="logical" name="LSPECTRALGW"> F  </i>
   <i type="logical" name="LSINGLES"> F  </i>
   <i type="logical" name="LFERMIGW"> F  </i>
   <i type="logical" name="ODDONLYGW"> F  </i>
   <i type="logical" name="EVENONLYGW"> F  </i>
   <i type="int" name="NKREDLFX">     1</i>
   <i type="int" name="NKREDLFY">     1</i>
   <i type="int" name="NKREDLFZ">     1</i>
   <i type="int" name="MAXMEM">  2800</i>
   <i type="int" name="TELESCOPE">     0</i>
   <i type="int" name="NTAUPAR">    -1</i>
   <i type="int" name="NOMEGAPAR">    -1</i>
   <i name="DAMP_NEWTON">      0.80000001</i>
   <i name="LAMBDA">      1.00000000</i>
  </separator>
  <separator name="External order field" >
   <i name="OFIELD_KAPPA">      0.00000000</i>
   <v name="OFIELD_K">      0.00000000      0.00000000      0.00000000</v>
   <i name="OFIELD_Q6_NEAR">      0.00000000</i>
   <i name="OFIELD_Q6_FAR">      0.00000000</i>
   <i name="OFIELD_A">      0.00000000</i>
  </separator>
  <separator name="optional k-points parameters" >
   <i type="int" name="KPOINTS_OPT_MODE">     1</i>
   <i type="logical" name="LKPOINTS_OPT"> F  </i>
  </separator>
 </parameters>
 <atominfo>
  <atoms>      64 </atoms>
  <types>       1 </types>
  <array name="atoms" >
   <dimension dim="1">ion</dimension>
   <field type="string">element</field>
   <field type="int">atomtype</field>
   <set>
    <rc><c>Si</c><c>   1</c></rc>
    <rc><c>Si</c><c>   1</c></rc>
    <rc><c>Si</c><c>   1</c></rc>
    <rc><c>Si</c><c>   1</c></rc>
    <rc><c>Si</c><c>   1</c></rc>
    <rc><c>Si</c><c>   1</c></rc>
    <rc><c>Si</c><c>   1</c></rc>
    <rc><c>Si</c><c>   1</c></rc>
    <rc><c>Si</c><c>   1</c></rc>
    <rc><c>Si</c><c>   1</c></rc>
    <rc><c>Si</c><c>   1</c></rc>
    <rc><c>Si</c><c>   1</c></rc>
    <rc><c>Si</c><c>   1</c></rc>
    <rc><c>Si</c><c>   1</c></rc>
    <rc><c>Si</c><c>   1</c></rc>
    <rc><c>Si</c><c>   1</c></rc>
    <rc><c>Si</c><c>   1</c></rc>
    <rc><c>Si</c><c>   1</c></rc>
    <rc><c>Si</c><c>   1</c></rc>
    <rc><c>Si</c><c>   1</c></rc>
    <rc><c>Si</c><c>   1</c></rc>
    <rc><c>Si</c><c>   1</c></rc>
    <rc><c>Si</c><c>   1</c></rc>
    <rc><c>Si</c><c>   1</c></rc>
    <rc><c>Si</c><c>   1</c></rc>
    <rc><c>Si</c><c>   1</c></rc>
    <rc><c>Si</c><c>   1</c></rc>
    <rc><c>Si</c><c>   1</c></rc>
    <rc><c>Si</c><c>   1</c></rc>
    <rc><c>Si</c><c>   1</c></rc>
    <rc><c>Si</c><c>   1</c></rc>
    <rc><c>Si</c><c>   1</c></rc>
    <rc><c>Si</c><c>   1</c></rc>
    <rc><c>Si</c><c>   1</c></rc>
    <rc><c>Si</c><c>   1</c></rc>
    <rc><c>Si</c><c>   1</c></rc>
    <rc><c>Si</c><c>   1</c></rc>
    <rc><c>Si</c><c>   1</c></rc>
    <rc><c>Si</c><c>   1</c></rc>
    <rc><c>Si</c><c>   1</c></rc>
    <rc><c>Si</c><c>   1</c></rc>
    <rc><c>Si</c><c>   1</c></rc>
    <rc><c>Si</c><c>   1</c></rc>
    <rc><c>Si</c><c>   1</c></rc>
    <rc><c>Si</c><c>   1</c></rc>
    <rc><c>Si</c><c>   1</c></rc>
    <rc><c>Si</c><c>   1</c></rc>
    <rc><c>Si</c><c>   1</c></rc>
    <rc><c>Si</c><c>   1</c></rc>
    <rc><c>Si</c><c>   1</c></rc>
    <rc><c>Si</c><c>   1</c></rc>
    <rc><c>Si</c><c>   1</c></rc>
    <rc><c>Si</c><c>   1</c></rc>
    <rc><c>Si</c><c>   1</c></rc>
    <rc><c>Si</c><c>   1</c></rc>
    <rc><c>Si</c><c>   1</c></rc>
    <rc><c>Si</c><c>   1</c></rc>
    <rc><c>Si</c><c>   1</c></rc>
    <rc><c>Si</c><c>   1</c></rc>
    <rc><c>Si</c><c>   1</c></rc>
    <rc><c>Si</c><c>   1</c></rc>
    <rc><c>Si</c><c>   1</c></rc>
    <rc><c>Si</c><c>   1</c></rc>
    <rc><c>Si</c><c>   1</c></rc>
   </set>
  </array>
  <array name="atomtypes" >
   <dimension dim="1">type</dimension>
   <field type="int">atomspertype</field>
   <field type="string">element</field>
   <field>mass</field>
   <field>valence</field>
   <field type="string">pseudopotential</field>
   <set>
    <rc><c>  64</c><c>Si</c><c>     28.08500000</c><c>      4.00000000</c><c>  PAW_PBE Si 05Jan2001                  </c></rc>
   </set>
  </array>
 </atominfo>
 <structure name="initialpos" >
  <crystal>
   <varray name="basis" >
    <v>      10.66312457       0.02652500       0.00000000 </v>
    <v>       0.02652500      10.61007357       0.00000000 </v>
    <v>       0.00000000       0.00000000      10.61007357 </v>
   </varray>
   <i name="volume">   1200.37950710 </i>
   <varray name="rec_basis" >
    <v>       0.09378173      -0.00023445       0.00000000 </v>
    <v>      -0.00023445       0.09425064       0.00000000 </v>
    <v>       0.00000000       0.00000000       0.09425005 </v>
   </varray>
  </crystal>
  <varray name="positions" >
   <v>       0.00000000       0.00000000       0.00000000 </v>
   <v>       0.00000000       0.00000000       0.50000000 </v>
   <v>       0.00000000       0.50000000       0.00000000 </v>
   <v>       0.00000000       0.50000000       0.50000000 </v>
   <v>       0.50000000       0.00000000       0.00000000 </v>
   <v>       0.50000000       0.00000000       0.50000000 </v>
   <v>       0.50000000       0.50000000       0.00000000 </v>
   <v>       0.50000000       0.50000000       0.50000000 </v>
   <v>       0.37500000       0.37500000       0.12500000 </v>
   <v>       0.37500000       0.37500000       0.62500000 </v>
   <v>       0.37500000       0.87500000       0.12500000 </v>
   <v>       0.37500000       0.87500000       0.62500000 </v>
   <v>       0.87500000       0.37500000       0.12500000 </v>
   <v>       0.87500000       0.37500000       0.62500000 </v>
   <v>       0.87500000       0.87500000       0.12500000 </v>
   <v>       0.87500000       0.87500000       0.62500000 </v>
   <v>       0.00000000       0.25000000       0.25000000 </v>
   <v>       0.00000000       0.25000000       0.75000000 </v>
   <v>       0.00000000       0.75000000       0.25000000 </v>
   <v>       0.00000000       0.75000000       0.75000000 </v>
   <v>       0.50000000       0.25000000       0.25000000 </v>
   <v>       0.50000000       0.25000000       0.75000000 </v>
   <v>       0.50000000       0.75000000       0.25000000 </v>
   <v>       0.50000000       0.75000000       0.75000000 </v>
   <v>       0.37500000       0.12500000       0.37500000 </v>
   <v>       0.37500000       0.12500000       0.87500000 </v>
   <v>       0.37500000       0.62500000       0.37500000 </v>
   <v>       0.37500000       0.62500000       0.87500000 </v>
   <v>       0.87500000       0.12500000       0.37500000 </v>
   <v>       0.87500000       0.12500000       0.87500000 </v>
   <v>       0.87500000       0.62500000       0.37500000 </v>
   <v>       0.87500000       0.62500000       0.87500000 </v>
   <v>       0.25000000       0.00000000       0.25000000 </v>
   <v>       0.25000000       0.00000000       0.75000000 </v>
   <v>       0.25000000       0.50000000       0.25000000 </v>
   <v>       0.25000000       0.50000000       0.75000000 </v>
   <v>       0.75000000       0.00000000       0.25000000 </v>
   <v>       0.75000000       0.00000000       0.75000000 </v>
   <v>       0.75000000       0.50000000       0.25000000 </v>
   <v>       0.75000000       0.50000000       0.75000000 </v>
   <v>       0.12500000       0.37500000       0.37500000 </v>
   <v>       0.12500000       0.37500000       0.87500000 </v>
   <v>       0.12500000       0.87500000       0.37500000 </v>
   <v>       0.12500000       0.87500000       0.87500000 </v>
   <v>       0.62500000       0.37500000       0.37500000 </v>
   <v>       0.62500000       0.37500000       0.87500000 </v>
   <v>       0.62500000       0.87500000       0.37500000 </v>
   <v>       0.62500000       0.87500000       0.87500000 </v>
   <v>       0.25000000       0.25000000       0.00000000 </v>
   <v>       0.25000000       0.25000000       0.50000000 </v>
   <v>       0.25000000       0.75000000       0.00000000 </v>
   <v>       0.25000000       0.75000000       0.50000000 </v>
   <v>       0.75000000       0.25000000       0.00000000 </v>
   <v>       0.75000000       0.25000000       0.50000000 </v>
   <v>       0.75000000       0.75000000       0.00000000 </v>
   <v>       0.75000000       0.75000000       0.50000000 </v>
   <v>       0.12500000       0.12500000       0.12500000 </v>
   <v>       0.12500000       0.12500000       0.62500000 </v>
   <v>       0.12500000       0.62500000       0.12500000 </v>
   <v>       0.12500000       0.62500000       0.62500000 </v>
   <v>       0.62500000       0.12500000       0.12500000 </v>
   <v>       0.62500000       0.12500000       0.62500000 </v>
   <v>       0.62500000       0.62500000       0.12500000 </v>
   <v>       0.62500000       0.62500000       0.62500000 </v>
  </varray>
 </structure>
 <calculation>
  <scstep>
   <time name="dav">    1.25    1.32</time>
   <time name="total">    1.42    1.49</time>
   <energy>
    <i name="alphaZ">    114.86715905 </i>
    <i name="ewald">  -7473.89344473 </i>
    <i name="hartreedc">   -321.58455134 </i>
    <i name="XCdc">   -550.82847867 </i>
    <i name="pawpsdc">   5598.62625415 </i>
    <i name="pawaedc">  -4492.17844134 </i>
    <i name="eentropy">      0.03515697 </i>
    <i name="bandstr">   1133.15364277 </i>
    <i name="atom">   6564.79586099 </i>
    <i name="e_fr_energy">    572.99315785 </i>
    <i name="e_wo_entrp">    572.95800088 </i>
    <i name="e_0_energy">    572.98143886 </i>
   </energy>
  </scstep>
  <scstep>
   <time name="dav">    1.32    1.34</time>
   <time name="total">    1.33    1.34</time>
   <energy>
    <i name="e_fr_energy">   -309.31721021 </i>
    <i name="e_wo_entrp">   -309.31108590 </i>
    <i name="e_0_energy">   -309.31516878 </i>
   </energy>
  </scstep>
  <scstep>
   <time name="dav">    1.33    1.35</time>
   <time name="total">    1.33    1.35</time>
   <energy>
    <i name="e_fr_energy">   -372.66135060 </i>
    <i name="e_wo_entrp">   -372.66868248 </i>
    <i name="e_0_energy">   -372.66379456 </i>
   </energy>
  </scstep>
  <scstep>
   <time name="dav">    1.31    1.33</time>
   <time name="total">    1.31    1.33</time>
   <energy>
    <i name="e_fr_energy">   -374.28366546 </i>
    <i name="e_wo_entrp">   -374.29170593 </i>
    <i name="e_0_energy">   -374.28634561 </i>
   </energy>
  </scstep>
  <scstep>
   <time name="dav">    1.29    1.30</time>
   <time name="total">    1.57    1.58</time>
   <energy>
    <i name="e_fr_energy">   -374.33559865 </i>
    <i name="e_wo_entrp">   -374.34362690 </i>
    <i name="e_0_energy">   -374.33827474 </i>
   </energy>
  </scstep>
  <scstep>
   <time name="diag">    0.13    0.13</time>
   <time name="diis">    0.69    0.69</time>
   <time name="orth">    0.02    0.02</time>
   <time name="total">    1.26    1.28</time>
   <energy>
    <i name="e_fr_energy">   -368.33084598 </i>
    <i name="e_wo_entrp">   -368.34378787 </i>
    <i name="e_0_energy">   -368.33515994 </i>
   </energy>
  </scstep>
  <scstep>
   <time name="diag">    0.13    0.13</time>
   <time name="diis">    0.70    0.70</time>
   <time name="orth">    0.02    0.02</time>
   <time name="total">    1.27    1.29</time>
   <energy>
    <i name="e_fr_energy">   -365.70516269 </i>
    <i name="e_wo_entrp">   -365.73539018 </i>
    <i name="e_0_energy">   -365.71523852 </i>
   </energy>
  </scstep>
  <scstep>
   <time name="diag">    0.13    0.13</time>
   <time name="diis">    0.70    0.71</time>
   <time name="orth">    0.02    0.02</time>
   <time name="total">    1.28    1.30</time>
   <energy>
    <i name="e_fr_energy">   -365.73870345 </i>
    <i name="e_wo_entrp">   -365.77186847 </i>
    <i name="e_0_energy">   -365.74975846 </i>
   </energy>
  </scstep>
  <scstep>
   <time name="diag">    0.13    0.13</time>
   <time name="diis">    0.75    0.75</time>
   <time name="orth">    0.02    0.02</time>
   <time name="total">    1.31    1.34</time>
   <energy>
    <i name="e_fr_energy">   -365.76179539 </i>
    <i name="e_wo_entrp">   -365.79451865 </i>
    <i name="e_0_energy">   -365.77270315 </i>
   </energy>
  </scstep>
  <scstep>
   <time name="diag">    0.13    0.13</time>
   <time name="diis">    0.72    0.72</time>
   <time name="orth">    0.02    0.02</time>
   <time name="total">    1.29    1.31</time>
   <energy>
    <i name="e_fr_energy">   -365.76586734 </i>
    <i name="e_wo_entrp">   -365.79857104 </i>
    <i name="e_0_energy">   -365.77676857 </i>
   </energy>
  </scstep>
  <scstep>
   <time name="diag">    0.13    0.13</time>
   <time name="diis">    0.69    0.69</time>
   <time name="orth">    0.02    0.02</time>
   <time name="total">    1.25    1.27</time>
   <energy>
    <i name="e_fr_energy">   -365.76156195 </i>
    <i name="e_wo_entrp">   -365.79476059 </i>
    <i name="e_0_energy">   -365.77262816 </i>
   </energy>
  </scstep>
  <scstep>
   <time name="diag">    0.13    0.13</time>
   <time name="diis">    0.69    0.69</time>
   <time name="orth">    0.02    0.02</time>
   <time name="total">    1.25    1.27</time>
   <energy>
    <i name="e_fr_energy">   -365.76167985 </i>
    <i name="e_wo_entrp">   -365.79488863 </i>
    <i name="e_0_energy">   -365.77274944 </i>
   </energy>
  </scstep>
  <scstep>
   <time name="diag">    0.13    0.13</time>
   <time name="diis">    0.72    0.73</time>
   <time name="orth">    0.02    0.02</time>
   <time name="total">    1.29    1.31</time>
   <energy>
    <i name="e_fr_energy">   -365.76174647 </i>
    <i name="e_wo_entrp">   -365.79495532 </i>
    <i name="e_0_energy">   -365.77281609 </i>
   </energy>
  </scstep>
  <scstep>
   <time name="diag">    0.13    0.13</time>
   <time name="diis">    0.69    0.69</time>
   <time name="orth">    0.02    0.02</time>
   <time name="total">    1.26    1.28</time>
   <energy>
    <i name="e_fr_energy">   -365.76162327 </i>
    <i name="e_wo_entrp">   -365.79484200 </i>
    <i name="e_0_energy">   -365.77269618 </i>
   </energy>
  </scstep>
  <scstep>
   <time name="diag">    0.13    0.13</time>
   <time name="diis">    0.69    0.71</time>
   <time name="orth">    0.02    0.02</time>
   <time name="total">    1.25    1.30</time>
   <energy>
    <i name="e_fr_energy">   -365.76179618 </i>
    <i name="e_wo_entrp">   -365.79502813 </i>
    <i name="e_0_energy">   -365.77287349 </i>
   </energy>
  </scstep>
  <scstep>
   <time name="diag">    0.14    0.14</time>
   <time name="diis">    0.69    0.69</time>
   <time name="orth">    0.02    0.02</time>
   <time name="total">    1.27    1.29</time>
   <energy>
    <i name="e_fr_energy">   -365.76193487 </i>
    <i name="e_wo_entrp">   -365.79516294 </i>
    <i name="e_0_energy">   -365.77301089 </i>
   </energy>
  </scstep>
  <scstep>
   <time name="diag">    0.13    0.13</time>
   <time name="diis">    0.68    0.69</time>
   <time name="orth">    0.02    0.02</time>
   <time name="total">    1.25    1.27</time>
   <energy>
    <i name="e_fr_energy">   -365.76197326 </i>
    <i name="e_wo_entrp">   -365.79520508 </i>
    <i name="e_0_energy">   -365.77305054 </i>
   </energy>
  </scstep>
  <scstep>
   <time name="diag">    0.13    0.13</time>
   <time name="diis">    0.67    0.67</time>
   <time name="orth">    0.02    0.02</time>
   <time name="total">    1.24    1.26</time>
   <energy>
    <i name="e_fr_energy">   -365.76198635 </i>
    <i name="e_wo_entrp">   -365.79522151 </i>
    <i name="e_0_energy">   -365.77306474 </i>
   </energy>
  </scstep>
  <scstep>
   <time name="diag">    0.13    0.13</time>
   <time name="diis">    0.47    0.48</time>
   <time name="orth">    0.02    0.02</time>
   <time name="total">    1.04    1.07</time>
   <energy>
    <i name="e_fr_energy">   -365.76198962 </i>
    <i name="e_wo_entrp">   -365.79522598 </i>
    <i name="e_0_energy">   -365.77306840 </i>
   </energy>
  </scstep>
  <scstep>
   <time name="diag">    0.13    0.13</time>
   <time name="diis">    0.44    0.45</time>
   <time name="orth">    0.02    0.02</time>
   <time name="total">    0.75    0.77</time>
   <energy>
    <i name="alphaZ">    114.86715905 </i>
    <i name="ewald">  -7473.89344473 </i>
    <i name="hartreedc">   -444.16148535 </i>
    <i name="XCdc">   -530.02523732 </i>
    <i name="pawpsdc">  32019.17631759 </i>
    <i name="pawaedc"> -30921.31819974 </i>
    <i name="eentropy">      0.03323664 </i>
    <i name="bandstr">    304.76380236 </i>
    <i name="atom">   6564.79586099 </i>
    <i name="e_fr_energy">   -365.76199051 </i>
    <i name="e_wo_entrp">   -365.79522715 </i>
    <i name="e_0_energy">   -365.77306939 </i>
   </energy>
  </scstep>
  <structure>
   <crystal>
    <varray name="basis" >
     <v>      10.66312457       0.02652500       0.00000000 </v>
     <v>       0.02652500      10.61007357       0.00000000 </v>
     <v>       0.00000000       0.00000000      10.61007357 </v>
    </varray>
    <i name="volume">   1200.37950710 </i>
    <varray name="rec_basis" >
     <v>       0.09378173      -0.00023445       0.00000000 </v>
     <v>      -0.00023445       0.09425064       0.00000000 </v>
     <v>       0.00000000       0.00000000       0.09425005 </v>
    </varray>
   </crystal>
   <varray name="positions" >
    <v>       0.00000000       0.00000000       0.00000000 </v>
    <v>       0.00000000       0.00000000       0.50000000 </v>
    <v>       0.00000000       0.50000000       0.00000000 </v>
    <v>       0.00000000       0.50000000       0.50000000 </v>
    <v>       0.50000000       0.00000000       0.00000000 </v>
    <v>       0.50000000       0.00000000       0.50000000 </v>
    <v>       0.50000000       0.50000000       0.00000000 </v>
    <v>       0.50000000       0.50000000       0.50000000 </v>
    <v>       0.37500000       0.37500000       0.12500000 </v>
    <v>       0.37500000       0.37500000       0.62500000 </v>
    <v>       0.37500000       0.87500000       0.12500000 </v>
    <v>       0.37500000       0.87500000       0.62500000 </v>
    <v>       0.87500000       0.37500000       0.12500000 </v>
    <v>       0.87500000       0.37500000       0.62500000 </v>
    <v>       0.87500000       0.87500000       0.12500000 </v>
    <v>       0.87500000       0.87500000       0.62500000 </v>
    <v>       0.00000000       0.25000000       0.25000000 </v>
    <v>       0.00000000       0.25000000       0.75000000 </v>
    <v>       0.00000000       0.75000000       0.25000000 </v>
    <v>       0.00000000       0.75000000       0.75000000 </v>
    <v>       0.50000000       0.25000000       0.25000000 </v>
    <v>       0.50000000       0.25000000       0.75000000 </v>
    <v>       0.50000000       0.75000000       0.25000000 </v>
    <v>       0.50000000       0.75000000       0.75000000 </v>
    <v>       0.37500000       0.12500000       0.37500000 </v>
    <v>       0.37500000       0.12500000       0.87500000 </v>
    <v>       0.37500000       0.62500000       0.37500000 </v>
    <v>       0.37500000       0.62500000       0.87500000 </v>
    <v>       0.87500000       0.12500000       0.37500000 </v>
    <v>       0.87500000       0.12500000       0.87500000 </v>
    <v>       0.87500000       0.62500000       0.37500000 </v>
    <v>       0.87500000       0.62500000       0.87500000 </v>
    <v>       0.25000000       0.00000000       0.25000000 </v>
    <v>       0.25000000       0.00000000       0.75000000 </v>
    <v>       0.25000000       0.50000000       0.25000000 </v>
    <v>       0.25000000       0.50000000       0.75000000 </v>
    <v>       0.75000000       0.00000000       0.25000000 </v>
    <v>       0.75000000       0.00000000       0.75000000 </v>
    <v>       0.75000000       0.50000000       0.25000000 </v>
    <v>       0.75000000       0.50000000       0.75000000 </v>
    <v>       0.12500000       0.37500000       0.37500000 </v>
    <v>       0.12500000       0.37500000       0.87500000 </v>
    <v>       0.12500000       0.87500000       0.37500000 </v>
    <v>       0.12500000       0.87500000       0.87500000 </v>
    <v>       0.62500000       0.37500000       0.37500000 </v>
    <v>       0.62500000       0.37500000       0.87500000 </v>
    <v>       0.62500000       0.87500000       0.37500000 </v>
    <v>       0.62500000       0.87500000       0.87500000 </v>
    <v>       0.25000000       0.25000000       0.00000000 </v>
    <v>       0.25000000       0.25000000       0.50000000 </v>
    <v>       0.25000000       0.75000000       0.00000000 </v>
    <v>       0.25000000       0.75000000       0.50000000 </v>
    <v>       0.75000000       0.25000000       0.00000000 </v>
    <v>       0.75000000       0.25000000       0.50000000 </v>
    <v>       0.75000000       0.75000000       0.00000000 </v>
    <v>       0.75000000       0.75000000       0.50000000 </v>
    <v>       0.12500000       0.12500000       0.12500000 </v>
    <v>       0.12500000       0.12500000       0.62500000 </v>
    <v>       0.12500000       0.62500000       0.12500000 </v>
    <v>       0.12500000       0.62500000       0.62500000 </v>
    <v>       0.62500000       0.12500000       0.12500000 </v>
    <v>       0.62500000       0.12500000       0.62500000 </v>
    <v>       0.62500000       0.62500000       0.12500000 </v>
    <v>       0.62500000       0.62500000       0.62500000 </v>
   </varray>
  </structure>
  <varray name="forces" >
   <v>      -0.00000000       0.00000000       0.06560864 </v>
   <v>      -0.00000000       0.00000000       0.06560864 </v>
   <v>       0.00000000       0.00000000       0.06560864 </v>
   <v>      -0.00000000       0.00000000       0.06560864 </v>
   <v>      -0.00000000      -0.00000000       0.06560864 </v>
   <v>      -0.00000000      -0.00000000       0.06560864 </v>
   <v>       0.00000000      -0.00000000       0.06560864 </v>
   <v>       0.00000000      -0.00000000       0.06560864 </v>
   <v>      -0.00000000       0.00000000      -0.06560864 </v>
   <v>      -0.00000000      -0.00000000      -0.06560864 </v>
   <v>       0.00000000       0.00000000      -0.06560864 </v>
   <v>       0.00000000      -0.00000000      -0.06560864 </v>
   <v>      -0.00000000       0.00000000      -0.06560864 </v>
   <v>      -0.00000000      -0.00000000      -0.06560864 </v>
   <v>      -0.00000000       0.00000000      -0.06560864 </v>
   <v>      -0.00000000      -0.00000000      -0.06560864 </v>
   <v>      -0.00000000       0.00000000       0.06560864 </v>
   <v>      -0.00000000       0.00000000       0.06560864 </v>
   <v>      -0.00000000       0.00000000       0.06560864 </v>
   <v>      -0.00000000       0.00000000       0.06560864 </v>
   <v>       0.00000000      -0.00000000       0.06560864 </v>
   <v>       0.00000000      -0.00000000       0.06560864 </v>
   <v>       0.00000000      -0.00000000       0.06560864 </v>
   <v>       0.00000000      -0.00000000       0.06560864 </v>
   <v>       0.00000000      -0.00000000      -0.06560864 </v>
   <v>      -0.00000000      -0.00000000      -0.06560864 </v>
   <v>       0.00000000      -0.00000000      -0.06560864 </v>
   <v>       0.00000000       0.00000000      -0.06560864 </v>
   <v>      -0.00000000       0.00000000      -0.06560864 </v>
   <v>      -0.00000000       0.00000000      -0.06560864 </v>
   <v>       0.00000000       0.00000000      -0.06560864 </v>
   <v>      -0.00000000       0.00000000      -0.06560864 </v>
   <v>      -0.00000000      -0.00000000       0.06560864 </v>
   <v>      -0.00000000       0.00000000       0.06560864 </v>
   <v>       0.00000000      -0.00000000       0.06560864 </v>
   <v>       0.00000000      -0.00000000       0.06560864 </v>
   <v>       0.00000000       0.00000000       0.06560864 </v>
   <v>      -0.00000000       0.00000000       0.06560864 </v>
   <v>       0.00000000      -0.00000000       0.06560864 </v>
   <v>       0.00000000      -0.00000000       0.06560864 </v>
   <v>      -0.00000000      -0.00000000      -0.06560864 </v>
   <v>      -0.00000000      -0.00000000      -0.06560864 </v>
   <v>      -0.00000000      -0.00000000      -0.06560864 </v>
   <v>      -0.00000000      -0.00000000      -0.06560864 </v>
   <v>       0.00000000       0.00000000      -0.06560864 </v>
   <v>       0.00000000       0.00000000      -0.06560864 </v>
   <v>       0.00000000       0.00000000      -0.06560864 </v>
   <v>       0.00000000       0.00000000      -0.06560864 </v>
   <v>      -0.00000000      -0.00000000       0.06560864 </v>
   <v>       0.00000000       0.00000000       0.06560864 </v>
   <v>      -0.00000000       0.00000000       0.06560864 </v>
   <v>      -0.00000000      -0.00000000       0.06560864 </v>
   <v>      -0.00000000       0.00000000       0.06560864 </v>
   <v>       0.00000000      -0.00000000       0.06560864 </v>
   <v>      -0.00000000       0.00000000       0.06560864 </v>
   <v>       0.00000000      -0.00000000       0.06560864 </v>
   <v>      -0.00000000      -0.00000000      -0.06560864 </v>
   <v>      -0.00000000      -0.00000000      -0.06560864 </v>
   <v>      -0.00000000      -0.00000000      -0.06560864 </v>
   <v>      -0.00000000      -0.00000000      -0.06560864 </v>
   <v>       0.00000000       0.00000000      -0.06560864 </v>
   <v>       0.00000000       0.00000000      -0.06560864 </v>
   <v>       0.00000000       0.00000000      -0.06560864 </v>
   <v>       0.00000000       0.00000000      -0.06560864 </v>
  </varray>
  <varray name="stress" >
   <v>      71.04860800      -6.12074377       0.00000000 </v>
   <v>      -6.12074376      75.31738065       0.00000000 </v>
   <v>       0.00000000       0.00000000      75.29867839 </v>
  </varray>
  <energy>
   <i name="e_fr_energy">   -365.76199051 </i>
   <i name="e_wo_entrp">   -365.79522715 </i>
   <i name="e_0_energy">   -365.77306939 </i>
  </energy>
  <time name="totalsc">   28.92   29.39</time>
 </calculation>
 <calculation>
  <scstep>
   <time name="dav">    1.27    1.28</time>
   <time name="total">    1.68    1.69</time>
   <energy>
    <i name="alphaZ">    114.86715905 </i>
    <i name="ewald">  -7473.95997161 </i>
    <i name="hartreedc">   -444.12916609 </i>
    <i name="XCdc">   -530.02579013 </i>
    <i name="pawpsdc">  32027.49273908 </i>
    <i name="pawaedc"> -30929.63457337 </i>
    <i name="eentropy">      0.03181452 </i>
    <i name="bandstr">    304.79739017 </i>
    <i name="atom">   6564.79586099 </i>
    <i name="e_fr_energy">   -365.76453739 </i>
    <i name="e_wo_entrp">   -365.79635191 </i>
    <i name="e_0_energy">   -365.77514223 </i>
   </energy>
  </scstep>
  <scstep>
   <time name="diag">    0.13    0.13</time>
   <time name="diis">    0.69    0.69</time>
   <time name="orth">    0.02    0.02</time>
   <time name="total">    1.26    1.28</time>
   <energy>
    <i name="e_fr_energy">   -365.76539552 </i>
    <i name="e_wo_entrp">   -365.79721251 </i>
    <i name="e_0_energy">   -365.77600118 </i>
   </energy>
  </scstep>
  <scstep>
   <time name="diag">    0.13    0.13</time>
   <time name="diis">    0.70    0.70</time>
   <time name="orth">    0.02    0.02</time>
   <time name="total">    1.27    1.29</time>
   <energy>
    <i name="e_fr_energy">   -365.76550807 </i>
    <i name="e_wo_entrp">   -365.79738825 </i>
    <i name="e_0_energy">   -365.77613479 </i>
   </energy>
  </scstep>
  <scstep>
   <time name="diag">    0.14    0.14</time>
   <time name="diis">    0.70    0.71</time>
   <time name="orth">    0.02    0.02</time>
   <time name="total">    1.29    1.30</time>
   <energy>
    <i name="e_fr_energy">   -365.76550459 </i>
    <i name="e_wo_entrp">   -365.79743754 </i>
    <i name="e_0_energy">   -365.77614891 </i>
   </energy>
  </scstep>
  <scstep>
   <time name="diag">    0.14    0.14</time>
   <time name="diis">    0.70    0.70</time>
   <time name="orth">    0.02    0.02</time>
   <time name="total">    1.27    1.29</time>
   <energy>
    <i name="e_fr_energy">   -365.76550619 </i>
    <i name="e_wo_entrp">   -365.79745798 </i>
    <i name="e_0_energy">   -365.77615679 </i>
   </energy>
  </scstep>
  <scstep>
   <time name="diag">    0.13    0.14</time>
   <time name="diis">    0.60    0.61</time>
   <time name="orth">    0.02    0.02</time>
   <time name="total">    1.19    1.20</time>
   <energy>
    <i name="e_fr_energy">   -365.76550699 </i>
    <i name="e_wo_entrp">   -365.79745816 </i>
    <i name="e_0_energy">   -365.77615738 </i>
   </energy>
  </scstep>
  <scstep>
   <time name="diag">    0.13    0.14</time>
   <time name="diis">    0.48    0.49</time>
   <time name="orth">    0.02    0.02</time>
   <time name="total">    1.05    1.09</time>
   <energy>
    <i name="e_fr_energy">   -365.76550709 </i>
    <i name="e_wo_entrp">   -365.79745776 </i>
    <i name="e_0_energy">   -365.77615732 </i>
   </energy>
  </scstep>
  <scstep>
   <time name="diag">    0.14    0.14</time>
   <time name="diis">    0.42    0.42</time>
   <time name="orth">    0.02    0.02</time>
   <time name="total">    0.74    0.75</time>
   <energy>
    <i name="alphaZ">    114.86715905 </i>
    <i name="ewald">  -7473.95997161 </i>
    <i name="hartreedc">   -444.10308859 </i>
    <i name="XCdc">   -530.02932923 </i>
    <i name="pawpsdc">  32026.02885234 </i>
    <i name="pawaedc"> -30928.16878371 </i>
    <i name="eentropy">      0.03195080 </i>
    <i name="bandstr">    304.77184284 </i>
    <i name="atom">   6564.79586099 </i>
    <i name="e_fr_energy">   -365.76550711 </i>
    <i name="e_wo_entrp">   -365.79745791 </i>
    <i name="e_0_energy">   -365.77615738 </i>
   </energy>
  </scstep>
  <structure>
   <crystal>
    <varray name="basis" >
     <v>      10.66312457       0.02652500       0.00000000 </v>
     <v>       0.02652500      10.61007357       0.00000000 </v>
     <v>       0.00000000       0.00000000      10.61007357 </v>
    </varray>
    <i name="volume">   1200.37950710 </i>
    <varray name="rec_basis" >
     <v>       0.09378173      -0.00023445       0.00000000 </v>
     <v>      -0.00023445       0.09425064       0.00000000 </v>
     <v>       0.00000000       0.00000000       0.09425005 </v>
    </varray>
   </crystal>
   <varray name="positions" >
    <v>       1.00000000       0.00000000       0.00029831 </v>
    <v>       1.00000000       0.00000000       0.50029831 </v>
    <v>       0.00000000       0.50000000       0.00029831 </v>
    <v>       1.00000000       0.50000000       0.50029831 </v>
    <v>       0.50000000       1.00000000       0.00029831 </v>
    <v>       0.50000000       1.00000000       0.50029831 </v>
    <v>       0.50000000       0.50000000       0.00029831 </v>
    <v>       0.50000000       0.50000000       0.50029831 </v>
    <v>       0.37500000       0.37500000       0.12470169 </v>
    <v>       0.37500000       0.37500000       0.62470169 </v>
    <v>       0.37500000       0.87500000       0.12470169 </v>
    <v>       0.37500000       0.87500000       0.62470169 </v>
    <v>       0.87500000       0.37500000       0.12470169 </v>
    <v>       0.87500000       0.37500000       0.62470169 </v>
    <v>       0.87500000       0.87500000       0.12470169 </v>
    <v>       0.87500000       0.87500000       0.62470169 </v>
    <v>       1.00000000       0.25000000       0.25029831 </v>
    <v>       1.00000000       0.25000000       0.75029831 </v>
    <v>       1.00000000       0.75000000       0.25029831 </v>
    <v>       1.00000000       0.75000000       0.75029831 </v>
    <v>       0.50000000       0.25000000       0.25029831 </v>
    <v>       0.50000000       0.25000000       0.75029831 </v>
    <v>       0.50000000       0.75000000       0.25029831 </v>
    <v>       0.50000000       0.75000000       0.75029831 </v>
    <v>       0.37500000       0.12500000       0.37470169 </v>
    <v>       0.37500000       0.12500000       0.87470169 </v>
    <v>       0.37500000       0.62500000       0.37470169 </v>
    <v>       0.37500000       0.62500000       0.87470169 </v>
    <v>       0.87500000       0.12500000       0.37470169 </v>
    <v>       0.87500000       0.12500000       0.87470169 </v>
    <v>       0.87500000       0.62500000       0.37470169 </v>
    <v>       0.87500000       0.62500000       0.87470169 </v>
    <v>       0.25000000       1.00000000       0.25029831 </v>
    <v>       0.25000000       0.00000000       0.75029831 </v>
    <v>       0.25000000       0.50000000       0.25029831 </v>
    <v>       0.25000000       0.50000000       0.75029831 </v>
    <v>       0.75000000       0.00000000       0.25029831 </v>
    <v>       0.75000000       0.00000000       0.75029831 </v>
    <v>       0.75000000       0.50000000       0.25029831 </v>
    <v>       0.75000000       0.50000000       0.75029831 </v>
    <v>       0.12500000       0.37500000       0.37470169 </v>
    <v>       0.12500000       0.37500000       0.87470169 </v>
    <v>       0.12500000       0.87500000       0.37470169 </v>
    <v>       0.12500000       0.87500000       0.87470169 </v>
    <v>       0.62500000       0.37500000       0.37470169 </v>
    <v>       0.62500000       0.37500000       0.87470169 </v>
    <v>       0.62500000       0.87500000       0.37470169 </v>
    <v>       0.62500000       0.87500000       0.87470169 </v>
    <v>       0.25000000       0.25000000       0.00029831 </v>
    <v>       0.25000000       0.25000000       0.50029831 </v>
    <v>       0.25000000       0.75000000       0.00029831 </v>
    <v>       0.25000000       0.75000000       0.50029831 </v>
    <v>       0.75000000       0.25000000       0.00029831 </v>
    <v>       0.75000000       0.25000000       0.50029831 </v>
    <v>       0.75000000       0.75000000       0.00029831 </v>
    <v>       0.75000000       0.75000000       0.50029831 </v>
    <v>       0.12500000       0.12500000       0.12470169 </v>
    <v>       0.12500000       0.12500000       0.62470169 </v>
    <v>       0.12500000       0.62500000       0.12470169 </v>
    <v>       0.12500000       0.62500000       0.62470169 </v>
    <v>       0.62500000       0.12500000       0.12470169 </v>
    <v>       0.62500000       0.12500000       0.62470169 </v>
    <v>       0.62500000       0.62500000       0.12470169 </v>
    <v>       0.62500000       0.62500000       0.62470169 </v>
   </varray>
  </structure>
  <varray name="forces" >
   <v>      -0.00000000       0.00000000      -0.03075830 </v>
   <v>      -0.00000000       0.00000000      -0.03075830 </v>
   <v>       0.00000000       0.00000000      -0.03075830 </v>
   <v>       0.00000000       0.00000000      -0.03075830 </v>
   <v>       0.00000000      -0.00000000      -0.03075830 </v>
   <v>       0.00000000      -0.00000000      -0.03075830 </v>
   <v>       0.00000000      -0.00000000      -0.03075830 </v>
   <v>       0.00000000      -0.00000000      -0.03075830 </v>
   <v>      -0.00000000      -0.00000000       0.03075830 </v>
   <v>       0.00000000      -0.00000000       0.03075830 </v>
   <v>       0.00000000       0.00000000       0.03075830 </v>
   <v>       0.00000000      -0.00000000       0.03075830 </v>
   <v>       0.00000000      -0.00000000       0.03075830 </v>
   <v>       0.00000000      -0.00000000       0.03075830 </v>
   <v>      -0.00000000       0.00000000       0.03075830 </v>
   <v>      -0.00000000       0.00000000       0.03075830 </v>
   <v>      -0.00000000       0.00000000      -0.03075830 </v>
   <v>      -0.00000000       0.00000000      -0.03075830 </v>
   <v>       0.00000000       0.00000000      -0.03075830 </v>
   <v>       0.00000000       0.00000000      -0.03075830 </v>
   <v>       0.00000000      -0.00000000      -0.03075830 </v>
   <v>       0.00000000      -0.00000000      -0.03075830 </v>
   <v>      -0.00000000      -0.00000000      -0.03075830 </v>
   <v>      -0.00000000      -0.00000000      -0.03075830 </v>
   <v>      -0.00000000       0.00000000       0.03075830 </v>
   <v>      -0.00000000      -0.00000000       0.03075830 </v>
   <v>      -0.00000000       0.00000000       0.03075830 </v>
   <v>      -0.00000000      -0.00000000       0.03075830 </v>
   <v>       0.00000000      -0.00000000       0.03075830 </v>
   <v>      -0.00000000       0.00000000       0.03075830 </v>
   <v>      -0.00000000       0.00000000       0.03075830 </v>
   <v>      -0.00000000      -0.00000000       0.03075830 </v>
   <v>      -0.00000000      -0.00000000      -0.03075830 </v>
   <v>      -0.00000000       0.00000000      -0.03075830 </v>
   <v>       0.00000000      -0.00000000      -0.03075830 </v>
   <v>      -0.00000000       0.00000000      -0.03075830 </v>
   <v>      -0.00000000       0.00000000      -0.03075830 </v>
   <v>      -0.00000000      -0.00000000      -0.03075830 </v>
   <v>       0.00000000       0.00000000      -0.03075830 </v>
   <v>       0.00000000      -0.00000000      -0.03075830 </v>
   <v>       0.00000000      -0.00000000       0.03075830 </v>
   <v>       0.00000000      -0.00000000       0.03075830 </v>
   <v>       0.00000000      -0.00000000       0.03075830 </v>
   <v>       0.00000000      -0.00000000       0.03075830 </v>
   <v>       0.00000000       0.00000000       0.03075830 </v>
   <v>      -0.00000000       0.00000000       0.03075830 </v>
   <v>      -0.00000000       0.00000000       0.03075830 </v>
   <v>      -0.00000000       0.00000000       0.03075830 </v>
   <v>       0.00000000      -0.00000000      -0.03075830 </v>
   <v>      -0.00000000       0.00000000      -0.03075830 </v>
   <v>      -0.00000000      -0.00000000      -0.03075830 </v>
   <v>      -0.00000000       0.00000000      -0.03075830 </v>
   <v>       0.00000000      -0.00000000      -0.03075830 </v>
   <v>       0.00000000       0.00000000      -0.03075830 </v>
   <v>       0.00000000       0.00000000      -0.03075830 </v>
   <v>      -0.00000000      -0.00000000      -0.03075830 </v>
   <v>       0.00000000      -0.00000000       0.03075830 </v>
   <v>       0.00000000      -0.00000000       0.03075830 </v>
   <v>       0.00000000      -0.00000000       0.03075830 </v>
   <v>       0.00000000      -0.00000000       0.03075830 </v>
   <v>      -0.00000000       0.00000000       0.03075830 </v>
   <v>      -0.00000000       0.00000000       0.03075830 </v>
   <v>       0.00000000      -0.00000000       0.03075830 </v>
   <v>      -0.00000000       0.00000000       0.03075830 </v>
  </varray>
  <varray name="stress" >
   <v>      71.03199193      -2.55988169       0.00000000 </v>
   <v>      -2.55988159      75.31822587       0.00000000 </v>
   <v>       0.00000000       0.00000000      75.23181090 </v>
  </varray>
  <energy>
   <i name="e_fr_energy">   -365.76550711 </i>
   <i name="e_wo_entrp">   -365.79745791 </i>
   <i name="e_0_energy">   -365.77615738 </i>
  </energy>
  <time name="totalsc">   13.38   13.55</time>
 </calculation>
 <calculation>
  <scstep>
   <time name="dav">    1.25    1.26</time>
   <time name="total">    1.66    1.67</time>
   <energy>
    <i name="alphaZ">    114.86715905 </i>
    <i name="ewald">  -7473.94229723 </i>
    <i name="hartreedc">   -444.11359513 </i>
    <i name="XCdc">   -530.02884232 </i>
    <i name="pawpsdc">  32025.96684151 </i>
    <i name="pawaedc"> -30928.10676557 </i>
    <i name="eentropy">      0.03256742 </i>
    <i name="bandstr">    304.76265932 </i>
    <i name="atom">   6564.79586099 </i>
    <i name="e_fr_energy">   -365.76641196 </i>
    <i name="e_wo_entrp">   -365.79897938 </i>
    <i name="e_0_energy">   -365.77726777 </i>
   </energy>
  </scstep>
  <scstep>
   <time name="diag">    0.13    0.13</time>
   <time name="diis">    0.68    0.69</time>
   <time name="orth">    0.02    0.02</time>
   <time name="total">    1.26    1.27</time>
   <energy>
    <i name="e_fr_energy">   -365.76649762 </i>
    <i name="e_wo_entrp">   -365.79906406 </i>
    <i name="e_0_energy">   -365.77735310 </i>
   </energy>
  </scstep>
  <scstep>
   <time name="diag">    0.13    0.13</time>
   <time name="diis">    0.70    0.71</time>
   <time name="orth">    0.02    0.02</time>
   <time name="total">    1.27    1.29</time>
   <energy>
    <i name="e_fr_energy">   -365.76650874 </i>
    <i name="e_wo_entrp">   -365.79906031 </i>
    <i name="e_0_energy">   -365.77735926 </i>
   </energy>
  </scstep>
  <scstep>
   <time name="diag">    0.13    0.13</time>
   <time name="diis">    0.70    0.70</time>
   <time name="orth">    0.02    0.02</time>
   <time name="total">    1.26    1.28</time>
   <energy>
    <i name="e_fr_energy">   -365.76650845 </i>
    <i name="e_wo_entrp">   -365.79904767 </i>
    <i name="e_0_energy">   -365.77735486 </i>
   </energy>
  </scstep>
  <scstep>
   <time name="diag">    0.13    0.13</time>
   <time name="diis">    0.52    0.52</time>
   <time name="orth">    0.02    0.02</time>
   <time name="total">    1.09    1.11</time>
   <energy>
    <i name="e_fr_energy">   -365.76650861 </i>
    <i name="e_wo_entrp">   -365.79904324 </i>
    <i name="e_0_energy">   -365.77735348 </i>
   </energy>
  </scstep>
  <scstep>
   <time name="diag">    0.13    0.13</time>
   <time name="diis">    0.44    0.44</time>
   <time name="orth">    0.02    0.02</time>
   <time name="total">    1.01    1.03</time>
   <energy>
    <i name="e_fr_energy">   -365.76650867 </i>
    <i name="e_wo_entrp">   -365.79904352 </i>
    <i name="e_0_energy">   -365.77735362 </i>
   </energy>
  </scstep>
  <scstep>
   <time name="diag">    0.13    0.13</time>
   <time name="diis">    0.39    0.39</time>
   <time name="orth">    0.02    0.02</time>
   <time name="total">    0.96    0.98</time>
   <energy>
    <i name="e_fr_energy">   -365.76650868 </i>
    <i name="e_wo_entrp">   -365.79904363 </i>
    <i name="e_0_energy">   -365.77735367 </i>
   </energy>
  </scstep>
  <scstep>
   <time name="diag">    0.13    0.13</time>
   <time name="diis">    0.34    0.34</time>
   <time name="orth">    0.02    0.02</time>
   <time name="total">    0.64    0.66</time>
   <energy>
    <i name="alphaZ">    114.86715905 </i>
    <i name="ewald">  -7473.94229723 </i>
    <i name="hartreedc">   -444.12134804 </i>
    <i name="XCdc">   -530.02777126 </i>
    <i name="pawpsdc">  32027.04337389 </i>
    <i name="pawaedc"> -30929.18381691 </i>
    <i name="eentropy">      0.03253493 </i>
    <i name="bandstr">    304.76979589 </i>
    <i name="atom">   6564.79586099 </i>
    <i name="e_fr_energy">   -365.76650869 </i>
    <i name="e_wo_entrp">   -365.79904362 </i>
    <i name="e_0_energy">   -365.77735367 </i>
   </energy>
  </scstep>
  <structure>
   <crystal>
    <varray name="basis" >
     <v>      10.66312457       0.02652500       0.00000000 </v>
     <v>       0.02652500      10.61007357       0.00000000 </v>
     <v>       0.00000000       0.00000000      10.61007357 </v>
    </varray>
    <i name="volume">   1200.37950710 </i>
    <varray name="rec_basis" >
     <v>       0.09378173      -0.00023445       0.00000000 </v>
     <v>      -0.00023445       0.09425064       0.00000000 </v>
     <v>       0.00000000       0.00000000       0.09425005 </v>
    </varray>
   </crystal>
   <varray name="positions" >
    <v>       0.00000000       0.00000000       0.00020310 </v>
    <v>       0.00000000       0.00000000       0.50020310 </v>
    <v>       0.00000000       0.50000000       0.00020310 </v>
    <v>       0.00000000       0.50000000       0.50020310 </v>
    <v>       0.50000000       0.00000000       0.00020310 </v>
    <v>       0.50000000       0.00000000       0.50020310 </v>
    <v>       0.50000000       0.50000000       0.00020310 </v>
    <v>       0.50000000       0.50000000       0.50020310 </v>
    <v>       0.37500000       0.37500000       0.12479690 </v>
    <v>       0.37500000       0.37500000       0.62479690 </v>
    <v>       0.37500000       0.87500000       0.12479690 </v>
    <v>       0.37500000       0.87500000       0.62479690 </v>
    <v>       0.87500000       0.37500000       0.12479690 </v>
    <v>       0.87500000       0.37500000       0.62479690 </v>
    <v>       0.87500000       0.87500000       0.12479690 </v>
    <v>       0.87500000       0.87500000       0.62479690 </v>
    <v>       0.00000000       0.25000000       0.25020310 </v>
    <v>       0.00000000       0.25000000       0.75020310 </v>
    <v>       0.00000000       0.75000000       0.25020310 </v>
    <v>       0.00000000       0.75000000       0.75020310 </v>
    <v>       0.50000000       0.25000000       0.25020310 </v>
    <v>       0.50000000       0.25000000       0.75020310 </v>
    <v>       0.50000000       0.75000000       0.25020310 </v>
    <v>       0.50000000       0.75000000       0.75020310 </v>
    <v>       0.37500000       0.12500000       0.37479690 </v>
    <v>       0.37500000       0.12500000       0.87479690 </v>
    <v>       0.37500000       0.62500000       0.37479690 </v>
    <v>       0.37500000       0.62500000       0.87479690 </v>
    <v>       0.87500000       0.12500000       0.37479690 </v>
    <v>       0.87500000       0.12500000       0.87479690 </v>
    <v>       0.87500000       0.62500000       0.37479690 </v>
    <v>       0.87500000       0.62500000       0.87479690 </v>
    <v>       0.25000000       0.00000000       0.25020310 </v>
    <v>       0.25000000       0.00000000       0.75020310 </v>
    <v>       0.25000000       0.50000000       0.25020310 </v>
    <v>       0.25000000       0.50000000       0.75020310 </v>
    <v>       0.75000000       0.00000000       0.25020310 </v>
    <v>       0.75000000       0.00000000       0.75020310 </v>
    <v>       0.75000000       0.50000000       0.25020310 </v>
    <v>       0.75000000       0.50000000       0.75020310 </v>
    <v>       0.12500000       0.37500000       0.37479690 </v>
    <v>       0.12500000       0.37500000       0.87479690 </v>
    <v>       0.12500000       0.87500000       0.37479690 </v>
    <v>       0.12500000       0.87500000       0.87479690 </v>
    <v>       0.62500000       0.37500000       0.37479690 </v>
    <v>       0.62500000       0.37500000       0.87479690 </v>
    <v>       0.62500000       0.87500000       0.37479690 </v>
    <v>       0.62500000       0.87500000       0.87479690 </v>
    <v>       0.25000000       0.25000000       0.00020310 </v>
    <v>       0.25000000       0.25000000       0.50020310 </v>
    <v>       0.25000000       0.75000000       0.00020310 </v>
    <v>       0.25000000       0.75000000       0.50020310 </v>
    <v>       0.75000000       0.25000000       0.00020310 </v>
    <v>       0.75000000       0.25000000       0.50020310 </v>
    <v>       0.75000000       0.75000000       0.00020310 </v>
    <v>       0.75000000       0.75000000       0.50020310 </v>
    <v>       0.12500000       0.12500000       0.12479690 </v>
    <v>       0.12500000       0.12500000       0.62479690 </v>
    <v>       0.12500000       0.62500000       0.12479690 </v>
    <v>       0.12500000       0.62500000       0.62479690 </v>
    <v>       0.62500000       0.12500000       0.12479690 </v>
    <v>       0.62500000       0.12500000       0.62479690 </v>
    <v>       0.62500000       0.62500000       0.12479690 </v>
    <v>       0.62500000       0.62500000       0.62479690 </v>
   </varray>
  </structure>
  <varray name="forces" >
   <v>       0.00000000      -0.00000000      -0.00003447 </v>
   <v>       0.00000000      -0.00000000      -0.00003447 </v>
   <v>      -0.00000000      -0.00000000      -0.00003447 </v>
   <v>      -0.00000000      -0.00000000      -0.00003447 </v>
   <v>       0.00000000       0.00000000      -0.00003447 </v>
   <v>       0.00000000       0.00000000      -0.00003447 </v>
   <v>       0.00000000       0.00000000      -0.00003447 </v>
   <v>      -0.00000000       0.00000000      -0.00003447 </v>
   <v>       0.00000000      -0.00000000       0.00003447 </v>
   <v>      -0.00000000       0.00000000       0.00003447 </v>
   <v>      -0.00000000      -0.00000000       0.00003447 </v>
   <v>      -0.00000000       0.00000000       0.00003447 </v>
   <v>       0.00000000      -0.00000000       0.00003447 </v>
   <v>      -0.00000000      -0.00000000       0.00003447 </v>
   <v>       0.00000000      -0.00000000       0.00003447 </v>
   <v>       0.00000000       0.00000000       0.00003447 </v>
   <v>       0.00000000      -0.00000000      -0.00003447 </v>
   <v>      -0.00000000      -0.00000000      -0.00003447 </v>
   <v>      -0.00000000      -0.00000000      -0.00003447 </v>
   <v>      -0.00000000      -0.00000000      -0.00003447 </v>
   <v>       0.00000000       0.00000000      -0.00003447 </v>
   <v>      -0.00000000       0.00000000      -0.00003447 </v>
   <v>       0.00000000       0.00000000      -0.00003447 </v>
   <v>       0.00000000       0.00000000      -0.00003447 </v>
   <v>      -0.00000000      -0.00000000       0.00003447 </v>
   <v>      -0.00000000       0.00000000       0.00003447 </v>
   <v>      -0.00000000      -0.00000000       0.00003447 </v>
   <v>      -0.00000000       0.00000000       0.00003447 </v>
   <v>       0.00000000       0.00000000       0.00003447 </v>
   <v>       0.00000000       0.00000000       0.00003447 </v>
   <v>       0.00000000       0.00000000       0.00003447 </v>
   <v>       0.00000000       0.00000000       0.00003447 </v>
   <v>      -0.00000000      -0.00000000      -0.00003447 </v>
   <v>      -0.00000000      -0.00000000      -0.00003447 </v>
   <v>      -0.00000000       0.00000000      -0.00003447 </v>
   <v>       0.00000000      -0.00000000      -0.00003447 </v>
   <v>       0.00000000      -0.00000000      -0.00003447 </v>
   <v>      -0.00000000      -0.00000000      -0.00003447 </v>
   <v>       0.00000000       0.00000000      -0.00003447 </v>
   <v>      -0.00000000       0.00000000      -0.00003447 </v>
   <v>       0.00000000       0.00000000       0.00003447 </v>
   <v>       0.00000000       0.00000000       0.00003447 </v>
   <v>       0.00000000       0.00000000       0.00003447 </v>
   <v>       0.00000000       0.00000000       0.00003447 </v>
   <v>      -0.00000000      -0.00000000       0.00003447 </v>
   <v>      -0.00000000      -0.00000000       0.00003447 </v>
   <v>      -0.00000000      -0.00000000       0.00003447 </v>
   <v>       0.00000000      -0.00000000       0.00003447 </v>
   <v>      -0.00000000       0.00000000      -0.00003447 </v>
   <v>       0.00000000      -0.00000000      -0.00003447 </v>
   <v>      -0.00000000       0.00000000      -0.00003447 </v>
   <v>       0.00000000      -0.00000000      -0.00003447 </v>
   <v>       0.00000000       0.00000000      -0.00003447 </v>
   <v>      -0.00000000       0.00000000      -0.00003447 </v>
   <v>       0.00000000       0.00000000      -0.00003447 </v>
   <v>      -0.00000000       0.00000000      -0.00003447 </v>
   <v>       0.00000000       0.00000000       0.00003447 </v>
   <v>       0.00000000       0.00000000       0.00003447 </v>
   <v>       0.00000000       0.00000000       0.00003447 </v>
   <v>      -0.00000000       0.00000000       0.00003447 </v>
   <v>      -0.00000000      -0.00000000       0.00003447 </v>
   <v>      -0.00000000      -0.00000000       0.00003447 </v>
   <v>       0.00000000      -0.00000000       0.00003447 </v>
   <v>      -0.00000000      -0.00000000       0.00003447 </v>
  </varray>
  <varray name="stress" >
   <v>      71.02981182      -3.69403345       0.00000000 </v>
   <v>      -3.69403345      75.31984013       0.00000000 </v>
   <v>       0.00000000       0.00000000      75.25706947 </v>
  </varray>
  <energy>
   <i name="e_fr_energy">   -365.76650869 </i>
   <i name="e_wo_entrp">   -365.79904362 </i>
   <i name="e_0_energy">   -365.77735367 </i>
  </energy>
  <time name="totalsc">   12.64   12.80</time>
  <eigenvalues>
   <array>
    <dimension dim="1">band</dimension>
    <dimension dim="2">kpoint</dimension>
    <dimension dim="3">spin</dimension>
    <field>eigene</field>
    <field>occ</field>
    <set>
     <set comment="spin 1">
      <set comment="kpoint 1">
       <r>   -5.9808    1.0000 </r>
       <r>   -4.8390    1.0000 </r>
       <r>   -4.8390    1.0000 </r>
       <r>   -4.8292    1.0000 </r>
       <r>   -4.8292    1.0000 </r>
       <r>   -4.8291    1.0000 </r>
       <r>   -4.8291    1.0000 </r>
       <r>   -3.8138    1.0000 </r>
       <r>   -3.8138    1.0000 </r>
       <r>   -3.8016    1.0000 </r>
       <r>   -3.8016    1.0000 </r>
       <r>   -3.8016    1.0000 </r>
       <r>   -3.8016    1.0000 </r>
       <r>   -3.7944    1.0000 </r>
       <r>   -3.7944    1.0000 </r>
       <r>   -3.7944    1.0000 </r>
       <r>   -3.7944    1.0000 </r>
       <r>   -3.7893    1.0000 </r>
       <r>   -3.7893    1.0000 </r>
       <r>   -3.4721    1.0000 </r>
       <r>   -3.4721    1.0000 </r>
       <r>   -3.4467    1.0000 </r>
       <r>   -3.4467    1.0000 </r>
       <r>   -1.5984    1.0000 </r>
       <r>   -1.5984    1.0000 </r>
       <r>   -1.5732    1.0000 </r>
       <r>   -1.5658    1.0000 </r>
       <r>   -1.5658    1.0000 </r>
       <r>   -1.5588    1.0000 </r>
       <r>   -1.3911    1.0000 </r>
       <r>   -1.3911    1.0000 </r>
       <r>   -1.3798    1.0000 </r>
       <r>   -1.3798    1.0000 </r>
       <r>   -1.3777    1.0000 </r>
       <r>   -1.3777    1.0000 </r>
       <r>   -1.3777    1.0000 </r>
       <r>   -1.3777    1.0000 </r>
       <r>   -1.3645    1.0000 </r>
       <r>   -1.3645    1.0000 </r>
       <r>   -1.3535    1.0000 </r>
       <r>   -1.3535    1.0000 </r>
       <r>   -0.8723    1.0000 </r>
       <r>   -0.8723    1.0000 </r>
       <r>   -0.8587    1.0000 </r>
       <r>   -0.8587    1.0000 </r>
       <r>    0.8392    1.0000 </r>
       <r>    0.8392    1.0000 </r>
       <r>    0.8392    1.0000 </r>
       <r>    0.8392    1.0000 </r>
       <r>    0.8543    1.0000 </r>
       <r>    0.8543    1.0000 </r>
       <r>    0.8588    1.0000 </r>
       <r>    0.8588    1.0000 </r>
       <r>    0.8588    1.0000 </r>
       <r>    0.8588    1.0000 </r>
       <r>    0.8636    1.0000 </r>
       <r>    0.8636    1.0000 </r>
       <r>    2.2700    1.0000 </r>
       <r>    2.2700    1.0000 </r>
       <r>    2.2729    1.0000 </r>
       <r>    2.2729    1.0000 </r>
       <r>    2.2766    1.0000 </r>
       <r>    2.2766    1.0000 </r>
       <r>    2.2766    1.0000 </r>
       <r>    2.2766    1.0000 </r>
       <r>    2.2832    1.0000 </r>
       <r>    2.2833    1.0000 </r>
       <r>    2.2864    1.0000 </r>
       <r>    2.2864    1.0000 </r>
       <r>    2.3904    1.0000 </r>
       <r>    2.3904    1.0000 </r>
       <r>    2.3904    1.0000 </r>
       <r>    2.3904    1.0000 </r>
       <r>    2.4148    1.0000 </r>
       <r>    2.4148    1.0000 </r>
       <r>    2.4198    1.0000 </r>
       <r>    2.4198    1.0000 </r>
       <r>    2.4198    1.0000 </r>
       <r>    2.4198    1.0000 </r>
       <r>    2.4244    1.0000 </r>
       <r>    2.4244    1.0000 </r>
       <r>    2.9362    1.0000 </r>
       <r>    2.9362    1.0000 </r>
       <r>    2.9747    1.0000 </r>
       <r>    2.9747    1.0000 </r>
       <r>    2.9749    1.0000 </r>
       <r>    2.9749    1.0000 </r>
       <r>    3.3737    1.0000 </r>
       <r>    3.4099    1.0000 </r>
       <r>    3.4099    1.0000 </r>
       <r>    3.4463    1.0000 </r>
       <r>    3.4505    1.0000 </r>
       <r>    3.4505    1.0000 </r>
       <r>    4.3944    1.0000 </r>
       <r>    4.3944    1.0000 </r>
       <r>    4.4238    1.0000 </r>
       <r>    4.4238    1.0000 </r>
       <r>    4.4349    1.0000 </r>
       <r>    4.4349    1.0000 </r>
       <r>    4.4608    1.0000 </r>
       <r>    4.4608    1.0000 </r>
       <r>    4.4609    1.0000 </r>
       <r>    4.4609    1.0000 </r>
       <r>    4.4645    1.0000 </r>
       <r>    4.4645    1.0000 </r>
       <r>    5.0218    1.0000 </r>
       <r>    5.0218    1.0000 </r>
       <r>    5.0478    1.0000 </r>
       <r>    5.0478    1.0000 </r>
       <r>    5.0478    1.0000 </r>
       <r>    5.0478    1.0000 </r>
       <r>    5.0742    1.0000 </r>
       <r>    5.0742    1.0000 </r>
       <r>    5.0904    1.0000 </r>
       <r>    5.0904    1.0000 </r>
       <r>    5.0904    1.0000 </r>
       <r>    5.0904    1.0000 </r>
       <r>    5.1656    1.0000 </r>
       <r>    5.1656    1.0000 </r>
       <r>    5.2066    1.0000 </r>
       <r>    5.2066    1.0000 </r>
       <r>    5.2299    1.0000 </r>
       <r>    5.2299    1.0000 </r>
       <r>    5.2507    1.0000 </r>
       <r>    5.2507    1.0000 </r>
       <r>    6.4346    1.0339 </r>
       <r>    6.4864    1.0311 </r>
       <r>    6.5026    1.0243 </r>
       <r>    6.8717   -0.0025 </r>
       <r>    6.9115   -0.0298 </r>
       <r>    6.9115   -0.0298 </r>
       <r>    6.9516   -0.0353 </r>
       <r>    6.9529   -0.0353 </r>
       <r>    6.9529   -0.0353 </r>
       <r>    7.4272   -0.0000 </r>
       <r>    7.4272   -0.0000 </r>
       <r>    7.4275   -0.0000 </r>
       <r>    7.4275   -0.0000 </r>
       <r>    7.4681   -0.0000 </r>
       <r>    7.4681   -0.0000 </r>
       <r>    8.1424   -0.0000 </r>
       <r>    8.1424   -0.0000 </r>
       <r>    8.1962   -0.0000 </r>
       <r>    8.1962   -0.0000 </r>
       <r>    8.8186   -0.0000 </r>
       <r>    8.8186   -0.0000 </r>
       <r>    8.8466   -0.0000 </r>
       <r>    8.8466   -0.0000 </r>
       <r>    8.8466   -0.0000 </r>
       <r>    8.8466   -0.0000 </r>
       <r>    8.8749   -0.0000 </r>
       <r>    8.8749   -0.0000 </r>
       <r>    8.8949   -0.0000 </r>
       <r>    8.8949   -0.0000 </r>
       <r>    8.8949   -0.0000 </r>
       <r>    8.8949   -0.0000 </r>
       <r>    8.9872   -0.0000 </r>
       <r>    9.0068   -0.0000 </r>
       <r>    9.0468   -0.0000 </r>
       <r>    9.4553   -0.0000 </r>
       <r>    9.4603   -0.0000 </r>
       <r>    9.4635   -0.0000 </r>
      </set>
      <set comment="kpoint 2">
       <r>   -5.6930    1.0000 </r>
       <r>   -5.6930    1.0000 </r>
       <r>   -4.5717    1.0000 </r>
       <r>   -4.5717    1.0000 </r>
       <r>   -4.5653    1.0000 </r>
       <r>   -4.5653    1.0000 </r>
       <r>   -4.5653    1.0000 </r>
       <r>   -4.5653    1.0000 </r>
       <r>   -4.5589    1.0000 </r>
       <r>   -4.5589    1.0000 </r>
       <r>   -3.6535    1.0000 </r>
       <r>   -3.6535    1.0000 </r>
       <r>   -3.6535    1.0000 </r>
       <r>   -3.6535    1.0000 </r>
       <r>   -3.6379    1.0000 </r>
       <r>   -3.6379    1.0000 </r>
       <r>   -3.6379    1.0000 </r>
       <r>   -3.6379    1.0000 </r>
       <r>   -3.4516    1.0000 </r>
       <r>   -3.4516    1.0000 </r>
       <r>   -2.6648    1.0000 </r>
       <r>   -2.6648    1.0000 </r>
       <r>   -2.6488    1.0000 </r>
       <r>   -2.6488    1.0000 </r>
       <r>   -2.6488    1.0000 </r>
       <r>   -2.6488    1.0000 </r>
       <r>   -2.6327    1.0000 </r>
       <r>   -2.6327    1.0000 </r>
       <r>   -1.4819    1.0000 </r>
       <r>   -1.4819    1.0000 </r>
       <r>   -1.4814    1.0000 </r>
       <r>   -1.4814    1.0000 </r>
       <r>   -1.4629    1.0000 </r>
       <r>   -1.4629    1.0000 </r>
       <r>   -1.4621    1.0000 </r>
       <r>   -1.4621    1.0000 </r>
       <r>   -0.2622    1.0000 </r>
       <r>   -0.2622    1.0000 </r>
       <r>   -0.2587    1.0000 </r>
       <r>   -0.2587    1.0000 </r>
       <r>   -0.2587    1.0000 </r>
       <r>   -0.2587    1.0000 </r>
       <r>   -0.2553    1.0000 </r>
       <r>   -0.2553    1.0000 </r>
       <r>   -0.2140    1.0000 </r>
       <r>   -0.2140    1.0000 </r>
       <r>   -0.2140    1.0000 </r>
       <r>   -0.2140    1.0000 </r>
       <r>   -0.1931    1.0000 </r>
       <r>   -0.1931    1.0000 </r>
       <r>   -0.1931    1.0000 </r>
       <r>   -0.1931    1.0000 </r>
       <r>    0.5956    1.0000 </r>
       <r>    0.5956    1.0000 </r>
       <r>    1.8930    1.0000 </r>
       <r>    1.8930    1.0000 </r>
       <r>    1.8954    1.0000 </r>
       <r>    1.8954    1.0000 </r>
       <r>    1.8954    1.0000 </r>
       <r>    1.8954    1.0000 </r>
       <r>    1.8978    1.0000 </r>
       <r>    1.8978    1.0000 </r>
       <r>    2.1067    1.0000 </r>
       <r>    2.1067    1.0000 </r>
       <r>    2.1142    1.0000 </r>
       <r>    2.1142    1.0000 </r>
       <r>    2.1142    1.0000 </r>
       <r>    2.1142    1.0000 </r>
       <r>    2.1225    1.0000 </r>
       <r>    2.1225    1.0000 </r>
       <r>    2.7444    1.0000 </r>
       <r>    2.7444    1.0000 </r>
       <r>    2.7663    1.0000 </r>
       <r>    2.7663    1.0000 </r>
       <r>    2.7708    1.0000 </r>
       <r>    2.7708    1.0000 </r>
       <r>    2.7929    1.0000 </r>
       <r>    2.7929    1.0000 </r>
       <r>    3.5288    1.0000 </r>
       <r>    3.5288    1.0000 </r>
       <r>    3.5370    1.0000 </r>
       <r>    3.5370    1.0000 </r>
       <r>    3.5370    1.0000 </r>
       <r>    3.5370    1.0000 </r>
       <r>    3.5444    1.0000 </r>
       <r>    3.5444    1.0000 </r>
       <r>    3.6370    1.0000 </r>
       <r>    3.6370    1.0000 </r>
       <r>    3.6557    1.0000 </r>
       <r>    3.6557    1.0000 </r>
       <r>    3.6557    1.0000 </r>
       <r>    3.6557    1.0000 </r>
       <r>    3.6745    1.0000 </r>
       <r>    3.6745    1.0000 </r>
       <r>    3.7079    1.0000 </r>
       <r>    3.7079    1.0000 </r>
       <r>    3.7080    1.0000 </r>
       <r>    3.7080    1.0000 </r>
       <r>    3.8198    1.0000 </r>
       <r>    3.8198    1.0000 </r>
       <r>    3.8198    1.0000 </r>
       <r>    3.8198    1.0000 </r>
       <r>    3.8599    1.0000 </r>
       <r>    3.8599    1.0000 </r>
       <r>    3.8599    1.0000 </r>
       <r>    3.8599    1.0000 </r>
       <r>    4.9316    1.0000 </r>
       <r>    4.9316    1.0000 </r>
       <r>    4.9462    1.0000 </r>
       <r>    4.9462    1.0000 </r>
       <r>    4.9462    1.0000 </r>
       <r>    4.9462    1.0000 </r>
       <r>    4.9612    1.0000 </r>
       <r>    4.9612    1.0000 </r>
       <r>    5.1547    1.0000 </r>
       <r>    5.1547    1.0000 </r>
       <r>    5.1548    1.0000 </r>
       <r>    5.1548    1.0000 </r>
       <r>    5.1682    1.0000 </r>
       <r>    5.1682    1.0000 </r>
       <r>    5.1682    1.0000 </r>
       <r>    5.1682    1.0000 </r>
       <r>    5.1687    1.0000 </r>
       <r>    5.1687    1.0000 </r>
       <r>    5.6084    1.0000 </r>
       <r>    5.6084    1.0000 </r>
       <r>    5.6099    1.0000 </r>
       <r>    5.6099    1.0000 </r>
       <r>    6.8951   -0.0218 </r>
       <r>    6.8951   -0.0218 </r>
       <r>    7.7793   -0.0000 </r>
       <r>    7.7793   -0.0000 </r>
       <r>    8.2163   -0.0000 </r>
       <r>    8.2163   -0.0000 </r>
       <r>    8.2597   -0.0000 </r>
       <r>    8.2597   -0.0000 </r>
       <r>    8.2709   -0.0000 </r>
       <r>    8.2709   -0.0000 </r>
       <r>    8.3145   -0.0000 </r>
       <r>    8.3145   -0.0000 </r>
       <r>    8.4237   -0.0000 </r>
       <r>    8.4237   -0.0000 </r>
       <r>    8.8232   -0.0000 </r>
       <r>    8.8232   -0.0000 </r>
       <r>    8.8383   -0.0000 </r>
[...]
      </set>
     </set>
    </set>
   </array>
  </eigenvalues>
  <separator name="orbital magnetization" >
   <v name="MAGDIPOLOUT">      0.00000000      0.00000000      0.00000000</v>
  </separator>
  <dos>
   <i name="efermi">      6.70096637 </i>
   <total>
    <array>
     <dimension dim="1">gridpoints</dimension>
     <dimension dim="2">spin</dimension>
     <field>energy</field>
     <field>total</field>
     <field>integrated</field>
     <set>
      <set comment="spin 1">
       <r>    -7.9808     0.0000     0.0000 </r>
       <r>    -7.9143     0.0000     0.0000 </r>
       <r>    -7.8478     0.0000     0.0000 </r>
       <r>    -7.7813     0.0000     0.0000 </r>
       <r>    -7.7148     0.0000     0.0000 </r>
       <r>    -7.6482     0.0000     0.0000 </r>
       <r>    -7.5817    -0.0000    -0.0000 </r>
       <r>    -7.5152    -0.0000    -0.0000 </r>
       <r>    -7.4487    -0.0000    -0.0000 </r>
       <r>    -7.3822    -0.0000    -0.0000 </r>
       <r>    -7.3156    -0.0000    -0.0000 </r>
       <r>    -7.2491    -0.0000    -0.0000 </r>
       <r>    -7.1826    -0.0000    -0.0000 </r>
       <r>    -7.1161    -0.0000    -0.0000 </r>
       <r>    -7.0496    -0.0000    -0.0000 </r>
       <r>    -6.9830    -0.0000    -0.0000 </r>
       <r>    -6.9165    -0.0000    -0.0000 </r>
       <r>    -6.8500    -0.0000    -0.0000 </r>
       <r>    -6.7835    -0.0000    -0.0000 </r>
       <r>    -6.7170    -0.0000    -0.0000 </r>
       <r>    -6.6504    -0.0000    -0.0000 </r>
       <r>    -6.5839    -0.0003    -0.0000 </r>
       <r>    -6.5174    -0.0015    -0.0001 </r>
       <r>    -6.4509    -0.0064    -0.0006 </r>
       <r>    -6.3844    -0.0202    -0.0019 </r>
       <r>    -6.3179    -0.0447    -0.0049 </r>
       <r>    -6.2513    -0.0584    -0.0087 </r>
       <r>    -6.1848    -0.0004    -0.0088 </r>
       <r>    -6.1183     0.1857     0.0036 </r>
       <r>    -6.0518     0.4475     0.0334 </r>
       <r>    -5.9853     0.6466     0.0764 </r>
       <r>    -5.9187     0.8582     0.1334 </r>
       <r>    -5.8522     1.5554     0.2369 </r>
       <r>    -5.7857     3.0622     0.4406 </r>
       <r>    -5.7192     4.7784     0.7585 </r>
       <r>    -5.6527     5.6986     1.1375 </r>
       <r>    -5.5861     6.0487     1.5399 </r>
       <r>    -5.5196     7.3370     2.0279 </r>
       <r>    -5.4531     9.9321     2.6886 </r>
       <r>    -5.3866    11.8324     3.4757 </r>
       <r>    -5.3201    11.2410     4.2234 </r>
       <r>    -5.2536     9.2058     4.8358 </r>
       <r>    -5.1870     7.9582     5.3651 </r>
       <r>    -5.1205     7.6767     5.8758 </r>
       <r>    -5.0540     6.8888     6.3340 </r>
       <r>    -4.9875     5.3040     6.6868 </r>
       <r>    -4.9210     4.1594     6.9635 </r>
       <r>    -4.8544     4.1911     7.2423 </r>
       <r>    -4.7879     5.3898     7.6008 </r>
       <r>    -4.7214     8.5757     8.1713 </r>
       <r>    -4.6549    14.5776     9.1410 </r>
       <r>    -4.5884    21.4046    10.5648 </r>
       <r>    -4.5218    25.3505    12.2511 </r>
       <r>    -4.4553    25.8928    13.9734 </r>
       <r>    -4.3888    25.9140    15.6972 </r>
       <r>    -4.3223    26.0050    17.4270 </r>
       <r>    -4.2558    22.8955    18.9500 </r>
       <r>    -4.1892    15.0417    19.9506 </r>
       <r>    -4.1227     5.7930    20.3359 </r>
       <r>    -4.0562    -0.3507    20.3126 </r>
       <r>    -3.9897    -1.6000    20.2061 </r>
       <r>    -3.9232     1.6509    20.3160 </r>
       <r>    -3.8567     8.5230    20.8829 </r>
       <r>    -3.7901    17.5876    22.0528 </r>
       <r>    -3.7236    26.1194    23.7902 </r>
       <r>    -3.6571    30.5827    25.8246 </r>
       <r>    -3.5906    28.8692    27.7449 </r>
       <r>    -3.5241    22.4500    29.2383 </r>
       <r>    -3.4575    15.6456    30.2790 </r>
       <r>    -3.3910    12.6905    31.1232 </r>
       <r>    -3.3245    15.6627    32.1650 </r>
       <r>    -3.2580    23.6398    33.7375 </r>
       <r>    -3.1915    32.7445    35.9156 </r>
       <r>    -3.1249    38.4997    38.4766 </r>
       <r>    -3.0584    39.2600    41.0881 </r>
       <r>    -2.9919    36.7021    43.5295 </r>
       <r>    -2.9254    32.9508    45.7214 </r>
       <r>    -2.8589    28.7697    47.6351 </r>
       <r>    -2.7924    25.1697    49.3094 </r>
       <r>    -2.7258    24.0627    50.9100 </r>
       <r>    -2.6593    24.9453    52.5693 </r>
       <r>    -2.5928    23.6404    54.1419 </r>
       <r>    -2.5263    17.2973    55.2924 </r>
       <r>    -2.4598     8.3783    55.8498 </r>
       <r>    -2.3932     1.4905    55.9489 </r>
       <r>    -2.3267    -1.5529    55.8456 </r>
       <r>    -2.2602    -1.8840    55.7203 </r>
       <r>    -2.1937    -0.6367    55.6779 </r>
       <r>    -2.1272     2.3343    55.8332 </r>
       <r>    -2.0606     6.9304    56.2942 </r>
       <r>    -1.9941    11.0893    57.0319 </r>
       <r>    -1.9276    11.8090    57.8174 </r>
       <r>    -1.8611     8.2686    58.3674 </r>
       <r>    -1.7946     3.1828    58.5791 </r>
       <r>    -1.7281     0.8747    58.6373 </r>
       <r>    -1.6615     4.5504    58.9400 </r>
       <r>    -1.5950    14.5090    59.9051 </r>
       <r>    -1.5285    27.1134    61.7087 </r>
       <r>    -1.4620    35.8049    64.0904 </r>
       <r>    -1.3955    35.3487    66.4417 </r>
       <r>    -1.3289    26.0800    68.1765 </r>
       <r>    -1.2624    13.5452    69.0776 </r>
       <r>    -1.1959     4.1154    69.3513 </r>
       <r>    -1.1294     1.1998    69.4311 </r>
       <r>    -1.0629     4.3280    69.7190 </r>
       <r>    -0.9963     9.9843    70.3832 </r>
       <r>    -0.9298    13.6121    71.2886 </r>
       <r>    -0.8633    13.0060    72.1538 </r>
       <r>    -0.7968    10.6945    72.8651 </r>
       <r>    -0.7303    11.5952    73.6364 </r>
       <r>    -0.6637    16.9822    74.7661 </r>
       <r>    -0.5972    21.8222    76.2177 </r>
       <r>    -0.5307    20.3476    77.5712 </r>
       <r>    -0.4642    14.2619    78.5199 </r>
       <r>    -0.3977    12.9100    79.3786 </r>
       <r>    -0.3312    23.8822    80.9672 </r>
       <r>    -0.2646    44.0911    83.9001 </r>
       <r>    -0.1981    60.9347    87.9534 </r>
       <r>    -0.1316    62.6647    92.1218 </r>
       <r>    -0.0651    47.9732    95.3129 </r>
       <r>     0.0014    25.9066    97.0362 </r>
       <r>     0.0680     7.4734    97.5333 </r>
       <r>     0.1345    -1.6534    97.4234 </r>
       <r>     0.2010    -1.3840    97.3313 </r>
       <r>     0.2675     5.9486    97.7270 </r>
       <r>     0.3340    16.3304    98.8133 </r>
       <r>     0.4006    23.8341   100.3987 </r>
       <r>     0.4671    23.9474   101.9917 </r>
       <r>     0.5336    17.7069   103.1695 </r>
       <r>     0.6001    10.3294   103.8566 </r>
       <r>     0.6666     6.2273   104.2708 </r>
       <r>     0.7331     7.1002   104.7431 </r>
       <r>     0.7997    13.0343   105.6101 </r>
       <r>     0.8662    22.2712   107.0916 </r>
       <r>     0.9327    30.2206   109.1018 </r>
       <r>     0.9992    31.5097   111.1978 </r>
       <r>     1.0657    24.5569   112.8313 </r>
       <r>     1.1323    13.4026   113.7229 </r>
       <r>     1.1988     4.0288   113.9908 </r>
       <r>     1.2653    -0.6323   113.9488 </r>
       <r>     1.3318    -1.6260   113.8406 </r>
       <r>     1.3983    -1.3610   113.7501 </r>
       <r>     1.4649    -1.3451   113.6606 </r>
       <r>     1.5314    -1.6226   113.5527 </r>
       <r>     1.5979    -0.8092   113.4989 </r>
       <r>     1.6644     3.4558   113.7287 </r>
       <r>     1.7309    12.5489   114.5635 </r>
       <r>     1.7975    24.1530   116.1701 </r>
       <r>     1.8640    32.6573   118.3424 </r>
       <r>     1.9305    34.3098   120.6247 </r>
       <r>     1.9970    31.3300   122.7087 </r>
       <r>     2.0635    28.7056   124.6182 </r>
       <r>     2.1300    28.1592   126.4913 </r>
       <r>     2.1966    28.1628   128.3647 </r>
       <r>     2.2631    27.9542   130.2241 </r>
       <r>     2.3296    27.5382   132.0560 </r>
       <r>     2.3961    25.2812   133.7376 </r>
       <r>     2.4626    20.1004   135.0747 </r>
       <r>     2.5292    16.2432   136.1552 </r>
       <r>     2.5957    22.1506   137.6286 </r>
       <r>     2.6622    41.9970   140.4222 </r>
       <r>     2.7287    68.5007   144.9788 </r>
       <r>     2.7952    85.8090   150.6867 </r>
       <r>     2.8618    81.8254   156.1296 </r>
       <r>     2.9283    58.6844   160.0333 </r>
       <r>     2.9948    30.0918   162.0349 </r>
       <r>     3.0613     8.7103   162.6143 </r>
       <r>     3.1278    -2.0534   162.4777 </r>
       <r>     3.1943    -5.2311   162.1298 </r>
       <r>     3.2609    -3.1801   161.9182 </r>
       <r>     3.3274     5.2941   162.2704 </r>
       <r>     3.3939    21.5466   163.7037 </r>
       <r>     3.4604    42.1122   166.5049 </r>
       <r>     3.5269    59.3173   170.4506 </r>
       <r>     3.5935    67.9089   174.9679 </r>
       <r>     3.6600    68.9231   179.5525 </r>
       <r>     3.7265    66.0198   183.9441 </r>
       <r>     3.7930    60.7166   187.9829 </r>
       <r>     3.8595    52.7738   191.4934 </r>
       <r>     3.9261    43.9479   194.4167 </r>
       <r>     3.9926    39.2827   197.0298 </r>
       <r>     4.0591    41.8962   199.8167 </r>
       <r>     4.1256    46.5525   202.9133 </r>
       <r>     4.1921    43.5641   205.8111 </r>
       <r>     4.2586    30.9826   207.8721 </r>
       <r>     4.3252    18.0687   209.0740 </r>
       <r>     4.3917    14.7238   210.0534 </r>
       <r>     4.4582    21.3866   211.4760 </r>
       <r>     4.5247    30.8471   213.5279 </r>
       <r>     4.5912    36.9235   215.9840 </r>
       <r>     4.6578    39.0149   218.5792 </r>
       <r>     4.7243    39.3062   221.1938 </r>
       <r>     4.7908    38.9015   223.7815 </r>
       <r>     4.8573    38.3273   226.3310 </r>
       <r>     4.9238    39.2907   228.9446 </r>
       <r>     4.9904    43.2648   231.8225 </r>
       <r>     5.0569    48.8634   235.0729 </r>
       <r>     5.1234    51.6166   238.5063 </r>
       <r>     5.1899    46.7897   241.6187 </r>
       <r>     5.2564    33.6540   243.8574 </r>
       <r>     5.3230    17.3299   245.0101 </r>
       <r>     5.3895     5.5184   245.3772 </r>
       <r>     5.4560     3.1989   245.5900 </r>
       <r>     5.5225     9.8611   246.2459 </r>
       <r>     5.5890    19.9957   247.5760 </r>
       <r>     5.6555    26.1846   249.3178 </r>
       <r>     5.7221    24.0457   250.9173 </r>
       <r>     5.7886    15.3668   251.9395 </r>
       <r>     5.8551     5.8718   252.3301 </r>
       <r>     5.9216     0.2182   252.3446 </r>
       <r>     5.9881    -0.3000   252.3246 </r>
       <r>     6.0547     3.2224   252.5390 </r>
       <r>     6.1212     8.3227   253.0926 </r>
       <r>     6.1877    11.7462   253.8739 </r>
       <r>     6.2542    11.3366   254.6280 </r>
       <r>     6.3207     7.9785   255.1587 </r>
       <r>     6.3873     4.5323   255.4602 </r>
       <r>     6.4538     2.7264   255.6416 </r>
       <r>     6.5203     2.0134   255.7755 </r>
       <r>     6.5868     1.3216   255.8634 </r>
       <r>     6.6533     0.8788   255.9219 </r>
       <r>     6.7198     1.9825   256.0538 </r>
       <r>     6.7864     5.2675   256.4042 </r>
       <r>     6.8529     9.3630   257.0270 </r>
       <r>     6.9194    11.5500   257.7953 </r>
       <r>     6.9859    10.1347   258.4694 </r>
       <r>     7.0524     6.0153   258.8696 </r>
       <r>     7.1190     1.6965   258.9824 </r>
       <r>     7.1855    -0.6517   258.9391 </r>
       <r>     7.2520     0.2012   258.9524 </r>
       <r>     7.3185     4.6181   259.2596 </r>
       <r>     7.3850    11.1424   260.0008 </r>
       <r>     7.4516    16.0151   261.0661 </r>
       <r>     7.5181    16.0622   262.1346 </r>
       <r>     7.5846    12.9580   262.9965 </r>
       <r>     7.6511    12.6087   263.8352 </r>
       <r>     7.7176    18.4544   265.0628 </r>
       <r>     7.7842    26.3597   266.8162 </r>
       <r>     7.8507    28.2805   268.6974 </r>
       <r>     7.9172    21.0103   270.0950 </r>
       <r>     7.9837     9.6891   270.7395 </r>
       <r>     8.0502     3.0773   270.9442 </r>
       <r>     8.1167     7.1990   271.4231 </r>
       <r>     8.1833    22.0447   272.8894 </r>
       <r>     8.2498    40.5959   275.5898 </r>
       <r>     8.3163    51.5105   279.0163 </r>
       <r>     8.3828    47.4096   282.1699 </r>
       <r>     8.4493    32.3257   284.3202 </r>
       <r>     8.5159    18.7286   285.5660 </r>
       <r>     8.5824    16.2951   286.6499 </r>
       <r>     8.6489    25.2524   288.3297 </r>
       <r>     8.7154    40.6243   291.0319 </r>
       <r>     8.7819    58.7244   294.9382 </r>
       <r>     8.8485    75.6935   299.9733 </r>
       <r>     8.9150    83.3508   305.5177 </r>
       <r>     8.9815    74.2168   310.4545 </r>
       <r>     9.0480    51.3077   313.8674 </r>
       <r>     9.1145    27.3334   315.6856 </r>
       <r>     9.1810    12.9806   316.5491 </r>
       <r>     9.2476     9.4894   317.1803 </r>
       <r>     9.3141    12.3613   318.0026 </r>
       <r>     9.3806    17.3883   319.1592 </r>
       <r>     9.4471    21.3471   320.5792 </r>
       <r>     9.5136    21.0783   321.9813 </r>
       <r>     9.5802    15.6071   323.0195 </r>
       <r>     9.6467     7.8117   323.5391 </r>
       <r>     9.7132     1.8112   323.6596 </r>
       <r>     9.7797    -0.6129   323.6188 </r>
       <r>     9.8462    -0.3487   323.5956 </r>
       <r>     9.9128     0.8860   323.6545 </r>
       <r>     9.9793     1.8078   323.7748 </r>
       <r>    10.0458     1.8702   323.8992 </r>
       <r>    10.1123     1.2438   323.9819 </r>
       <r>    10.1788     0.4896   324.0145 </r>
       <r>    10.2453     0.0268   324.0163 </r>
       <r>    10.3119    -0.1082   324.0091 </r>
       <r>    10.3784    -0.0840   324.0035 </r>
       <r>    10.4449    -0.0375   324.0010 </r>
       <r>    10.5114    -0.0117   324.0002 </r>
       <r>    10.5779    -0.0027   324.0000 </r>
       <r>    10.6445    -0.0005   324.0000 </r>
       <r>    10.7110    -0.0001   324.0000 </r>
       <r>    10.7775    -0.0000   324.0000 </r>
       <r>    10.8440    -0.0000   324.0000 </r>
       <r>    10.9105    -0.0000   324.0000 </r>
       <r>    10.9771    -0.0000   324.0000 </r>
       <r>    11.0436    -0.0000   324.0000 </r>
       <r>    11.1101    -0.0000   324.0000 </r>
       <r>    11.1766    -0.0000   324.0000 </r>
       <r>    11.2431    -0.0000   324.0000 </r>
       <r>    11.3097     0.0000   324.0000 </r>
       <r>    11.3762     0.0000   324.0000 </r>
       <r>    11.4427     0.0000   324.0000 </r>
       <r>    11.5092     0.0000   324.0000 </r>
       <r>    11.5757     0.0000   324.0000 </r>
       <r>    11.6422     0.0000   324.0000 </r>
       <r>    11.7088     0.0000   324.0000 </r>
       <r>    11.7753     0.0000   324.0000 </r>
       <r>    11.8418     0.0000   324.0000 </r>
       <r>    11.9083     0.0000   324.0000 </r>
       <r>    11.9748     0.0000   324.0000 </r>
      </set>
     </set>
    </array>
   </total>
  </dos>
 </calculation>
 <structure name="finalpos" >
  <crystal>
   <varray name="basis" >
    <v>      10.66312457       0.02652500       0.00000000 </v>
    <v>       0.02652500      10.61007357       0.00000000 </v>
    <v>       0.00000000       0.00000000      10.61007357 </v>
   </varray>
   <i name="volume">   1200.37950710 </i>
   <varray name="rec_basis" >
    <v>       0.09378173      -0.00023445       0.00000000 </v>
    <v>      -0.00023445       0.09425064       0.00000000 </v>
    <v>       0.00000000       0.00000000       0.09425005 </v>
   </varray>
  </crystal>
  <varray name="positions" >
   <v>       0.00000000       0.00000000       0.00020310 </v>
   <v>       0.00000000       0.00000000       0.50020310 </v>
   <v>       0.00000000       0.50000000       0.00020310 </v>
   <v>       0.00000000       0.50000000       0.50020310 </v>
   <v>       0.50000000       0.00000000       0.00020310 </v>
   <v>       0.50000000       0.00000000       0.50020310 </v>
   <v>       0.50000000       0.50000000       0.00020310 </v>
   <v>       0.50000000       0.50000000       0.50020310 </v>
   <v>       0.37500000       0.37500000       0.12479690 </v>
   <v>       0.37500000       0.37500000       0.62479690 </v>
   <v>       0.37500000       0.87500000       0.12479690 </v>
   <v>       0.37500000       0.87500000       0.62479690 </v>
   <v>       0.87500000       0.37500000       0.12479690 </v>
   <v>       0.87500000       0.37500000       0.62479690 </v>
   <v>       0.87500000       0.87500000       0.12479690 </v>
   <v>       0.87500000       0.87500000       0.62479690 </v>
   <v>       0.00000000       0.25000000       0.25020310 </v>
   <v>       0.00000000       0.25000000       0.75020310 </v>
   <v>       0.00000000       0.75000000       0.25020310 </v>
   <v>       0.00000000       0.75000000       0.75020310 </v>
   <v>       0.50000000       0.25000000       0.25020310 </v>
   <v>       0.50000000       0.25000000       0.75020310 </v>
   <v>       0.50000000       0.75000000       0.25020310 </v>
   <v>       0.50000000       0.75000000       0.75020310 </v>
   <v>       0.37500000       0.12500000       0.37479690 </v>
   <v>       0.37500000       0.12500000       0.87479690 </v>
   <v>       0.37500000       0.62500000       0.37479690 </v>
   <v>       0.37500000       0.62500000       0.87479690 </v>
   <v>       0.87500000       0.12500000       0.37479690 </v>
   <v>       0.87500000       0.12500000       0.87479690 </v>
   <v>       0.87500000       0.62500000       0.37479690 </v>
   <v>       0.87500000       0.62500000       0.87479690 </v>
   <v>       0.25000000       0.00000000       0.25020310 </v>
   <v>       0.25000000       0.00000000       0.75020310 </v>
   <v>       0.25000000       0.50000000       0.25020310 </v>
   <v>       0.25000000       0.50000000       0.75020310 </v>
   <v>       0.75000000       0.00000000       0.25020310 </v>
   <v>       0.75000000       0.00000000       0.75020310 </v>
   <v>       0.75000000       0.50000000       0.25020310 </v>
   <v>       0.75000000       0.50000000       0.75020310 </v>
   <v>       0.12500000       0.37500000       0.37479690 </v>
   <v>       0.12500000       0.37500000       0.87479690 </v>
   <v>       0.12500000       0.87500000       0.37479690 </v>
   <v>       0.12500000       0.87500000       0.87479690 </v>
   <v>       0.62500000       0.37500000       0.37479690 </v>
   <v>       0.62500000       0.37500000       0.87479690 </v>
   <v>       0.62500000       0.87500000       0.37479690 </v>
   <v>       0.62500000       0.87500000       0.87479690 </v>
   <v>       0.25000000       0.25000000       0.00020310 </v>
   <v>       0.25000000       0.25000000       0.50020310 </v>
   <v>       0.25000000       0.75000000       0.00020310 </v>
   <v>       0.25000000       0.75000000       0.50020310 </v>
   <v>       0.75000000       0.25000000       0.00020310 </v>
   <v>       0.75000000       0.25000000       0.50020310 </v>
   <v>       0.75000000       0.75000000       0.00020310 </v>
   <v>       0.75000000       0.75000000       0.50020310 </v>
   <v>       0.12500000       0.12500000       0.12479690 </v>
   <v>       0.12500000       0.12500000       0.62479690 </v>
   <v>       0.12500000       0.62500000       0.12479690 </v>
   <v>       0.12500000       0.62500000       0.62479690 </v>
   <v>       0.62500000       0.12500000       0.12479690 </v>
   <v>       0.62500000       0.12500000       0.62479690 </v>
   <v>       0.62500000       0.62500000       0.12479690 </v>
   <v>       0.62500000       0.62500000       0.62479690 </v>
  </varray>
 </structure>
</modeling>
