Si64                                    
           1
    10.663125    0.026525    0.000000
     0.026525   10.610074    0.000000
     0.000000    0.000000   10.610074
   Si
    64
Direct configuration=     1
   0.00000000  0.00000000  0.00000000
   0.00000000  0.00000000  0.50000000
   0.00000000  0.50000000  0.00000000
   0.00000000  0.50000000  0.50000000
   0.50000000  0.00000000  0.00000000
   0.50000000  0.00000000  0.50000000
   0.50000000  0.50000000  0.00000000
   0.50000000  0.50000000  0.50000000
   0.37500000  0.37500000  0.12500000
   0.37500000  0.37500000  0.62500000
   0.37500000  0.87500000  0.12500000
   0.37500000  0.87500000  0.62500000
   0.87500000  0.37500000  0.12500000
   0.87500000  0.37500000  0.62500000
   0.87500000  0.87500000  0.12500000
   0.87500000  0.87500000  0.62500000
   0.00000000  0.25000000  0.25000000
   0.00000000  0.25000000  0.75000000
   0.00000000  0.75000000  0.25000000
   0.00000000  0.75000000  0.75000000
   0.50000000  0.25000000  0.25000000
   0.50000000  0.25000000  0.75000000
   0.50000000  0.75000000  0.25000000
   0.50000000  0.75000000  0.75000000
   0.37500000  0.12500000  0.37500000
   0.37500000  0.12500000  0.87500000
   0.37500000  0.62500000  0.37500000
   0.37500000  0.62500000  0.87500000
   0.87500000  0.12500000  0.37500000
   0.87500000  0.12500000  0.87500000
   0.87500000  0.62500000  0.37500000
   0.87500000  0.62500000  0.87500000
   0.25000000  0.00000000  0.25000000
   0.25000000  0.00000000  0.75000000
   0.25000000  0.50000000  0.25000000
   0.25000000  0.50000000  0.75000000
   0.75000000  0.00000000  0.25000000
   0.75000000  0.00000000  0.75000000
   0.75000000  0.50000000  0.25000000
   0.75000000  0.50000000  0.75000000
   0.12500000  0.37500000  0.37500000
   0.12500000  0.37500000  0.87500000
   0.12500000  0.87500000  0.37500000
   0.12500000  0.87500000  0.87500000
   0.62500000  0.37500000  0.37500000
   0.62500000  0.37500000  0.87500000
   0.62500000  0.87500000  0.37500000
   0.62500000  0.87500000  0.87500000
   0.25000000  0.25000000  0.00000000
   0.25000000  0.25000000  0.50000000
   0.25000000  0.75000000  0.00000000
   0.25000000  0.75000000  0.50000000
   0.75000000  0.25000000  0.00000000
   0.75000000  0.25000000  0.50000000
   0.75000000  0.75000000  0.00000000
   0.75000000  0.75000000  0.50000000
   0.12500000  0.12500000  0.12500000
   0.12500000  0.12500000  0.62500000
   0.12500000  0.62500000  0.12500000
   0.12500000  0.62500000  0.62500000
   0.62500000  0.12500000  0.12500000
   0.62500000  0.12500000  0.62500000
   0.62500000  0.62500000  0.12500000
   0.62500000  0.62500000  0.62500000
Direct configuration=     2
   1.00000000  0.00000000  0.00029831
   1.00000000  0.00000000  0.50029831
   0.00000000  0.50000000  0.00029831
   1.00000000  0.50000000  0.50029831
   0.50000000  1.00000000  0.00029831
   0.50000000  1.00000000  0.50029831
   0.50000000  0.50000000  0.00029831
   0.50000000  0.50000000  0.50029831
   0.37500000  0.37500000  0.12470169
   0.37500000  0.37500000  0.62470169
   0.37500000  0.87500000  0.12470169
   0.37500000  0.87500000  0.62470169
   0.87500000  0.37500000  0.12470169
   0.87500000  0.37500000  0.62470169
   0.87500000  0.87500000  0.12470169
   0.87500000  0.87500000  0.62470169
   1.00000000  0.25000000  0.25029831
   1.00000000  0.25000000  0.75029831
   1.00000000  0.75000000  0.25029831
   1.00000000  0.75000000  0.75029831
   0.50000000  0.25000000  0.25029831
   0.50000000  0.25000000  0.75029831
   0.50000000  0.75000000  0.25029831
   0.50000000  0.75000000  0.75029831
   0.37500000  0.12500000  0.37470169
   0.37500000  0.12500000  0.87470169
   0.37500000  0.62500000  0.37470169
   0.37500000  0.62500000  0.87470169
   0.87500000  0.12500000  0.37470169
   0.87500000  0.12500000  0.87470169
   0.87500000  0.62500000  0.37470169
   0.87500000  0.62500000  0.87470169
   0.25000000  1.00000000  0.25029831
   0.25000000  0.00000000  0.75029831
   0.25000000  0.50000000  0.25029831
   0.25000000  0.50000000  0.75029831
   0.75000000  0.00000000  0.25029831
   0.75000000  0.00000000  0.75029831
   0.75000000  0.50000000  0.25029831
   0.75000000  0.50000000  0.75029831
   0.12500000  0.37500000  0.37470169
   0.12500000  0.37500000  0.87470169
   0.12500000  0.87500000  0.37470169
   0.12500000  0.87500000  0.87470169
   0.62500000  0.37500000  0.37470169
   0.62500000  0.37500000  0.87470169
   0.62500000  0.87500000  0.37470169
   0.62500000  0.87500000  0.87470169
   0.25000000  0.25000000  0.00029831
   0.25000000  0.25000000  0.50029831
   0.25000000  0.75000000  0.00029831
   0.25000000  0.75000000  0.50029831
   0.75000000  0.25000000  0.00029831
   0.75000000  0.25000000  0.50029831
   0.75000000  0.75000000  0.00029831
   0.75000000  0.75000000  0.50029831
   0.12500000  0.12500000  0.12470169
   0.12500000  0.12500000  0.62470169
   0.12500000  0.62500000  0.12470169
   0.12500000  0.62500000  0.62470169
   0.62500000  0.12500000  0.12470169
   0.62500000  0.12500000  0.62470169
   0.62500000  0.62500000  0.12470169
   0.62500000  0.62500000  0.62470169
Direct configuration=     3
   0.00000000  0.00000000  0.00020310
   0.00000000  0.00000000  0.50020310
   0.00000000  0.50000000  0.00020310
   0.00000000  0.50000000  0.50020310
   0.50000000  0.00000000  0.00020310
   0.50000000  0.00000000  0.50020310
   0.50000000  0.50000000  0.00020310
   0.50000000  0.50000000  0.50020310
   0.37500000  0.37500000  0.12479690
   0.37500000  0.37500000  0.62479690
   0.37500000  0.87500000  0.12479690
   0.37500000  0.87500000  0.62479690
   0.87500000  0.37500000  0.12479690
   0.87500000  0.37500000  0.62479690
   0.87500000  0.87500000  0.12479690
   0.87500000  0.87500000  0.62479690
   0.00000000  0.25000000  0.25020310
   0.00000000  0.25000000  0.75020310
   0.00000000  0.75000000  0.25020310
   0.00000000  0.75000000  0.75020310
   0.50000000  0.25000000  0.25020310
   0.50000000  0.25000000  0.75020310
   0.50000000  0.75000000  0.25020310
   0.50000000  0.75000000  0.75020310
   0.37500000  0.12500000  0.37479690
   0.37500000  0.12500000  0.87479690
   0.37500000  0.62500000  0.37479690
   0.37500000  0.62500000  0.87479690
   0.87500000  0.12500000  0.37479690
   0.87500000  0.12500000  0.87479690
   0.87500000  0.62500000  0.37479690
   0.87500000  0.62500000  0.87479690
   0.25000000  0.00000000  0.25020310
   0.25000000  0.00000000  0.75020310
   0.25000000  0.50000000  0.25020310
   0.25000000  0.50000000  0.75020310
   0.75000000  0.00000000  0.25020310
   0.75000000  0.00000000  0.75020310
   0.75000000  0.50000000  0.25020310
   0.75000000  0.50000000  0.75020310
   0.12500000  0.37500000  0.37479690
   0.12500000  0.37500000  0.87479690
   0.12500000  0.87500000  0.37479690
   0.12500000  0.87500000  0.87479690
   0.62500000  0.37500000  0.37479690
   0.62500000  0.37500000  0.87479690
   0.62500000  0.87500000  0.37479690
   0.62500000  0.87500000  0.87479690
   0.25000000  0.25000000  0.00020310
   0.25000000  0.25000000  0.50020310
   0.25000000  0.75000000  0.00020310
   0.25000000  0.75000000  0.50020310
   0.75000000  0.25000000  0.00020310
   0.75000000  0.25000000  0.50020310
   0.75000000  0.75000000  0.00020310
   0.75000000  0.75000000  0.50020310
   0.12500000  0.12500000  0.12479690
   0.12500000  0.12500000  0.62479690
   0.12500000  0.62500000  0.12479690
   0.12500000  0.62500000  0.62479690
   0.62500000  0.12500000  0.12479690
   0.62500000  0.12500000  0.62479690
   0.62500000  0.62500000  0.12479690
   0.62500000  0.62500000  0.62479690
