  64  64   0   0
  0.1929219E+02  0.1065663E-08  0.1076427E-08  0.1076413E-08  0.5000000E-15
  1.000000000000000E-004
  CAR 
 Si64                                    
     11.63968659     -8.07649795  301      6.43847871      1.00000000
     -8.076  0.0000E+00  0.0000E+00
     -8.011  0.0000E+00  0.0000E+00
     -7.945  0.0000E+00  0.0000E+00
     -7.879  0.0000E+00  0.0000E+00
     -7.814  0.0000E+00  0.0000E+00
     -7.748  0.0000E+00  0.0000E+00
     -7.682 -0.1461E-28 -0.9603E-30
     -7.616 -0.2446E-26 -0.1617E-27
     -7.551 -0.3309E-24 -0.2191E-25
     -7.485 -0.3599E-22 -0.2387E-23
     -7.419 -0.3145E-20 -0.2091E-21
     -7.354 -0.2208E-18 -0.1472E-19
     -7.288 -0.1245E-16 -0.8329E-18
     -7.222 -0.5458E-15 -0.3671E-16
     -7.156 -0.1976E-13 -0.1336E-14
     -7.091 -0.5726E-12 -0.3896E-13
     -7.025 -0.1327E-10 -0.9112E-12
     -6.959 -0.2458E-09 -0.1706E-10
     -6.894 -0.3630E-08 -0.2556E-09
     -6.828 -0.4265E-07 -0.3059E-08
     -6.762 -0.3972E-06 -0.2917E-07
     -6.696 -0.2918E-05 -0.2210E-06
     -6.631 -0.1679E-04 -0.1324E-05
     -6.565 -0.7469E-04 -0.6233E-05
     -6.499 -0.2518E-03 -0.2278E-04
     -6.433 -0.6167E-03 -0.6331E-04
     -6.368 -0.9821E-03 -0.1279E-03
     -6.302 -0.5635E-03 -0.1649E-03
     -6.236  0.1712E-02 -0.5239E-04
     -6.171  0.5734E-02  0.3244E-03
     -6.105  0.9586E-02  0.9544E-03
     -6.039  0.1300E-01  0.1809E-02
     -5.973  0.2176E-01  0.3239E-02
     -5.908  0.4290E-01  0.6058E-02
     -5.842  0.7178E-01  0.1078E-01
     -5.776  0.9268E-01  0.1687E-01
     -5.711  0.1018E+00  0.2356E-01
     -5.645  0.1187E+00  0.3136E-01
     -5.579  0.1570E+00  0.4168E-01
     -5.513  0.1939E+00  0.5442E-01
     -5.448  0.1960E+00  0.6730E-01
     -5.382  0.1671E+00  0.7829E-01
     -5.316  0.1412E+00  0.8757E-01
     -5.251  0.1316E+00  0.9622E-01
     -5.185  0.1198E+00  0.1041E+00
     -5.119  0.9529E-01  0.1104E+00
     -5.053  0.7355E-01  0.1152E+00
     -4.988  0.7012E-01  0.1198E+00
     -4.922  0.8872E-01  0.1256E+00
     -4.856  0.1403E+00  0.1348E+00
     -4.790  0.2365E+00  0.1504E+00
     -4.725  0.3506E+00  0.1734E+00
     -4.659  0.4262E+00  0.2014E+00
     -4.593  0.4468E+00  0.2308E+00
     -4.528  0.4487E+00  0.2603E+00
     -4.462  0.4430E+00  0.2894E+00
     -4.396  0.3864E+00  0.3148E+00
     -4.330  0.2565E+00  0.3317E+00
     -4.265  0.1032E+00  0.3384E+00
     -4.199 -0.1086E-02  0.3384E+00
     -4.133 -0.2198E-01  0.3369E+00
     -4.068  0.3804E-01  0.3394E+00
     -4.002  0.1628E+00  0.3501E+00
     -3.936  0.3217E+00  0.3713E+00
     -3.870  0.4607E+00  0.4015E+00
     -3.805  0.5198E+00  0.4357E+00
     -3.739  0.4736E+00  0.4668E+00
     -3.673  0.3589E+00  0.4904E+00
     -3.607  0.2513E+00  0.5069E+00
     -3.542  0.2183E+00  0.5213E+00
     -3.476  0.2874E+00  0.5402E+00
     -3.410  0.4331E+00  0.5686E+00
     -3.345  0.5857E+00  0.6071E+00
     -3.279  0.6757E+00  0.6515E+00
     -3.213  0.6831E+00  0.6964E+00
     -3.147  0.6326E+00  0.7380E+00
     -3.082  0.5536E+00  0.7744E+00
     -3.016  0.4695E+00  0.8052E+00
     -2.950  0.4139E+00  0.8324E+00
     -2.885  0.4080E+00  0.8592E+00
     -2.819  0.4137E+00  0.8864E+00
     -2.753  0.3608E+00  0.9101E+00
     -2.687  0.2344E+00  0.9255E+00
     -2.622  0.9413E-01  0.9317E+00
     -2.556  0.1997E-02  0.9319E+00
     -2.490 -0.3087E-01  0.9298E+00
     -2.425 -0.2345E-01  0.9283E+00
     -2.359  0.1447E-01  0.9292E+00
     -2.293  0.8196E-01  0.9346E+00
     -2.227  0.1583E+00  0.9450E+00
     -2.162  0.1979E+00  0.9580E+00
     -2.096  0.1686E+00  0.9691E+00
     -2.030  0.9005E-01  0.9750E+00
     -1.964  0.2551E-01  0.9767E+00
     -1.899  0.3939E-01  0.9793E+00
     -1.833  0.1607E+00  0.9899E+00
     -1.767  0.3598E+00  0.1014E+01
     -1.702  0.5462E+00  0.1049E+01
     -1.636  0.6147E+00  0.1090E+01
     -1.570  0.5233E+00  0.1124E+01
     -1.504  0.3279E+00  0.1146E+01
     -1.439  0.1368E+00  0.1155E+01
     -1.373  0.3358E-01  0.1157E+01
     -1.307  0.3756E-01  0.1159E+01
     -1.242  0.1100E+00  0.1167E+01
     -1.176  0.1842E+00  0.1179E+01
     -1.110  0.2070E+00  0.1192E+01
     -1.044  0.1777E+00  0.1204E+01
     -0.979  0.1508E+00  0.1214E+01
     -0.913  0.1877E+00  0.1226E+01
     -0.847  0.2861E+00  0.1245E+01
     -0.782  0.3660E+00  0.1269E+01
     -0.716  0.3558E+00  0.1293E+01
     -0.650  0.2969E+00  0.1312E+01
     -0.584  0.3217E+00  0.1333E+01
     -0.519  0.5118E+00  0.1367E+01
     -0.453  0.7977E+00  0.1419E+01
     -0.387  0.1002E+01  0.1485E+01
     -0.321  0.9742E+00  0.1549E+01
     -0.256  0.7117E+00  0.1596E+01
     -0.190  0.3570E+00  0.1619E+01
     -0.124  0.8542E-01  0.1625E+01
     -0.059 -0.8613E-02  0.1624E+01
      0.007  0.6632E-01  0.1629E+01
      0.073  0.2317E+00  0.1644E+01
      0.139  0.3748E+00  0.1669E+01
      0.204  0.4067E+00  0.1695E+01
      0.270  0.3239E+00  0.1717E+01
      0.336  0.2005E+00  0.1730E+01
      0.401  0.1129E+00  0.1737E+01
      0.467  0.9524E-01  0.1743E+01
      0.533  0.1507E+00  0.1753E+01
      0.599  0.2654E+00  0.1771E+01
      0.664  0.4002E+00  0.1797E+01
      0.730  0.4899E+00  0.1829E+01
      0.796  0.4757E+00  0.1861E+01
      0.862  0.3534E+00  0.1884E+01
      0.927  0.1860E+00  0.1896E+01
      0.993  0.5305E-01  0.1899E+01
      1.059 -0.1083E-01  0.1899E+01
      1.124 -0.2310E-01  0.1897E+01
      1.190 -0.1733E-01  0.1896E+01
      1.256 -0.1516E-01  0.1895E+01
      1.322 -0.2229E-01  0.1894E+01
      1.387 -0.2983E-01  0.1892E+01
      1.453 -0.1014E-01  0.1891E+01
      1.519  0.7818E-01  0.1896E+01
      1.584  0.2590E+00  0.1913E+01
      1.650  0.4994E+00  0.1946E+01
      1.716  0.7088E+00  0.1993E+01
      1.782  0.7902E+00  0.2045E+01
      1.847  0.7067E+00  0.2091E+01
      1.913  0.5166E+00  0.2125E+01
      1.979  0.3471E+00  0.2148E+01
      2.044  0.2991E+00  0.2167E+01
      2.110  0.3570E+00  0.2191E+01
      2.176  0.4092E+00  0.2218E+01
      2.242  0.3747E+00  0.2242E+01
      2.307  0.3048E+00  0.2262E+01
      2.373  0.3500E+00  0.2285E+01
      2.439  0.6175E+00  0.2326E+01
      2.505  0.1043E+01  0.2395E+01
      2.570  0.1398E+01  0.2486E+01
      2.636  0.1444E+01  0.2581E+01
      2.702  0.1133E+01  0.2656E+01
      2.767  0.6432E+00  0.2698E+01
      2.833  0.2164E+00  0.2712E+01
      2.899 -0.2331E-01  0.2711E+01
      2.965 -0.9962E-01  0.2704E+01
      3.030 -0.7518E-01  0.2699E+01
      3.096  0.4042E-01  0.2702E+01
      3.162  0.2765E+00  0.2720E+01
      3.227  0.6183E+00  0.2761E+01
      3.293  0.9681E+00  0.2824E+01
      3.359  0.1207E+01  0.2904E+01
      3.425  0.1284E+01  0.2988E+01
      3.490  0.1224E+01  0.3068E+01
      3.556  0.1072E+01  0.3139E+01
      3.622  0.8751E+00  0.3196E+01
      3.687  0.6990E+00  0.3242E+01
      3.753  0.6231E+00  0.3283E+01
      3.819  0.6690E+00  0.3327E+01
      3.885  0.7444E+00  0.3376E+01
      3.950  0.7137E+00  0.3423E+01
      4.016  0.5511E+00  0.3459E+01
      4.082  0.3800E+00  0.3484E+01
      4.148  0.3350E+00  0.3506E+01
      4.213  0.4204E+00  0.3534E+01
      4.279  0.5342E+00  0.3569E+01
      4.345  0.5971E+00  0.3608E+01
      4.410  0.6146E+00  0.3649E+01
      4.476  0.6244E+00  0.3690E+01
      4.542  0.6425E+00  0.3732E+01
      4.608  0.6755E+00  0.3776E+01
      4.673  0.7372E+00  0.3825E+01
      4.739  0.8237E+00  0.3879E+01
      4.805  0.8889E+00  0.3937E+01
      4.870  0.8630E+00  0.3994E+01
      4.936  0.7072E+00  0.4041E+01
      5.002  0.4577E+00  0.4071E+01
      5.068  0.2152E+00  0.4085E+01
      5.133  0.8114E-01  0.4090E+01
      5.199  0.9710E-01  0.4096E+01
      5.265  0.2239E+00  0.4111E+01
      5.331  0.3630E+00  0.4135E+01
      5.396  0.4158E+00  0.4162E+01
      5.462  0.3492E+00  0.4185E+01
      5.528  0.2108E+00  0.4199E+01
      5.593  0.8104E-01  0.4204E+01
      5.659  0.1625E-01  0.4206E+01
      5.725  0.2921E-01  0.4207E+01
      5.791  0.9520E-01  0.4214E+01
      5.856  0.1652E+00  0.4225E+01
      5.922  0.1920E+00  0.4237E+01
      5.988  0.1634E+00  0.4248E+01
      6.053  0.1084E+00  0.4255E+01
      6.119  0.6394E-01  0.4259E+01
      6.185  0.4126E-01  0.4262E+01
      6.251  0.2882E-01  0.4264E+01
      6.316  0.1629E-01  0.4265E+01
      6.382  0.8882E-02  0.4266E+01
      6.448  0.2219E-01  0.4267E+01
      6.513  0.6557E-01  0.4271E+01
      6.579  0.1266E+00  0.4280E+01
      6.645  0.1721E+00  0.4291E+01
      6.711  0.1722E+00  0.4302E+01
      6.776  0.1261E+00  0.4311E+01
      6.842  0.6155E-01  0.4315E+01
      6.908  0.1416E-01  0.4316E+01
      6.974  0.1101E-01  0.4316E+01
      7.039  0.6290E-01  0.4320E+01
      7.105  0.1527E+00  0.4330E+01
      7.171  0.2320E+00  0.4346E+01
      7.236  0.2537E+00  0.4362E+01
      7.302  0.2249E+00  0.4377E+01
      7.368  0.2133E+00  0.4391E+01
      7.434  0.2779E+00  0.4409E+01
      7.499  0.3925E+00  0.4435E+01
      7.565  0.4597E+00  0.4465E+01
      7.631  0.4106E+00  0.4492E+01
      7.696  0.2785E+00  0.4511E+01
      7.762  0.1720E+00  0.4522E+01
      7.828  0.1891E+00  0.4534E+01
      7.894  0.3488E+00  0.4557E+01
      7.959  0.5739E+00  0.4595E+01
      8.025  0.7361E+00  0.4643E+01
      8.091  0.7467E+00  0.4693E+01
      8.156  0.6285E+00  0.4734E+01
      8.222  0.4951E+00  0.4766E+01
      8.288  0.4581E+00  0.4796E+01
      8.354  0.5552E+00  0.4833E+01
      8.419  0.7541E+00  0.4883E+01
      8.485  0.9866E+00  0.4947E+01
      8.551  0.1163E+01  0.5024E+01
      8.617  0.1194E+01  0.5102E+01
      8.682  0.1049E+01  0.5171E+01
      8.748  0.7857E+00  0.5223E+01
      8.814  0.5141E+00  0.5257E+01
      8.879  0.3158E+00  0.5277E+01
      8.945  0.2110E+00  0.5291E+01
      9.011  0.1908E+00  0.5304E+01
      9.077  0.2393E+00  0.5320E+01
      9.142  0.3130E+00  0.5340E+01
      9.208  0.3393E+00  0.5362E+01
      9.274  0.2761E+00  0.5381E+01
      9.339  0.1559E+00  0.5391E+01
      9.405  0.4982E-01  0.5394E+01
      9.471 -0.1990E-03  0.5394E+01
      9.537 -0.1098E-02  0.5394E+01
      9.602  0.1718E-01  0.5395E+01
      9.668  0.2972E-01  0.5397E+01
      9.734  0.2770E-01  0.5399E+01
      9.800  0.1628E-01  0.5400E+01
      9.865  0.5081E-02  0.5400E+01
      9.931 -0.6956E-03  0.5400E+01
      9.997 -0.1834E-02  0.5400E+01
     10.062 -0.1174E-02  0.5400E+01
     10.128 -0.4765E-03  0.5400E+01
     10.194 -0.1399E-03  0.5400E+01
     10.260 -0.3111E-04  0.5400E+01
     10.325 -0.5352E-05  0.5400E+01
     10.391 -0.7210E-06  0.5400E+01
     10.457 -0.7664E-07  0.5400E+01
     10.522 -0.6460E-08  0.5400E+01
     10.588 -0.4333E-09  0.5400E+01
     10.654 -0.2318E-10  0.5400E+01
     10.720 -0.9908E-12  0.5400E+01
     10.785 -0.3390E-13  0.5400E+01
     10.851 -0.9291E-15  0.5400E+01
     10.917 -0.2816E-16  0.5400E+01
     10.982  0.0000E+00  0.5400E+01
     11.048  0.0000E+00  0.5400E+01
     11.114  0.0000E+00  0.5400E+01
     11.180  0.0000E+00  0.5400E+01
     11.245  0.0000E+00  0.5400E+01
     11.311  0.0000E+00  0.5400E+01
     11.377  0.0000E+00  0.5400E+01
     11.443  0.0000E+00  0.5400E+01
     11.508  0.0000E+00  0.5400E+01
     11.574  0.0000E+00  0.5400E+01
     11.640  0.0000E+00  0.5400E+01
