       N       E                     dE             d eps       ncg     rms          rms(c)
DAV:   1     0.564253366563E+03    0.56425E+03   -0.84304E+04  2592   0.106E+03
DAV:   2    -0.310639250117E+03   -0.87489E+03   -0.83156E+03  3088   0.173E+02
DAV:   3    -0.373225500746E+03   -0.62586E+02   -0.61279E+02  3128   0.411E+01
DAV:   4    -0.374851408413E+03   -0.16259E+01   -0.16144E+01  3144   0.800E+00
DAV:   5    -0.374900965394E+03   -0.49557E-01   -0.49468E-01  3136   0.131E+00    0.295E+01
RMM:   6    -0.369351520329E+03    0.55494E+01   -0.28479E+00  2592   0.264E+00    0.178E+01
RMM:   7    -0.366875365415E+03    0.24762E+01   -0.72405E+00  2643   0.422E+00    0.105E+00
RMM:   8    -0.366915991214E+03   -0.40626E-01   -0.68998E-01  2621   0.161E+00    0.516E-01
RMM:   9    -0.366937350551E+03   -0.21359E-01   -0.20059E-01  2662   0.787E-01    0.589E-01
RMM:  10    -0.366941174885E+03   -0.38243E-02   -0.35677E-02  2738   0.371E-01    0.770E-01
RMM:  11    -0.366937838010E+03    0.33369E-02   -0.11922E-02  2592   0.221E-01    0.685E-01
RMM:  12    -0.366937953339E+03   -0.11533E-03   -0.18061E-03  2613   0.100E-01    0.691E-01
RMM:  13    -0.366938013965E+03   -0.60626E-04   -0.33952E-04  2742   0.410E-02    0.763E-01
RMM:  14    -0.366937986996E+03    0.26969E-04   -0.10444E-04  2597   0.248E-02    0.414E-01
RMM:  15    -0.366938096624E+03   -0.10963E-03   -0.46481E-05  2629   0.141E-02    0.363E-01
RMM:  16    -0.366938189260E+03   -0.92636E-04   -0.41761E-05  2592   0.148E-02    0.250E-01
RMM:  17    -0.366938211237E+03   -0.21977E-04   -0.14650E-05  2592   0.941E-03    0.105E-01
RMM:  18    -0.366938216212E+03   -0.49751E-05   -0.35719E-06  1921   0.469E-03    0.329E-02
RMM:  19    -0.366938218334E+03   -0.21218E-05   -0.13909E-06  1569   0.278E-03    0.739E-03
RMM:  20    -0.366938218496E+03   -0.16218E-06   -0.39845E-07  1558   0.137E-03
   1 F= -.36693822E+03 E0= -.36694903E+03  d E =-.366938E+03
       N       E                     dE             d eps       ncg     rms          rms(c)
DAV:   1    -0.366947688341E+03   -0.94700E-02   -0.55099E-01  2944   0.142E+00    0.331E-01
RMM:   2    -0.366950421572E+03   -0.27332E-02   -0.28342E-02  2592   0.355E-01    0.134E-01
RMM:   3    -0.366950820816E+03   -0.39924E-03   -0.45196E-03  2643   0.159E-01    0.564E-02
RMM:   4    -0.366950816727E+03    0.40892E-05   -0.60722E-04  2658   0.659E-02    0.201E-02
RMM:   5    -0.366950821320E+03   -0.45933E-05   -0.10735E-04  2673   0.260E-02    0.459E-03
RMM:   6    -0.366950823805E+03   -0.24846E-05   -0.24658E-05  2688   0.113E-02    0.749E-04
RMM:   7    -0.366950824107E+03   -0.30239E-06   -0.31416E-06  1821   0.403E-03    0.849E-04
RMM:   8    -0.366950824157E+03   -0.50059E-07   -0.65463E-07  1463   0.179E-03
   2 F= -.36695082E+03 E0= -.36696051E+03  d E =-.126057E-01
       N       E                     dE             d eps       ncg     rms          rms(c)
DAV:   1    -0.366952935346E+03   -0.21112E-02   -0.44516E-02  2944   0.404E-01    0.939E-02
RMM:   2    -0.366953152497E+03   -0.21715E-03   -0.22402E-03  2592   0.100E-01    0.382E-02
RMM:   3    -0.366953183156E+03   -0.30660E-04   -0.34719E-04  2644   0.447E-02    0.158E-02
RMM:   4    -0.366953183000E+03    0.15665E-06   -0.46737E-05  2653   0.185E-02    0.570E-03
RMM:   5    -0.366953183385E+03   -0.38510E-06   -0.83103E-06  2300   0.725E-03    0.127E-03
RMM:   6    -0.366953183534E+03   -0.14947E-06   -0.17193E-06  1662   0.315E-03    0.238E-04
RMM:   7    -0.366953183571E+03   -0.36952E-07   -0.35876E-07  1470   0.134E-03    0.207E-04
RMM:   8    -0.366953183584E+03   -0.12728E-07   -0.91233E-08   956   0.695E-04
   3 F= -.36695318E+03 E0= -.36696331E+03  d E =-.149651E-01
