 vasp.6.4.3 19Mar24 (build Oct 21 2024 22:36:34) complex                        
  
 executed on             LinuxIFC date 2024.11.01  22:49:44
 running   96 mpi-ranks, on    1 nodes
 distrk:  each k-point on   24 cores,    4 groups
 distr:  one band on NCORE=  12 cores,    2 groups


--------------------------------------------------------------------------------------------------------


 INCAR:
   SYSTEM = Si64
   ISTART = 0
   ICHARG = 2
   LREAL = Auto
   PREC = Accurate
   LWAVE = .False.
   LCHARG = .False.
   ADDGRID = .True.
   ENCUT = 400
   GGA = PS
   GGA_COMPAT = .FALSE.
   ISMEAR = 1
   SIGMA = 0.2
   NELM = 60
   NELMIN = 8
   EDIFF = 1e-06
   EDIFFG = -0.01
   NSW = 60
   IBRION = 2
   ISIF = 2
   KPAR = 4
   NPAR = 2
   ALGO = Fast

 POTCAR:    PAW_PBE Si 05Jan2001                  
 POTCAR:    PAW_PBE Si 05Jan2001                  
   VRHFIN =Si: s2p2                                                                                 
   LEXCH  = PE                                                                                      
   EATOM  =   103.0669 eV,    7.5752 Ry                                                             
                                                                                                    
   TITEL  = PAW_PBE Si 05Jan2001                                                                    
   LULTRA =        F    use ultrasoft PP ?                                                          
   IUNSCR =        1    unscreen: 0-lin 1-nonlin 2-no                                               
   RPACOR =    1.500    partial core radius                                                         
   POMASS =   28.085; ZVAL   =    4.000    mass and valenz                                          
   RCORE  =    1.900    outmost cutoff radius                                                       
   RWIGS  =    2.480; RWIGS  =    1.312    wigner-seitz radius (au A)                               
   ENMAX  =  245.345; ENMIN  =  184.009 eV                                                          
   ICORE  =        2    local potential                                                             
   LCOR   =        T    correct aug charges                                                         
   LPAW   =        T    paw PP                                                                      
   EAUG   =  322.069                                                                                
   DEXC   =    0.000                                                                                
   RMAX   =    1.950    core radius for proj-oper                                                   
   RAUG   =    1.300    factor for augmentation sphere                                              
   RDEP   =    1.993    radius for radial grids                                                     
   RDEPT  =    1.837    core radius for aug-charge                                                  
                                                                                                    
   Atomic configuration                                                                             
    6 entries                                                                                       
     n  l   j            E        occ.                                                              
     1  0  0.50     -1785.8828   2.0000                                                             
     2  0  0.50      -139.4969   2.0000                                                             
     2  1  1.50       -95.5546   6.0000                                                             
     3  0  0.50       -10.8127   2.0000                                                             
     3  1  0.50        -4.0811   2.0000                                                             
     3  2  1.50        -4.0817   0.0000                                                             
   Description                                                                                      
     l       E           TYP  RCUT    TYP  RCUT                                                     
     0    -10.8127223     23  1.900                                                                 
     0     -7.6451159     23  1.900                                                                 
     1     -4.0811372     23  1.900                                                                 
     1      2.4879257     23  1.900                                                                 
     2     -4.0817478      7  1.900                                                                 
  local pseudopotential read in
  partial core-charges read in
  partial kinetic energy density read in
  atomic valenz-charges read in
  non local Contribution for L=           0  read in
    real space projection operators read in
  non local Contribution for L=           0  read in
    real space projection operators read in
  non local Contribution for L=           1  read in
    real space projection operators read in
  non local Contribution for L=           1  read in
    real space projection operators read in
    PAW grid and wavefunctions read in
 
   number of l-projection  operators is LMAX  =           4
   number of lm-projection operators is LMMAX =           8
 
 Optimization of the real space projectors (new method)

 maximal supplied QI-value         = 19.84
 optimisation between [QCUT,QGAM] = [ 10.12, 20.44] = [ 28.68,116.96] Ry 
 Optimized for a Real-space Cutoff    1.38 Angstroem

   l    n(q)    QCUT    max X(q) W(low)/X(q) W(high)/X(q)  e(spline) 
   0      8    10.119   159.560    0.58E-04    0.11E-03    0.54E-07
   0      8    10.119   115.863    0.56E-04    0.11E-03    0.54E-07
   1      8    10.119    88.339    0.22E-03    0.17E-03    0.19E-06
   1      8    10.119    48.592    0.22E-03    0.17E-03    0.18E-06
 -----------------------------------------------------------------------------
|                                                                             |
|               ----> ADVICE to this user running VASP <----                  |
|                                                                             |
|     You enforced a specific xc type in the INCAR file but a different       |
|     type was found in the POTCAR file.                                      |
|     I HOPE YOU KNOW WHAT YOU ARE DOING!                                     |
|                                                                             |
 -----------------------------------------------------------------------------

  PAW_PBE Si 05Jan2001                  :
 energy of atom  1       EATOM= -103.0669
 kinetic energy error for atom=    0.0012 (will be added to EATOM!!)
 
 
 POSCAR: Si8
  positions in direct lattice
  velocities in cartesian coordinates


 exchange-correlation table for PS
   RHO(1)=    0.500       N(1)  =     2000
   RHO(2)=  100.500       N(2)  =     4000
 


--------------------------------------------------------------------------------------------------------


 ion  position               nearest neighbor table
   1  0.000  0.000  0.000-  15 2.32  57 2.32  44 2.33  30 2.33
   2  0.000  0.000  0.500-  16 2.32  58 2.32  43 2.33  29 2.33
   3  0.000  0.500  0.000-  13 2.32  59 2.32  42 2.33  32 2.33
   4  0.000  0.500  0.500-  14 2.32  60 2.32  41 2.33  31 2.33
   5  0.500  0.000  0.000-  11 2.32  61 2.32  48 2.33  26 2.33
   6  0.500  0.000  0.500-  12 2.32  62 2.32  47 2.33  25 2.33
   7  0.500  0.500  0.000-   9 2.32  63 2.32  46 2.33  28 2.33
   8  0.500  0.500  0.500-  10 2.32  64 2.32  45 2.33  27 2.33
   9  0.375  0.375  0.125-   7 2.32  49 2.32  35 2.33  21 2.33
  10  0.375  0.375  0.625-   8 2.32  50 2.32  36 2.33  22 2.33
  11  0.375  0.875  0.125-   5 2.32  51 2.32  33 2.33  23 2.33
  12  0.375  0.875  0.625-   6 2.32  52 2.32  34 2.33  24 2.33
  13  0.875  0.375  0.125-   3 2.32  53 2.32  39 2.33  17 2.33
  14  0.875  0.375  0.625-   4 2.32  54 2.32  40 2.33  18 2.33
  15  0.875  0.875  0.125-   1 2.32  55 2.32  37 2.33  19 2.33
  16  0.875  0.875  0.625-   2 2.32  56 2.32  38 2.33  20 2.33
  17  0.000  0.250  0.250-  29 2.32  41 2.32  13 2.33  57 2.33
  18  0.000  0.250  0.750-  30 2.32  42 2.32  14 2.33  58 2.33
  19  0.000  0.750  0.250-  31 2.32  43 2.32  15 2.33  59 2.33
  20  0.000  0.750  0.750-  32 2.32  44 2.32  16 2.33  60 2.33
  21  0.500  0.250  0.250-  25 2.32  45 2.32   9 2.33  61 2.33
  22  0.500  0.250  0.750-  26 2.32  46 2.32  10 2.33  62 2.33
  23  0.500  0.750  0.250-  27 2.32  47 2.32  11 2.33  63 2.33
  24  0.500  0.750  0.750-  28 2.32  48 2.32  12 2.33  64 2.33
  25  0.375  0.125  0.375-  21 2.32  33 2.32   6 2.33  50 2.33
  26  0.375  0.125  0.875-  22 2.32  34 2.32   5 2.33  49 2.33
  27  0.375  0.625  0.375-  23 2.32  35 2.32   8 2.33  52 2.33
  28  0.375  0.625  0.875-  24 2.32  36 2.32   7 2.33  51 2.33
  29  0.875  0.125  0.375-  17 2.32  37 2.32   2 2.33  54 2.33
  30  0.875  0.125  0.875-  18 2.32  38 2.32   1 2.33  53 2.33
  31  0.875  0.625  0.375-  19 2.32  39 2.32   4 2.33  56 2.33
  32  0.875  0.625  0.875-  20 2.32  40 2.32   3 2.33  55 2.33
  33  0.250  0.000  0.250-  25 2.32  43 2.32  11 2.33  57 2.33
  34  0.250  0.000  0.750-  26 2.32  44 2.32  12 2.33  58 2.33
  35  0.250  0.500  0.250-  27 2.32  41 2.32   9 2.33  59 2.33
  36  0.250  0.500  0.750-  28 2.32  42 2.32  10 2.33  60 2.33
  37  0.750  0.000  0.250-  29 2.32  47 2.32  15 2.33  61 2.33
  38  0.750  0.000  0.750-  30 2.32  48 2.32  16 2.33  62 2.33
  39  0.750  0.500  0.250-  31 2.32  45 2.32  13 2.33  63 2.33
  40  0.750  0.500  0.750-  32 2.32  46 2.32  14 2.33  64 2.33
  41  0.125  0.375  0.375-  17 2.32  35 2.32   4 2.33  50 2.33
  42  0.125  0.375  0.875-  18 2.32  36 2.32   3 2.33  49 2.33
  43  0.125  0.875  0.375-  19 2.32  33 2.32   2 2.33  52 2.33
  44  0.125  0.875  0.875-  20 2.32  34 2.32   1 2.33  51 2.33
  45  0.625  0.375  0.375-  21 2.32  39 2.32   8 2.33  54 2.33
  46  0.625  0.375  0.875-  22 2.32  40 2.32   7 2.33  53 2.33
  47  0.625  0.875  0.375-  23 2.32  37 2.32   6 2.33  56 2.33
  48  0.625  0.875  0.875-  24 2.32  38 2.32   5 2.33  55 2.33
  49  0.250  0.250  0.000-   9 2.32  57 2.32  42 2.33  26 2.33
  50  0.250  0.250  0.500-  10 2.32  58 2.32  41 2.33  25 2.33
  51  0.250  0.750  0.000-  11 2.32  59 2.32  44 2.33  28 2.33
  52  0.250  0.750  0.500-  12 2.32  60 2.32  43 2.33  27 2.33
  53  0.750  0.250  0.000-  13 2.32  61 2.32  46 2.33  30 2.33
  54  0.750  0.250  0.500-  14 2.32  62 2.32  45 2.33  29 2.33
  55  0.750  0.750  0.000-  15 2.32  63 2.32  48 2.33  32 2.33
  56  0.750  0.750  0.500-  16 2.32  64 2.32  47 2.33  31 2.33
  57  0.125  0.125  0.125-   1 2.32  49 2.32  33 2.33  17 2.33
  58  0.125  0.125  0.625-   2 2.32  50 2.32  34 2.33  18 2.33
  59  0.125  0.625  0.125-   3 2.32  51 2.32  35 2.33  19 2.33
  60  0.125  0.625  0.625-   4 2.32  52 2.32  36 2.33  20 2.33
  61  0.625  0.125  0.125-   5 2.32  53 2.32  37 2.33  21 2.33
  62  0.625  0.125  0.625-   6 2.32  54 2.32  38 2.33  22 2.33
  63  0.625  0.625  0.125-   7 2.32  55 2.32  39 2.33  23 2.33
  64  0.625  0.625  0.625-   8 2.32  56 2.32  40 2.33  24 2.33
 
  LATTYP: Found a simple monoclinic cell.
 ALAT       =    10.6566284854
 B/A-ratio  =     1.0100880972
 C/A-ratio  =     1.0101007234
 COS(beta)  =    -0.0100503146
  
  Lattice vectors:
  
 A1 = (  10.6564925738,  -0.0538210079,   0.0000000000)
 A2 = (   0.0000000000,   0.0000000000, -10.7641335897)
 A3 = (  -0.0538210079,  10.7641335897,   0.0000000000)


Analysis of symmetry for initial positions (statically):
=====================================================================
 Subroutine PRICEL returns following result:
 
  LATTYP: Found a base centered monoclinic cell.
 ALAT       =     5.3283142427
 B/A-ratio  =     1.0100880972
 C/A-ratio  =     0.7071067478
 COS(beta)  =    -0.6999283863
  
  Lattice vectors:
  
 A1 = (  -2.6641231434,   0.0134552520,  -2.6910333974)
 A2 = (  -2.6641231434,   0.0134552520,   2.6910333974)
 A3 = (   2.6506678915,   2.6775781454,   0.0000000000)
 
  32 primitive cells build up your supercell.
 

 Routine SETGRP: Setting up the symmetry group for a 
 simple monoclinic supercell.


 Subroutine GETGRP returns: Found  4 space group operations
 (whereof  2 operations were pure point group operations)
 out of a pool of  4 trial point group operations.


The static configuration has the point symmetry C_2 .
 The point group associated with its full space group is C_2h.


Analysis of symmetry for dynamics (positions and initial velocities):
=====================================================================
 Subroutine PRICEL returns following result:
 
  LATTYP: Found a base centered monoclinic cell.
 ALAT       =     5.3283142427
 B/A-ratio  =     1.0100880972
 C/A-ratio  =     0.7071067478
 COS(beta)  =    -0.6999283863
  
  Lattice vectors:
  
 A1 = (  -2.6641231434,   0.0134552520,  -2.6910333974)
 A2 = (  -2.6641231434,   0.0134552520,   2.6910333974)
 A3 = (   2.6506678915,   2.6775781454,   0.0000000000)
 
  32 primitive cells build up your supercell.
 

 Routine SETGRP: Setting up the symmetry group for a 
 simple monoclinic supercell.


 Subroutine GETGRP returns: Found  4 space group operations
 (whereof  2 operations were pure point group operations)
 out of a pool of  4 trial point group operations.


The dynamic configuration has the point symmetry C_2 .
 The point group associated with its full space group is C_2h.


 Subroutine INISYM returns: Found  4 space group operations
 (whereof  2 operations are pure point group operations),
 and found    32 'primitive' translations


----------------------------------------------------------------------------------------

                                     Primitive cell                                     

  volume of cell :      38.5844

  direct lattice vectors                    reciprocal lattice vectors
    -2.664123143  0.013455252 -2.691033397    -0.186745327  0.184868495 -0.185802228
    -2.664123143  0.013455252  2.691033397    -0.186745327  0.184868495  0.185802228
     2.650667891  2.677578145  0.000000000     0.001876849  0.371613840  0.000000000

  length of vectors
     3.786739219  3.786739219  3.767686956     0.321827043  0.321827043  0.371618579

  position of ions in fractional coordinates (direct lattice)
     0.000000000  0.000000000  0.000000000
     0.750000000  0.250000000  0.500000000

  ion indices of the primitive-cell ions
   primitive index   ion index
                 1           1
                 2          15

----------------------------------------------------------------------------------------

 
 
 KPOINTS: Automatic mesh                          

Automatic generation of k-mesh.
 Grid dimensions read from file:
 generate k-points for:    2    2    2

 Generating k-lattice:

  Cartesian coordinates                     Fractional coordinates (reciprocal lattice)
     0.046920938  0.000234606  0.000000000     0.500000000 -0.000000000  0.000000000
     0.000234606  0.046451730  0.000000000    -0.000000000  0.500000000  0.000000000
     0.000000000  0.000000000  0.046450557     0.000000000  0.000000000  0.500000000

  Length of vectors
     0.046921524  0.046452322  0.046450557

  Shift w.r.t. Gamma in fractional coordinates (k-lattice)
     0.000000000  0.000000000  0.000000000

 
 Subroutine IBZKPT returns following result:
 ===========================================
 
 Found      8 irreducible k-points:
 
 Following reciprocal coordinates:
            Coordinates               Weight
  0.000000  0.000000  0.000000      1.000000
  0.500000  0.000000  0.000000      1.000000
  0.000000  0.500000  0.000000      1.000000
  0.500000  0.500000  0.000000      1.000000
  0.000000  0.000000  0.500000      1.000000
  0.500000  0.000000  0.500000      1.000000
  0.000000  0.500000  0.500000      1.000000
  0.500000  0.500000  0.500000      1.000000
 
 Following cartesian coordinates:
            Coordinates               Weight
  0.000000  0.000000  0.000000      1.000000
  0.046921  0.000235  0.000000      1.000000
  0.000235  0.046452  0.000000      1.000000
  0.047156  0.046686  0.000000      1.000000
  0.000000  0.000000  0.046451      1.000000
  0.046921  0.000235  0.046451      1.000000
  0.000235  0.046452  0.046451      1.000000
  0.047156  0.046686  0.046451      1.000000
 


--------------------------------------------------------------------------------------------------------




 Dimension of arrays:
   k-points           NKPTS =      8   k-points in BZ     NKDIM =      8   number of bands    NBANDS=    162
   number of dos      NEDOS =    301   number of ions     NIONS =     64
   non local maximal  LDIM  =      4   non local SUM 2l+1 LMDIM =      8
   total plane-waves  NPLWV = 343000
   max r-space proj   IRMAX =   3111   max aug-charges    IRDMAX=  74497
   dimension x,y,z NGX =    70 NGY =   70 NGZ =   70
   dimension x,y,z NGXF=   140 NGYF=  140 NGZF=  140
   support grid    NGXF=   280 NGYF=  280 NGZF=  280
   ions per type =              64
   NGX,Y,Z   is equivalent  to a cutoff of  10.92, 10.81, 10.81 a.u.
   NGXF,Y,Z  is equivalent  to a cutoff of  21.84, 21.62, 21.62 a.u.

 SYSTEM =  Si64                                    
 POSCAR =  Si8                                     

 Startparameter for this run:
   NWRITE =      2    write-flag & timer
   PREC   = accura    normal or accurate (medium, high low for compatibility)
   ISTART =      0    job   : 0-new  1-cont  2-samecut
   ICHARG =      2    charge: 1-file 2-atom 10-const
   ISPIN  =      1    spin polarized calculation?
   LNONCOLLINEAR =      F non collinear calculations
   LSORBIT =      F    spin-orbit coupling
   INIWAV =      1    electr: 0-lowe 1-rand  2-diag
   LASPH  =      F    aspherical Exc in radial PAW
 Electronic Relaxation 1
   ENCUT  =  400.0 eV  29.40 Ry    5.42 a.u.  17.38 17.55 17.55*2*pi/ulx,y,z
   ENINI  =  400.0     initial cutoff
   ENAUG  =  322.1 eV  augmentation charge cutoff
   NELM   =     60;   NELMIN=  8; NELMDL= -5     # of ELM steps 
   EDIFF  = 0.1E-05   stopping-criterion for ELM
   LREAL  =      T    real-space projection
   NLSPLINE    = F    spline interpolate recip. space projectors
   LCOMPAT=      F    compatible to vasp.4.4
   GGA_COMPAT  = F    GGA compatible to vasp.4.4-vasp.4.6
   LMAXPAW     = -100 max onsite density
   LMAXMIX     =    2 max onsite mixed and CHGCAR
   VOSKOWN=      0    Vosko Wilk Nusair interpolation
   ROPT   =   -0.00025
 Ionic relaxation
   EDIFFG = -.1E-01   stopping-criterion for IOM
   NSW    =     60    number of steps for IOM
   NBLOCK =      1;   KBLOCK =     60    inner block; outer block 
   IBRION =      2    ionic relax: 0-MD 1-quasi-New 2-CG
   NFREE  =      1    steps in history (QN), initial steepest desc. (CG)
   ISIF   =      2    stress and relaxation
   IWAVPR =     11    prediction:  0-non 1-charg 2-wave 3-comb
   ISYM   =      2    0-nonsym 1-usesym 2-fastsym
   LCORR  =      T    Harris-Foulkes like correction to forces

   POTIM  = 0.5000    time-step for ionic-motion
   TEIN   =    0.0    initial temperature
   TEBEG  =    0.0;   TEEND  =   0.0 temperature during run
   SMASS  =  -3.00    Nose mass-parameter (am)
   estimated Nose-frequenzy (Omega)   =  0.10E-29 period in steps = 0.13E+47 mass=  -0.260E-26a.u.
   SCALEE = 1.0000    scale energy and forces
   NPACO  =    256;   APACO  = 10.0  distance and # of slots for P.C.
   PSTRESS=    0.0 pullay stress

  Mass of Ions in am
   POMASS =  28.09
  Ionic Valenz
   ZVAL   =   4.00
  Atomic Wigner-Seitz radii
   RWIGS  =  -1.00
  virtual crystal weights 
   VCA    =   1.00
   NELECT =     256.0000    total number of electrons
   NUPDOWN=      -1.0000    fix difference up-down

 DOS related values:
   EMIN   =  10.00;   EMAX   =-10.00  energy-range for DOS
   EFERMI =   0.00;   METHOD = LEGACY      
   ISMEAR =     1;   SIGMA  =   0.20  broadening in eV -4-tet -1-fermi 0-gaus

 Electronic relaxation 2 (details)
   IALGO  =     68    algorithm
   LDIAG  =      T    sub-space diagonalisation (order eigenvalues)
   LSUBROT=      F    optimize rotation matrix (better conditioning)
   TURBO    =      0    0=normal 1=particle mesh
   IRESTART =      0    0=no restart 2=restart with 2 vectors
   NREBOOT  =      0    no. of reboots
   NMIN     =      0    reboot dimension
   EREF     =   0.00    reference energy to select bands
   IMIX   =      4    mixing-type and parameters
     AMIX     =   0.40;   BMIX     =  1.00
     AMIX_MAG =   1.60;   BMIX_MAG =  1.00
     AMIN     =   0.10
     WC   =   100.;   INIMIX=   1;  MIXPRE=   1;  MAXMIX= -45

 Intra band minimization:
   WEIMIN = 0.0010     energy-eigenvalue tresh-hold
   EBREAK =  0.15E-08  absolut break condition
   DEPER  =   0.30     relativ break condition  

   TIME   =   0.40     timestep for ELM

  volume/ion in A,a.u.               =      19.29       130.19
  Fermi-wavevector in a.u.,A,eV,Ry     =   0.968949  1.831048 12.774000  0.938862
  Thomas-Fermi vector in A             =   2.098961
 
 Write flags
   LWAVE        =      F    write WAVECAR
   LDOWNSAMPLE  =      F    k-point downsampling of WAVECAR
   LCHARG       =      F    write CHGCAR
   LVTOT        =      F    write LOCPOT, total local potential
   LVHAR        =      F    write LOCPOT, Hartree potential only
   WRT_POTENTIAL= false  ! write potential to hdf5 file
   LELF         =      F    write electronic localiz. function (ELF)
   LORBIT       =      0    0 simple, 1 ext, 2 COOP (PROOUT), +10 PAW based schemes


 Dipole corrections
   LMONO      =      F    monopole corrections only (constant potential shift)
   LDIPOL     =      F    correct potential (dipole corrections)
   IDIPOL     =      0    1-x, 2-y, 3-z, 4-all directions 
   EPSILON    =  1.0000000 bulk dielectric constant
   LVACPOTAV  =      F  vacuum potentials using an averaging scheme for the charge density
   VACPOTFLAT =  0.1000000 required flatness to determine vacuum potential
 Exchange correlation treatment:
   GGA     = PS    functional components
   XC_C    = 1    coefficients multiplying the functional components
   LIBXC   =     F    Libxc                    
   VOSKOWN =     0    Vosko Wilk Nusair interpolation
   LHFCALC =     F    Hartree Fock is set to
   LHFONE  =     F    Hartree Fock one center treatment
   AEXX    =    0.0000 exact exchange contribution

 Parameters of functionals:
   PS:
     No parameter
 
 Van der Waals corrections
   IVDW    =     0    specifies the selected vdW correction

 Linear response parameters
   LEPSILON=     F    determine dielectric tensor
   LRPA    =     F    only Hartree local field effects (RPA)
   LNABLA  =     F    use nabla operator in PAW spheres
   LVEL    =     F    velocity operator in full k-point grid
   CSHIFT  =0.1000    complex shift for real part using Kramers Kronig
   OMEGAMAX=  -1.0    maximum frequency
   DEG_THRESHOLD= 0.2000000E-02 threshold for treating states as degnerate
   RTIME   =   -0.100 relaxation time in fs
  (WPLASMAI=    0.000 imaginary part of plasma frequency in eV, 0.658/RTIME)
   DFIELD  = 0.0000000 0.0000000 0.0000000 field for delta impulse in time
 
  Optional k-point grid parameters
   LKPOINTS_OPT  =     F    use optional k-point grid
   KPOINTS_OPT_MODE=     1    mode for optional k-point grid
 
 Orbital magnetization related:
   ORBITALMAG=     F  switch on orbital magnetization
   LCHIMAG   =     F  perturbation theory with respect to B field
   DQ        =  0.001000  dq finite difference perturbation B field
   LLRAUG    =     F  two centre corrections for induced B field
   LBONE     =     F  B-component reconstruction in AE one-centre
   LVGVCALC  =     T  calculate vGv susceptibility
   LVGVAPPL  =     F  apply vGv susceptibility instead of pGv for G=0

 Random number generation:
   RANDOM_GENERATOR = DEFAULT
   PCG_SEED         = not used


--------------------------------------------------------------------------------------------------------


 conjugate gradient relaxation of ions
 charge density and potential will be updated during run
 non-spin polarized calculation
 RMM-DIIS sequential band-by-band and
  variant of blocked Davidson during initial phase
 perform sub-space diagonalisation
    before iterative eigenvector-optimisation
 modified Broyden-mixing scheme, WC =      100.0
 initial mixing is a Kerker type mixing with AMIX =  0.4000 and BMIX =      1.0000
 Hartree-type preconditioning will be used
 using additional bands           34
 real space projection scheme for non local part
 use partial core corrections
 calculate Harris-corrections to forces 
   (improved forces if not selfconsistent)
 use gradient corrections 
 use of overlap-Matrix (Vanderbilt PP)
 Methfessel and Paxton  Order N= 1 SIGMA  =   0.20


--------------------------------------------------------------------------------------------------------


  energy-cutoff  :      400.00
  volume of cell :     1234.70
      direct lattice vectors                 reciprocal lattice vectors
    10.656492574 -0.053821008  0.000000000     0.093841876  0.000469212  0.000000000
    -0.053821008 10.764133590  0.000000000     0.000469212  0.092903460  0.000000000
     0.000000000  0.000000000 10.764133590     0.000000000  0.000000000  0.092901114

  length of vectors
    10.656628485 10.764268142 10.764133590     0.093843049  0.092904645  0.092901114


 
 k-points in units of 2pi/SCALE and weight: Automatic mesh                          
   0.00000000  0.00000000  0.00000000       0.125
   0.04692094  0.00023461  0.00000000       0.125
   0.00023461  0.04645174  0.00000000       0.125
   0.04715555  0.04668634  0.00000000       0.125
   0.00000000  0.00000000  0.04645056       0.125
   0.04692094  0.00023461  0.04645056       0.125
   0.00023461  0.04645174  0.04645056       0.125
   0.04715555  0.04668634  0.04645056       0.125
 
 k-points in reciprocal lattice and weights: Automatic mesh                          
   0.00000000  0.00000000  0.00000000       0.125
   0.50000000  0.00000000  0.00000000       0.125
   0.00000000  0.50000000  0.00000000       0.125
   0.50000000  0.50000000  0.00000000       0.125
   0.00000000  0.00000000  0.50000000       0.125
   0.50000000  0.00000000  0.50000000       0.125
   0.00000000  0.50000000  0.50000000       0.125
   0.50000000  0.50000000  0.50000000       0.125
 
 position of ions in fractional coordinates (direct lattice) 
   0.00000000  0.00000000  0.00000000
   0.00000000  0.00000000  0.50000000
   0.00000000  0.50000000  0.00000000
   0.00000000  0.50000000  0.50000000
   0.50000000  0.00000000  0.00000000
   0.50000000  0.00000000  0.50000000
   0.50000000  0.50000000  0.00000000
   0.50000000  0.50000000  0.50000000
   0.37500000  0.37500000  0.12500000
   0.37500000  0.37500000  0.62500000
   0.37500000  0.87500000  0.12500000
   0.37500000  0.87500000  0.62500000
   0.87500000  0.37500000  0.12500000
   0.87500000  0.37500000  0.62500000
   0.87500000  0.87500000  0.12500000
   0.87500000  0.87500000  0.62500000
   0.00000000  0.25000000  0.25000000
   0.00000000  0.25000000  0.75000000
   0.00000000  0.75000000  0.25000000
   0.00000000  0.75000000  0.75000000
   0.50000000  0.25000000  0.25000000
   0.50000000  0.25000000  0.75000000
   0.50000000  0.75000000  0.25000000
   0.50000000  0.75000000  0.75000000
   0.37500000  0.12500000  0.37500000
   0.37500000  0.12500000  0.87500000
   0.37500000  0.62500000  0.37500000
   0.37500000  0.62500000  0.87500000
   0.87500000  0.12500000  0.37500000
   0.87500000  0.12500000  0.87500000
   0.87500000  0.62500000  0.37500000
   0.87500000  0.62500000  0.87500000
   0.25000000  0.00000000  0.25000000
   0.25000000  0.00000000  0.75000000
   0.25000000  0.50000000  0.25000000
   0.25000000  0.50000000  0.75000000
   0.75000000  0.00000000  0.25000000
   0.75000000  0.00000000  0.75000000
   0.75000000  0.50000000  0.25000000
   0.75000000  0.50000000  0.75000000
   0.12500000  0.37500000  0.37500000
   0.12500000  0.37500000  0.87500000
   0.12500000  0.87500000  0.37500000
   0.12500000  0.87500000  0.87500000
   0.62500000  0.37500000  0.37500000
   0.62500000  0.37500000  0.87500000
   0.62500000  0.87500000  0.37500000
   0.62500000  0.87500000  0.87500000
   0.25000000  0.25000000  0.00000000
   0.25000000  0.25000000  0.50000000
   0.25000000  0.75000000  0.00000000
   0.25000000  0.75000000  0.50000000
   0.75000000  0.25000000  0.00000000
   0.75000000  0.25000000  0.50000000
   0.75000000  0.75000000  0.00000000
   0.75000000  0.75000000  0.50000000
   0.12500000  0.12500000  0.12500000
   0.12500000  0.12500000  0.62500000
   0.12500000  0.62500000  0.12500000
   0.12500000  0.62500000  0.62500000
   0.62500000  0.12500000  0.12500000
   0.62500000  0.12500000  0.62500000
   0.62500000  0.62500000  0.12500000
   0.62500000  0.62500000  0.62500000
 
 position of ions in cartesian coordinates  (Angst):
   0.00000000  0.00000000  0.00000000
   0.00000000  0.00000000  5.38206679
  -0.02691050  5.38206679  0.00000000
  -0.02691050  5.38206679  5.38206679
   5.32824629 -0.02691050  0.00000000
   5.32824629 -0.02691050  5.38206679
   5.30133578  5.35515629  0.00000000
   5.30133578  5.35515629  5.38206679
   3.97600184  4.01636722  1.34551670
   3.97600184  4.01636722  6.72758349
   3.94909133  9.39843401  1.34551670
   3.94909133  9.39843401  6.72758349
   9.30424812  3.98945671  1.34551670
   9.30424812  3.98945671  6.72758349
   9.27733762  9.37152351  1.34551670
   9.27733762  9.37152351  6.72758349
  -0.01345525  2.69103340  2.69103340
  -0.01345525  2.69103340  8.07310019
  -0.04036576  8.07310019  2.69103340
  -0.04036576  8.07310019  8.07310019
   5.31479103  2.66412289  2.69103340
   5.31479103  2.66412289  8.07310019
   5.28788053  8.04618969  2.69103340
   5.28788053  8.04618969  8.07310019
   3.98945709  1.32533382  4.03655010
   3.98945709  1.32533382  9.41861689
   3.96254659  6.70740062  4.03655010
   3.96254659  6.70740062  9.41861689
   9.31770338  1.29842332  4.03655010
   9.31770338  1.29842332  9.41861689
   9.29079287  6.68049011  4.03655010
   9.29079287  6.68049011  9.41861689
   2.66412314 -0.01345525  2.69103340
   2.66412314 -0.01345525  8.07310019
   2.63721264  5.36861154  2.69103340
   2.63721264  5.36861154  8.07310019
   7.99236943 -0.04036576  2.69103340
   7.99236943 -0.04036576  8.07310019
   7.96545893  5.34170104  2.69103340
   7.96545893  5.34170104  8.07310019
   1.31187869  4.02982247  4.03655010
   1.31187869  4.02982247  9.41861689
   1.28496819  9.41188926  4.03655010
   1.28496819  9.41188926  9.41861689
   6.64012498  4.00291197  4.03655010
   6.64012498  4.00291197  9.41861689
   6.61321448  9.38497876  4.03655010
   6.61321448  9.38497876  9.41861689
   2.65066789  2.67757815  0.00000000
   2.65066789  2.67757815  5.38206679
   2.62375739  8.05964494  0.00000000
   2.62375739  8.05964494  5.38206679
   7.97891418  2.65066764  0.00000000
   7.97891418  2.65066764  5.38206679
   7.95200367  8.03273444  0.00000000
   7.95200367  8.03273444  5.38206679
   1.32533395  1.33878907  1.34551670
   1.32533395  1.33878907  6.72758349
   1.29842344  6.72085587  1.34551670
   1.29842344  6.72085587  6.72758349
   6.65358023  1.31187857  1.34551670
   6.65358023  1.31187857  6.72758349
   6.62666973  6.69394536  1.34551670
   6.62666973  6.69394536  6.72758349
 


--------------------------------------------------------------------------------------------------------


 k-point     1 :   0.0000 0.0000 0.0000  plane waves:   22463
 k-point     2 :   0.5000 0.0000 0.0000  plane waves:   22452
 k-point     3 :   0.0000 0.5000 0.0000  plane waves:   22440
 k-point     4 :   0.5000 0.5000 0.0000  plane waves:   22408
 k-point     5 :   0.0000 0.0000 0.5000  plane waves:   22432
 k-point     6 :   0.5000 0.0000 0.5000  plane waves:   22412
 k-point     7 :   0.0000 0.5000 0.5000  plane waves:   22420
 k-point     8 :   0.5000 0.5000 0.5000  plane waves:   22396

 maximum and minimum number of plane-waves per node :      1902     1832

 maximum number of plane-waves:     22463
 maximum index in each direction: 
   IXMAX=   17   IYMAX=   17   IZMAX=   17
   IXMIN=  -17   IYMIN=  -18   IZMIN=  -18


 real space projection operators:
  total allocation   :      11922.50 KBytes
  max/ min on nodes  :       1033.50        862.75


 parallel 3D FFT for wavefunctions:
    minimum data exchange during FFTs selected (reduces bandwidth)
 parallel 3D FFT for charge:
    minimum data exchange during FFTs selected (reduces bandwidth)


 total amount of memory used by VASP MPI-rank0    79513. kBytes
=======================================================================

   base      :      30000. kBytes
   nonlr-proj:       4612. kBytes
   fftplans  :      17992. kBytes
   grid      :       6881. kBytes
   one-center:         18. kBytes
   wavefun   :      20010. kBytes
 
     INWAV:  cpu time      0.0000: real time      0.0000
 Broyden mixing: mesh for mixing (old mesh)
   NGX = 35   NGY = 35   NGZ = 35
  (NGX  =140   NGY  =140   NGZ  =140)
  gives a total of  42875 points

 initial charge density was supplied:
 charge density of overlapping atoms calculated
 number of electron     256.0000000 magnetization 
 keeping initial charge density in first step


--------------------------------------------------------------------------------------------------------


 Maximum index for non-local projection operator          276
 Maximum index for augmentation-charges         3688 (set IRDMAX)


--------------------------------------------------------------------------------------------------------


 First call to EWALD:  gamma=   0.165
 Maximum number of real-space cells 3x 3x 3
 Maximum number of reciprocal cells 3x 3x 3

    FEWALD:  cpu time      0.0074: real time      0.0074


--------------------------------------- Ionic step        1  -------------------------------------------




--------------------------------------- Iteration      1(   1)  ---------------------------------------


    POTLOK:  cpu time      0.0933: real time      0.1006
    SETDIJ:  cpu time      0.0865: real time      0.0878
     EDDAV:  cpu time      1.2794: real time      1.3507
       DOS:  cpu time      0.0106: real time      0.0128
    --------------------------------------------
      LOOP:  cpu time      1.4698: real time      1.5519

 eigenvalue-minimisations  :  2592
 total energy-change (2. order) : 0.5642534E+03  (-0.8430407E+04)
 number of electron     256.0000000 magnetization 
 augmentation part      256.0000000 magnetization 

 Free energy of the ion-electron system (eV)
  ---------------------------------------------------
  alpha Z        PSCENC =       111.67423220
  Ewald energy   TEWEN  =     -7403.97234077
  -Hartree energ DENC   =      -334.65887935
  -exchange      EXHF   =         0.00000000
  -V(xc)+E(xc)   XCENC  =      -554.22449865
  PAW double counting   =      5598.62625415    -4492.17844134
  entropy T*S    EENTRO =         0.00798139
  eigenvalues    EBANDS =      1074.18319794
  atomic energy  EATOM  =      6564.79586099
  Solvation  Ediel_sol  =         0.00000000
  ---------------------------------------------------
  free energy    TOTEN  =       564.25336656 eV

  energy without entropy =      564.24538517  energy(sigma->0) =      564.25070610


--------------------------------------------------------------------------------------------------------




--------------------------------------- Iteration      1(   2)  ---------------------------------------


     EDDAV:  cpu time      1.3136: real time      1.3204
       DOS:  cpu time      0.0011: real time      0.0015
    --------------------------------------------
      LOOP:  cpu time      1.3147: real time      1.3218

 eigenvalue-minimisations  :  3088
 total energy-change (2. order) :-0.8748926E+03  (-0.8315639E+03)
 number of electron     256.0000000 magnetization 
 augmentation part      256.0000000 magnetization 

 Free energy of the ion-electron system (eV)
  ---------------------------------------------------
  alpha Z        PSCENC =       111.67423220
  Ewald energy   TEWEN  =     -7403.97234077
  -Hartree energ DENC   =      -334.65887935
  -exchange      EXHF   =         0.00000000
  -V(xc)+E(xc)   XCENC  =      -554.22449865
  PAW double counting   =      5598.62625415    -4492.17844134
  entropy T*S    EENTRO =         0.00659138
  eigenvalues    EBANDS =       199.29197128
  atomic energy  EATOM  =      6564.79586099
  Solvation  Ediel_sol  =         0.00000000
  ---------------------------------------------------
  free energy    TOTEN  =      -310.63925012 eV

  energy without entropy =     -310.64584149  energy(sigma->0) =     -310.64144724


--------------------------------------------------------------------------------------------------------




--------------------------------------- Iteration      1(   3)  ---------------------------------------


     EDDAV:  cpu time      1.3385: real time      1.3528
       DOS:  cpu time      0.0013: real time      0.0013
    --------------------------------------------
      LOOP:  cpu time      1.3398: real time      1.3541

 eigenvalue-minimisations  :  3128
 total energy-change (2. order) :-0.6258625E+02  (-0.6127929E+02)
 number of electron     256.0000000 magnetization 
 augmentation part      256.0000000 magnetization 

 Free energy of the ion-electron system (eV)
  ---------------------------------------------------
  alpha Z        PSCENC =       111.67423220
  Ewald energy   TEWEN  =     -7403.97234077
  -Hartree energ DENC   =      -334.65887935
  -exchange      EXHF   =         0.00000000
  -V(xc)+E(xc)   XCENC  =      -554.22449865
  PAW double counting   =      5598.62625415    -4492.17844134
  entropy T*S    EENTRO =         0.00813330
  eigenvalues    EBANDS =       136.70417872
  atomic energy  EATOM  =      6564.79586099
  Solvation  Ediel_sol  =         0.00000000
  ---------------------------------------------------
  free energy    TOTEN  =      -373.22550075 eV

  energy without entropy =     -373.23363405  energy(sigma->0) =     -373.22821185


--------------------------------------------------------------------------------------------------------




--------------------------------------- Iteration      1(   4)  ---------------------------------------


     EDDAV:  cpu time      1.3248: real time      1.3383
       DOS:  cpu time      0.0013: real time      0.0013
    --------------------------------------------
      LOOP:  cpu time      1.3261: real time      1.3397

 eigenvalue-minimisations  :  3144
 total energy-change (2. order) :-0.1625908E+01  (-0.1614401E+01)
 number of electron     256.0000000 magnetization 
 augmentation part      256.0000000 magnetization 

 Free energy of the ion-electron system (eV)
  ---------------------------------------------------
  alpha Z        PSCENC =       111.67423220
  Ewald energy   TEWEN  =     -7403.97234077
  -Hartree energ DENC   =      -334.65887935
  -exchange      EXHF   =         0.00000000
  -V(xc)+E(xc)   XCENC  =      -554.22449865
  PAW double counting   =      5598.62625415    -4492.17844134
  entropy T*S    EENTRO =         0.00841479
  eigenvalues    EBANDS =       135.07798956
  atomic energy  EATOM  =      6564.79586099
  Solvation  Ediel_sol  =         0.00000000
  ---------------------------------------------------
  free energy    TOTEN  =      -374.85140841 eV

  energy without entropy =     -374.85982321  energy(sigma->0) =     -374.85421334


--------------------------------------------------------------------------------------------------------




--------------------------------------- Iteration      1(   5)  ---------------------------------------


     EDDAV:  cpu time      1.3685: real time      1.3896
       DOS:  cpu time      0.0012: real time      0.0012
    CHARGE:  cpu time      0.2457: real time      0.2499
    MIXING:  cpu time      0.0087: real time      0.0119
    --------------------------------------------
      LOOP:  cpu time      1.6241: real time      1.6526

 eigenvalue-minimisations  :  3136
 total energy-change (2. order) :-0.4955698E-01  (-0.4946791E-01)
 number of electron     256.0000001 magnetization 
 augmentation part      -15.0496029 magnetization 

 Broyden mixing:
  rms(total) = 0.29516E+01    rms(broyden)= 0.29516E+01
  rms(prec ) = 0.32517E+01
  weight for this iteration     100.00

 Free energy of the ion-electron system (eV)
  ---------------------------------------------------
  alpha Z        PSCENC =       111.67423220
  Ewald energy   TEWEN  =     -7403.97234077
  -Hartree energ DENC   =      -334.65887935
  -exchange      EXHF   =         0.00000000
  -V(xc)+E(xc)   XCENC  =      -554.22449865
  PAW double counting   =      5598.62625415    -4492.17844134
  entropy T*S    EENTRO =         0.00837944
  eigenvalues    EBANDS =       135.02846794
  atomic energy  EATOM  =      6564.79586099
  Solvation  Ediel_sol  =         0.00000000
  ---------------------------------------------------
  free energy    TOTEN  =      -374.90096539 eV

  energy without entropy =     -374.90934483  energy(sigma->0) =     -374.90375854


--------------------------------------------------------------------------------------------------------




--------------------------------------- Iteration      1(   6)  ---------------------------------------


    POTLOK:  cpu time      0.0812: real time      0.0953
    SETDIJ:  cpu time      0.0680: real time      0.0685
    EDDIAG:  cpu time      0.1420: real time      0.1436
  RMM-DIIS:  cpu time      0.6941: real time      0.6982
    ORTHCH:  cpu time      0.0202: real time      0.0202
       DOS:  cpu time      0.0030: real time      0.0030
    CHARGE:  cpu time      0.2340: real time      0.2345
    MIXING:  cpu time      0.0055: real time      0.0089
    --------------------------------------------
      LOOP:  cpu time      1.2479: real time      1.2723

 eigenvalue-minimisations  :  2592
 total energy-change (2. order) : 0.5549445E+01  (-0.2847859E+00)
 number of electron     256.0000001 magnetization 
 augmentation part      -14.8754114 magnetization 

 Broyden mixing:
  rms(total) = 0.17783E+01    rms(broyden)= 0.17783E+01
  rms(prec ) = 0.19482E+01
  weight for this iteration     100.00

 eigenvalues of (default mixing * dielectric matrix)
  average eigenvalue GAMMA=   2.5099
  2.5099

 Free energy of the ion-electron system (eV)
  ---------------------------------------------------
  alpha Z        PSCENC =       111.67423220
  Ewald energy   TEWEN  =     -7403.97234077
  -Hartree energ DENC   =      -382.74739354
  -exchange      EXHF   =         0.00000000
  -V(xc)+E(xc)   XCENC  =      -546.61655984
  PAW double counting   =     12853.76636778   -11750.98178348
  entropy T*S    EENTRO =         0.01122998
  eigenvalues    EBANDS =       184.71886635
  atomic energy  EATOM  =      6564.79586099
  Solvation  Ediel_sol  =         0.00000000
  ---------------------------------------------------
  free energy    TOTEN  =      -369.35152033 eV

  energy without entropy =     -369.36275031  energy(sigma->0) =     -369.35526366


--------------------------------------------------------------------------------------------------------




--------------------------------------- Iteration      1(   7)  ---------------------------------------


    POTLOK:  cpu time      0.0773: real time      0.0946
    SETDIJ:  cpu time      0.0690: real time      0.0692
    EDDIAG:  cpu time      0.1427: real time      0.1430
  RMM-DIIS:  cpu time      0.6969: real time      0.6986
    ORTHCH:  cpu time      0.0207: real time      0.0207
       DOS:  cpu time      0.0022: real time      0.0022
    CHARGE:  cpu time      0.2323: real time      0.2328
    MIXING:  cpu time      0.0066: real time      0.0079
    --------------------------------------------
      LOOP:  cpu time      1.2476: real time      1.2690

 eigenvalue-minimisations  :  2643
 total energy-change (2. order) : 0.2476155E+01  (-0.7240490E+00)
 number of electron     256.0000001 magnetization 
 augmentation part      -14.6303283 magnetization 

 Broyden mixing:
  rms(total) = 0.10542E+00    rms(broyden)= 0.10542E+00
  rms(prec ) = 0.13249E+00
  weight for this iteration     100.00

 eigenvalues of (default mixing * dielectric matrix)
  average eigenvalue GAMMA=   2.2863
  2.2863  2.2863

 Free energy of the ion-electron system (eV)
  ---------------------------------------------------
  alpha Z        PSCENC =       111.67423220
  Ewald energy   TEWEN  =     -7403.97234077
  -Hartree energ DENC   =      -462.05028088
  -exchange      EXHF   =         0.00000000
  -V(xc)+E(xc)   XCENC  =      -533.49223021
  PAW double counting   =     30520.51959281   -29422.83769741
  entropy T*S    EENTRO =         0.03221667
  eigenvalues    EBANDS =       258.45528118
  atomic energy  EATOM  =      6564.79586099
  Solvation  Ediel_sol  =         0.00000000
  ---------------------------------------------------
  free energy    TOTEN  =      -366.87536541 eV

  energy without entropy =     -366.90758208  energy(sigma->0) =     -366.88610430


--------------------------------------------------------------------------------------------------------




--------------------------------------- Iteration      1(   8)  ---------------------------------------


    POTLOK:  cpu time      0.0733: real time      0.0877
    SETDIJ:  cpu time      0.0786: real time      0.0788
    EDDIAG:  cpu time      0.1413: real time      0.1416
  RMM-DIIS:  cpu time      0.7009: real time      0.7026
    ORTHCH:  cpu time      0.0211: real time      0.0211
       DOS:  cpu time      0.0021: real time      0.0023
    CHARGE:  cpu time      0.2355: real time      0.2360
    MIXING:  cpu time      0.0049: real time      0.0055
    --------------------------------------------
      LOOP:  cpu time      1.2576: real time      1.2757

 eigenvalue-minimisations  :  2621
 total energy-change (2. order) :-0.4062580E-01  (-0.6899776E-01)
 number of electron     256.0000001 magnetization 
 augmentation part      -14.6847467 magnetization 

 Broyden mixing:
  rms(total) = 0.51580E-01    rms(broyden)= 0.51580E-01
  rms(prec ) = 0.55040E-01
  weight for this iteration     100.00

 eigenvalues of (default mixing * dielectric matrix)
  average eigenvalue GAMMA=   2.1385
  2.5571  1.9292  1.9292

 Free energy of the ion-electron system (eV)
  ---------------------------------------------------
  alpha Z        PSCENC =       111.67423220
  Ewald energy   TEWEN  =     -7403.97234077
  -Hartree energ DENC   =      -453.95896635
  -exchange      EXHF   =         0.00000000
  -V(xc)+E(xc)   XCENC  =      -534.15734168
  PAW double counting   =     30222.00933525   -29123.34711164
  entropy T*S    EENTRO =         0.03253817
  eigenvalues    EBANDS =       250.00780261
  atomic energy  EATOM  =      6564.79586099
  Solvation  Ediel_sol  =         0.00000000
  ---------------------------------------------------
  free energy    TOTEN  =      -366.91599121 eV

  energy without entropy =     -366.94852939  energy(sigma->0) =     -366.92683727


--------------------------------------------------------------------------------------------------------




--------------------------------------- Iteration      1(   9)  ---------------------------------------


    POTLOK:  cpu time      0.0760: real time      0.0922
    SETDIJ:  cpu time      0.0689: real time      0.0691
    EDDIAG:  cpu time      0.1332: real time      0.1335
  RMM-DIIS:  cpu time      0.7129: real time      0.7146
    ORTHCH:  cpu time      0.0206: real time      0.0207
       DOS:  cpu time      0.0020: real time      0.0020
    CHARGE:  cpu time      0.2330: real time      0.2335
    MIXING:  cpu time      0.0058: real time      0.0058
    --------------------------------------------
      LOOP:  cpu time      1.2525: real time      1.2714

 eigenvalue-minimisations  :  2662
 total energy-change (2. order) :-0.2135934E-01  (-0.2005940E-01)
 number of electron     256.0000001 magnetization 
 augmentation part      -14.6721502 magnetization 

 Broyden mixing:
  rms(total) = 0.58869E-01    rms(broyden)= 0.58869E-01
  rms(prec ) = 0.66446E-01
  weight for this iteration     100.00

 eigenvalues of (default mixing * dielectric matrix)
  average eigenvalue GAMMA=   1.9271
  2.5481  2.3884  2.3884  0.3837

 Free energy of the ion-electron system (eV)
  ---------------------------------------------------
  alpha Z        PSCENC =       111.67423220
  Ewald energy   TEWEN  =     -7403.97234077
  -Hartree energ DENC   =      -456.97150221
  -exchange      EXHF   =         0.00000000
  -V(xc)+E(xc)   XCENC  =      -533.74891711
  PAW double counting   =     30602.42197497   -29504.01329329
  entropy T*S    EENTRO =         0.03267700
  eigenvalues    EBANDS =       252.84395766
  atomic energy  EATOM  =      6564.79586099
  Solvation  Ediel_sol  =         0.00000000
  ---------------------------------------------------
  free energy    TOTEN  =      -366.93735055 eV

  energy without entropy =     -366.97002755  energy(sigma->0) =     -366.94824289


--------------------------------------------------------------------------------------------------------




--------------------------------------- Iteration      1(  10)  ---------------------------------------


    POTLOK:  cpu time      0.0787: real time      0.0961
    SETDIJ:  cpu time      0.0688: real time      0.0689
    EDDIAG:  cpu time      0.1324: real time      0.1328
  RMM-DIIS:  cpu time      0.7249: real time      0.7266
    ORTHCH:  cpu time      0.0204: real time      0.0205
       DOS:  cpu time      0.0024: real time      0.0024
    CHARGE:  cpu time      0.2109: real time      0.2445
    MIXING:  cpu time      0.0059: real time      0.0066
    --------------------------------------------
      LOOP:  cpu time      1.2445: real time      1.2985

 eigenvalue-minimisations  :  2738
 total energy-change (2. order) :-0.3824334E-02  (-0.3567749E-02)
 number of electron     256.0000001 magnetization 
 augmentation part      -14.6785370 magnetization 

 Broyden mixing:
  rms(total) = 0.76979E-01    rms(broyden)= 0.76979E-01
  rms(prec ) = 0.83746E-01
  weight for this iteration     100.00

 eigenvalues of (default mixing * dielectric matrix)
  average eigenvalue GAMMA=   1.5497
  2.6568  2.0495  2.0495  0.4963  0.4963

 Free energy of the ion-electron system (eV)
  ---------------------------------------------------
  alpha Z        PSCENC =       111.67423220
  Ewald energy   TEWEN  =     -7403.97234077
  -Hartree energ DENC   =      -457.06874499
  -exchange      EXHF   =         0.00000000
  -V(xc)+E(xc)   XCENC  =      -533.73798006
  PAW double counting   =     30625.29100487   -29526.88647243
  entropy T*S    EENTRO =         0.03268095
  eigenvalues    EBANDS =       252.93058435
  atomic energy  EATOM  =      6564.79586099
  Solvation  Ediel_sol  =         0.00000000
  ---------------------------------------------------
  free energy    TOTEN  =      -366.94117488 eV

  energy without entropy =     -366.97385583  energy(sigma->0) =     -366.95206853


--------------------------------------------------------------------------------------------------------




--------------------------------------- Iteration      1(  11)  ---------------------------------------


    POTLOK:  cpu time      0.0840: real time      0.0946
    SETDIJ:  cpu time      0.0746: real time      0.0748
    EDDIAG:  cpu time      0.1345: real time      0.1436
  RMM-DIIS:  cpu time      0.6910: real time      0.7162
    ORTHCH:  cpu time      0.0207: real time      0.0207
       DOS:  cpu time      0.0037: real time      0.0037
    CHARGE:  cpu time      0.2371: real time      0.2380
    MIXING:  cpu time      0.0075: real time      0.0075
    --------------------------------------------
      LOOP:  cpu time      1.2530: real time      1.2992

 eigenvalue-minimisations  :  2592
 total energy-change (2. order) : 0.3336874E-02  (-0.1192186E-02)
 number of electron     256.0000001 magnetization 
 augmentation part      -14.6923636 magnetization 

 Broyden mixing:
  rms(total) = 0.68471E-01    rms(broyden)= 0.68471E-01
  rms(prec ) = 0.69135E-01
  weight for this iteration     100.00

 eigenvalues of (default mixing * dielectric matrix)
  average eigenvalue GAMMA=   1.4062
  2.5343  2.5343  1.4114  0.8415  0.8415  0.2742

 Free energy of the ion-electron system (eV)
  ---------------------------------------------------
  alpha Z        PSCENC =       111.67423220
  Ewald energy   TEWEN  =     -7403.97234077
  -Hartree energ DENC   =      -454.64102204
  -exchange      EXHF   =         0.00000000
  -V(xc)+E(xc)   XCENC  =      -533.90984069
  PAW double counting   =     30579.95940053   -29481.30100727
  entropy T*S    EENTRO =         0.03247760
  eigenvalues    EBANDS =       250.42440143
  atomic energy  EATOM  =      6564.79586099
  Solvation  Ediel_sol  =         0.00000000
  ---------------------------------------------------
  free energy    TOTEN  =      -366.93783801 eV

  energy without entropy =     -366.97031561  energy(sigma->0) =     -366.94866388


--------------------------------------------------------------------------------------------------------




--------------------------------------- Iteration      1(  12)  ---------------------------------------


    POTLOK:  cpu time      0.0748: real time      0.0885
    SETDIJ:  cpu time      0.0693: real time      0.0716
    EDDIAG:  cpu time      0.1331: real time      0.1337
  RMM-DIIS:  cpu time      0.6918: real time      0.6950
    ORTHCH:  cpu time      0.0205: real time      0.0206
       DOS:  cpu time      0.0026: real time      0.0027
    CHARGE:  cpu time      0.2316: real time      0.2325
    MIXING:  cpu time      0.0071: real time      0.0071
    --------------------------------------------
      LOOP:  cpu time      1.2309: real time      1.2516

 eigenvalue-minimisations  :  2613
 total energy-change (2. order) :-0.1153293E-03  (-0.1806072E-03)
 number of electron     256.0000001 magnetization 
 augmentation part      -14.6957816 magnetization 

 Broyden mixing:
  rms(total) = 0.69141E-01    rms(broyden)= 0.69141E-01
  rms(prec ) = 0.69596E-01
  weight for this iteration     100.00

 eigenvalues of (default mixing * dielectric matrix)
  average eigenvalue GAMMA=   1.3181
  2.5418  2.5418  1.4787  0.9007  0.9007  0.3276  0.5354

 Free energy of the ion-electron system (eV)
  ---------------------------------------------------
  alpha Z        PSCENC =       111.67423220
  Ewald energy   TEWEN  =     -7403.97234077
  -Hartree energ DENC   =      -454.44049731
  -exchange      EXHF   =         0.00000000
  -V(xc)+E(xc)   XCENC  =      -533.94249199
  PAW double counting   =     30501.11421821   -29402.46413987
  entropy T*S    EENTRO =         0.03246234
  eigenvalues    EBANDS =       250.26474286
  atomic energy  EATOM  =      6564.79586099
  Solvation  Ediel_sol  =         0.00000000
  ---------------------------------------------------
  free energy    TOTEN  =      -366.93795334 eV

  energy without entropy =     -366.97041568  energy(sigma->0) =     -366.94877412


--------------------------------------------------------------------------------------------------------




--------------------------------------- Iteration      1(  13)  ---------------------------------------


    POTLOK:  cpu time      0.0792: real time      0.0886
    SETDIJ:  cpu time      0.0741: real time      0.0743
    EDDIAG:  cpu time      0.1330: real time      0.1333
  RMM-DIIS:  cpu time      0.7236: real time      0.7259
    ORTHCH:  cpu time      0.0207: real time      0.0207
       DOS:  cpu time      0.0023: real time      0.0023
    CHARGE:  cpu time      0.2323: real time      0.2330
    MIXING:  cpu time      0.0067: real time      0.0068
    --------------------------------------------
      LOOP:  cpu time      1.2720: real time      1.2849

 eigenvalue-minimisations  :  2742
 total energy-change (2. order) :-0.6062573E-04  (-0.3395247E-04)
 number of electron     256.0000001 magnetization 
 augmentation part      -14.6962172 magnetization 

 Broyden mixing:
  rms(total) = 0.76314E-01    rms(broyden)= 0.76314E-01
  rms(prec ) = 0.76745E-01
  weight for this iteration     100.00

 eigenvalues of (default mixing * dielectric matrix)
  average eigenvalue GAMMA=   1.6164
  2.7648  2.7648  2.4695  1.9264  1.0022  0.8263  0.8263  0.3512

 Free energy of the ion-electron system (eV)
  ---------------------------------------------------
  alpha Z        PSCENC =       111.67423220
  Ewald energy   TEWEN  =     -7403.97234077
  -Hartree energ DENC   =      -454.48300300
  -exchange      EXHF   =         0.00000000
  -V(xc)+E(xc)   XCENC  =      -533.93348864
  PAW double counting   =     30550.06351742   -29451.41263174
  entropy T*S    EENTRO =         0.03246464
  eigenvalues    EBANDS =       250.29737492
  atomic energy  EATOM  =      6564.79586099
  Solvation  Ediel_sol  =         0.00000000
  ---------------------------------------------------
  free energy    TOTEN  =      -366.93801397 eV

  energy without entropy =     -366.97047861  energy(sigma->0) =     -366.94883551


--------------------------------------------------------------------------------------------------------




--------------------------------------- Iteration      1(  14)  ---------------------------------------


    POTLOK:  cpu time      0.0800: real time      0.0981
    SETDIJ:  cpu time      0.0681: real time      0.0683
    EDDIAG:  cpu time      0.1320: real time      0.1324
  RMM-DIIS:  cpu time      0.6859: real time      0.6875
    ORTHCH:  cpu time      0.0202: real time      0.0202
       DOS:  cpu time      0.0027: real time      0.0027
    CHARGE:  cpu time      0.2323: real time      0.2330
    MIXING:  cpu time      0.0068: real time      0.0068
    --------------------------------------------
      LOOP:  cpu time      1.2280: real time      1.2489

 eigenvalue-minimisations  :  2597
 total energy-change (2. order) : 0.2696869E-04  (-0.1044414E-04)
 number of electron     256.0000001 magnetization 
 augmentation part      -14.6968024 magnetization 

 Broyden mixing:
  rms(total) = 0.41423E-01    rms(broyden)= 0.41423E-01
  rms(prec ) = 0.41873E-01
  weight for this iteration     100.00

 eigenvalues of (default mixing * dielectric matrix)
  average eigenvalue GAMMA=   1.4515
  2.5474  2.5474  2.5307  1.6628  0.9800  0.9800  0.8396  0.3575  0.6182

 Free energy of the ion-electron system (eV)
  ---------------------------------------------------
  alpha Z        PSCENC =       111.67423220
  Ewald energy   TEWEN  =     -7403.97234077
  -Hartree energ DENC   =      -454.21266565
  -exchange      EXHF   =         0.00000000
  -V(xc)+E(xc)   XCENC  =      -533.98021843
  PAW double counting   =     30263.69301379   -29165.07145496
  entropy T*S    EENTRO =         0.03244340
  eigenvalues    EBANDS =       250.10314243
  atomic energy  EATOM  =      6564.79586099
  Solvation  Ediel_sol  =         0.00000000
  ---------------------------------------------------
  free energy    TOTEN  =      -366.93798700 eV

  energy without entropy =     -366.97043039  energy(sigma->0) =     -366.94880146


--------------------------------------------------------------------------------------------------------




--------------------------------------- Iteration      1(  15)  ---------------------------------------


    POTLOK:  cpu time      0.0769: real time      0.0948
    SETDIJ:  cpu time      0.0691: real time      0.0693
    EDDIAG:  cpu time      0.1322: real time      0.1326
  RMM-DIIS:  cpu time      0.6944: real time      0.7019
    ORTHCH:  cpu time      0.0210: real time      0.0211
       DOS:  cpu time      0.0018: real time      0.0018
    CHARGE:  cpu time      0.2320: real time      0.2333
    MIXING:  cpu time      0.0067: real time      0.0068
    --------------------------------------------
      LOOP:  cpu time      1.2341: real time      1.2615

 eigenvalue-minimisations  :  2629
 total energy-change (2. order) :-0.1096275E-03  (-0.4648101E-05)
 number of electron     256.0000001 magnetization 
 augmentation part      -14.6971560 magnetization 

 Broyden mixing:
  rms(total) = 0.36328E-01    rms(broyden)= 0.36328E-01
  rms(prec ) = 0.36661E-01
  weight for this iteration     100.00

 eigenvalues of (default mixing * dielectric matrix)
  average eigenvalue GAMMA=   1.4219
  2.6513  2.6513  2.3687  1.4274  1.0248  1.0248  0.8502  0.9336  0.9336  0.3532

 Free energy of the ion-electron system (eV)
  ---------------------------------------------------
  alpha Z        PSCENC =       111.67423220
  Ewald energy   TEWEN  =     -7403.97234077
  -Hartree energ DENC   =      -454.19136678
  -exchange      EXHF   =         0.00000000
  -V(xc)+E(xc)   XCENC  =      -533.97643231
  PAW double counting   =     30261.81811062   -29163.19114953
  entropy T*S    EENTRO =         0.03243030
  eigenvalues    EBANDS =       250.07255865
  atomic energy  EATOM  =      6564.79586099
  Solvation  Ediel_sol  =         0.00000000
  ---------------------------------------------------
  free energy    TOTEN  =      -366.93809662 eV

  energy without entropy =     -366.97052692  energy(sigma->0) =     -366.94890672


--------------------------------------------------------------------------------------------------------




--------------------------------------- Iteration      1(  16)  ---------------------------------------


    POTLOK:  cpu time      0.0728: real time      0.0911
    SETDIJ:  cpu time      0.0716: real time      0.0718
    EDDIAG:  cpu time      0.1416: real time      0.1423
  RMM-DIIS:  cpu time      0.7124: real time      0.7287
    ORTHCH:  cpu time      0.0218: real time      0.0218
       DOS:  cpu time      0.0020: real time      0.0021
    CHARGE:  cpu time      0.2359: real time      0.2367
    MIXING:  cpu time      0.0052: real time      0.0052
    --------------------------------------------
      LOOP:  cpu time      1.2633: real time      1.3000

 eigenvalue-minimisations  :  2592
 total energy-change (2. order) :-0.9263588E-04  (-0.4176086E-05)
 number of electron     256.0000001 magnetization 
 augmentation part      -14.6965483 magnetization 

 Broyden mixing:
  rms(total) = 0.24976E-01    rms(broyden)= 0.24976E-01
  rms(prec ) = 0.25124E-01
  weight for this iteration     100.00

 eigenvalues of (default mixing * dielectric matrix)
  average eigenvalue GAMMA=   1.3996
  2.6816  2.6816  2.3159  1.7153  1.1295  1.1295  0.9501  0.9501  0.8084  0.6799
  0.3542

 Free energy of the ion-electron system (eV)
  ---------------------------------------------------
  alpha Z        PSCENC =       111.67423220
  Ewald energy   TEWEN  =     -7403.97234077
  -Hartree energ DENC   =      -454.38278546
  -exchange      EXHF   =         0.00000000
  -V(xc)+E(xc)   XCENC  =      -533.95847680
  PAW double counting   =     30244.40331028   -29145.77950731
  entropy T*S    EENTRO =         0.03243603
  eigenvalues    EBANDS =       250.24908158
  atomic energy  EATOM  =      6564.79586099
  Solvation  Ediel_sol  =         0.00000000
  ---------------------------------------------------
  free energy    TOTEN  =      -366.93818926 eV

  energy without entropy =     -366.97062529  energy(sigma->0) =     -366.94900127


--------------------------------------------------------------------------------------------------------




--------------------------------------- Iteration      1(  17)  ---------------------------------------


    POTLOK:  cpu time      0.0767: real time      0.0927
    SETDIJ:  cpu time      0.0694: real time      0.0695
    EDDIAG:  cpu time      0.1347: real time      0.1353
  RMM-DIIS:  cpu time      0.6986: real time      0.7001
    ORTHCH:  cpu time      0.0205: real time      0.0206
       DOS:  cpu time      0.0026: real time      0.0028
    CHARGE:  cpu time      0.2356: real time      0.2360
    MIXING:  cpu time      0.0060: real time      0.0060
    --------------------------------------------
      LOOP:  cpu time      1.2441: real time      1.2630

 eigenvalue-minimisations  :  2592
 total energy-change (2. order) :-0.2197697E-04  (-0.1465040E-05)
 number of electron     256.0000001 magnetization 
 augmentation part      -14.6961871 magnetization 

 Broyden mixing:
  rms(total) = 0.10489E-01    rms(broyden)= 0.10489E-01
  rms(prec ) = 0.10562E-01
  weight for this iteration     100.00

 eigenvalues of (default mixing * dielectric matrix)
  average eigenvalue GAMMA=   1.5305
  1.9201  1.9201  2.6556  2.6556  2.4307  1.8323  1.0237  1.0237  0.8716  0.8392
  0.8392  0.3538

 Free energy of the ion-electron system (eV)
  ---------------------------------------------------
  alpha Z        PSCENC =       111.67423220
  Ewald energy   TEWEN  =     -7403.97234077
  -Hartree energ DENC   =      -454.42076923
  -exchange      EXHF   =         0.00000000
  -V(xc)+E(xc)   XCENC  =      -533.96309761
  PAW double counting   =     30160.32579364   -29061.70441962
  entropy T*S    EENTRO =         0.03243440
  eigenvalues    EBANDS =       250.29409477
  atomic energy  EATOM  =      6564.79586099
  Solvation  Ediel_sol  =         0.00000000
  ---------------------------------------------------
  free energy    TOTEN  =      -366.93821124 eV

  energy without entropy =     -366.97064563  energy(sigma->0) =     -366.94902270


--------------------------------------------------------------------------------------------------------




--------------------------------------- Iteration      1(  18)  ---------------------------------------


    POTLOK:  cpu time      0.0790: real time      0.0958
    SETDIJ:  cpu time      0.0691: real time      0.0693
    EDDIAG:  cpu time      0.1333: real time      0.1336
  RMM-DIIS:  cpu time      0.5277: real time      0.5290
    ORTHCH:  cpu time      0.0209: real time      0.0209
       DOS:  cpu time      0.0021: real time      0.0021
    CHARGE:  cpu time      0.2349: real time      0.2353
    MIXING:  cpu time      0.0050: real time      0.0050
    --------------------------------------------
      LOOP:  cpu time      1.0720: real time      1.0910

 eigenvalue-minimisations  :  1921
 total energy-change (2. order) :-0.4975071E-05  (-0.3571917E-06)
 number of electron     256.0000001 magnetization 
 augmentation part      -14.6960333 magnetization 

 Broyden mixing:
  rms(total) = 0.32891E-02    rms(broyden)= 0.32891E-02
  rms(prec ) = 0.33414E-02
  weight for this iteration     100.00

 eigenvalues of (default mixing * dielectric matrix)
  average eigenvalue GAMMA=   1.6677
  2.8847  2.8847  2.7072  2.7072  2.3922  1.4089  1.4089  1.4823  0.3539  0.8660
  0.8660  0.8592  0.8592

 Free energy of the ion-electron system (eV)
  ---------------------------------------------------
  alpha Z        PSCENC =       111.67423220
  Ewald energy   TEWEN  =     -7403.97234077
  -Hartree energ DENC   =      -454.42490934
  -exchange      EXHF   =         0.00000000
  -V(xc)+E(xc)   XCENC  =      -533.96673093
  PAW double counting   =     30116.23405936   -29017.61336939
  entropy T*S    EENTRO =         0.03243180
  eigenvalues    EBANDS =       250.30254987
  atomic energy  EATOM  =      6564.79586099
  Solvation  Ediel_sol  =         0.00000000
  ---------------------------------------------------
  free energy    TOTEN  =      -366.93821621 eV

  energy without entropy =     -366.97064801  energy(sigma->0) =     -366.94902681


--------------------------------------------------------------------------------------------------------




--------------------------------------- Iteration      1(  19)  ---------------------------------------


    POTLOK:  cpu time      0.0860: real time      0.0948
    SETDIJ:  cpu time      0.0696: real time      0.0697
    EDDIAG:  cpu time      0.1320: real time      0.1323
  RMM-DIIS:  cpu time      0.4477: real time      0.4499
    ORTHCH:  cpu time      0.0205: real time      0.0206
       DOS:  cpu time      0.0017: real time      0.0017
    CHARGE:  cpu time      0.2344: real time      0.2358
    MIXING:  cpu time      0.0049: real time      0.0049
    --------------------------------------------
      LOOP:  cpu time      0.9969: real time      1.0097

 eigenvalue-minimisations  :  1569
 total energy-change (2. order) :-0.2121843E-05  (-0.1390920E-06)
 number of electron     256.0000001 magnetization 
 augmentation part      -14.6959292 magnetization 

 Broyden mixing:
  rms(total) = 0.73937E-03    rms(broyden)= 0.73929E-03
  rms(prec ) = 0.75635E-03
  weight for this iteration     100.00

 eigenvalues of (default mixing * dielectric matrix)
  average eigenvalue GAMMA=   1.8912
  7.4026  2.7240  2.4503  2.4503  1.6995  1.6995  1.9475  0.3539  1.1524  1.1524
  0.8638  0.8638  0.8581  0.8581

 Free energy of the ion-electron system (eV)
  ---------------------------------------------------
  alpha Z        PSCENC =       111.67423220
  Ewald energy   TEWEN  =     -7403.97234077
  -Hartree energ DENC   =      -454.44324528
  -exchange      EXHF   =         0.00000000
  -V(xc)+E(xc)   XCENC  =      -533.96636536
  PAW double counting   =     30102.04060165   -29003.41994551
  entropy T*S    EENTRO =         0.03243064
  eigenvalues    EBANDS =       250.32055310
  atomic energy  EATOM  =      6564.79586099
  Solvation  Ediel_sol  =         0.00000000
  ---------------------------------------------------
  free energy    TOTEN  =      -366.93821833 eV

  energy without entropy =     -366.97064897  energy(sigma->0) =     -366.94902855


--------------------------------------------------------------------------------------------------------




--------------------------------------- Iteration      1(  20)  ---------------------------------------


    POTLOK:  cpu time      0.0725: real time      0.0874
    SETDIJ:  cpu time      0.0746: real time      0.0748
    EDDIAG:  cpu time      0.1312: real time      0.1314
  RMM-DIIS:  cpu time      0.4479: real time      0.4487
    ORTHCH:  cpu time      0.0207: real time      0.0207
       DOS:  cpu time      0.0020: real time      0.0020
    --------------------------------------------
      LOOP:  cpu time      0.7489: real time      0.7651

 eigenvalue-minimisations  :  1558
 total energy-change (2. order) :-0.1621765E-06  (-0.3984511E-07)
 number of electron     256.0000001 magnetization 
 augmentation part      -14.6959292 magnetization 

 Free energy of the ion-electron system (eV)
  ---------------------------------------------------
  alpha Z        PSCENC =       111.67423220
  Ewald energy   TEWEN  =     -7403.97234077
  -Hartree energ DENC   =      -454.45534509
  -exchange      EXHF   =         0.00000000
  -V(xc)+E(xc)   XCENC  =      -533.96488950
  PAW double counting   =     30106.49645877   -29007.87535298
  entropy T*S    EENTRO =         0.03243035
  eigenvalues    EBANDS =       250.33072753
  atomic energy  EATOM  =      6564.79586099
  Solvation  Ediel_sol  =         0.00000000
  ---------------------------------------------------
  free energy    TOTEN  =      -366.93821850 eV

  energy without entropy =     -366.97064884  energy(sigma->0) =     -366.94902861


--------------------------------------------------------------------------------------------------------




 average (electrostatic) potential at core
  the test charge radii are     0.9892
  (the norm of the test charge is              1.0000)
       1 -82.6117       2 -82.6117       3 -82.6117       4 -82.6117       5 -82.6117
       6 -82.6117       7 -82.6117       8 -82.6117       9 -82.6117      10 -82.6117
      11 -82.6117      12 -82.6117      13 -82.6117      14 -82.6117      15 -82.6117
      16 -82.6117      17 -82.6117      18 -82.6117      19 -82.6117      20 -82.6117
      21 -82.6117      22 -82.6117      23 -82.6117      24 -82.6117      25 -82.6117
      26 -82.6117      27 -82.6117      28 -82.6117      29 -82.6117      30 -82.6117
      31 -82.6117      32 -82.6117      33 -82.6117      34 -82.6117      35 -82.6117
      36 -82.6117      37 -82.6117      38 -82.6117      39 -82.6117      40 -82.6117
      41 -82.6117      42 -82.6117      43 -82.6117      44 -82.6117      45 -82.6117
      46 -82.6117      47 -82.6117      48 -82.6117      49 -82.6117      50 -82.6117
      51 -82.6117      52 -82.6117      53 -82.6117      54 -82.6117      55 -82.6117
      56 -82.6117      57 -82.6117      58 -82.6117      59 -82.6117      60 -82.6117
      61 -82.6117      62 -82.6117      63 -82.6117      64 -82.6117
 
 
 
 E-fermi :   6.4379     XC(G=0):  -9.6953     alpha+bet :-12.4322

 val. band max:        6.2259501623   @ k =   0.0000   0.0000   0.0000
 cond. band min:       6.5537047457   @ k =   0.5000   0.0000   0.0000
 fundamental gap:      0.3277545834
 Fermi energy:         6.4378712781

 k-point     1 :       0.0000    0.0000    0.0000
  band No.  band energies     occupation 
      1      -6.0767      2.00000
      2      -4.9620      2.00000
      3      -4.9620      2.00000
      4      -4.9618      2.00000
      5      -4.9618      2.00000
      6      -4.9425      2.00000
      7      -4.9425      2.00000
      8      -3.9762      2.00000
      9      -3.9762      2.00000
     10      -3.9600      2.00000
     11      -3.9600      2.00000
     12      -3.9600      2.00000
     13      -3.9600      2.00000
     14      -3.9461      2.00000
     15      -3.9461      2.00000
     16      -3.9461      2.00000
     17      -3.9461      2.00000
     18      -3.9155      2.00000
     19      -3.9155      2.00000
     20      -3.6651      2.00000
     21      -3.6651      2.00000
     22      -3.5956      2.00000
     23      -3.5955      2.00000
     24      -1.8407      2.00000
     25      -1.7994      2.00000
     26      -1.7994      2.00000
     27      -1.7591      2.00000
     28      -1.7364      2.00000
     29      -1.7364      2.00000
     30      -1.6512      2.00000
     31      -1.6511      2.00000
     32      -1.6298      2.00000
     33      -1.6298      2.00000
     34      -1.5835      2.00000
     35      -1.5835      2.00000
     36      -1.5835      2.00000
     37      -1.5835      2.00000
     38      -1.5580      2.00000
     39      -1.5580      2.00000
     40      -1.5372      2.00000
     41      -1.5372      2.00000
     42      -1.0283      2.00000
     43      -1.0283      2.00000
     44      -1.0148      2.00000
     45      -1.0148      2.00000
     46       0.5797      2.00000
     47       0.5797      2.00000
     48       0.5980      2.00000
     49       0.5980      2.00000
     50       0.5980      2.00000
     51       0.5980      2.00000
     52       0.6155      2.00000
     53       0.6155      2.00000
     54       0.6359      2.00000
     55       0.6359      2.00000
     56       0.6359      2.00000
     57       0.6359      2.00000
     58       2.0999      2.00000
     59       2.0999      2.00000
     60       2.1016      2.00000
     61       2.1016      2.00000
     62       2.1060      2.00000
     63       2.1060      2.00000
     64       2.1074      2.00000
     65       2.1074      2.00000
     66       2.1074      2.00000
     67       2.1074      2.00000
     68       2.1082      2.00000
     69       2.1082      2.00000
     70       2.1929      2.00000
     71       2.1929      2.00000
     72       2.2047      2.00000
     73       2.2047      2.00000
     74       2.2047      2.00000
     75       2.2047      2.00000
     76       2.2159      2.00000
     77       2.2159      2.00000
     78       2.2625      2.00000
     79       2.2625      2.00000
     80       2.2625      2.00000
     81       2.2625      2.00000
     82       2.6348      2.00000
     83       2.6348      2.00000
     84       2.6363      2.00000
     85       2.6363      2.00000
     86       2.7099      2.00000
     87       2.7100      2.00000
     88       3.1483      2.00000
     89       3.1483      2.00000
     90       3.1713      2.00000
     91       3.2281      2.00000
     92       3.2281      2.00000
     93       3.2853      2.00000
     94       4.1543      2.00000
     95       4.1543      2.00000
     96       4.1544      2.00000
     97       4.1544      2.00000
     98       4.1655      2.00000
     99       4.1655      2.00000
    100       4.2049      2.00000
    101       4.2049      2.00000
    102       4.2273      2.00000
    103       4.2273      2.00000
    104       4.2679      2.00000
    105       4.2679      2.00000
    106       4.7407      2.00000
    107       4.7407      2.00000
    108       4.7407      2.00000
    109       4.7407      2.00000
    110       4.7962      2.00000
    111       4.7962      2.00000
    112       4.8228      2.00000
    113       4.8228      2.00000
    114       4.8228      2.00000
    115       4.8228      2.00000
    116       4.8506      2.00000
    117       4.8506      2.00000
    118       4.8632      2.00000
    119       4.8632      2.00000
    120       4.9154      2.00000
    121       4.9154      2.00000
    122       4.9642      2.00000
    123       4.9642      2.00000
    124       5.0128      2.00000
    125       5.0128      2.00000
    126       6.1488      2.06002
    127       6.1507      2.06079
    128       6.2260      2.06052
    129       6.6331     -0.04490
    130       6.6331     -0.04490
    131       6.6553     -0.06392
    132       6.7149     -0.06461
    133       6.7149     -0.06461
    134       6.7755     -0.03814
    135       7.1177     -0.00002
    136       7.1177     -0.00002
    137       7.1990     -0.00000
    138       7.1990     -0.00000
    139       7.1992     -0.00000
    140       7.1992     -0.00000
    141       7.7196     -0.00000
    142       7.7196     -0.00000
    143       7.8134     -0.00000
    144       7.8134     -0.00000
    145       8.4920     -0.00000
    146       8.4920     -0.00000
    147       8.4921     -0.00000
    148       8.4923     -0.00000
    149       8.5534     -0.00000
    150       8.5546     -0.00000
    151       8.5877     -0.00000
    152       8.5878     -0.00000
    153       8.5882     -0.00000
    154       8.5896     -0.00000
    155       8.6186     -0.00000
    156       8.6242     -0.00000
    157       8.6253     -0.00000
    158       8.7094     -0.00000
    159       8.7854     -0.00000
    160       9.1949     -0.00000
    161       9.2180     -0.00000
    162       9.3154     -0.00000

 k-point     2 :       0.5000    0.0000    0.0000
  band No.  band energies     occupation 
      1      -5.7906      2.00000
      2      -5.7906      2.00000
      3      -4.7157      2.00000
      4      -4.7157      2.00000
      5      -4.7007      2.00000
      6      -4.7007      2.00000
      7      -4.7007      2.00000
      8      -4.7007      2.00000
      9      -4.6853      2.00000
     10      -4.6853      2.00000
     11      -3.8342      2.00000
     12      -3.8342      2.00000
     13      -3.8342      2.00000
     14      -3.8342      2.00000
     15      -3.7925      2.00000
     16      -3.7925      2.00000
     17      -3.7925      2.00000
     18      -3.7925      2.00000
     19      -3.5670      2.00000
     20      -3.5670      2.00000
     21      -2.8585      2.00000
     22      -2.8585      2.00000
     23      -2.8151      2.00000
     24      -2.8151      2.00000
     25      -2.8151      2.00000
     26      -2.8151      2.00000
     27      -2.7711      2.00000
     28      -2.7711      2.00000
     29      -1.7520      2.00000
     30      -1.7520      2.00000
     31      -1.7369      2.00000
     32      -1.7369      2.00000
     33      -1.6780      2.00000
     34      -1.6780      2.00000
     35      -1.6637      2.00000
     36      -1.6637      2.00000
     37      -0.5325      2.00000
     38      -0.5325      2.00000
     39      -0.4997      2.00000
     40      -0.4997      2.00000
     41      -0.4997      2.00000
     42      -0.4997      2.00000
[...]
  0.000   0.000   4.172   0.000   0.000   7.772   0.000   0.000
 -0.001  -0.001   0.000   4.172   0.000   0.000   7.772   0.000
  0.000   0.000   0.000   0.000   4.172   0.000   0.000   7.773
  0.000   0.000   7.772   0.000   0.000  14.490   0.000  -0.000
 -0.001  -0.002   0.000   7.772   0.000   0.000  14.490   0.000
  0.000   0.000   0.000   0.000   7.773  -0.000   0.000  14.490
 total augmentation occupancy for first ion, spin component:           1
  6.240  -2.453  -0.000   0.027   0.000  -0.000  -0.010   0.000
 -2.453   1.072   0.000  -0.014  -0.000  -0.000   0.005  -0.000
 -0.000   0.000   3.081   0.000   0.004  -0.700   0.000   0.000
  0.027  -0.014   0.000   3.081  -0.000   0.000  -0.700   0.000
  0.000  -0.000   0.004  -0.000   3.062   0.000   0.000  -0.692
 -0.000  -0.000  -0.700   0.000   0.000   0.168   0.000  -0.000
 -0.010   0.005   0.000  -0.700   0.000   0.000   0.168  -0.000
  0.000  -0.000   0.000   0.000  -0.692  -0.000  -0.000   0.166


------------------------ aborting loop because EDIFF is reached ----------------------------------------


    CHARGE:  cpu time      0.2756: real time      0.2802
    FORLOC:  cpu time      0.0224: real time      0.0225
    FORNL :  cpu time      0.6754: real time      0.6770
    STRESS:  cpu time      2.0646: real time      2.0701
    FORCOR:  cpu time      0.0848: real time      0.0850
    FORHAR:  cpu time      0.0343: real time      0.0344
    MIXING:  cpu time      0.0234: real time      0.0234
    OFIELD:  cpu time      0.0000: real time      0.0000

  FORCE on cell =-STRESS in cart. coord.  units (eV):
  Direction    XX          YY          ZZ          XY          YZ          ZX
  --------------------------------------------------------------------------------------
  Alpha Z   111.67423   111.67423   111.67423
  Ewald   -2490.83036 -2456.70896 -2456.66052     7.22440     0.00000     0.00000
  Hartree   147.76434   153.31304   153.25659     4.46577    -0.00000    -0.00000
  E(xc)    -824.79678  -825.09375  -825.09978    -0.05330    -0.00000    -0.00000
  Local    -886.58543  -927.43215  -927.44514   -12.77183    -0.00000    -0.00000
  n-local  2504.26601  2509.25654  2509.35164     0.41525    -0.00000     0.00000
  augment  -369.03770  -369.01369  -369.01399    -0.38066     0.00000     0.00000
  Kinetic  1843.37048  1833.35665  1833.17510     7.02190    -0.00001     0.00000
  Fock        0.00000     0.00000     0.00000     0.00000     0.00000     0.00000
  -------------------------------------------------------------------------------------
  Total      35.82479    29.35192    29.23814     5.92153     0.00000     0.00000
  in kB      46.48713    38.08778    37.94013     7.68393     0.00000     0.00000
  external pressure =       40.84 kB  Pullay stress =        0.00 kB


 VOLUME and BASIS-vectors are now :
 -----------------------------------------------------------------------------
  energy-cutoff  :      400.00
  volume of cell :     1234.70
      direct lattice vectors                 reciprocal lattice vectors
    10.656492574 -0.053821008  0.000000000     0.093841876  0.000469212  0.000000000
    -0.053821008 10.764133590  0.000000000     0.000469212  0.092903460  0.000000000
     0.000000000  0.000000000 10.764133590     0.000000000  0.000000000  0.092901114

  length of vectors
    10.656628485 10.764268142 10.764133590     0.093843049  0.092904645  0.092901114


 FORCES acting on ions
    electron-ion (+dipol)            ewald-force                    non-local-force                 convergence-correction
 -----------------------------------------------------------------------------------------------
   0.284E-08 0.209E-08 0.855E+00   -.142E-13 -.400E-14 -.605E+00   -.503E-20 -.326E-20 -.250E+00   0.182E-13 0.149E-13 -.965E-05
   0.284E-08 0.209E-08 0.855E+00   -.209E-13 -.666E-14 -.605E+00   0.283E-20 -.602E-21 -.250E+00   -.359E-13 0.118E-12 -.965E-05
   0.284E-08 0.209E-08 0.855E+00   -.755E-14 -.644E-14 -.605E+00   -.148E-21 0.346E-20 -.250E+00   0.253E-14 -.179E-13 -.965E-05
   0.284E-08 0.209E-08 0.855E+00   -.124E-13 -.533E-14 -.605E+00   -.187E-20 -.240E-20 -.250E+00   -.200E-13 -.130E-12 -.965E-05
   0.284E-08 0.209E-08 0.855E+00   0.000E+00 -.844E-14 -.605E+00   0.145E-20 0.328E-20 -.250E+00   -.355E-13 -.409E-13 -.965E-05
   0.284E-08 0.209E-08 0.855E+00   -.133E-13 -.799E-14 -.605E+00   0.268E-21 -.578E-20 -.250E+00   0.389E-13 0.769E-13 -.965E-05
   0.284E-08 0.209E-08 0.855E+00   -.888E-15 0.311E-14 -.605E+00   -.644E-20 -.337E-20 -.250E+00   -.338E-14 0.429E-13 -.965E-05
   0.284E-08 0.209E-08 0.855E+00   -.142E-13 0.000E+00 -.605E+00   0.317E-20 -.307E-20 -.250E+00   0.312E-14 -.858E-13 -.965E-05
   -.948E-09 -.314E-09 -.855E+00   -.666E-14 -.755E-14 0.605E+00   0.397E-20 0.327E-20 0.250E+00   0.217E-13 -.113E-13 0.965E-05
   -.948E-09 -.315E-09 -.855E+00   -.160E-13 -.711E-14 0.605E+00   -.644E-20 0.229E-20 0.250E+00   -.358E-13 -.511E-13 0.965E-05
   -.948E-09 -.314E-09 -.855E+00   -.111E-13 -.151E-13 0.605E+00   0.333E-20 -.345E-20 0.250E+00   -.290E-13 0.263E-14 0.965E-05
   -.949E-09 -.314E-09 -.855E+00   -.124E-13 -.231E-13 0.605E+00   -.674E-21 0.324E-20 0.250E+00   0.645E-13 0.409E-13 0.965E-05
   -.949E-09 -.315E-09 -.855E+00   -.355E-14 -.355E-14 0.605E+00   0.216E-20 -.159E-20 0.250E+00   -.213E-13 -.104E-12 0.965E-05
   -.949E-09 -.313E-09 -.855E+00   -.231E-13 -.533E-14 0.605E+00   -.900E-21 0.152E-20 0.250E+00   0.444E-13 0.880E-14 0.965E-05
   -.949E-09 -.314E-09 -.855E+00   -.147E-13 -.933E-14 0.605E+00   0.475E-20 0.506E-20 0.250E+00   0.300E-13 0.921E-13 0.965E-05
   -.949E-09 -.315E-09 -.855E+00   -.533E-14 -.888E-14 0.605E+00   -.804E-20 0.307E-20 0.250E+00   -.685E-13 -.124E-13 0.965E-05
   0.284E-08 0.209E-08 0.855E+00   -.178E-14 0.111E-14 -.605E+00   -.210E-20 -.143E-20 -.250E+00   -.634E-13 -.239E-13 -.965E-05
   0.284E-08 0.209E-08 0.855E+00   -.488E-14 0.488E-14 -.605E+00   -.113E-20 -.137E-20 -.250E+00   0.696E-13 0.222E-13 -.965E-05
   0.284E-08 0.209E-08 0.855E+00   0.222E-14 0.511E-14 -.605E+00   0.378E-21 0.982E-21 -.250E+00   -.881E-14 0.363E-13 -.965E-05
   0.284E-08 0.209E-08 0.855E+00   0.444E-14 0.666E-14 -.605E+00   -.395E-21 0.255E-20 -.250E+00   -.147E-13 0.183E-14 -.965E-05
   0.284E-08 0.209E-08 0.855E+00   -.115E-13 0.488E-14 -.605E+00   0.263E-21 0.149E-20 -.250E+00   0.578E-13 0.518E-13 -.965E-05
   0.284E-08 0.209E-08 0.855E+00   -.169E-13 0.799E-14 -.605E+00   0.183E-21 0.252E-20 -.250E+00   -.815E-13 -.628E-13 -.965E-05
   0.284E-08 0.209E-08 0.855E+00   0.533E-14 0.133E-14 -.605E+00   0.185E-21 -.398E-20 -.250E+00   0.111E-14 -.413E-13 -.965E-05
   0.284E-08 0.209E-08 0.855E+00   0.355E-14 0.355E-14 -.605E+00   -.190E-20 0.828E-21 -.250E+00   0.176E-14 0.662E-13 -.965E-05
   -.948E-09 -.315E-09 -.855E+00   -.533E-14 -.541E-14 0.605E+00   -.226E-20 -.307E-20 0.250E+00   -.294E-14 0.104E-12 0.965E-05
   -.948E-09 -.315E-09 -.855E+00   -.533E-14 -.185E-14 0.605E+00   -.129E-20 -.248E-20 0.250E+00   -.149E-13 -.783E-13 0.965E-05
   -.948E-09 -.314E-09 -.855E+00   -.533E-14 -.564E-14 0.605E+00   0.394E-21 0.519E-21 0.250E+00   0.363E-14 -.101E-12 0.965E-05
   -.948E-09 -.314E-09 -.855E+00   0.178E-14 0.790E-14 0.605E+00   0.385E-20 -.109E-20 0.250E+00   0.386E-13 0.766E-13 0.965E-05
   -.949E-09 -.314E-09 -.855E+00   -.888E-14 -.364E-14 0.605E+00   0.151E-20 0.310E-20 0.250E+00   0.320E-14 0.123E-12 0.965E-05
   -.949E-09 -.314E-09 -.855E+00   -.178E-14 -.833E-16 0.605E+00   -.270E-21 -.434E-21 0.250E+00   0.191E-13 -.614E-13 0.965E-05
   -.949E-09 -.314E-09 -.855E+00   0.711E-14 0.724E-14 0.605E+00   -.148E-20 -.242E-20 0.250E+00   -.936E-14 -.122E-12 0.965E-05
   -.949E-09 -.314E-09 -.855E+00   0.355E-14 0.139E-13 0.605E+00   -.357E-20 -.249E-20 0.250E+00   -.426E-13 0.673E-13 0.965E-05
   0.284E-08 0.209E-08 0.855E+00   -.444E-14 -.400E-14 -.605E+00   0.671E-21 -.456E-20 -.250E+00   -.804E-13 0.152E-12 -.965E-05
   0.284E-08 0.209E-08 0.855E+00   0.266E-14 -.444E-14 -.605E+00   -.230E-20 -.299E-20 -.250E+00   0.905E-13 -.622E-13 -.965E-05
   0.284E-08 0.209E-08 0.855E+00   0.266E-14 0.222E-15 -.605E+00   0.355E-20 0.570E-20 -.250E+00   -.402E-14 -.162E-12 -.965E-05
   0.284E-08 0.209E-08 0.855E+00   -.888E-15 0.488E-14 -.605E+00   -.316E-20 0.986E-21 -.250E+00   0.146E-13 0.563E-13 -.965E-05
   0.284E-08 0.209E-08 0.855E+00   0.422E-14 0.133E-14 -.605E+00   0.299E-20 0.548E-20 -.250E+00   0.783E-13 0.214E-12 -.965E-05
   0.284E-08 0.209E-08 0.855E+00   0.933E-14 0.888E-15 -.605E+00   -.336E-21 0.257E-21 -.250E+00   -.860E-13 -.147E-12 -.965E-05
   0.284E-08 0.209E-08 0.855E+00   -.160E-13 -.444E-15 -.605E+00   -.229E-21 -.291E-20 -.250E+00   0.170E-14 -.210E-12 -.965E-05
   0.284E-08 0.209E-08 0.855E+00   0.355E-14 0.142E-13 -.605E+00   -.224E-20 -.252E-20 -.250E+00   -.113E-13 0.139E-12 -.965E-05
   -.948E-09 -.314E-09 -.855E+00   0.722E-14 -.178E-14 0.605E+00   0.229E-20 -.389E-20 0.250E+00   -.666E-13 -.158E-12 0.965E-05
   -.949E-09 -.314E-09 -.855E+00   0.152E-13 -.888E-14 0.605E+00   0.173E-21 0.328E-20 0.250E+00   0.503E-13 0.405E-13 0.965E-05
   -.949E-09 -.314E-09 -.855E+00   0.103E-13 -.533E-14 0.605E+00   0.232E-20 0.294E-20 0.250E+00   -.405E-13 0.147E-12 0.965E-05
   -.949E-09 -.314E-09 -.855E+00   -.921E-14 -.533E-14 0.605E+00   0.322E-20 0.866E-21 0.250E+00   0.651E-13 -.436E-13 0.965E-05
   -.949E-09 -.313E-09 -.855E+00   0.777E-15 -.888E-14 0.605E+00   0.373E-20 0.271E-20 0.250E+00   0.646E-13 -.147E-12 0.965E-05
   -.949E-09 -.315E-09 -.855E+00   -.455E-14 -.178E-14 0.605E+00   0.295E-20 -.296E-21 0.250E+00   -.521E-13 0.935E-13 0.965E-05
   -.948E-09 -.314E-09 -.855E+00   0.212E-13 -.124E-13 0.605E+00   0.541E-21 -.402E-20 0.250E+00   0.502E-13 0.142E-12 0.965E-05
   -.949E-09 -.314E-09 -.855E+00   0.522E-14 -.533E-14 0.605E+00   -.628E-21 0.578E-20 0.250E+00   -.634E-13 -.104E-12 0.965E-05
   0.284E-08 0.209E-08 0.855E+00   0.113E-13 0.162E-13 -.605E+00   0.551E-20 0.278E-20 -.250E+00   -.735E-14 0.180E-13 -.965E-05
   0.284E-08 0.209E-08 0.855E+00   0.120E-13 0.755E-14 -.605E+00   -.474E-20 0.378E-20 -.250E+00   -.303E-13 -.239E-13 -.965E-05
   0.284E-08 0.209E-08 0.855E+00   0.187E-13 0.122E-13 -.605E+00   0.340E-20 -.297E-20 -.250E+00   0.516E-13 -.755E-14 -.965E-05
   0.284E-08 0.209E-08 0.855E+00   0.115E-13 0.107E-13 -.605E+00   0.226E-20 0.277E-20 -.250E+00   0.128E-13 0.420E-13 -.965E-05
   0.284E-08 0.209E-08 0.855E+00   -.111E-14 0.107E-13 -.605E+00   -.449E-22 -.263E-20 -.250E+00   0.837E-14 0.354E-13 -.965E-05
   0.284E-08 0.209E-08 0.855E+00   0.622E-14 0.711E-14 -.605E+00   0.255E-20 0.129E-20 -.250E+00   0.268E-13 -.507E-13 -.965E-05
   0.284E-08 0.209E-08 0.855E+00   -.102E-13 0.115E-13 -.605E+00   0.426E-20 0.389E-20 -.250E+00   -.503E-13 -.379E-13 -.965E-05
   0.284E-08 0.209E-08 0.855E+00   0.107E-13 0.107E-13 -.605E+00   -.650E-20 0.347E-20 -.250E+00   -.154E-13 0.655E-13 -.965E-05
   -.948E-09 -.314E-09 -.855E+00   0.610E-14 0.229E-14 0.605E+00   -.466E-20 -.278E-20 0.250E+00   -.628E-13 0.714E-13 0.965E-05
   -.949E-09 -.314E-09 -.855E+00   0.125E-13 0.335E-14 0.605E+00   0.453E-20 -.124E-20 0.250E+00   0.572E-13 0.559E-14 0.965E-05
   -.948E-09 -.314E-09 -.855E+00   0.943E-14 0.164E-14 0.605E+00   0.624E-21 0.466E-20 0.250E+00   0.302E-13 -.652E-13 0.965E-05
   -.948E-09 -.314E-09 -.855E+00   0.227E-14 0.855E-14 0.605E+00   0.302E-20 -.193E-20 0.250E+00   0.625E-14 -.761E-14 0.965E-05
   -.949E-09 -.314E-09 -.855E+00   0.121E-13 0.388E-14 0.605E+00   -.230E-20 0.349E-20 0.250E+00   0.657E-13 0.120E-12 0.965E-05
   -.949E-09 -.314E-09 -.855E+00   0.155E-13 0.382E-14 0.605E+00   0.253E-20 -.382E-20 0.250E+00   -.635E-13 -.952E-13 0.965E-05
   -.949E-09 -.313E-09 -.855E+00   0.106E-13 0.239E-14 0.605E+00   -.617E-20 -.134E-20 0.250E+00   -.257E-13 -.117E-12 0.965E-05
   -.948E-09 -.314E-09 -.855E+00   0.146E-13 0.104E-13 0.605E+00   0.418E-20 -.347E-20 0.250E+00   -.138E-15 0.102E-12 0.965E-05
 -----------------------------------------------------------------------------------------------
   0.605E-07 0.567E-07 -.244E-04   -.206E-13 0.181E-13 -.266E-14   0.672E-20 0.764E-20 -.167E-15   -.547E-13 0.566E-14 0.852E-10
 
 
 POSITION                                       TOTAL-FORCE (eV/Angst)
 -----------------------------------------------------------------------------------
      0.00000      0.00000     10.76012        -0.000000      0.000000     -0.000083
      0.00000      0.00000      5.37805        -0.000000      0.000000     -0.000083
     -0.02691      5.38207     10.76012        -0.000000     -0.000000     -0.000083
     -0.02691      5.38207      5.37805        -0.000000      0.000000     -0.000083
      5.32825     -0.02691     10.76012        -0.000000     -0.000000     -0.000083
      5.32825     -0.02691      5.37805        -0.000000     -0.000000     -0.000083
      5.30134      5.35516     10.76012        -0.000000     -0.000000     -0.000083
      5.30134      5.35516      5.37805        -0.000000     -0.000000     -0.000083
      3.97600      4.01637      1.34953         0.000000     -0.000000      0.000083
      3.97600      4.01637      6.73160        -0.000000      0.000000      0.000083
      3.94909      9.39843      1.34953         0.000000      0.000000      0.000083
      3.94909      9.39843      6.73160         0.000000     -0.000000      0.000083
      9.30425      3.98946      1.34953         0.000000      0.000000      0.000083
      9.30425      3.98946      6.73160        -0.000000      0.000000      0.000083
      9.27734      9.37152      1.34953         0.000000      0.000000      0.000083
      9.27734      9.37152      6.73160         0.000000     -0.000000      0.000083
     -0.01346      2.69103      2.68702         0.000000      0.000000     -0.000083
     -0.01346      2.69103      8.06908        -0.000000      0.000000     -0.000083
     -0.04037      8.07310      2.68702         0.000000      0.000000     -0.000083
     -0.04037      8.07310      8.06908         0.000000     -0.000000     -0.000083
      5.31479      2.66412      2.68702         0.000000      0.000000     -0.000083
      5.31479      2.66412      8.06908        -0.000000      0.000000     -0.000083
      5.28788      8.04619      2.68702         0.000000     -0.000000     -0.000083
      5.28788      8.04619      8.06908         0.000000     -0.000000     -0.000083
      3.98946      1.32533      4.04057         0.000000     -0.000000      0.000083
      3.98946      1.32533      9.42264         0.000000     -0.000000      0.000083
      3.96255      6.70740      4.04057        -0.000000     -0.000000      0.000083
      3.96255      6.70740      9.42264        -0.000000     -0.000000      0.000083
      9.31770      1.29842      4.04057        -0.000000      0.000000      0.000083
      9.31770      1.29842      9.42264        -0.000000     -0.000000      0.000083
      9.29079      6.68049      4.04057        -0.000000     -0.000000      0.000083
      9.29079      6.68049      9.42264        -0.000000      0.000000      0.000083
      2.66412     -0.01346      2.68702        -0.000000      0.000000     -0.000083
      2.66412     -0.01346      8.06908        -0.000000      0.000000     -0.000083
      2.63721      5.36861      2.68702         0.000000     -0.000000     -0.000083
      2.63721      5.36861      8.06908        -0.000000      0.000000     -0.000083
      7.99237     -0.04037      2.68702        -0.000000      0.000000     -0.000083
      7.99237     -0.04037      8.06908        -0.000000      0.000000     -0.000083
      7.96546      5.34170      2.68702        -0.000000     -0.000000     -0.000083
      7.96546      5.34170      8.06908        -0.000000     -0.000000     -0.000083
      1.31188      4.02982      4.04057        -0.000000      0.000000      0.000083
      1.31188      4.02982      9.42264        -0.000000      0.000000      0.000083
      1.28497      9.41189      4.04057         0.000000     -0.000000      0.000083
      1.28497      9.41189      9.42264         0.000000      0.000000      0.000083
      6.64012      4.00291      4.04057         0.000000      0.000000      0.000083
      6.64012      4.00291      9.42264        -0.000000      0.000000      0.000083
      6.61321      9.38498      4.04057         0.000000     -0.000000      0.000083
      6.61321      9.38498      9.42264         0.000000     -0.000000      0.000083
      2.65067      2.67758     10.76012         0.000000      0.000000     -0.000083
      2.65067      2.67758      5.37805         0.000000      0.000000     -0.000083
      2.62376      8.05964     10.76012         0.000000      0.000000     -0.000083
      2.62376      8.05964      5.37805         0.000000      0.000000     -0.000083
      7.97891      2.65067     10.76012        -0.000000     -0.000000     -0.000083
      7.97891      2.65067      5.37805        -0.000000      0.000000     -0.000083
      7.95200      8.03273     10.76012         0.000000     -0.000000     -0.000083
      7.95200      8.03273      5.37805         0.000000     -0.000000     -0.000083
      1.32533      1.33879      1.34953        -0.000000     -0.000000      0.000083
      1.32533      1.33879      6.73160         0.000000     -0.000000      0.000083
      1.29842      6.72086      1.34953        -0.000000      0.000000      0.000083
      1.29842      6.72086      6.73160        -0.000000      0.000000      0.000083
      6.65358      1.31188      1.34953         0.000000     -0.000000      0.000083
      6.65358      1.31188      6.73160        -0.000000     -0.000000      0.000083
      6.62667      6.69395      1.34953        -0.000000      0.000000      0.000083
      6.62667      6.69395      6.73160        -0.000000     -0.000000      0.000083
 -----------------------------------------------------------------------------------
    total drift:                                0.000000      0.000000     -0.000024


--------------------------------------------------------------------------------------------------------



  FREE ENERGIE OF THE ION-ELECTRON SYSTEM (eV)
  ---------------------------------------------------
  free  energy   TOTEN  =      -366.95318358 eV

  energy  without entropy=     -366.98355685  energy(sigma->0) =     -366.96330801
 
 d Force = 0.2347901E-02[-0.846E-05, 0.470E-02]  d Energy = 0.2359427E-02-0.115E-04
 d Force =-0.5761965E-01[-0.617E-01,-0.535E-01]  d Ewald  =-0.5761021E-01-0.945E-05


--------------------------------------------------------------------------------------------------------


    POTLOK:  cpu time      0.1422: real time      0.1425


--------------------------------------------------------------------------------------------------------




--------------------------------------------------------------------------------------------------------


  
 reached required accuracy - stopping structural energy minimisation
     LOOP+:  cpu time     12.6334: real time     12.8252
    4ORBIT:  cpu time      0.0000: real time      0.0000

 total amount of memory used by VASP MPI-rank0    79513. kBytes
=======================================================================

   base      :      30000. kBytes
   nonlr-proj:       4612. kBytes
   fftplans  :      17992. kBytes
   grid      :       6881. kBytes
   one-center:         18. kBytes
   wavefun   :      20010. kBytes
 
  
  
 General timing and accounting informations for this job:
 ========================================================
  
                  Total CPU time used (sec):       60.210
                            User time (sec):       56.871
                          System time (sec):        3.339
                         Elapsed time (sec):       64.054
  
                   Maximum memory used (kb):      409588.
                   Average memory used (kb):          N/A
  
                          Minor page faults:        95395
                          Major page faults:            0
                 Voluntary context switches:         9244
