Si64                                    
           1
    10.656493   -0.053821    0.000000
    -0.053821   10.764134    0.000000
     0.000000    0.000000   10.764134
   Si
    64
Direct configuration=     1
   0.00000000  0.00000000  0.00000000
   0.00000000  0.00000000  0.50000000
   0.00000000  0.50000000  0.00000000
   0.00000000  0.50000000  0.50000000
   0.50000000  0.00000000  0.00000000
   0.50000000  0.00000000  0.50000000
   0.50000000  0.50000000  0.00000000
   0.50000000  0.50000000  0.50000000
   0.37500000  0.37500000  0.12500000
   0.37500000  0.37500000  0.62500000
   0.37500000  0.87500000  0.12500000
   0.37500000  0.87500000  0.62500000
   0.87500000  0.37500000  0.12500000
   0.87500000  0.37500000  0.62500000
   0.87500000  0.87500000  0.12500000
   0.87500000  0.87500000  0.62500000
   0.00000000  0.25000000  0.25000000
   0.00000000  0.25000000  0.75000000
   0.00000000  0.75000000  0.25000000
   0.00000000  0.75000000  0.75000000
   0.50000000  0.25000000  0.25000000
   0.50000000  0.25000000  0.75000000
   0.50000000  0.75000000  0.25000000
   0.50000000  0.75000000  0.75000000
   0.37500000  0.12500000  0.37500000
   0.37500000  0.12500000  0.87500000
   0.37500000  0.62500000  0.37500000
   0.37500000  0.62500000  0.87500000
   0.87500000  0.12500000  0.37500000
   0.87500000  0.12500000  0.87500000
   0.87500000  0.62500000  0.37500000
   0.87500000  0.62500000  0.87500000
   0.25000000  0.00000000  0.25000000
   0.25000000  0.00000000  0.75000000
   0.25000000  0.50000000  0.25000000
   0.25000000  0.50000000  0.75000000
   0.75000000  0.00000000  0.25000000
   0.75000000  0.00000000  0.75000000
   0.75000000  0.50000000  0.25000000
   0.75000000  0.50000000  0.75000000
   0.12500000  0.37500000  0.37500000
   0.12500000  0.37500000  0.87500000
   0.12500000  0.87500000  0.37500000
   0.12500000  0.87500000  0.87500000
   0.62500000  0.37500000  0.37500000
   0.62500000  0.37500000  0.87500000
   0.62500000  0.87500000  0.37500000
   0.62500000  0.87500000  0.87500000
   0.25000000  0.25000000  0.00000000
   0.25000000  0.25000000  0.50000000
   0.25000000  0.75000000  0.00000000
   0.25000000  0.75000000  0.50000000
   0.75000000  0.25000000  0.00000000
   0.75000000  0.25000000  0.50000000
   0.75000000  0.75000000  0.00000000
   0.75000000  0.75000000  0.50000000
   0.12500000  0.12500000  0.12500000
   0.12500000  0.12500000  0.62500000
   0.12500000  0.62500000  0.12500000
   0.12500000  0.62500000  0.62500000
   0.62500000  0.12500000  0.12500000
   0.62500000  0.12500000  0.62500000
   0.62500000  0.62500000  0.12500000
   0.62500000  0.62500000  0.62500000
Direct configuration=     2
   1.00000000  1.00000000  0.99947868
   1.00000000  1.00000000  0.49947868
   0.00000000  0.50000000  0.99947868
   0.00000000  0.50000000  0.49947868
   0.50000000  0.00000000  0.99947868
   0.50000000  1.00000000  0.49947868
   0.50000000  0.50000000  0.99947868
   0.50000000  0.50000000  0.49947868
   0.37500000  0.37500000  0.12552132
   0.37500000  0.37500000  0.62552132
   0.37500000  0.87500000  0.12552132
   0.37500000  0.87500000  0.62552132
   0.87500000  0.37500000  0.12552132
   0.87500000  0.37500000  0.62552132
   0.87500000  0.87500000  0.12552132
   0.87500000  0.87500000  0.62552132
   1.00000000  0.25000000  0.24947868
   1.00000000  0.25000000  0.74947868
   0.00000000  0.75000000  0.24947868
   1.00000000  0.75000000  0.74947868
   0.50000000  0.25000000  0.24947868
   0.50000000  0.25000000  0.74947868
   0.50000000  0.75000000  0.24947868
   0.50000000  0.75000000  0.74947868
   0.37500000  0.12500000  0.37552132
   0.37500000  0.12500000  0.87552132
   0.37500000  0.62500000  0.37552132
   0.37500000  0.62500000  0.87552132
   0.87500000  0.12500000  0.37552132
   0.87500000  0.12500000  0.87552132
   0.87500000  0.62500000  0.37552132
   0.87500000  0.62500000  0.87552132
   0.25000000  1.00000000  0.24947868
   0.25000000  1.00000000  0.74947868
   0.25000000  0.50000000  0.24947868
   0.25000000  0.50000000  0.74947868
   0.75000000  1.00000000  0.24947868
   0.75000000  1.00000000  0.74947868
   0.75000000  0.50000000  0.24947868
   0.75000000  0.50000000  0.74947868
   0.12500000  0.37500000  0.37552132
   0.12500000  0.37500000  0.87552132
   0.12500000  0.87500000  0.37552132
   0.12500000  0.87500000  0.87552132
   0.62500000  0.37500000  0.37552132
   0.62500000  0.37500000  0.87552132
   0.62500000  0.87500000  0.37552132
   0.62500000  0.87500000  0.87552132
   0.25000000  0.25000000  0.99947868
   0.25000000  0.25000000  0.49947868
   0.25000000  0.75000000  0.99947868
   0.25000000  0.75000000  0.49947868
   0.75000000  0.25000000  0.99947868
   0.75000000  0.25000000  0.49947868
   0.75000000  0.75000000  0.99947868
   0.75000000  0.75000000  0.49947868
   0.12500000  0.12500000  0.12552132
   0.12500000  0.12500000  0.62552132
   0.12500000  0.62500000  0.12552132
   0.12500000  0.62500000  0.62552132
   0.62500000  0.12500000  0.12552132
   0.62500000  0.12500000  0.62552132
   0.62500000  0.62500000  0.12552132
   0.62500000  0.62500000  0.62552132
Direct configuration=     3
   0.00000000  0.00000000  0.99962671
   0.00000000  0.00000000  0.49962671
   0.00000000  0.50000000  0.99962671
   0.00000000  0.50000000  0.49962671
   0.50000000  0.00000000  0.99962671
   0.50000000  0.00000000  0.49962671
   0.50000000  0.50000000  0.99962671
   0.50000000  0.50000000  0.49962671
   0.37500000  0.37500000  0.12537329
   0.37500000  0.37500000  0.62537329
   0.37500000  0.87500000  0.12537329
   0.37500000  0.87500000  0.62537329
   0.87500000  0.37500000  0.12537329
   0.87500000  0.37500000  0.62537329
   0.87500000  0.87500000  0.12537329
   0.87500000  0.87500000  0.62537329
   0.00000000  0.25000000  0.24962671
   0.00000000  0.25000000  0.74962671
   0.00000000  0.75000000  0.24962671
   0.00000000  0.75000000  0.74962671
   0.50000000  0.25000000  0.24962671
   0.50000000  0.25000000  0.74962671
   0.50000000  0.75000000  0.24962671
   0.50000000  0.75000000  0.74962671
   0.37500000  0.12500000  0.37537329
   0.37500000  0.12500000  0.87537329
   0.37500000  0.62500000  0.37537329
   0.37500000  0.62500000  0.87537329
   0.87500000  0.12500000  0.37537329
   0.87500000  0.12500000  0.87537329
   0.87500000  0.62500000  0.37537329
   0.87500000  0.62500000  0.87537329
   0.25000000  0.00000000  0.24962671
   0.25000000  0.00000000  0.74962671
   0.25000000  0.50000000  0.24962671
   0.25000000  0.50000000  0.74962671
   0.75000000  0.00000000  0.24962671
   0.75000000  0.00000000  0.74962671
   0.75000000  0.50000000  0.24962671
   0.75000000  0.50000000  0.74962671
   0.12500000  0.37500000  0.37537329
   0.12500000  0.37500000  0.87537329
   0.12500000  0.87500000  0.37537329
   0.12500000  0.87500000  0.87537329
   0.62500000  0.37500000  0.37537329
   0.62500000  0.37500000  0.87537329
   0.62500000  0.87500000  0.37537329
   0.62500000  0.87500000  0.87537329
   0.25000000  0.25000000  0.99962671
   0.25000000  0.25000000  0.49962671
   0.25000000  0.75000000  0.99962671
   0.25000000  0.75000000  0.49962671
   0.75000000  0.25000000  0.99962671
   0.75000000  0.25000000  0.49962671
   0.75000000  0.75000000  0.99962671
   0.75000000  0.75000000  0.49962671
   0.12500000  0.12500000  0.12537329
   0.12500000  0.12500000  0.62537329
   0.12500000  0.62500000  0.12537329
   0.12500000  0.62500000  0.62537329
   0.62500000  0.12500000  0.12537329
   0.62500000  0.12500000  0.62537329
   0.62500000  0.62500000  0.12537329
   0.62500000  0.62500000  0.62537329
