  64  64   0   0
  0.2013400E+02  0.1088187E-08  0.1088187E-08  0.1088187E-08  0.5000000E-15
  1.000000000000000E-004
  CAR 
 Si64                                    
     12.20893974     -7.91144344  301      6.88802074      1.00000000
     -7.911  0.0000E+00  0.0000E+00
     -7.844  0.0000E+00  0.0000E+00
     -7.777  0.0000E+00  0.0000E+00
     -7.710  0.0000E+00  0.0000E+00
     -7.643  0.0000E+00  0.0000E+00
     -7.576 -0.1195E-30 -0.8011E-32
     -7.509 -0.2710E-28 -0.1825E-29
     -7.442 -0.4917E-26 -0.3316E-27
     -7.375 -0.7108E-24 -0.4800E-25
     -7.308 -0.8186E-22 -0.5538E-23
     -7.241 -0.7508E-20 -0.5091E-21
     -7.174 -0.5482E-18 -0.3728E-19
     -7.107 -0.3186E-16 -0.2174E-17
     -7.040 -0.1424E-14 -0.9767E-16
     -6.972 -0.5218E-13 -0.3597E-14
     -6.905 -0.1514E-11 -0.1052E-12
     -6.838 -0.3484E-10 -0.2442E-11
     -6.771 -0.6340E-09 -0.4496E-10
     -6.704 -0.9109E-08 -0.6559E-09
     -6.637 -0.1030E-06 -0.7564E-08
     -6.570 -0.9131E-06 -0.6880E-07
     -6.503 -0.6305E-05 -0.4917E-06
     -6.436 -0.3359E-04 -0.2744E-05
     -6.369 -0.1358E-03 -0.1185E-04
     -6.302 -0.4044E-03 -0.3898E-04
     -6.235 -0.8255E-03 -0.9434E-04
     -6.168 -0.8972E-03 -0.1545E-03
     -6.101  0.5335E-03 -0.1187E-03
     -6.034  0.4188E-02  0.1621E-03
     -5.966  0.8584E-02  0.7379E-03
     -5.899  0.1139E-01  0.1502E-02
     -5.832  0.1530E-01  0.2528E-02
     -5.765  0.2936E-01  0.4497E-02
     -5.698  0.5690E-01  0.8313E-02
     -5.631  0.8417E-01  0.1396E-01
     -5.564  0.9517E-01  0.2034E-01
     -5.497  0.9979E-01  0.2703E-01
     -5.430  0.1254E+00  0.3545E-01
     -5.363  0.1713E+00  0.4693E-01
     -5.296  0.1978E+00  0.6020E-01
     -5.229  0.1799E+00  0.7227E-01
     -5.162  0.1443E+00  0.8195E-01
     -5.095  0.1280E+00  0.9053E-01
     -5.028  0.1260E+00  0.9898E-01
     -4.960  0.1114E+00  0.1065E+00
     -4.893  0.8391E-01  0.1121E+00
     -4.826  0.6702E-01  0.1166E+00
     -4.759  0.6991E-01  0.1213E+00
     -4.692  0.9001E-01  0.1273E+00
     -4.625  0.1434E+00  0.1369E+00
     -4.558  0.2455E+00  0.1534E+00
     -4.491  0.3591E+00  0.1775E+00
     -4.424  0.4186E+00  0.2055E+00
     -4.357  0.4201E+00  0.2337E+00
     -4.290  0.4198E+00  0.2619E+00
     -4.223  0.4271E+00  0.2905E+00
     -4.156  0.3801E+00  0.3160E+00
     -4.089  0.2500E+00  0.3328E+00
     -4.022  0.9526E-01  0.3392E+00
     -3.954 -0.7035E-02  0.3387E+00
     -3.887 -0.2917E-01  0.3367E+00
     -3.820  0.1993E-01  0.3381E+00
     -3.753  0.1262E+00  0.3465E+00
     -3.686  0.2699E+00  0.3646E+00
     -3.619  0.4124E+00  0.3923E+00
     -3.552  0.4980E+00  0.4257E+00
     -3.485  0.4854E+00  0.4583E+00
     -3.418  0.3876E+00  0.4842E+00
     -3.351  0.2716E+00  0.5025E+00
     -3.284  0.2104E+00  0.5166E+00
     -3.217  0.2440E+00  0.5329E+00
     -3.150  0.3649E+00  0.5574E+00
     -3.083  0.5148E+00  0.5919E+00
     -3.015  0.6167E+00  0.6333E+00
     -2.948  0.6349E+00  0.6759E+00
     -2.881  0.5951E+00  0.7158E+00
     -2.814  0.5401E+00  0.7520E+00
     -2.747  0.4836E+00  0.7845E+00
     -2.680  0.4277E+00  0.8131E+00
     -2.613  0.3994E+00  0.8399E+00
     -2.546  0.4118E+00  0.8675E+00
     -2.479  0.4104E+00  0.8951E+00
     -2.412  0.3283E+00  0.9171E+00
     -2.345  0.1817E+00  0.9293E+00
     -2.278  0.5016E-01  0.9326E+00
     -2.211 -0.1735E-01  0.9315E+00
     -2.144 -0.3248E-01  0.9293E+00
     -2.077 -0.2156E-01  0.9279E+00
     -2.009  0.1260E-01  0.9287E+00
     -1.942  0.7836E-01  0.9340E+00
     -1.875  0.1582E+00  0.9446E+00
     -1.808  0.2018E+00  0.9581E+00
     -1.741  0.1715E+00  0.9696E+00
     -1.674  0.8842E-01  0.9755E+00
     -1.607  0.2065E-01  0.9769E+00
     -1.540  0.3509E-01  0.9793E+00
     -1.473  0.1596E+00  0.9900E+00
     -1.406  0.3614E+00  0.1014E+01
     -1.339  0.5458E+00  0.1051E+01
     -1.272  0.6065E+00  0.1091E+01
     -1.205  0.5070E+00  0.1126E+01
     -1.138  0.3092E+00  0.1146E+01
     -1.071  0.1218E+00  0.1154E+01
     -1.003  0.2742E-01  0.1156E+01
     -0.936  0.4770E-01  0.1159E+01
     -0.869  0.1414E+00  0.1169E+01
     -0.802  0.2260E+00  0.1184E+01
     -0.735  0.2383E+00  0.1200E+01
     -0.668  0.2004E+00  0.1214E+01
     -0.601  0.2009E+00  0.1227E+01
     -0.534  0.2815E+00  0.1246E+01
     -0.467  0.3652E+00  0.1270E+01
     -0.400  0.3413E+00  0.1293E+01
     -0.333  0.2189E+00  0.1308E+01
     -0.266  0.1537E+00  0.1318E+01
     -0.199  0.3016E+00  0.1338E+01
     -0.132  0.6473E+00  0.1382E+01
     -0.064  0.9837E+00  0.1448E+01
      0.003  0.1079E+01  0.1520E+01
      0.070  0.8754E+00  0.1579E+01
      0.137  0.5114E+00  0.1613E+01
      0.204  0.1814E+00  0.1625E+01
      0.271 -0.8515E-02  0.1625E+01
      0.338 -0.5383E-01  0.1621E+01
      0.405  0.1571E-01  0.1622E+01
      0.472  0.1670E+00  0.1633E+01
      0.539  0.3327E+00  0.1656E+01
      0.606  0.4146E+00  0.1684E+01
      0.673  0.3657E+00  0.1708E+01
      0.740  0.2402E+00  0.1724E+01
      0.807  0.1339E+00  0.1733E+01
      0.874  0.1073E+00  0.1740E+01
      0.942  0.1790E+00  0.1752E+01
      1.009  0.3324E+00  0.1775E+01
      1.076  0.4946E+00  0.1808E+01
      1.143  0.5560E+00  0.1845E+01
      1.210  0.4608E+00  0.1876E+01
      1.277  0.2668E+00  0.1894E+01
      1.344  0.8879E-01  0.1900E+01
      1.411 -0.6267E-02  0.1900E+01
      1.478 -0.3045E-01  0.1897E+01
      1.545 -0.2827E-01  0.1896E+01
      1.612 -0.2787E-01  0.1894E+01
      1.679 -0.2541E-01  0.1892E+01
      1.746  0.1135E-01  0.1893E+01
      1.813  0.1217E+00  0.1901E+01
      1.880  0.3050E+00  0.1921E+01
      1.948  0.4834E+00  0.1954E+01
      2.015  0.5449E+00  0.1990E+01
      2.082  0.4593E+00  0.2021E+01
      2.149  0.3346E+00  0.2044E+01
      2.216  0.3143E+00  0.2065E+01
      2.283  0.4204E+00  0.2093E+01
      2.350  0.5449E+00  0.2129E+01
      2.417  0.5866E+00  0.2169E+01
      2.484  0.5365E+00  0.2205E+01
      2.551  0.4312E+00  0.2234E+01
      2.618  0.3104E+00  0.2254E+01
      2.685  0.2560E+00  0.2272E+01
      2.752  0.3906E+00  0.2298E+01
      2.819  0.7547E+00  0.2348E+01
      2.886  0.1195E+01  0.2429E+01
      2.954  0.1431E+01  0.2525E+01
      3.021  0.1290E+01  0.2611E+01
      3.088  0.8654E+00  0.2669E+01
      3.155  0.4157E+00  0.2697E+01
      3.222  0.1226E+00  0.2705E+01
      3.289 -0.1157E-01  0.2704E+01
      3.356 -0.5697E-01  0.2701E+01
      3.423 -0.3063E-01  0.2699E+01
      3.490  0.1132E+00  0.2706E+01
      3.557  0.3958E+00  0.2733E+01
      3.624  0.7361E+00  0.2782E+01
      3.691  0.9902E+00  0.2848E+01
      3.758  0.1081E+01  0.2921E+01
      3.825  0.1054E+01  0.2992E+01
      3.893  0.9984E+00  0.3059E+01
      3.960  0.9485E+00  0.3122E+01
      4.027  0.8780E+00  0.3181E+01
      4.094  0.7715E+00  0.3233E+01
      4.161  0.6942E+00  0.3279E+01
      4.228  0.7226E+00  0.3328E+01
      4.295  0.7940E+00  0.3381E+01
      4.362  0.7405E+00  0.3431E+01
      4.429  0.5151E+00  0.3465E+01
      4.496  0.2744E+00  0.3484E+01
      4.563  0.1954E+00  0.3497E+01
      4.630  0.2980E+00  0.3517E+01
      4.697  0.4711E+00  0.3549E+01
      4.764  0.6058E+00  0.3589E+01
      4.831  0.6698E+00  0.3634E+01
      4.899  0.6816E+00  0.3680E+01
      4.966  0.6597E+00  0.3724E+01
      5.033  0.6226E+00  0.3766E+01
      5.100  0.6104E+00  0.3807E+01
      5.167  0.6586E+00  0.3851E+01
      5.234  0.7540E+00  0.3901E+01
      5.301  0.8300E+00  0.3957E+01
      5.368  0.8031E+00  0.4011E+01
      5.435  0.6335E+00  0.4053E+01
      5.502  0.3730E+00  0.4078E+01
      5.569  0.1421E+00  0.4088E+01
      5.636  0.4822E-01  0.4091E+01
      5.703  0.1189E+00  0.4099E+01
      5.770  0.2869E+00  0.4118E+01
      5.837  0.4253E+00  0.4147E+01
      5.905  0.4309E+00  0.4176E+01
      5.972  0.3034E+00  0.4196E+01
      6.039  0.1337E+00  0.4205E+01
      6.106  0.1462E-01  0.4206E+01
      6.173 -0.1966E-01  0.4205E+01
      6.240  0.1999E-01  0.4206E+01
      6.307  0.1032E+00  0.4213E+01
      6.374  0.1811E+00  0.4225E+01
      6.441  0.2030E+00  0.4239E+01
      6.508  0.1598E+00  0.4250E+01
      6.575  0.9438E-01  0.4256E+01
      6.642  0.5180E-01  0.4259E+01
      6.709  0.3583E-01  0.4262E+01
      6.776  0.2651E-01  0.4264E+01
      6.844  0.2183E-01  0.4265E+01
      6.911  0.4385E-01  0.4268E+01
      6.978  0.1040E+00  0.4275E+01
      7.045  0.1733E+00  0.4287E+01
      7.112  0.1996E+00  0.4300E+01
      7.179  0.1593E+00  0.4311E+01
      7.246  0.8018E-01  0.4316E+01
      7.313  0.9955E-02  0.4317E+01
      7.380 -0.2048E-01  0.4315E+01
      7.447  0.3755E-02  0.4316E+01
      7.514  0.8800E-01  0.4321E+01
      7.581  0.2045E+00  0.4335E+01
      7.648  0.2820E+00  0.4354E+01
      7.715  0.2682E+00  0.4372E+01
      7.782  0.2082E+00  0.4386E+01
      7.850  0.2141E+00  0.4400E+01
      7.917  0.3309E+00  0.4423E+01
      7.984  0.4631E+00  0.4454E+01
      8.051  0.4696E+00  0.4485E+01
      8.118  0.3169E+00  0.4506E+01
      8.185  0.1086E+00  0.4514E+01
      8.252 -0.1082E-01  0.4513E+01
      8.319  0.5986E-01  0.4517E+01
      8.386  0.3367E+00  0.4540E+01
      8.453  0.7013E+00  0.4587E+01
      8.520  0.9238E+00  0.4649E+01
      8.587  0.8425E+00  0.4705E+01
      8.654  0.5322E+00  0.4741E+01
      8.721  0.2391E+00  0.4757E+01
      8.788  0.1570E+00  0.4767E+01
      8.856  0.3030E+00  0.4788E+01
      8.923  0.5861E+00  0.4827E+01
      8.990  0.9304E+00  0.4889E+01
      9.057  0.1273E+01  0.4975E+01
      9.124  0.1471E+01  0.5073E+01
      9.191  0.1357E+01  0.5164E+01
      9.258  0.9439E+00  0.5228E+01
      9.325  0.4764E+00  0.5260E+01
      9.392  0.1962E+00  0.5273E+01
      9.459  0.1457E+00  0.5283E+01
      9.526  0.2206E+00  0.5297E+01
      9.593  0.3172E+00  0.5319E+01
      9.660  0.3752E+00  0.5344E+01
      9.727  0.3545E+00  0.5368E+01
      9.794  0.2523E+00  0.5385E+01
      9.862  0.1210E+00  0.5393E+01
      9.929  0.2475E-01  0.5394E+01
      9.996 -0.1299E-01  0.5393E+01
     10.063 -0.8935E-02  0.5393E+01
     10.130  0.1111E-01  0.5394E+01
     10.197  0.2848E-01  0.5395E+01
     10.264  0.3313E-01  0.5398E+01
     10.331  0.2481E-01  0.5399E+01
     10.398  0.1163E-01  0.5400E+01
     10.465  0.2040E-02  0.5400E+01
     10.532 -0.1578E-02  0.5400E+01
     10.599 -0.1614E-02  0.5400E+01
     10.666 -0.8040E-03  0.5400E+01
     10.733 -0.2712E-03  0.5400E+01
     10.801 -0.6714E-04  0.5400E+01
     10.868 -0.1261E-04  0.5400E+01
     10.935 -0.1826E-05  0.5400E+01
     11.002 -0.2060E-06  0.5400E+01
     11.069 -0.1822E-07  0.5400E+01
     11.136 -0.1268E-08  0.5400E+01
     11.203 -0.6967E-10  0.5400E+01
     11.270 -0.3029E-11  0.5400E+01
     11.337 -0.1043E-12  0.5400E+01
     11.404 -0.2869E-14  0.5400E+01
     11.471 -0.5518E-16  0.5400E+01
     11.538  0.0000E+00  0.5400E+01
     11.605  0.0000E+00  0.5400E+01
     11.672  0.0000E+00  0.5400E+01
     11.739  0.0000E+00  0.5400E+01
     11.807  0.0000E+00  0.5400E+01
     11.874  0.0000E+00  0.5400E+01
     11.941  0.0000E+00  0.5400E+01
     12.008  0.0000E+00  0.5400E+01
     12.075  0.0000E+00  0.5400E+01
     12.142  0.0000E+00  0.5400E+01
     12.209  0.0000E+00  0.5400E+01
