       N       E                     dE             d eps       ncg     rms          rms(c)
DAV:   1     0.555804707810E+03    0.55580E+03   -0.83694E+04  1296   0.106E+03
DAV:   2    -0.309906729313E+03   -0.86571E+03   -0.82147E+03  1536   0.172E+02
DAV:   3    -0.372982226243E+03   -0.63075E+02   -0.61823E+02  1568   0.409E+01
DAV:   4    -0.374664277786E+03   -0.16821E+01   -0.16700E+01  1552   0.800E+00
DAV:   5    -0.374715560019E+03   -0.51282E-01   -0.51178E-01  1510   0.132E+00    0.279E+01
RMM:   6    -0.369822199438E+03    0.48934E+01   -0.24101E+00  1296   0.242E+00    0.168E+01
RMM:   7    -0.367570632286E+03    0.22516E+01   -0.62841E+00  1322   0.391E+00    0.931E-01
RMM:   8    -0.367608697552E+03   -0.38065E-01   -0.55290E-01  1310   0.148E+00    0.480E-01
RMM:   9    -0.367626680108E+03   -0.17983E-01   -0.16517E-01  1322   0.726E-01    0.564E-01
RMM:  10    -0.367629569675E+03   -0.28896E-02   -0.28950E-02  1354   0.344E-01    0.682E-01
RMM:  11    -0.367628071930E+03    0.14977E-02   -0.95577E-03  1296   0.203E-01    0.819E-01
RMM:  12    -0.367627955942E+03    0.11599E-03   -0.17209E-03  1304   0.978E-02    0.981E-01
RMM:  13    -0.367628101843E+03   -0.14590E-03   -0.33053E-04  1368   0.421E-02    0.956E-01
RMM:  14    -0.367626376640E+03    0.17252E-02   -0.67685E-04  1296   0.575E-02    0.151E+00
RMM:  15    -0.367626156065E+03    0.22057E-03   -0.16016E-04  1299   0.257E-02    0.166E+00
RMM:  16    -0.367626243714E+03   -0.87648E-04   -0.20131E-05  1338   0.954E-03    0.162E+00
RMM:  17    -0.367627310177E+03   -0.10665E-02   -0.16341E-04  1350   0.268E-02    0.104E+00
RMM:  18    -0.367628459248E+03   -0.11491E-02   -0.57836E-04  1747   0.535E-02    0.293E-01
RMM:  19    -0.367628593289E+03   -0.13404E-03   -0.17536E-04  1324   0.278E-02    0.366E-02
RMM:  20    -0.367628600875E+03   -0.75854E-05   -0.46774E-05  1300   0.130E-02    0.337E-03
RMM:  21    -0.367628601368E+03   -0.49325E-06   -0.66531E-06  1076   0.503E-03
   1 F= -.28720205E+03 E0= -.28721044E+03  d E =-.287202E+03
       N       E                     dE             d eps       ncg     rms          rms(c)
DAV:   1    -0.358907877837E+03    0.87207E+01   -0.22954E+02  1350   0.276E+01    0.171E+01
RMM:   2    -0.354288071403E+03    0.46198E+01   -0.89256E+00  1296   0.563E+00    0.980E+00
RMM:   3    -0.351989523989E+03    0.22985E+01   -0.51363E+00  1296   0.409E+00    0.163E+00
RMM:   4    -0.352042038214E+03   -0.52514E-01   -0.51251E-01  1296   0.170E+00    0.189E+00
RMM:   5    -0.352053311563E+03   -0.11273E-01   -0.99250E-02  1320   0.687E-01    0.254E+00
RMM:   6    -0.352053222510E+03    0.89053E-04   -0.55791E-02  1296   0.455E-01    0.208E+00
RMM:   7    -0.352042501381E+03    0.10721E-01   -0.14398E-02  1296   0.267E-01    0.960E-01
RMM:   8    -0.352041766852E+03    0.73453E-03   -0.16878E-03  1298   0.112E-01    0.850E-01
RMM:   9    -0.352041128050E+03    0.63880E-03   -0.23294E-04  1302   0.388E-02    0.704E-01
RMM:  10    -0.352039402799E+03    0.17253E-02   -0.31800E-03  1578   0.898E-02    0.390E-02
RMM:  11    -0.352039389237E+03    0.13562E-04   -0.23420E-04  1328   0.265E-02    0.877E-02
RMM:  12    -0.352039394556E+03   -0.53192E-05   -0.28464E-05  1311   0.106E-02    0.698E-02
RMM:  13    -0.352039399780E+03   -0.52235E-05   -0.40314E-06   978   0.455E-03    0.228E-02
RMM:  14    -0.352039403272E+03   -0.34918E-05   -0.17500E-06   795   0.289E-03    0.119E-02
RMM:  15    -0.352039402994E+03    0.27818E-06   -0.51319E-07   763   0.131E-03
   2 F= -.28571112E+03 E0= -.28570757E+03  d E =0.149093E+01
       N       E                     dE             d eps       ncg     rms          rms(c)
DAV:   1    -0.366584888934E+03   -0.14545E+02   -0.59656E+01  1330   0.133E+01    0.846E+00
RMM:   2    -0.365290266278E+03    0.12946E+01   -0.17296E+00  1296   0.261E+00    0.510E+00
RMM:   3    -0.364616976565E+03    0.67329E+00   -0.15632E+00  1296   0.214E+00    0.926E-01
RMM:   4    -0.364630819589E+03   -0.13843E-01   -0.13148E-01  1296   0.863E-01    0.916E-01
RMM:   5    -0.364633550182E+03   -0.27306E-02   -0.25896E-02  1322   0.354E-01    0.894E-01
RMM:   6    -0.364634620517E+03   -0.10703E-02   -0.70933E-03  1296   0.179E-01    0.210E-01
RMM:   7    -0.364632129921E+03    0.24906E-02   -0.13457E-03  1296   0.969E-02    0.666E-01
RMM:   8    -0.364631754784E+03    0.37514E-03   -0.42218E-04  1299   0.438E-02    0.432E-01
RMM:   9    -0.364631563492E+03    0.19129E-03   -0.30600E-04  1296   0.318E-02    0.240E-01
RMM:  10    -0.364631524330E+03    0.39162E-04   -0.27360E-04  1297   0.272E-02    0.359E-02
RMM:  11    -0.364631559406E+03   -0.35077E-04   -0.10117E-04  1296   0.167E-02    0.773E-02
RMM:  12    -0.364631544399E+03    0.15007E-04   -0.22113E-05  1296   0.103E-02    0.513E-02
RMM:  13    -0.364631539350E+03    0.50489E-05   -0.54644E-06  1204   0.546E-03    0.305E-02
RMM:  14    -0.364631539491E+03   -0.14119E-06   -0.51915E-07   757   0.198E-03
   3 F= -.29106645E+03 E0= -.29107700E+03  d E =-.386440E+01
       N       E                     dE             d eps       ncg     rms          rms(c)
DAV:   1    -0.364503431751E+03    0.12811E+00   -0.18414E-02  1406   0.237E-01    0.170E-01
RMM:   2    -0.364503021791E+03    0.40996E-03   -0.63059E-04  1296   0.477E-02    0.101E-01
RMM:   3    -0.364502835996E+03    0.18579E-03   -0.52660E-04  1296   0.395E-02    0.166E-02
RMM:   4    -0.364502843093E+03   -0.70965E-05   -0.46976E-05  1297   0.160E-02    0.163E-02
RMM:   5    -0.364502844216E+03   -0.11226E-05   -0.98790E-06  1283   0.665E-03    0.197E-02
RMM:   6    -0.364502851302E+03   -0.70861E-05   -0.66007E-06  1266   0.459E-03    0.293E-02
RMM:   7    -0.364502856547E+03   -0.52449E-05   -0.17028E-06   719   0.278E-03    0.289E-02
RMM:   8    -0.364502856616E+03   -0.69592E-07   -0.40580E-07   711   0.127E-03
   4 F= -.29106825E+03 E0= -.29107871E+03  d E =-.386621E+01
