   8   8   0   0
  0.5784877E+01  0.3626257E-09  0.3572671E-09  0.3572570E-09  0.5000000E-15
  1.000000000000000E-004
  CAR 
 C8                                      
     23.30965478    -13.76778446  301      9.60645120      1.00000000
    -13.768  0.0000E+00  0.0000E+00
    -13.644  0.0000E+00  0.0000E+00
    -13.521  0.0000E+00  0.0000E+00
    -13.397  0.0000E+00  0.0000E+00
    -13.273  0.0000E+00  0.0000E+00
    -13.150  0.0000E+00  0.0000E+00
    -13.026  0.0000E+00  0.0000E+00
    -12.903  0.0000E+00  0.0000E+00
    -12.779  0.0000E+00  0.0000E+00
    -12.655  0.0000E+00  0.0000E+00
    -12.532  0.0000E+00  0.0000E+00
    -12.408  0.0000E+00  0.0000E+00
    -12.285  0.0000E+00  0.0000E+00
    -12.161  0.0000E+00  0.0000E+00
    -12.038  0.0000E+00  0.0000E+00
    -11.914  0.0000E+00  0.0000E+00
    -11.790  0.0000E+00  0.0000E+00
    -11.667  0.1542E+00  0.7507E-02
    -11.543  0.2066E+00  0.2907E-01
    -11.420  0.2636E+00  0.5862E-01
    -11.296  0.3106E+00  0.9398E-01
    -11.172  0.3495E+00  0.1351E+00
    -11.049  0.3861E+00  0.1804E+00
    -10.925  0.4208E+00  0.2305E+00
    -10.802  0.4495E+00  0.2843E+00
    -10.678  0.4811E+00  0.3418E+00
    -10.554  0.5090E+00  0.4031E+00
    -10.431  0.5335E+00  0.4675E+00
    -10.307  0.5608E+00  0.5351E+00
    -10.184  0.5870E+00  0.6061E+00
    -10.060  0.6084E+00  0.6799E+00
     -9.936  0.6318E+00  0.7566E+00
     -9.813  0.6565E+00  0.8362E+00
     -9.689  0.7852E+00  0.9260E+00
     -9.566  0.7435E+00  0.1019E+01
     -9.442  0.6906E+00  0.1107E+01
     -9.318  0.6590E+00  0.1190E+01
     -9.195  0.7835E+00  0.1275E+01
     -9.071  0.8110E+00  0.1370E+01
     -8.948  0.8085E+00  0.1469E+01
     -8.824  0.8232E+00  0.1569E+01
     -8.701  0.8460E+00  0.1672E+01
     -8.577  0.8637E+00  0.1778E+01
     -8.453  0.8845E+00  0.1886E+01
     -8.330  0.9042E+00  0.1996E+01
     -8.206  0.9246E+00  0.2109E+01
     -8.083  0.9448E+00  0.2225E+01
     -7.959  0.9669E+00  0.2343E+01
     -7.835  0.1018E+01  0.2465E+01
     -7.712  0.1027E+01  0.2591E+01
     -7.588  0.1047E+01  0.2719E+01
     -7.465  0.1070E+01  0.2850E+01
     -7.341  0.1129E+01  0.2984E+01
     -7.217  0.1131E+01  0.3123E+01
     -7.094  0.1080E+01  0.3258E+01
     -6.970  0.1082E+01  0.3392E+01
     -6.847  0.1171E+01  0.3531E+01
     -6.723  0.1228E+01  0.3680E+01
     -6.599  0.1232E+01  0.3831E+01
     -6.476  0.1268E+01  0.3985E+01
     -6.352  0.1332E+01  0.4145E+01
     -6.229  0.1431E+01  0.4315E+01
     -6.105  0.1553E+01  0.4505E+01
     -5.982  0.1623E+01  0.4697E+01
     -5.858  0.1513E+01  0.4890E+01
     -5.734  0.1510E+01  0.5075E+01
     -5.611  0.1455E+01  0.5260E+01
     -5.487  0.1408E+01  0.5437E+01
     -5.364  0.1410E+01  0.5609E+01
     -5.240  0.1339E+01  0.5779E+01
     -5.116  0.1292E+01  0.5941E+01
     -4.993  0.1260E+01  0.6098E+01
     -4.869  0.1226E+01  0.6252E+01
     -4.746  0.1238E+01  0.6403E+01
     -4.622  0.1150E+01  0.6550E+01
     -4.498  0.1105E+01  0.6689E+01
     -4.375  0.1063E+01  0.6823E+01
     -4.251  0.1026E+01  0.6952E+01
     -4.128  0.9959E+00  0.7077E+01
     -4.004  0.9766E+00  0.7199E+01
     -3.880  0.9327E+00  0.7316E+01
     -3.757  0.8854E+00  0.7428E+01
     -3.633  0.9749E+00  0.7539E+01
     -3.510  0.1038E+01  0.7662E+01
     -3.386  0.1085E+01  0.7795E+01
     -3.263  0.1058E+01  0.7926E+01
     -3.139  0.1024E+01  0.8055E+01
     -3.015  0.9312E+00  0.8177E+01
     -2.892  0.9470E+00  0.8292E+01
     -2.768  0.9901E+00  0.8411E+01
     -2.645  0.1003E+01  0.8534E+01
     -2.521  0.1138E+01  0.8665E+01
     -2.397  0.1333E+01  0.8818E+01
     -2.274  0.1558E+01  0.8996E+01
     -2.150  0.1965E+01  0.9209E+01
     -2.027  0.2399E+01  0.9476E+01
     -1.903  0.2850E+01  0.9802E+01
     -1.779  0.2540E+01  0.1014E+02
     -1.656  0.2154E+01  0.1043E+02
     -1.532  0.1908E+01  0.1068E+02
     -1.409  0.1770E+01  0.1090E+02
     -1.285  0.1684E+01  0.1112E+02
     -1.161  0.1601E+01  0.1132E+02
     -1.038  0.1459E+01  0.1151E+02
     -0.914  0.1377E+01  0.1168E+02
     -0.791  0.1329E+01  0.1185E+02
     -0.667  0.1284E+01  0.1201E+02
     -0.543  0.1225E+01  0.1216E+02
     -0.420  0.1177E+01  0.1231E+02
     -0.296  0.1148E+01  0.1246E+02
     -0.173  0.1090E+01  0.1260E+02
     -0.049  0.1054E+01  0.1273E+02
      0.074  0.1053E+01  0.1286E+02
      0.198  0.1068E+01  0.1299E+02
      0.322  0.1182E+01  0.1312E+02
      0.445  0.1505E+01  0.1329E+02
      0.569  0.1646E+01  0.1349E+02
      0.692  0.1710E+01  0.1370E+02
      0.816  0.1893E+01  0.1392E+02
      0.940  0.2219E+01  0.1417E+02
      1.063  0.2240E+01  0.1444E+02
      1.187  0.2290E+01  0.1472E+02
      1.310  0.2396E+01  0.1501E+02
      1.434  0.2265E+01  0.1531E+02
      1.558  0.1676E+01  0.1555E+02
      1.681  0.1413E+01  0.1573E+02
      1.805  0.1856E+01  0.1593E+02
      1.928  0.2315E+01  0.1618E+02
      2.052  0.2364E+01  0.1648E+02
      2.176  0.2234E+01  0.1676E+02
      2.299  0.2269E+01  0.1704E+02
      2.423  0.2386E+01  0.1733E+02
      2.546  0.2346E+01  0.1762E+02
      2.670  0.2404E+01  0.1791E+02
      2.793  0.2560E+01  0.1822E+02
      2.917  0.2807E+01  0.1855E+02
      3.041  0.2854E+01  0.1890E+02
      3.164  0.2921E+01  0.1925E+02
      3.288  0.2968E+01  0.1960E+02
      3.411  0.3009E+01  0.1997E+02
      3.535  0.3202E+01  0.2035E+02
      3.659  0.3418E+01  0.2076E+02
      3.782  0.3137E+01  0.2117E+02
      3.906  0.3209E+01  0.2156E+02
      4.029  0.3108E+01  0.2195E+02
      4.153  0.3060E+01  0.2232E+02
      4.277  0.3170E+01  0.2271E+02
      4.400  0.2869E+01  0.2309E+02
      4.524  0.2784E+01  0.2343E+02
      4.647  0.2780E+01  0.2377E+02
      4.771  0.2985E+01  0.2413E+02
      4.895  0.3095E+01  0.2451E+02
      5.018  0.2971E+01  0.2488E+02
      5.142  0.2964E+01  0.2525E+02
      5.265  0.2830E+01  0.2561E+02
      5.389  0.2772E+01  0.2595E+02
      5.512  0.2649E+01  0.2628E+02
      5.636  0.2685E+01  0.2661E+02
      5.760  0.2708E+01  0.2694E+02
      5.883  0.2805E+01  0.2728E+02
      6.007  0.2774E+01  0.2762E+02
      6.130  0.2714E+01  0.2796E+02
      6.254  0.2610E+01  0.2829E+02
      6.378  0.2870E+01  0.2861E+02
      6.501  0.2577E+01  0.2896E+02
      6.625  0.2294E+01  0.2922E+02
      6.748  0.2041E+01  0.2946E+02
      6.872  0.2062E+01  0.2971E+02
      6.996  0.2157E+01  0.2997E+02
      7.119  0.1760E+01  0.3020E+02
      7.243  0.1554E+01  0.3040E+02
      7.366  0.1347E+01  0.3057E+02
      7.490  0.1243E+01  0.3073E+02
      7.614  0.1156E+01  0.3088E+02
      7.737  0.1067E+01  0.3102E+02
      7.861  0.9824E+00  0.3115E+02
      7.984  0.9080E+00  0.3126E+02
      8.108  0.8353E+00  0.3137E+02
      8.231  0.7671E+00  0.3147E+02
      8.355  0.7014E+00  0.3156E+02
      8.479  0.6323E+00  0.3164E+02
      8.602  0.5676E+00  0.3172E+02
      8.726  0.5116E+00  0.3178E+02
      8.849  0.4410E+00  0.3184E+02
      8.973  0.3773E+00  0.3189E+02
      9.097  0.3001E+00  0.3194E+02
      9.220  0.2204E+00  0.3197E+02
      9.344  0.1366E+00  0.3199E+02
      9.467  0.2730E-01  0.3200E+02
      9.591  0.0000E+00  0.3200E+02
      9.715  0.0000E+00  0.3200E+02
      9.838  0.0000E+00  0.3200E+02
      9.962  0.0000E+00  0.3200E+02
     10.085  0.0000E+00  0.3200E+02
     10.209  0.0000E+00  0.3200E+02
     10.333  0.0000E+00  0.3200E+02
     10.456  0.0000E+00  0.3200E+02
     10.580  0.0000E+00  0.3200E+02
     10.703  0.0000E+00  0.3200E+02
     10.827  0.0000E+00  0.3200E+02
     10.951  0.0000E+00  0.3200E+02
     11.074  0.0000E+00  0.3200E+02
     11.198  0.0000E+00  0.3200E+02
     11.321  0.0000E+00  0.3200E+02
     11.445  0.0000E+00  0.3200E+02
     11.568  0.0000E+00  0.3200E+02
     11.692  0.0000E+00  0.3200E+02
     11.816  0.0000E+00  0.3200E+02
     11.939  0.0000E+00  0.3200E+02
     12.063  0.0000E+00  0.3200E+02
     12.186  0.0000E+00  0.3200E+02
     12.310  0.0000E+00  0.3200E+02
     12.434  0.0000E+00  0.3200E+02
     12.557  0.0000E+00  0.3200E+02
     12.681  0.0000E+00  0.3200E+02
     12.804  0.0000E+00  0.3200E+02
     12.928  0.0000E+00  0.3200E+02
     13.052  0.0000E+00  0.3200E+02
     13.175  0.0000E+00  0.3200E+02
     13.299  0.0000E+00  0.3200E+02
     13.422  0.4877E-02  0.3200E+02
     13.546  0.1553E+00  0.3201E+02
     13.670  0.2463E+00  0.3203E+02
     13.793  0.3798E+00  0.3207E+02
     13.917  0.5014E+00  0.3212E+02
     14.040  0.6322E+00  0.3220E+02
     14.164  0.7139E+00  0.3228E+02
     14.287  0.8494E+00  0.3238E+02
     14.411  0.9665E+00  0.3249E+02
     14.535  0.1158E+01  0.3262E+02
     14.658  0.1322E+01  0.3277E+02
     14.782  0.1398E+01  0.3294E+02
     14.905  0.1540E+01  0.3312E+02
     15.029  0.1683E+01  0.3332E+02
     15.153  0.1719E+01  0.3353E+02
     15.276  0.1802E+01  0.3375E+02
     15.400  0.1930E+01  0.3398E+02
     15.523  0.1995E+01  0.3422E+02
     15.647  0.2000E+01  0.3447E+02
     15.771  0.2039E+01  0.3472E+02
     15.894  0.2169E+01  0.3498E+02
     16.018  0.2280E+01  0.3525E+02
     16.141  0.2418E+01  0.3554E+02
     16.265  0.2432E+01  0.3584E+02
     16.389  0.2500E+01  0.3615E+02
     16.512  0.2593E+01  0.3646E+02
     16.636  0.2775E+01  0.3679E+02
     16.759  0.2977E+01  0.3715E+02
     16.883  0.3002E+01  0.3752E+02
     17.006  0.3069E+01  0.3789E+02
     17.130  0.3433E+01  0.3829E+02
     17.254  0.3857E+01  0.3873E+02
     17.377  0.4269E+01  0.3923E+02
     17.501  0.4371E+01  0.3977E+02
     17.624  0.4446E+01  0.4029E+02
     17.748  0.4136E+01  0.4080E+02
     17.872  0.4050E+01  0.4128E+02
     17.995  0.3518E+01  0.4173E+02
     18.119  0.3622E+01  0.4216E+02
     18.242  0.3901E+01  0.4262E+02
     18.366  0.3637E+01  0.4308E+02
     18.490  0.3404E+01  0.4352E+02
     18.613  0.3152E+01  0.4392E+02
     18.737  0.3072E+01  0.4430E+02
     18.860  0.2864E+01  0.4467E+02
     18.984  0.2729E+01  0.4501E+02
     19.108  0.2744E+01  0.4535E+02
     19.231  0.2747E+01  0.4569E+02
     19.355  0.2720E+01  0.4602E+02
     19.478  0.2586E+01  0.4635E+02
     19.602  0.2374E+01  0.4666E+02
     19.726  0.2044E+01  0.4693E+02
     19.849  0.1912E+01  0.4717E+02
     19.973  0.1752E+01  0.4739E+02
     20.096  0.1378E+01  0.4758E+02
     20.220  0.1022E+01  0.4773E+02
     20.343  0.6511E+00  0.4784E+02
     20.467  0.4498E+00  0.4790E+02
     20.591  0.2779E+00  0.4795E+02
     20.714  0.1460E+00  0.4797E+02
     20.838  0.9090E-01  0.4798E+02
     20.961  0.5095E-01  0.4799E+02
     21.085  0.2301E-01  0.4800E+02
     21.209  0.1004E-01  0.4800E+02
     21.332  0.0000E+00  0.4800E+02
     21.456  0.0000E+00  0.4800E+02
     21.579  0.0000E+00  0.4800E+02
     21.703  0.0000E+00  0.4800E+02
     21.827  0.0000E+00  0.4800E+02
     21.950  0.0000E+00  0.4800E+02
     22.074  0.0000E+00  0.4800E+02
     22.197  0.0000E+00  0.4800E+02
     22.321  0.0000E+00  0.4800E+02
     22.445  0.0000E+00  0.4800E+02
     22.568  0.0000E+00  0.4800E+02
     22.692  0.0000E+00  0.4800E+02
     22.815  0.0000E+00  0.4800E+02
     22.939  0.0000E+00  0.4800E+02
     23.062  0.0000E+00  0.4800E+02
     23.186  0.0000E+00  0.4800E+02
     23.310  0.0000E+00  0.4800E+02
