       N       E                     dE             d eps       ncg     rms          rms(c)
DAV:   1     0.667030816786E+02    0.66703E+02   -0.17821E+04 62640   0.130E+03
DAV:   2    -0.721294279545E+02   -0.13883E+03   -0.13619E+03 83328   0.229E+02
DAV:   3    -0.750856193416E+02   -0.29562E+01   -0.29524E+01 88356   0.364E+01
DAV:   4    -0.751052744294E+02   -0.19655E-01   -0.19649E-01 81900   0.301E+00
DAV:   5    -0.751055668148E+02   -0.29239E-03   -0.29233E-03 87384   0.341E-01    0.108E+01
RMM:   6    -0.732922678193E+02    0.18133E+01   -0.11293E+00 62793   0.613E+00    0.643E+00
RMM:   7    -0.726842352083E+02    0.60803E+00   -0.18154E+00 69191   0.825E+00    0.137E+00
RMM:   8    -0.726979861431E+02   -0.13751E-01   -0.10382E-01 67616   0.239E+00    0.234E-01
RMM:   9    -0.726990204658E+02   -0.10343E-02   -0.19638E-02 73824   0.939E-01    0.121E-01
RMM:  10    -0.726991699292E+02   -0.14946E-03   -0.28678E-03 73542   0.356E-01    0.359E-02
RMM:  11    -0.726992369080E+02   -0.66979E-04   -0.67798E-04 77573   0.152E-01    0.938E-03
RMM:  12    -0.726992473149E+02   -0.10407E-04   -0.10083E-04 78560   0.620E-02    0.147E-02
RMM:  13    -0.726992524581E+02   -0.51432E-05   -0.26091E-05 76262   0.254E-02    0.323E-03
RMM:  14    -0.726992521978E+02    0.26026E-06   -0.38112E-06 63227   0.109E-02
   1 F= -.72699252E+02 E0= -.72699252E+02  d E =0.000000E+00
