<?xml version="1.0" encoding="ISO-8859-1"?>
<modeling>
 <generator>
  <i name="program" type="string">vasp </i>
  <i name="version" type="string">6.4.3  </i>
  <i name="subversion" type="string">19Mar24 (build Oct 21 2024 22:36:34) complex                          parallel </i>
  <i name="platform" type="string">LinuxIFC </i>
  <i name="date" type="string">2024 12 26 </i>
  <i name="time" type="string">00:34:19 </i>
 </generator>
 <incar>
  <i type="string" name="SYSTEM">C8</i>
  <i type="int" name="ISTART">     0</i>
  <i type="string" name="PREC">Normal</i>
  <i type="string" name="ALGO">Fast</i>
  <i type="logical" name="ADDGRID"> T  </i>
  <i type="int" name="ICHARG">     2</i>
  <i type="int" name="NELM">    60</i>
  <i type="int" name="NELMIN">     8</i>
  <i type="int" name="IBRION">    -1</i>
  <i name="EDIFF">      0.00000100</i>
  <i type="int" name="NSW">     0</i>
  <i type="int" name="ISIF">     2</i>
  <i name="ENCUT">    520.00000000</i>
  <i type="string" name="LREAL">Auto</i>
  <i type="int" name="ISMEAR">    -5</i>
  <i type="logical" name="LWAVE"> F  </i>
  <i type="logical" name="LCHARG"> F  </i>
 </incar>
 <primitive_cell>
  <structure name="primitive_cell" >
   <crystal>
    <varray name="basis" >
     <v>       0.01339700       1.78628501      -1.78628501 </v>
     <v>       0.01339700       1.78628501       1.78628501 </v>
     <v>       1.79968201      -1.77288801       0.00000000 </v>
    </varray>
    <i name="volume">     11.56975499 </i>
    <varray name="rec_basis" >
     <v>       0.27372086       0.27785765      -0.27991054 </v>
     <v>       0.27372086       0.27785765       0.27991054 </v>
     <v>       0.55157851      -0.00413680       0.00000000 </v>
    </varray>
   </crystal>
   <varray name="positions" >
    <v>       0.50000000       0.50000000       0.00000000 </v>
    <v>       0.75000000       0.25000000       0.50000000 </v>
   </varray>
  </structure>
  <varray name="primitive_index" >
   <v type="int" >        1 </v>
   <v type="int" >        2 </v>
  </varray>
 </primitive_cell>
 <kpoints>
  <generation param="Gamma">
   <v type="int" name="divisions">      17       17       17 </v>
   <v name="usershift">      0.00000000       0.00000000       0.00000000 </v>
   <v name="genvec1">      0.05882353       0.00000000       0.00000000 </v>
   <v name="genvec2">      0.00000000       0.05882353       0.00000000 </v>
   <v name="genvec3">      0.00000000       0.00000000       0.05882353 </v>
   <v name="shift">      0.00000000       0.00000000       0.00000000 </v>
  </generation>
  <varray name="kpointlist" >
   <v>       0.00000000       0.00000000       0.00000000 </v>
   <v>       0.05882353      -0.00000000       0.00000000 </v>
   <v>       0.11764706      -0.00000000       0.00000000 </v>
   <v>       0.17647059      -0.00000000       0.00000000 </v>
   <v>       0.23529412      -0.00000000       0.00000000 </v>
   <v>       0.29411765      -0.00000000       0.00000000 </v>
   <v>       0.35294118      -0.00000000       0.00000000 </v>
   <v>       0.41176471      -0.00000000       0.00000000 </v>
   <v>       0.47058824      -0.00000000       0.00000000 </v>
   <v>      -0.00000000       0.05882353       0.00000000 </v>
   <v>       0.05882353       0.05882353       0.00000000 </v>
   <v>       0.11764706       0.05882353       0.00000000 </v>
   <v>       0.17647059       0.05882353       0.00000000 </v>
   <v>       0.23529412       0.05882353       0.00000000 </v>
   <v>       0.29411765       0.05882353       0.00000000 </v>
   <v>       0.35294118       0.05882353       0.00000000 </v>
   <v>       0.41176471       0.05882353       0.00000000 </v>
   <v>       0.47058824       0.05882353       0.00000000 </v>
   <v>      -0.47058824       0.05882353       0.00000000 </v>
   <v>      -0.41176471       0.05882353       0.00000000 </v>
   <v>      -0.35294118       0.05882353       0.00000000 </v>
   <v>      -0.29411765       0.05882353       0.00000000 </v>
   <v>      -0.23529412       0.05882353       0.00000000 </v>
   <v>      -0.17647059       0.05882353       0.00000000 </v>
   <v>      -0.11764706       0.05882353       0.00000000 </v>
   <v>      -0.05882353       0.05882353       0.00000000 </v>
   <v>       0.00000000       0.11764706       0.00000000 </v>
   <v>       0.05882353       0.11764706       0.00000000 </v>
   <v>       0.11764706       0.11764706       0.00000000 </v>
   <v>       0.17647059       0.11764706       0.00000000 </v>
   <v>       0.23529412       0.11764706       0.00000000 </v>
   <v>       0.29411765       0.11764706       0.00000000 </v>
   <v>       0.35294118       0.11764706       0.00000000 </v>
   <v>       0.41176471       0.11764706       0.00000000 </v>
   <v>       0.47058824       0.11764706       0.00000000 </v>
   <v>      -0.47058824       0.11764706       0.00000000 </v>
   <v>      -0.41176471       0.11764706       0.00000000 </v>
   <v>      -0.35294118       0.11764706       0.00000000 </v>
   <v>      -0.29411765       0.11764706       0.00000000 </v>
   <v>      -0.23529412       0.11764706       0.00000000 </v>
   <v>      -0.17647059       0.11764706       0.00000000 </v>
   <v>      -0.11764706       0.11764706       0.00000000 </v>
   <v>      -0.05882353       0.11764706       0.00000000 </v>
   <v>      -0.00000000       0.17647059       0.00000000 </v>
   <v>       0.05882353       0.17647059       0.00000000 </v>
   <v>       0.11764706       0.17647059       0.00000000 </v>
   <v>       0.17647059       0.17647059       0.00000000 </v>
   <v>       0.23529412       0.17647059       0.00000000 </v>
   <v>       0.29411765       0.17647059       0.00000000 </v>
   <v>       0.35294118       0.17647059       0.00000000 </v>
   <v>       0.41176471       0.17647059       0.00000000 </v>
   <v>       0.47058824       0.17647059       0.00000000 </v>
   <v>      -0.47058824       0.17647059       0.00000000 </v>
   <v>      -0.41176471       0.17647059       0.00000000 </v>
   <v>      -0.35294118       0.17647059       0.00000000 </v>
   <v>      -0.29411765       0.17647059       0.00000000 </v>
   <v>      -0.23529412       0.17647059       0.00000000 </v>
   <v>      -0.17647059       0.17647059       0.00000000 </v>
   <v>      -0.11764706       0.17647059       0.00000000 </v>
   <v>      -0.05882353       0.17647059       0.00000000 </v>
   <v>       0.00000000       0.23529412       0.00000000 </v>
   <v>       0.05882353       0.23529412       0.00000000 </v>
   <v>       0.11764706       0.23529412       0.00000000 </v>
   <v>       0.17647059       0.23529412       0.00000000 </v>
   <v>       0.23529412       0.23529412       0.00000000 </v>
   <v>       0.29411765       0.23529412       0.00000000 </v>
   <v>       0.35294118       0.23529412       0.00000000 </v>
   <v>       0.41176471       0.23529412       0.00000000 </v>
   <v>       0.47058824       0.23529412       0.00000000 </v>
   <v>      -0.47058824       0.23529412       0.00000000 </v>
   <v>      -0.41176471       0.23529412       0.00000000 </v>
   <v>      -0.35294118       0.23529412       0.00000000 </v>
   <v>      -0.29411765       0.23529412       0.00000000 </v>
   <v>      -0.23529412       0.23529412       0.00000000 </v>
   <v>      -0.17647059       0.23529412       0.00000000 </v>
   <v>      -0.11764706       0.23529412       0.00000000 </v>
   <v>      -0.05882353       0.23529412       0.00000000 </v>
   <v>       0.00000000       0.29411765       0.00000000 </v>
   <v>       0.05882353       0.29411765       0.00000000 </v>
   <v>       0.11764706       0.29411765       0.00000000 </v>
   <v>       0.17647059       0.29411765       0.00000000 </v>
   <v>       0.23529412       0.29411765       0.00000000 </v>
   <v>       0.29411765       0.29411765       0.00000000 </v>
   <v>       0.35294118       0.29411765       0.00000000 </v>
   <v>       0.41176471       0.29411765       0.00000000 </v>
   <v>       0.47058824       0.29411765       0.00000000 </v>
   <v>      -0.47058824       0.29411765       0.00000000 </v>
   <v>      -0.41176471       0.29411765       0.00000000 </v>
   <v>      -0.35294118       0.29411765       0.00000000 </v>
   <v>      -0.29411765       0.29411765       0.00000000 </v>
   <v>      -0.23529412       0.29411765       0.00000000 </v>
   <v>      -0.17647059       0.29411765       0.00000000 </v>
   <v>      -0.11764706       0.29411765       0.00000000 </v>
   <v>      -0.05882353       0.29411765       0.00000000 </v>
   <v>      -0.00000000       0.35294118       0.00000000 </v>
   <v>       0.05882353       0.35294118       0.00000000 </v>
   <v>       0.11764706       0.35294118       0.00000000 </v>
   <v>       0.17647059       0.35294118       0.00000000 </v>
   <v>       0.23529412       0.35294118       0.00000000 </v>
   <v>       0.29411765       0.35294118       0.00000000 </v>
   <v>       0.35294118       0.35294118       0.00000000 </v>
   <v>       0.41176471       0.35294118       0.00000000 </v>
   <v>       0.47058824       0.35294118       0.00000000 </v>
   <v>      -0.47058824       0.35294118       0.00000000 </v>
   <v>      -0.41176471       0.35294118       0.00000000 </v>
   <v>      -0.35294118       0.35294118       0.00000000 </v>
   <v>      -0.29411765       0.35294118       0.00000000 </v>
   <v>      -0.23529412       0.35294118       0.00000000 </v>
   <v>      -0.17647059       0.35294118       0.00000000 </v>
   <v>      -0.11764706       0.35294118       0.00000000 </v>
   <v>      -0.05882353       0.35294118       0.00000000 </v>
   <v>      -0.00000000       0.41176471       0.00000000 </v>
   <v>       0.05882353       0.41176471       0.00000000 </v>
   <v>       0.11764706       0.41176471       0.00000000 </v>
   <v>       0.17647059       0.41176471       0.00000000 </v>
   <v>       0.23529412       0.41176471       0.00000000 </v>
   <v>       0.29411765       0.41176471       0.00000000 </v>
   <v>       0.35294118       0.41176471       0.00000000 </v>
   <v>       0.41176471       0.41176471       0.00000000 </v>
   <v>       0.47058824       0.41176471       0.00000000 </v>
   <v>      -0.47058824       0.41176471       0.00000000 </v>
   <v>      -0.41176471       0.41176471       0.00000000 </v>
   <v>      -0.35294118       0.41176471       0.00000000 </v>
   <v>      -0.29411765       0.41176471       0.00000000 </v>
   <v>      -0.23529412       0.41176471       0.00000000 </v>
   <v>      -0.17647059       0.41176471       0.00000000 </v>
   <v>      -0.11764706       0.41176471       0.00000000 </v>
   <v>      -0.05882353       0.41176471       0.00000000 </v>
   <v>       0.00000000       0.47058824       0.00000000 </v>
   <v>       0.05882353       0.47058824       0.00000000 </v>
   <v>       0.11764706       0.47058824       0.00000000 </v>
   <v>       0.17647059       0.47058824       0.00000000 </v>
   <v>       0.23529412       0.47058824       0.00000000 </v>
   <v>       0.29411765       0.47058824       0.00000000 </v>
   <v>       0.35294118       0.47058824       0.00000000 </v>
   <v>       0.41176471       0.47058824       0.00000000 </v>
   <v>       0.47058824       0.47058824       0.00000000 </v>
   <v>      -0.47058824       0.47058824       0.00000000 </v>
   <v>      -0.41176471       0.47058824       0.00000000 </v>
   <v>      -0.35294118       0.47058824       0.00000000 </v>
   <v>      -0.29411765       0.47058824       0.00000000 </v>
   <v>      -0.23529412       0.47058824       0.00000000 </v>
   <v>      -0.17647059       0.47058824       0.00000000 </v>
   <v>      -0.11764706       0.47058824       0.00000000 </v>
   <v>      -0.05882353       0.47058824       0.00000000 </v>
   <v>       0.00000000       0.00000000       0.05882353 </v>
   <v>       0.05882353      -0.00000000       0.05882353 </v>
   <v>       0.11764706      -0.00000000       0.05882353 </v>
   <v>       0.17647059      -0.00000000       0.05882353 </v>
   <v>       0.23529412      -0.00000000       0.05882353 </v>
   <v>       0.29411765      -0.00000000       0.05882353 </v>
   <v>       0.35294118      -0.00000000       0.05882353 </v>
   <v>       0.41176471      -0.00000000       0.05882353 </v>
   <v>       0.47058824      -0.00000000       0.05882353 </v>
   <v>      -0.00000000       0.05882353       0.05882353 </v>
   <v>       0.05882353       0.05882353       0.05882353 </v>
   <v>       0.11764706       0.05882353       0.05882353 </v>
   <v>       0.17647059       0.05882353       0.05882353 </v>
   <v>       0.23529412       0.05882353       0.05882353 </v>
   <v>       0.29411765       0.05882353       0.05882353 </v>
   <v>       0.35294118       0.05882353       0.05882353 </v>
   <v>       0.41176471       0.05882353       0.05882353 </v>
   <v>       0.47058824       0.05882353       0.05882353 </v>
   <v>      -0.47058824       0.05882353       0.05882353 </v>
   <v>      -0.41176471       0.05882353       0.05882353 </v>
   <v>      -0.35294118       0.05882353       0.05882353 </v>
   <v>      -0.29411765       0.05882353       0.05882353 </v>
   <v>      -0.23529412       0.05882353       0.05882353 </v>
   <v>      -0.17647059       0.05882353       0.05882353 </v>
   <v>      -0.11764706       0.05882353       0.05882353 </v>
   <v>      -0.05882353       0.05882353       0.05882353 </v>
   <v>       0.00000000       0.11764706       0.05882353 </v>
   <v>       0.05882353       0.11764706       0.05882353 </v>
   <v>       0.11764706       0.11764706       0.05882353 </v>
   <v>       0.17647059       0.11764706       0.05882353 </v>
   <v>       0.23529412       0.11764706       0.05882353 </v>
   <v>       0.29411765       0.11764706       0.05882353 </v>
   <v>       0.35294118       0.11764706       0.05882353 </v>
   <v>       0.41176471       0.11764706       0.05882353 </v>
   <v>       0.47058824       0.11764706       0.05882353 </v>
   <v>      -0.47058824       0.11764706       0.05882353 </v>
   <v>      -0.41176471       0.11764706       0.05882353 </v>
   <v>      -0.35294118       0.11764706       0.05882353 </v>
   <v>      -0.29411765       0.11764706       0.05882353 </v>
   <v>      -0.23529412       0.11764706       0.05882353 </v>
   <v>      -0.17647059       0.11764706       0.05882353 </v>
   <v>      -0.11764706       0.11764706       0.05882353 </v>
   <v>      -0.05882353       0.11764706       0.05882353 </v>
   <v>      -0.00000000       0.17647059       0.05882353 </v>
   <v>       0.05882353       0.17647059       0.05882353 </v>
   <v>       0.11764706       0.17647059       0.05882353 </v>
   <v>       0.17647059       0.17647059       0.05882353 </v>
   <v>       0.23529412       0.17647059       0.05882353 </v>
   <v>       0.29411765       0.17647059       0.05882353 </v>
   <v>       0.35294118       0.17647059       0.05882353 </v>
   <v>       0.41176471       0.17647059       0.05882353 </v>
   <v>       0.47058824       0.17647059       0.05882353 </v>
   <v>      -0.47058824       0.17647059       0.05882353 </v>
   <v>      -0.41176471       0.17647059       0.05882353 </v>
   <v>      -0.35294118       0.17647059       0.05882353 </v>
   <v>      -0.29411765       0.17647059       0.05882353 </v>
   <v>      -0.23529412       0.17647059       0.05882353 </v>
   <v>      -0.17647059       0.17647059       0.05882353 </v>
   <v>      -0.11764706       0.17647059       0.05882353 </v>
   <v>      -0.05882353       0.17647059       0.05882353 </v>
   <v>       0.00000000       0.23529412       0.05882353 </v>
   <v>       0.05882353       0.23529412       0.05882353 </v>
   <v>       0.11764706       0.23529412       0.05882353 </v>
   <v>       0.17647059       0.23529412       0.05882353 </v>
   <v>       0.23529412       0.23529412       0.05882353 </v>
   <v>       0.29411765       0.23529412       0.05882353 </v>
   <v>       0.35294118       0.23529412       0.05882353 </v>
   <v>       0.41176471       0.23529412       0.05882353 </v>
   <v>       0.47058824       0.23529412       0.05882353 </v>
   <v>      -0.47058824       0.23529412       0.05882353 </v>
   <v>      -0.41176471       0.23529412       0.05882353 </v>
   <v>      -0.35294118       0.23529412       0.05882353 </v>
   <v>      -0.29411765       0.23529412       0.05882353 </v>
   <v>      -0.23529412       0.23529412       0.05882353 </v>
   <v>      -0.17647059       0.23529412       0.05882353 </v>
   <v>      -0.11764706       0.23529412       0.05882353 </v>
   <v>      -0.05882353       0.23529412       0.05882353 </v>
   <v>       0.00000000       0.29411765       0.05882353 </v>
   <v>       0.05882353       0.29411765       0.05882353 </v>
   <v>       0.11764706       0.29411765       0.05882353 </v>
   <v>       0.17647059       0.29411765       0.05882353 </v>
   <v>       0.23529412       0.29411765       0.05882353 </v>
   <v>       0.29411765       0.29411765       0.05882353 </v>
   <v>       0.35294118       0.29411765       0.05882353 </v>
   <v>       0.41176471       0.29411765       0.05882353 </v>
   <v>       0.47058824       0.29411765       0.05882353 </v>
   <v>      -0.47058824       0.29411765       0.05882353 </v>
   <v>      -0.41176471       0.29411765       0.05882353 </v>
   <v>      -0.35294118       0.29411765       0.05882353 </v>
   <v>      -0.29411765       0.29411765       0.05882353 </v>
   <v>      -0.23529412       0.29411765       0.05882353 </v>
   <v>      -0.17647059       0.29411765       0.05882353 </v>
   <v>      -0.11764706       0.29411765       0.05882353 </v>
   <v>      -0.05882353       0.29411765       0.05882353 </v>
   <v>      -0.00000000       0.35294118       0.05882353 </v>
   <v>       0.05882353       0.35294118       0.05882353 </v>
   <v>       0.11764706       0.35294118       0.05882353 </v>
   <v>       0.17647059       0.35294118       0.05882353 </v>
   <v>       0.23529412       0.35294118       0.05882353 </v>
   <v>       0.29411765       0.35294118       0.05882353 </v>
   <v>       0.35294118       0.35294118       0.05882353 </v>
   <v>       0.41176471       0.35294118       0.05882353 </v>
   <v>       0.47058824       0.35294118       0.05882353 </v>
   <v>      -0.47058824       0.35294118       0.05882353 </v>
   <v>      -0.41176471       0.35294118       0.05882353 </v>
   <v>      -0.35294118       0.35294118       0.05882353 </v>
   <v>      -0.29411765       0.35294118       0.05882353 </v>
   <v>      -0.23529412       0.35294118       0.05882353 </v>
   <v>      -0.17647059       0.35294118       0.05882353 </v>
   <v>      -0.11764706       0.35294118       0.05882353 </v>
   <v>      -0.05882353       0.35294118       0.05882353 </v>
   <v>      -0.00000000       0.41176471       0.05882353 </v>
   <v>       0.05882353       0.41176471       0.05882353 </v>
   <v>       0.11764706       0.41176471       0.05882353 </v>
   <v>       0.17647059       0.41176471       0.05882353 </v>
   <v>       0.23529412       0.41176471       0.05882353 </v>
   <v>       0.29411765       0.41176471       0.05882353 </v>
   <v>       0.35294118       0.41176471       0.05882353 </v>
   <v>       0.41176471       0.41176471       0.05882353 </v>
   <v>       0.47058824       0.41176471       0.05882353 </v>
   <v>      -0.47058824       0.41176471       0.05882353 </v>
   <v>      -0.41176471       0.41176471       0.05882353 </v>
   <v>      -0.35294118       0.41176471       0.05882353 </v>
   <v>      -0.29411765       0.41176471       0.05882353 </v>
   <v>      -0.23529412       0.41176471       0.05882353 </v>
   <v>      -0.17647059       0.41176471       0.05882353 </v>
   <v>      -0.11764706       0.41176471       0.05882353 </v>
   <v>      -0.05882353       0.41176471       0.05882353 </v>
   <v>       0.00000000       0.47058824       0.05882353 </v>
   <v>       0.05882353       0.47058824       0.05882353 </v>
   <v>       0.11764706       0.47058824       0.05882353 </v>
   <v>       0.17647059       0.47058824       0.05882353 </v>
   <v>       0.23529412       0.47058824       0.05882353 </v>
   <v>       0.29411765       0.47058824       0.05882353 </v>
   <v>       0.35294118       0.47058824       0.05882353 </v>
   <v>       0.41176471       0.47058824       0.05882353 </v>
   <v>       0.47058824       0.47058824       0.05882353 </v>
   <v>      -0.47058824       0.47058824       0.05882353 </v>
   <v>      -0.41176471       0.47058824       0.05882353 </v>
   <v>      -0.35294118       0.47058824       0.05882353 </v>
   <v>      -0.29411765       0.47058824       0.05882353 </v>
   <v>      -0.23529412       0.47058824       0.05882353 </v>
   <v>      -0.17647059       0.47058824       0.05882353 </v>
   <v>      -0.11764706       0.47058824       0.05882353 </v>
   <v>      -0.05882353       0.47058824       0.05882353 </v>
   <v>       0.00000000       0.00000000       0.11764706 </v>
   <v>       0.05882353      -0.00000000       0.11764706 </v>
   <v>       0.11764706      -0.00000000       0.11764706 </v>
   <v>       0.17647059      -0.00000000       0.11764706 </v>
   <v>       0.23529412      -0.00000000       0.11764706 </v>
   <v>       0.29411765      -0.00000000       0.11764706 </v>
   <v>       0.35294118      -0.00000000       0.11764706 </v>
   <v>       0.41176471      -0.00000000       0.11764706 </v>
   <v>       0.47058824      -0.00000000       0.11764706 </v>
   <v>      -0.00000000       0.05882353       0.11764706 </v>
   <v>       0.05882353       0.05882353       0.11764706 </v>
   <v>       0.11764706       0.05882353       0.11764706 </v>
   <v>       0.17647059       0.05882353       0.11764706 </v>
   <v>       0.23529412       0.05882353       0.11764706 </v>
   <v>       0.29411765       0.05882353       0.11764706 </v>
   <v>       0.35294118       0.05882353       0.11764706 </v>
   <v>       0.41176471       0.05882353       0.11764706 </v>
   <v>       0.47058824       0.05882353       0.11764706 </v>
   <v>      -0.47058824       0.05882353       0.11764706 </v>
   <v>      -0.41176471       0.05882353       0.11764706 </v>
   <v>      -0.35294118       0.05882353       0.11764706 </v>
   <v>      -0.29411765       0.05882353       0.11764706 </v>
   <v>      -0.23529412       0.05882353       0.11764706 </v>
   <v>      -0.17647059       0.05882353       0.11764706 </v>
   <v>      -0.11764706       0.05882353       0.11764706 </v>
   <v>      -0.05882353       0.05882353       0.11764706 </v>
   <v>       0.00000000       0.11764706       0.11764706 </v>
   <v>       0.05882353       0.11764706       0.11764706 </v>
   <v>       0.11764706       0.11764706       0.11764706 </v>
   <v>       0.17647059       0.11764706       0.11764706 </v>
   <v>       0.23529412       0.11764706       0.11764706 </v>
   <v>       0.29411765       0.11764706       0.11764706 </v>
   <v>       0.35294118       0.11764706       0.11764706 </v>
   <v>       0.41176471       0.11764706       0.11764706 </v>
   <v>       0.47058824       0.11764706       0.11764706 </v>
   <v>      -0.47058824       0.11764706       0.11764706 </v>
   <v>      -0.41176471       0.11764706       0.11764706 </v>
   <v>      -0.35294118       0.11764706       0.11764706 </v>
   <v>      -0.29411765       0.11764706       0.11764706 </v>
   <v>      -0.23529412       0.11764706       0.11764706 </v>
   <v>      -0.17647059       0.11764706       0.11764706 </v>
   <v>      -0.11764706       0.11764706       0.11764706 </v>
   <v>      -0.05882353       0.11764706       0.11764706 </v>
   <v>      -0.00000000       0.17647059       0.11764706 </v>
   <v>       0.05882353       0.17647059       0.11764706 </v>
   <v>       0.11764706       0.17647059       0.11764706 </v>
   <v>       0.17647059       0.17647059       0.11764706 </v>
   <v>       0.23529412       0.17647059       0.11764706 </v>
   <v>       0.29411765       0.17647059       0.11764706 </v>
   <v>       0.35294118       0.17647059       0.11764706 </v>
   <v>       0.41176471       0.17647059       0.11764706 </v>
   <v>       0.47058824       0.17647059       0.11764706 </v>
   <v>      -0.47058824       0.17647059       0.11764706 </v>
   <v>      -0.41176471       0.17647059       0.11764706 </v>
   <v>      -0.35294118       0.17647059       0.11764706 </v>
   <v>      -0.29411765       0.17647059       0.11764706 </v>
   <v>      -0.23529412       0.17647059       0.11764706 </v>
   <v>      -0.17647059       0.17647059       0.11764706 </v>
   <v>      -0.11764706       0.17647059       0.11764706 </v>
   <v>      -0.05882353       0.17647059       0.11764706 </v>
   <v>       0.00000000       0.23529412       0.11764706 </v>
   <v>       0.05882353       0.23529412       0.11764706 </v>
   <v>       0.11764706       0.23529412       0.11764706 </v>
   <v>       0.17647059       0.23529412       0.11764706 </v>
   <v>       0.23529412       0.23529412       0.11764706 </v>
   <v>       0.29411765       0.23529412       0.11764706 </v>
   <v>       0.35294118       0.23529412       0.11764706 </v>
   <v>       0.41176471       0.23529412       0.11764706 </v>
   <v>       0.47058824       0.23529412       0.11764706 </v>
   <v>      -0.47058824       0.23529412       0.11764706 </v>
   <v>      -0.41176471       0.23529412       0.11764706 </v>
   <v>      -0.35294118       0.23529412       0.11764706 </v>
   <v>      -0.29411765       0.23529412       0.11764706 </v>
   <v>      -0.23529412       0.23529412       0.11764706 </v>
   <v>      -0.17647059       0.23529412       0.11764706 </v>
   <v>      -0.11764706       0.23529412       0.11764706 </v>
   <v>      -0.05882353       0.23529412       0.11764706 </v>
   <v>       0.00000000       0.29411765       0.11764706 </v>
   <v>       0.05882353       0.29411765       0.11764706 </v>
   <v>       0.11764706       0.29411765       0.11764706 </v>
   <v>       0.17647059       0.29411765       0.11764706 </v>
   <v>       0.23529412       0.29411765       0.11764706 </v>
   <v>       0.29411765       0.29411765       0.11764706 </v>
   <v>       0.35294118       0.29411765       0.11764706 </v>
   <v>       0.41176471       0.29411765       0.11764706 </v>
   <v>       0.47058824       0.29411765       0.11764706 </v>
   <v>      -0.47058824       0.29411765       0.11764706 </v>
   <v>      -0.41176471       0.29411765       0.11764706 </v>
   <v>      -0.35294118       0.29411765       0.11764706 </v>
   <v>      -0.29411765       0.29411765       0.11764706 </v>
   <v>      -0.23529412       0.29411765       0.11764706 </v>
   <v>      -0.17647059       0.29411765       0.11764706 </v>
   <v>      -0.11764706       0.29411765       0.11764706 </v>
   <v>      -0.05882353       0.29411765       0.11764706 </v>
   <v>      -0.00000000       0.35294118       0.11764706 </v>
   <v>       0.05882353       0.35294118       0.11764706 </v>
   <v>       0.11764706       0.35294118       0.11764706 </v>
   <v>       0.17647059       0.35294118       0.11764706 </v>
   <v>       0.23529412       0.35294118       0.11764706 </v>
   <v>       0.29411765       0.35294118       0.11764706 </v>
   <v>       0.35294118       0.35294118       0.11764706 </v>
   <v>       0.41176471       0.35294118       0.11764706 </v>
   <v>       0.47058824       0.35294118       0.11764706 </v>
   <v>      -0.47058824       0.35294118       0.11764706 </v>
   <v>      -0.41176471       0.35294118       0.11764706 </v>
   <v>      -0.35294118       0.35294118       0.11764706 </v>
   <v>      -0.29411765       0.35294118       0.11764706 </v>
   <v>      -0.23529412       0.35294118       0.11764706 </v>
   <v>      -0.17647059       0.35294118       0.11764706 </v>
   <v>      -0.11764706       0.35294118       0.11764706 </v>
   <v>      -0.05882353       0.35294118       0.11764706 </v>
   <v>      -0.00000000       0.41176471       0.11764706 </v>
   <v>       0.05882353       0.41176471       0.11764706 </v>
   <v>       0.11764706       0.41176471       0.11764706 </v>
   <v>       0.17647059       0.41176471       0.11764706 </v>
   <v>       0.23529412       0.41176471       0.11764706 </v>
   <v>       0.29411765       0.41176471       0.11764706 </v>
   <v>       0.35294118       0.41176471       0.11764706 </v>
   <v>       0.41176471       0.41176471       0.11764706 </v>
   <v>       0.47058824       0.41176471       0.11764706 </v>
   <v>      -0.47058824       0.41176471       0.11764706 </v>
   <v>      -0.41176471       0.41176471       0.11764706 </v>
   <v>      -0.35294118       0.41176471       0.11764706 </v>
   <v>      -0.29411765       0.41176471       0.11764706 </v>
   <v>      -0.23529412       0.41176471       0.11764706 </v>
   <v>      -0.17647059       0.41176471       0.11764706 </v>
   <v>      -0.11764706       0.41176471       0.11764706 </v>
   <v>      -0.05882353       0.41176471       0.11764706 </v>
   <v>       0.00000000       0.47058824       0.11764706 </v>
   <v>       0.05882353       0.47058824       0.11764706 </v>
   <v>       0.11764706       0.47058824       0.11764706 </v>
   <v>       0.17647059       0.47058824       0.11764706 </v>
   <v>       0.23529412       0.47058824       0.11764706 </v>
   <v>       0.29411765       0.47058824       0.11764706 </v>
   <v>       0.35294118       0.47058824       0.11764706 </v>
   <v>       0.41176471       0.47058824       0.11764706 </v>
   <v>       0.47058824       0.47058824       0.11764706 </v>
   <v>      -0.47058824       0.47058824       0.11764706 </v>
   <v>      -0.41176471       0.47058824       0.11764706 </v>
   <v>      -0.35294118       0.47058824       0.11764706 </v>
   <v>      -0.29411765       0.47058824       0.11764706 </v>
   <v>      -0.23529412       0.47058824       0.11764706 </v>
   <v>      -0.17647059       0.47058824       0.11764706 </v>
   <v>      -0.11764706       0.47058824       0.11764706 </v>
   <v>      -0.05882353       0.47058824       0.11764706 </v>
   <v>       0.00000000       0.00000000       0.17647059 </v>
   <v>       0.05882353      -0.00000000       0.17647059 </v>
   <v>       0.11764706      -0.00000000       0.17647059 </v>
   <v>       0.17647059      -0.00000000       0.17647059 </v>
   <v>       0.23529412      -0.00000000       0.17647059 </v>
   <v>       0.29411765      -0.00000000       0.17647059 </v>
   <v>       0.35294118      -0.00000000       0.17647059 </v>
   <v>       0.41176471      -0.00000000       0.17647059 </v>
   <v>       0.47058824      -0.00000000       0.17647059 </v>
   <v>      -0.00000000       0.05882353       0.17647059 </v>
   <v>       0.05882353       0.05882353       0.17647059 </v>
   <v>       0.11764706       0.05882353       0.17647059 </v>
   <v>       0.17647059       0.05882353       0.17647059 </v>
   <v>       0.23529412       0.05882353       0.17647059 </v>
   <v>       0.29411765       0.05882353       0.17647059 </v>
   <v>       0.35294118       0.05882353       0.17647059 </v>
   <v>       0.41176471       0.05882353       0.17647059 </v>
   <v>       0.47058824       0.05882353       0.17647059 </v>
   <v>      -0.47058824       0.05882353       0.17647059 </v>
   <v>      -0.41176471       0.05882353       0.17647059 </v>
   <v>      -0.35294118       0.05882353       0.17647059 </v>
   <v>      -0.29411765       0.05882353       0.17647059 </v>
   <v>      -0.23529412       0.05882353       0.17647059 </v>
   <v>      -0.17647059       0.05882353       0.17647059 </v>
   <v>      -0.11764706       0.05882353       0.17647059 </v>
   <v>      -0.05882353       0.05882353       0.17647059 </v>
   <v>       0.00000000       0.11764706       0.17647059 </v>
   <v>       0.05882353       0.11764706       0.17647059 </v>
   <v>       0.11764706       0.11764706       0.17647059 </v>
   <v>       0.17647059       0.11764706       0.17647059 </v>
   <v>       0.23529412       0.11764706       0.17647059 </v>
   <v>       0.29411765       0.11764706       0.17647059 </v>
   <v>       0.35294118       0.11764706       0.17647059 </v>
   <v>       0.41176471       0.11764706       0.17647059 </v>
   <v>       0.47058824       0.11764706       0.17647059 </v>
   <v>      -0.47058824       0.11764706       0.17647059 </v>
   <v>      -0.41176471       0.11764706       0.17647059 </v>
   <v>      -0.35294118       0.11764706       0.17647059 </v>
   <v>      -0.29411765       0.11764706       0.17647059 </v>
   <v>      -0.23529412       0.11764706       0.17647059 </v>
   <v>      -0.17647059       0.11764706       0.17647059 </v>
   <v>      -0.11764706       0.11764706       0.17647059 </v>
   <v>      -0.05882353       0.11764706       0.17647059 </v>
   <v>      -0.00000000       0.17647059       0.17647059 </v>
   <v>       0.05882353       0.17647059       0.17647059 </v>
   <v>       0.11764706       0.17647059       0.17647059 </v>
   <v>       0.17647059       0.17647059       0.17647059 </v>
   <v>       0.23529412       0.17647059       0.17647059 </v>
   <v>       0.29411765       0.17647059       0.17647059 </v>
   <v>       0.35294118       0.17647059       0.17647059 </v>
   <v>       0.41176471       0.17647059       0.17647059 </v>
   <v>       0.47058824       0.17647059       0.17647059 </v>
   <v>      -0.47058824       0.17647059       0.17647059 </v>
   <v>      -0.41176471       0.17647059       0.17647059 </v>
   <v>      -0.35294118       0.17647059       0.17647059 </v>
   <v>      -0.29411765       0.17647059       0.17647059 </v>
   <v>      -0.23529412       0.17647059       0.17647059 </v>
   <v>      -0.17647059       0.17647059       0.17647059 </v>
   <v>      -0.11764706       0.17647059       0.17647059 </v>
   <v>      -0.05882353       0.17647059       0.17647059 </v>
   <v>       0.00000000       0.23529412       0.17647059 </v>
   <v>       0.05882353       0.23529412       0.17647059 </v>
   <v>       0.11764706       0.23529412       0.17647059 </v>
   <v>       0.17647059       0.23529412       0.17647059 </v>
   <v>       0.23529412       0.23529412       0.17647059 </v>
   <v>       0.29411765       0.23529412       0.17647059 </v>
   <v>       0.35294118       0.23529412       0.17647059 </v>
   <v>       0.41176471       0.23529412       0.17647059 </v>
   <v>       0.47058824       0.23529412       0.17647059 </v>
   <v>      -0.47058824       0.23529412       0.17647059 </v>
   <v>      -0.41176471       0.23529412       0.17647059 </v>
   <v>      -0.35294118       0.23529412       0.17647059 </v>
   <v>      -0.29411765       0.23529412       0.17647059 </v>
   <v>      -0.23529412       0.23529412       0.17647059 </v>
   <v>      -0.17647059       0.23529412       0.17647059 </v>
   <v>      -0.11764706       0.23529412       0.17647059 </v>
   <v>      -0.05882353       0.23529412       0.17647059 </v>
   <v>       0.00000000       0.29411765       0.17647059 </v>
   <v>       0.05882353       0.29411765       0.17647059 </v>
   <v>       0.11764706       0.29411765       0.17647059 </v>
   <v>       0.17647059       0.29411765       0.17647059 </v>
   <v>       0.23529412       0.29411765       0.17647059 </v>
   <v>       0.29411765       0.29411765       0.17647059 </v>
   <v>       0.35294118       0.29411765       0.17647059 </v>
   <v>       0.41176471       0.29411765       0.17647059 </v>
   <v>       0.47058824       0.29411765       0.17647059 </v>
   <v>      -0.47058824       0.29411765       0.17647059 </v>
   <v>      -0.41176471       0.29411765       0.17647059 </v>
   <v>      -0.35294118       0.29411765       0.17647059 </v>
   <v>      -0.29411765       0.29411765       0.17647059 </v>
   <v>      -0.23529412       0.29411765       0.17647059 </v>
   <v>      -0.17647059       0.29411765       0.17647059 </v>
   <v>      -0.11764706       0.29411765       0.17647059 </v>
   <v>      -0.05882353       0.29411765       0.17647059 </v>
   <v>      -0.00000000       0.35294118       0.17647059 </v>
   <v>       0.05882353       0.35294118       0.17647059 </v>
   <v>       0.11764706       0.35294118       0.17647059 </v>
   <v>       0.17647059       0.35294118       0.17647059 </v>
   <v>       0.23529412       0.35294118       0.17647059 </v>
   <v>       0.29411765       0.35294118       0.17647059 </v>
   <v>       0.35294118       0.35294118       0.17647059 </v>
   <v>       0.41176471       0.35294118       0.17647059 </v>
   <v>       0.47058824       0.35294118       0.17647059 </v>
   <v>      -0.47058824       0.35294118       0.17647059 </v>
   <v>      -0.41176471       0.35294118       0.17647059 </v>
   <v>      -0.35294118       0.35294118       0.17647059 </v>
   <v>      -0.29411765       0.35294118       0.17647059 </v>
   <v>      -0.23529412       0.35294118       0.17647059 </v>
   <v>      -0.17647059       0.35294118       0.17647059 </v>
   <v>      -0.11764706       0.35294118       0.17647059 </v>
   <v>      -0.05882353       0.35294118       0.17647059 </v>
   <v>      -0.00000000       0.41176471       0.17647059 </v>
   <v>       0.05882353       0.41176471       0.17647059 </v>
   <v>       0.11764706       0.41176471       0.17647059 </v>
   <v>       0.17647059       0.41176471       0.17647059 </v>
   <v>       0.23529412       0.41176471       0.17647059 </v>
   <v>       0.29411765       0.41176471       0.17647059 </v>
   <v>       0.35294118       0.41176471       0.17647059 </v>
   <v>       0.41176471       0.41176471       0.17647059 </v>
   <v>       0.47058824       0.41176471       0.17647059 </v>
   <v>      -0.47058824       0.41176471       0.17647059 </v>
   <v>      -0.41176471       0.41176471       0.17647059 </v>
   <v>      -0.35294118       0.41176471       0.17647059 </v>
   <v>      -0.29411765       0.41176471       0.17647059 </v>
   <v>      -0.23529412       0.41176471       0.17647059 </v>
   <v>      -0.17647059       0.41176471       0.17647059 </v>
   <v>      -0.11764706       0.41176471       0.17647059 </v>
   <v>      -0.05882353       0.41176471       0.17647059 </v>
   <v>       0.00000000       0.47058824       0.17647059 </v>
   <v>       0.05882353       0.47058824       0.17647059 </v>
   <v>       0.11764706       0.47058824       0.17647059 </v>
   <v>       0.17647059       0.47058824       0.17647059 </v>
   <v>       0.23529412       0.47058824       0.17647059 </v>
   <v>       0.29411765       0.47058824       0.17647059 </v>
   <v>       0.35294118       0.47058824       0.17647059 </v>
   <v>       0.41176471       0.47058824       0.17647059 </v>
   <v>       0.47058824       0.47058824       0.17647059 </v>
   <v>      -0.47058824       0.47058824       0.17647059 </v>
   <v>      -0.41176471       0.47058824       0.17647059 </v>
   <v>      -0.35294118       0.47058824       0.17647059 </v>
   <v>      -0.29411765       0.47058824       0.17647059 </v>
   <v>      -0.23529412       0.47058824       0.17647059 </v>
   <v>      -0.17647059       0.47058824       0.17647059 </v>
   <v>      -0.11764706       0.47058824       0.17647059 </v>
   <v>      -0.05882353       0.47058824       0.17647059 </v>
   <v>       0.00000000       0.00000000       0.23529412 </v>
   <v>       0.05882353      -0.00000000       0.23529412 </v>
   <v>       0.11764706      -0.00000000       0.23529412 </v>
   <v>       0.17647059      -0.00000000       0.23529412 </v>
   <v>       0.23529412      -0.00000000       0.23529412 </v>
   <v>       0.29411765      -0.00000000       0.23529412 </v>
   <v>       0.35294118      -0.00000000       0.23529412 </v>
   <v>       0.41176471      -0.00000000       0.23529412 </v>
   <v>       0.47058824      -0.00000000       0.23529412 </v>
   <v>      -0.00000000       0.05882353       0.23529412 </v>
   <v>       0.05882353       0.05882353       0.23529412 </v>
   <v>       0.11764706       0.05882353       0.23529412 </v>
   <v>       0.17647059       0.05882353       0.23529412 </v>
   <v>       0.23529412       0.05882353       0.23529412 </v>
   <v>       0.29411765       0.05882353       0.23529412 </v>
   <v>       0.35294118       0.05882353       0.23529412 </v>
   <v>       0.41176471       0.05882353       0.23529412 </v>
   <v>       0.47058824       0.05882353       0.23529412 </v>
   <v>      -0.47058824       0.05882353       0.23529412 </v>
   <v>      -0.41176471       0.05882353       0.23529412 </v>
   <v>      -0.35294118       0.05882353       0.23529412 </v>
   <v>      -0.29411765       0.05882353       0.23529412 </v>
   <v>      -0.23529412       0.05882353       0.23529412 </v>
   <v>      -0.17647059       0.05882353       0.23529412 </v>
   <v>      -0.11764706       0.05882353       0.23529412 </v>
   <v>      -0.05882353       0.05882353       0.23529412 </v>
   <v>       0.00000000       0.11764706       0.23529412 </v>
   <v>       0.05882353       0.11764706       0.23529412 </v>
   <v>       0.11764706       0.11764706       0.23529412 </v>
   <v>       0.17647059       0.11764706       0.23529412 </v>
   <v>       0.23529412       0.11764706       0.23529412 </v>
   <v>       0.29411765       0.11764706       0.23529412 </v>
   <v>       0.35294118       0.11764706       0.23529412 </v>
   <v>       0.41176471       0.11764706       0.23529412 </v>
   <v>       0.47058824       0.11764706       0.23529412 </v>
   <v>      -0.47058824       0.11764706       0.23529412 </v>
   <v>      -0.41176471       0.11764706       0.23529412 </v>
   <v>      -0.35294118       0.11764706       0.23529412 </v>
   <v>      -0.29411765       0.11764706       0.23529412 </v>
   <v>      -0.23529412       0.11764706       0.23529412 </v>
   <v>      -0.17647059       0.11764706       0.23529412 </v>
   <v>      -0.11764706       0.11764706       0.23529412 </v>
   <v>      -0.05882353       0.11764706       0.23529412 </v>
   <v>      -0.00000000       0.17647059       0.23529412 </v>
   <v>       0.05882353       0.17647059       0.23529412 </v>
   <v>       0.11764706       0.17647059       0.23529412 </v>
   <v>       0.17647059       0.17647059       0.23529412 </v>
   <v>       0.23529412       0.17647059       0.23529412 </v>
   <v>       0.29411765       0.17647059       0.23529412 </v>
   <v>       0.35294118       0.17647059       0.23529412 </v>
   <v>       0.41176471       0.17647059       0.23529412 </v>
   <v>       0.47058824       0.17647059       0.23529412 </v>
   <v>      -0.47058824       0.17647059       0.23529412 </v>
   <v>      -0.41176471       0.17647059       0.23529412 </v>
   <v>      -0.35294118       0.17647059       0.23529412 </v>
   <v>      -0.29411765       0.17647059       0.23529412 </v>
   <v>      -0.23529412       0.17647059       0.23529412 </v>
   <v>      -0.17647059       0.17647059       0.23529412 </v>
   <v>      -0.11764706       0.17647059       0.23529412 </v>
   <v>      -0.05882353       0.17647059       0.23529412 </v>
   <v>       0.00000000       0.23529412       0.23529412 </v>
   <v>       0.05882353       0.23529412       0.23529412 </v>
   <v>       0.11764706       0.23529412       0.23529412 </v>
   <v>       0.17647059       0.23529412       0.23529412 </v>
   <v>       0.23529412       0.23529412       0.23529412 </v>
   <v>       0.29411765       0.23529412       0.23529412 </v>
   <v>       0.35294118       0.23529412       0.23529412 </v>
   <v>       0.41176471       0.23529412       0.23529412 </v>
   <v>       0.47058824       0.23529412       0.23529412 </v>
   <v>      -0.47058824       0.23529412       0.23529412 </v>
   <v>      -0.41176471       0.23529412       0.23529412 </v>
   <v>      -0.35294118       0.23529412       0.23529412 </v>
   <v>      -0.29411765       0.23529412       0.23529412 </v>
   <v>      -0.23529412       0.23529412       0.23529412 </v>
   <v>      -0.17647059       0.23529412       0.23529412 </v>
   <v>      -0.11764706       0.23529412       0.23529412 </v>
   <v>      -0.05882353       0.23529412       0.23529412 </v>
   <v>       0.00000000       0.29411765       0.23529412 </v>
   <v>       0.05882353       0.29411765       0.23529412 </v>
   <v>       0.11764706       0.29411765       0.23529412 </v>
   <v>       0.17647059       0.29411765       0.23529412 </v>
   <v>       0.23529412       0.29411765       0.23529412 </v>
   <v>       0.29411765       0.29411765       0.23529412 </v>
   <v>       0.35294118       0.29411765       0.23529412 </v>
   <v>       0.41176471       0.29411765       0.23529412 </v>
   <v>       0.47058824       0.29411765       0.23529412 </v>
   <v>      -0.47058824       0.29411765       0.23529412 </v>
   <v>      -0.41176471       0.29411765       0.23529412 </v>
   <v>      -0.35294118       0.29411765       0.23529412 </v>
   <v>      -0.29411765       0.29411765       0.23529412 </v>
   <v>      -0.23529412       0.29411765       0.23529412 </v>
   <v>      -0.17647059       0.29411765       0.23529412 </v>
   <v>      -0.11764706       0.29411765       0.23529412 </v>
   <v>      -0.05882353       0.29411765       0.23529412 </v>
   <v>      -0.00000000       0.35294118       0.23529412 </v>
   <v>       0.05882353       0.35294118       0.23529412 </v>
   <v>       0.11764706       0.35294118       0.23529412 </v>
   <v>       0.17647059       0.35294118       0.23529412 </v>
   <v>       0.23529412       0.35294118       0.23529412 </v>
   <v>       0.29411765       0.35294118       0.23529412 </v>
   <v>       0.35294118       0.35294118       0.23529412 </v>
   <v>       0.41176471       0.35294118       0.23529412 </v>
   <v>       0.47058824       0.35294118       0.23529412 </v>
   <v>      -0.47058824       0.35294118       0.23529412 </v>
   <v>      -0.41176471       0.35294118       0.23529412 </v>
   <v>      -0.35294118       0.35294118       0.23529412 </v>
   <v>      -0.29411765       0.35294118       0.23529412 </v>
   <v>      -0.23529412       0.35294118       0.23529412 </v>
   <v>      -0.17647059       0.35294118       0.23529412 </v>
   <v>      -0.11764706       0.35294118       0.23529412 </v>
   <v>      -0.05882353       0.35294118       0.23529412 </v>
   <v>      -0.00000000       0.41176471       0.23529412 </v>
   <v>       0.05882353       0.41176471       0.23529412 </v>
   <v>       0.11764706       0.41176471       0.23529412 </v>
   <v>       0.17647059       0.41176471       0.23529412 </v>
   <v>       0.23529412       0.41176471       0.23529412 </v>
   <v>       0.29411765       0.41176471       0.23529412 </v>
   <v>       0.35294118       0.41176471       0.23529412 </v>
   <v>       0.41176471       0.41176471       0.23529412 </v>
   <v>       0.47058824       0.41176471       0.23529412 </v>
   <v>      -0.47058824       0.41176471       0.23529412 </v>
   <v>      -0.41176471       0.41176471       0.23529412 </v>
   <v>      -0.35294118       0.41176471       0.23529412 </v>
   <v>      -0.29411765       0.41176471       0.23529412 </v>
   <v>      -0.23529412       0.41176471       0.23529412 </v>
   <v>      -0.17647059       0.41176471       0.23529412 </v>
   <v>      -0.11764706       0.41176471       0.23529412 </v>
   <v>      -0.05882353       0.41176471       0.23529412 </v>
   <v>       0.00000000       0.47058824       0.23529412 </v>
   <v>       0.05882353       0.47058824       0.23529412 </v>
   <v>       0.11764706       0.47058824       0.23529412 </v>
   <v>       0.17647059       0.47058824       0.23529412 </v>
   <v>       0.23529412       0.47058824       0.23529412 </v>
   <v>       0.29411765       0.47058824       0.23529412 </v>
   <v>       0.35294118       0.47058824       0.23529412 </v>
   <v>       0.41176471       0.47058824       0.23529412 </v>
   <v>       0.47058824       0.47058824       0.23529412 </v>
   <v>      -0.47058824       0.47058824       0.23529412 </v>
   <v>      -0.41176471       0.47058824       0.23529412 </v>
   <v>      -0.35294118       0.47058824       0.23529412 </v>
   <v>      -0.29411765       0.47058824       0.23529412 </v>
   <v>      -0.23529412       0.47058824       0.23529412 </v>
   <v>      -0.17647059       0.47058824       0.23529412 </v>
   <v>      -0.11764706       0.47058824       0.23529412 </v>
   <v>      -0.05882353       0.47058824       0.23529412 </v>
   <v>       0.00000000       0.00000000       0.29411765 </v>
   <v>       0.05882353      -0.00000000       0.29411765 </v>
   <v>       0.11764706      -0.00000000       0.29411765 </v>
   <v>       0.17647059      -0.00000000       0.29411765 </v>
   <v>       0.23529412      -0.00000000       0.29411765 </v>
   <v>       0.29411765      -0.00000000       0.29411765 </v>
   <v>       0.35294118      -0.00000000       0.29411765 </v>
   <v>       0.41176471      -0.00000000       0.29411765 </v>
   <v>       0.47058824      -0.00000000       0.29411765 </v>
   <v>      -0.00000000       0.05882353       0.29411765 </v>
   <v>       0.05882353       0.05882353       0.29411765 </v>
   <v>       0.11764706       0.05882353       0.29411765 </v>
   <v>       0.17647059       0.05882353       0.29411765 </v>
   <v>       0.23529412       0.05882353       0.29411765 </v>
   <v>       0.29411765       0.05882353       0.29411765 </v>
   <v>       0.35294118       0.05882353       0.29411765 </v>
   <v>       0.41176471       0.05882353       0.29411765 </v>
   <v>       0.47058824       0.05882353       0.29411765 </v>
   <v>      -0.47058824       0.05882353       0.29411765 </v>
   <v>      -0.41176471       0.05882353       0.29411765 </v>
   <v>      -0.35294118       0.05882353       0.29411765 </v>
   <v>      -0.29411765       0.05882353       0.29411765 </v>
   <v>      -0.23529412       0.05882353       0.29411765 </v>
   <v>      -0.17647059       0.05882353       0.29411765 </v>
   <v>      -0.11764706       0.05882353       0.29411765 </v>
   <v>      -0.05882353       0.05882353       0.29411765 </v>
   <v>       0.00000000       0.11764706       0.29411765 </v>
   <v>       0.05882353       0.11764706       0.29411765 </v>
   <v>       0.11764706       0.11764706       0.29411765 </v>
   <v>       0.17647059       0.11764706       0.29411765 </v>
   <v>       0.23529412       0.11764706       0.29411765 </v>
   <v>       0.29411765       0.11764706       0.29411765 </v>
   <v>       0.35294118       0.11764706       0.29411765 </v>
   <v>       0.41176471       0.11764706       0.29411765 </v>
   <v>       0.47058824       0.11764706       0.29411765 </v>
   <v>      -0.47058824       0.11764706       0.29411765 </v>
   <v>      -0.41176471       0.11764706       0.29411765 </v>
   <v>      -0.35294118       0.11764706       0.29411765 </v>
   <v>      -0.29411765       0.11764706       0.29411765 </v>
   <v>      -0.23529412       0.11764706       0.29411765 </v>
   <v>      -0.17647059       0.11764706       0.29411765 </v>
   <v>      -0.11764706       0.11764706       0.29411765 </v>
   <v>      -0.05882353       0.11764706       0.29411765 </v>
   <v>      -0.00000000       0.17647059       0.29411765 </v>
   <v>       0.05882353       0.17647059       0.29411765 </v>
   <v>       0.11764706       0.17647059       0.29411765 </v>
   <v>       0.17647059       0.17647059       0.29411765 </v>
   <v>       0.23529412       0.17647059       0.29411765 </v>
   <v>       0.29411765       0.17647059       0.29411765 </v>
   <v>       0.35294118       0.17647059       0.29411765 </v>
   <v>       0.41176471       0.17647059       0.29411765 </v>
   <v>       0.47058824       0.17647059       0.29411765 </v>
   <v>      -0.47058824       0.17647059       0.29411765 </v>
   <v>      -0.41176471       0.17647059       0.29411765 </v>
   <v>      -0.35294118       0.17647059       0.29411765 </v>
   <v>      -0.29411765       0.17647059       0.29411765 </v>
   <v>      -0.23529412       0.17647059       0.29411765 </v>
   <v>      -0.17647059       0.17647059       0.29411765 </v>
   <v>      -0.11764706       0.17647059       0.29411765 </v>
   <v>      -0.05882353       0.17647059       0.29411765 </v>
   <v>       0.00000000       0.23529412       0.29411765 </v>
   <v>       0.05882353       0.23529412       0.29411765 </v>
   <v>       0.11764706       0.23529412       0.29411765 </v>
   <v>       0.17647059       0.23529412       0.29411765 </v>
   <v>       0.23529412       0.23529412       0.29411765 </v>
   <v>       0.29411765       0.23529412       0.29411765 </v>
   <v>       0.35294118       0.23529412       0.29411765 </v>
   <v>       0.41176471       0.23529412       0.29411765 </v>
   <v>       0.47058824       0.23529412       0.29411765 </v>
   <v>      -0.47058824       0.23529412       0.29411765 </v>
   <v>      -0.41176471       0.23529412       0.29411765 </v>
   <v>      -0.35294118       0.23529412       0.29411765 </v>
   <v>      -0.29411765       0.23529412       0.29411765 </v>
   <v>      -0.23529412       0.23529412       0.29411765 </v>
   <v>      -0.17647059       0.23529412       0.29411765 </v>
   <v>      -0.11764706       0.23529412       0.29411765 </v>
   <v>      -0.05882353       0.23529412       0.29411765 </v>
   <v>       0.00000000       0.29411765       0.29411765 </v>
   <v>       0.05882353       0.29411765       0.29411765 </v>
   <v>       0.11764706       0.29411765       0.29411765 </v>
   <v>       0.17647059       0.29411765       0.29411765 </v>
   <v>       0.23529412       0.29411765       0.29411765 </v>
   <v>       0.29411765       0.29411765       0.29411765 </v>
   <v>       0.35294118       0.29411765       0.29411765 </v>
   <v>       0.41176471       0.29411765       0.29411765 </v>
   <v>       0.47058824       0.29411765       0.29411765 </v>
   <v>      -0.47058824       0.29411765       0.29411765 </v>
   <v>      -0.41176471       0.29411765       0.29411765 </v>
   <v>      -0.35294118       0.29411765       0.29411765 </v>
   <v>      -0.29411765       0.29411765       0.29411765 </v>
   <v>      -0.23529412       0.29411765       0.29411765 </v>
   <v>      -0.17647059       0.29411765       0.29411765 </v>
   <v>      -0.11764706       0.29411765       0.29411765 </v>
   <v>      -0.05882353       0.29411765       0.29411765 </v>
   <v>      -0.00000000       0.35294118       0.29411765 </v>
   <v>       0.05882353       0.35294118       0.29411765 </v>
   <v>       0.11764706       0.35294118       0.29411765 </v>
   <v>       0.17647059       0.35294118       0.29411765 </v>
   <v>       0.23529412       0.35294118       0.29411765 </v>
   <v>       0.29411765       0.35294118       0.29411765 </v>
   <v>       0.35294118       0.35294118       0.29411765 </v>
   <v>       0.41176471       0.35294118       0.29411765 </v>
   <v>       0.47058824       0.35294118       0.29411765 </v>
   <v>      -0.47058824       0.35294118       0.29411765 </v>
   <v>      -0.41176471       0.35294118       0.29411765 </v>
   <v>      -0.35294118       0.35294118       0.29411765 </v>
   <v>      -0.29411765       0.35294118       0.29411765 </v>
   <v>      -0.23529412       0.35294118       0.29411765 </v>
   <v>      -0.17647059       0.35294118       0.29411765 </v>
   <v>      -0.11764706       0.35294118       0.29411765 </v>
   <v>      -0.05882353       0.35294118       0.29411765 </v>
   <v>      -0.00000000       0.41176471       0.29411765 </v>
   <v>       0.05882353       0.41176471       0.29411765 </v>
   <v>       0.11764706       0.41176471       0.29411765 </v>
   <v>       0.17647059       0.41176471       0.29411765 </v>
   <v>       0.23529412       0.41176471       0.29411765 </v>
   <v>       0.29411765       0.41176471       0.29411765 </v>
   <v>       0.35294118       0.41176471       0.29411765 </v>
   <v>       0.41176471       0.41176471       0.29411765 </v>
   <v>       0.47058824       0.41176471       0.29411765 </v>
   <v>      -0.47058824       0.41176471       0.29411765 </v>
   <v>      -0.41176471       0.41176471       0.29411765 </v>
   <v>      -0.35294118       0.41176471       0.29411765 </v>
   <v>      -0.29411765       0.41176471       0.29411765 </v>
   <v>      -0.23529412       0.41176471       0.29411765 </v>
   <v>      -0.17647059       0.41176471       0.29411765 </v>
   <v>      -0.11764706       0.41176471       0.29411765 </v>
   <v>      -0.05882353       0.41176471       0.29411765 </v>
   <v>       0.00000000       0.47058824       0.29411765 </v>
   <v>       0.05882353       0.47058824       0.29411765 </v>
   <v>       0.11764706       0.47058824       0.29411765 </v>
   <v>       0.17647059       0.47058824       0.29411765 </v>
   <v>       0.23529412       0.47058824       0.29411765 </v>
   <v>       0.29411765       0.47058824       0.29411765 </v>
   <v>       0.35294118       0.47058824       0.29411765 </v>
   <v>       0.41176471       0.47058824       0.29411765 </v>
   <v>       0.47058824       0.47058824       0.29411765 </v>
   <v>      -0.47058824       0.47058824       0.29411765 </v>
   <v>      -0.41176471       0.47058824       0.29411765 </v>
   <v>      -0.35294118       0.47058824       0.29411765 </v>
   <v>      -0.29411765       0.47058824       0.29411765 </v>
   <v>      -0.23529412       0.47058824       0.29411765 </v>
   <v>      -0.17647059       0.47058824       0.29411765 </v>
   <v>      -0.11764706       0.47058824       0.29411765 </v>
   <v>      -0.05882353       0.47058824       0.29411765 </v>
   <v>       0.00000000       0.00000000       0.35294118 </v>
   <v>       0.05882353      -0.00000000       0.35294118 </v>
   <v>       0.11764706      -0.00000000       0.35294118 </v>
   <v>       0.17647059      -0.00000000       0.35294118 </v>
   <v>       0.23529412      -0.00000000       0.35294118 </v>
   <v>       0.29411765      -0.00000000       0.35294118 </v>
   <v>       0.35294118      -0.00000000       0.35294118 </v>
   <v>       0.41176471      -0.00000000       0.35294118 </v>
   <v>       0.47058824      -0.00000000       0.35294118 </v>
   <v>      -0.00000000       0.05882353       0.35294118 </v>
   <v>       0.05882353       0.05882353       0.35294118 </v>
   <v>       0.11764706       0.05882353       0.35294118 </v>
   <v>       0.17647059       0.05882353       0.35294118 </v>
   <v>       0.23529412       0.05882353       0.35294118 </v>
   <v>       0.29411765       0.05882353       0.35294118 </v>
   <v>       0.35294118       0.05882353       0.35294118 </v>
   <v>       0.41176471       0.05882353       0.35294118 </v>
   <v>       0.47058824       0.05882353       0.35294118 </v>
   <v>      -0.47058824       0.05882353       0.35294118 </v>
   <v>      -0.41176471       0.05882353       0.35294118 </v>
   <v>      -0.35294118       0.05882353       0.35294118 </v>
   <v>      -0.29411765       0.05882353       0.35294118 </v>
   <v>      -0.23529412       0.05882353       0.35294118 </v>
   <v>      -0.17647059       0.05882353       0.35294118 </v>
   <v>      -0.11764706       0.05882353       0.35294118 </v>
   <v>      -0.05882353       0.05882353       0.35294118 </v>
   <v>       0.00000000       0.11764706       0.35294118 </v>
   <v>       0.05882353       0.11764706       0.35294118 </v>
   <v>       0.11764706       0.11764706       0.35294118 </v>
   <v>       0.17647059       0.11764706       0.35294118 </v>
   <v>       0.23529412       0.11764706       0.35294118 </v>
   <v>       0.29411765       0.11764706       0.35294118 </v>
   <v>       0.35294118       0.11764706       0.35294118 </v>
   <v>       0.41176471       0.11764706       0.35294118 </v>
   <v>       0.47058824       0.11764706       0.35294118 </v>
   <v>      -0.47058824       0.11764706       0.35294118 </v>
   <v>      -0.41176471       0.11764706       0.35294118 </v>
   <v>      -0.35294118       0.11764706       0.35294118 </v>
   <v>      -0.29411765       0.11764706       0.35294118 </v>
   <v>      -0.23529412       0.11764706       0.35294118 </v>
   <v>      -0.17647059       0.11764706       0.35294118 </v>
   <v>      -0.11764706       0.11764706       0.35294118 </v>
   <v>      -0.05882353       0.11764706       0.35294118 </v>
   <v>      -0.00000000       0.17647059       0.35294118 </v>
   <v>       0.05882353       0.17647059       0.35294118 </v>
   <v>       0.11764706       0.17647059       0.35294118 </v>
   <v>       0.17647059       0.17647059       0.35294118 </v>
   <v>       0.23529412       0.17647059       0.35294118 </v>
   <v>       0.29411765       0.17647059       0.35294118 </v>
   <v>       0.35294118       0.17647059       0.35294118 </v>
   <v>       0.41176471       0.17647059       0.35294118 </v>
   <v>       0.47058824       0.17647059       0.35294118 </v>
   <v>      -0.47058824       0.17647059       0.35294118 </v>
   <v>      -0.41176471       0.17647059       0.35294118 </v>
   <v>      -0.35294118       0.17647059       0.35294118 </v>
   <v>      -0.29411765       0.17647059       0.35294118 </v>
   <v>      -0.23529412       0.17647059       0.35294118 </v>
   <v>      -0.17647059       0.17647059       0.35294118 </v>
   <v>      -0.11764706       0.17647059       0.35294118 </v>
   <v>      -0.05882353       0.17647059       0.35294118 </v>
   <v>       0.00000000       0.23529412       0.35294118 </v>
   <v>       0.05882353       0.23529412       0.35294118 </v>
   <v>       0.11764706       0.23529412       0.35294118 </v>
   <v>       0.17647059       0.23529412       0.35294118 </v>
   <v>       0.23529412       0.23529412       0.35294118 </v>
   <v>       0.29411765       0.23529412       0.35294118 </v>
   <v>       0.35294118       0.23529412       0.35294118 </v>
   <v>       0.41176471       0.23529412       0.35294118 </v>
   <v>       0.47058824       0.23529412       0.35294118 </v>
   <v>      -0.47058824       0.23529412       0.35294118 </v>
   <v>      -0.41176471       0.23529412       0.35294118 </v>
   <v>      -0.35294118       0.23529412       0.35294118 </v>
   <v>      -0.29411765       0.23529412       0.35294118 </v>
   <v>      -0.23529412       0.23529412       0.35294118 </v>
   <v>      -0.17647059       0.23529412       0.35294118 </v>
   <v>      -0.11764706       0.23529412       0.35294118 </v>
   <v>      -0.05882353       0.23529412       0.35294118 </v>
   <v>       0.00000000       0.29411765       0.35294118 </v>
   <v>       0.05882353       0.29411765       0.35294118 </v>
   <v>       0.11764706       0.29411765       0.35294118 </v>
   <v>       0.17647059       0.29411765       0.35294118 </v>
   <v>       0.23529412       0.29411765       0.35294118 </v>
   <v>       0.29411765       0.29411765       0.35294118 </v>
   <v>       0.35294118       0.29411765       0.35294118 </v>
   <v>       0.41176471       0.29411765       0.35294118 </v>
   <v>       0.47058824       0.29411765       0.35294118 </v>
   <v>      -0.47058824       0.29411765       0.35294118 </v>
   <v>      -0.41176471       0.29411765       0.35294118 </v>
   <v>      -0.35294118       0.29411765       0.35294118 </v>
   <v>      -0.29411765       0.29411765       0.35294118 </v>
   <v>      -0.23529412       0.29411765       0.35294118 </v>
   <v>      -0.17647059       0.29411765       0.35294118 </v>
   <v>      -0.11764706       0.29411765       0.35294118 </v>
   <v>      -0.05882353       0.29411765       0.35294118 </v>
   <v>      -0.00000000       0.35294118       0.35294118 </v>
   <v>       0.05882353       0.35294118       0.35294118 </v>
   <v>       0.11764706       0.35294118       0.35294118 </v>
   <v>       0.17647059       0.35294118       0.35294118 </v>
   <v>       0.23529412       0.35294118       0.35294118 </v>
   <v>       0.29411765       0.35294118       0.35294118 </v>
   <v>       0.35294118       0.35294118       0.35294118 </v>
   <v>       0.41176471       0.35294118       0.35294118 </v>
   <v>       0.47058824       0.35294118       0.35294118 </v>
   <v>      -0.47058824       0.35294118       0.35294118 </v>
   <v>      -0.41176471       0.35294118       0.35294118 </v>
   <v>      -0.35294118       0.35294118       0.35294118 </v>
   <v>      -0.29411765       0.35294118       0.35294118 </v>
   <v>      -0.23529412       0.35294118       0.35294118 </v>
   <v>      -0.17647059       0.35294118       0.35294118 </v>
   <v>      -0.11764706       0.35294118       0.35294118 </v>
   <v>      -0.05882353       0.35294118       0.35294118 </v>
   <v>      -0.00000000       0.41176471       0.35294118 </v>
   <v>       0.05882353       0.41176471       0.35294118 </v>
   <v>       0.11764706       0.41176471       0.35294118 </v>
   <v>       0.17647059       0.41176471       0.35294118 </v>
   <v>       0.23529412       0.41176471       0.35294118 </v>
   <v>       0.29411765       0.41176471       0.35294118 </v>
   <v>       0.35294118       0.41176471       0.35294118 </v>
   <v>       0.41176471       0.41176471       0.35294118 </v>
   <v>       0.47058824       0.41176471       0.35294118 </v>
   <v>      -0.47058824       0.41176471       0.35294118 </v>
   <v>      -0.41176471       0.41176471       0.35294118 </v>
   <v>      -0.35294118       0.41176471       0.35294118 </v>
   <v>      -0.29411765       0.41176471       0.35294118 </v>
   <v>      -0.23529412       0.41176471       0.35294118 </v>
   <v>      -0.17647059       0.41176471       0.35294118 </v>
   <v>      -0.11764706       0.41176471       0.35294118 </v>
   <v>      -0.05882353       0.41176471       0.35294118 </v>
   <v>       0.00000000       0.47058824       0.35294118 </v>
   <v>       0.05882353       0.47058824       0.35294118 </v>
   <v>       0.11764706       0.47058824       0.35294118 </v>
   <v>       0.17647059       0.47058824       0.35294118 </v>
   <v>       0.23529412       0.47058824       0.35294118 </v>
   <v>       0.29411765       0.47058824       0.35294118 </v>
   <v>       0.35294118       0.47058824       0.35294118 </v>
   <v>       0.41176471       0.47058824       0.35294118 </v>
   <v>       0.47058824       0.47058824       0.35294118 </v>
   <v>      -0.47058824       0.47058824       0.35294118 </v>
   <v>      -0.41176471       0.47058824       0.35294118 </v>
   <v>      -0.35294118       0.47058824       0.35294118 </v>
   <v>      -0.29411765       0.47058824       0.35294118 </v>
   <v>      -0.23529412       0.47058824       0.35294118 </v>
   <v>      -0.17647059       0.47058824       0.35294118 </v>
   <v>      -0.11764706       0.47058824       0.35294118 </v>
   <v>      -0.05882353       0.47058824       0.35294118 </v>
   <v>       0.00000000       0.00000000       0.41176471 </v>
   <v>       0.05882353      -0.00000000       0.41176471 </v>
   <v>       0.11764706      -0.00000000       0.41176471 </v>
   <v>       0.17647059      -0.00000000       0.41176471 </v>
   <v>       0.23529412      -0.00000000       0.41176471 </v>
   <v>       0.29411765      -0.00000000       0.41176471 </v>
   <v>       0.35294118      -0.00000000       0.41176471 </v>
   <v>       0.41176471      -0.00000000       0.41176471 </v>
   <v>       0.47058824      -0.00000000       0.41176471 </v>
   <v>      -0.00000000       0.05882353       0.41176471 </v>
   <v>       0.05882353       0.05882353       0.41176471 </v>
   <v>       0.11764706       0.05882353       0.41176471 </v>
   <v>       0.17647059       0.05882353       0.41176471 </v>
   <v>       0.23529412       0.05882353       0.41176471 </v>
   <v>       0.29411765       0.05882353       0.41176471 </v>
   <v>       0.35294118       0.05882353       0.41176471 </v>
   <v>       0.41176471       0.05882353       0.41176471 </v>
   <v>       0.47058824       0.05882353       0.41176471 </v>
   <v>      -0.47058824       0.05882353       0.41176471 </v>
   <v>      -0.41176471       0.05882353       0.41176471 </v>
   <v>      -0.35294118       0.05882353       0.41176471 </v>
   <v>      -0.29411765       0.05882353       0.41176471 </v>
   <v>      -0.23529412       0.05882353       0.41176471 </v>
   <v>      -0.17647059       0.05882353       0.41176471 </v>
   <v>      -0.11764706       0.05882353       0.41176471 </v>
   <v>      -0.05882353       0.05882353       0.41176471 </v>
   <v>       0.00000000       0.11764706       0.41176471 </v>
   <v>       0.05882353       0.11764706       0.41176471 </v>
   <v>       0.11764706       0.11764706       0.41176471 </v>
   <v>       0.17647059       0.11764706       0.41176471 </v>
   <v>       0.23529412       0.11764706       0.41176471 </v>
   <v>       0.29411765       0.11764706       0.41176471 </v>
   <v>       0.35294118       0.11764706       0.41176471 </v>
   <v>       0.41176471       0.11764706       0.41176471 </v>
   <v>       0.47058824       0.11764706       0.41176471 </v>
   <v>      -0.47058824       0.11764706       0.41176471 </v>
   <v>      -0.41176471       0.11764706       0.41176471 </v>
   <v>      -0.35294118       0.11764706       0.41176471 </v>
   <v>      -0.29411765       0.11764706       0.41176471 </v>
   <v>      -0.23529412       0.11764706       0.41176471 </v>
   <v>      -0.17647059       0.11764706       0.41176471 </v>
   <v>      -0.11764706       0.11764706       0.41176471 </v>
   <v>      -0.05882353       0.11764706       0.41176471 </v>
   <v>      -0.00000000       0.17647059       0.41176471 </v>
   <v>       0.05882353       0.17647059       0.41176471 </v>
   <v>       0.11764706       0.17647059       0.41176471 </v>
   <v>       0.17647059       0.17647059       0.41176471 </v>
   <v>       0.23529412       0.17647059       0.41176471 </v>
   <v>       0.29411765       0.17647059       0.41176471 </v>
   <v>       0.35294118       0.17647059       0.41176471 </v>
   <v>       0.41176471       0.17647059       0.41176471 </v>
   <v>       0.47058824       0.17647059       0.41176471 </v>
   <v>      -0.47058824       0.17647059       0.41176471 </v>
   <v>      -0.41176471       0.17647059       0.41176471 </v>
   <v>      -0.35294118       0.17647059       0.41176471 </v>
   <v>      -0.29411765       0.17647059       0.41176471 </v>
   <v>      -0.23529412       0.17647059       0.41176471 </v>
   <v>      -0.17647059       0.17647059       0.41176471 </v>
   <v>      -0.11764706       0.17647059       0.41176471 </v>
   <v>      -0.05882353       0.17647059       0.41176471 </v>
   <v>       0.00000000       0.23529412       0.41176471 </v>
   <v>       0.05882353       0.23529412       0.41176471 </v>
   <v>       0.11764706       0.23529412       0.41176471 </v>
   <v>       0.17647059       0.23529412       0.41176471 </v>
   <v>       0.23529412       0.23529412       0.41176471 </v>
   <v>       0.29411765       0.23529412       0.41176471 </v>
   <v>       0.35294118       0.23529412       0.41176471 </v>
   <v>       0.41176471       0.23529412       0.41176471 </v>
   <v>       0.47058824       0.23529412       0.41176471 </v>
   <v>      -0.47058824       0.23529412       0.41176471 </v>
   <v>      -0.41176471       0.23529412       0.41176471 </v>
   <v>      -0.35294118       0.23529412       0.41176471 </v>
   <v>      -0.29411765       0.23529412       0.41176471 </v>
   <v>      -0.23529412       0.23529412       0.41176471 </v>
   <v>      -0.17647059       0.23529412       0.41176471 </v>
   <v>      -0.11764706       0.23529412       0.41176471 </v>
   <v>      -0.05882353       0.23529412       0.41176471 </v>
   <v>       0.00000000       0.29411765       0.41176471 </v>
   <v>       0.05882353       0.29411765       0.41176471 </v>
   <v>       0.11764706       0.29411765       0.41176471 </v>
   <v>       0.17647059       0.29411765       0.41176471 </v>
   <v>       0.23529412       0.29411765       0.41176471 </v>
   <v>       0.29411765       0.29411765       0.41176471 </v>
   <v>       0.35294118       0.29411765       0.41176471 </v>
   <v>       0.41176471       0.29411765       0.41176471 </v>
   <v>       0.47058824       0.29411765       0.41176471 </v>
   <v>      -0.47058824       0.29411765       0.41176471 </v>
   <v>      -0.41176471       0.29411765       0.41176471 </v>
   <v>      -0.35294118       0.29411765       0.41176471 </v>
   <v>      -0.29411765       0.29411765       0.41176471 </v>
   <v>      -0.23529412       0.29411765       0.41176471 </v>
   <v>      -0.17647059       0.29411765       0.41176471 </v>
   <v>      -0.11764706       0.29411765       0.41176471 </v>
   <v>      -0.05882353       0.29411765       0.41176471 </v>
   <v>      -0.00000000       0.35294118       0.41176471 </v>
   <v>       0.05882353       0.35294118       0.41176471 </v>
   <v>       0.11764706       0.35294118       0.41176471 </v>
   <v>       0.17647059       0.35294118       0.41176471 </v>
   <v>       0.23529412       0.35294118       0.41176471 </v>
   <v>       0.29411765       0.35294118       0.41176471 </v>
   <v>       0.35294118       0.35294118       0.41176471 </v>
   <v>       0.41176471       0.35294118       0.41176471 </v>
   <v>       0.47058824       0.35294118       0.41176471 </v>
   <v>      -0.47058824       0.35294118       0.41176471 </v>
   <v>      -0.41176471       0.35294118       0.41176471 </v>
   <v>      -0.35294118       0.35294118       0.41176471 </v>
   <v>      -0.29411765       0.35294118       0.41176471 </v>
   <v>      -0.23529412       0.35294118       0.41176471 </v>
   <v>      -0.17647059       0.35294118       0.41176471 </v>
   <v>      -0.11764706       0.35294118       0.41176471 </v>
   <v>      -0.05882353       0.35294118       0.41176471 </v>
   <v>      -0.00000000       0.41176471       0.41176471 </v>
   <v>       0.05882353       0.41176471       0.41176471 </v>
   <v>       0.11764706       0.41176471       0.41176471 </v>
   <v>       0.17647059       0.41176471       0.41176471 </v>
   <v>       0.23529412       0.41176471       0.41176471 </v>
   <v>       0.29411765       0.41176471       0.41176471 </v>
   <v>       0.35294118       0.41176471       0.41176471 </v>
   <v>       0.41176471       0.41176471       0.41176471 </v>
   <v>       0.47058824       0.41176471       0.41176471 </v>
   <v>      -0.47058824       0.41176471       0.41176471 </v>
   <v>      -0.41176471       0.41176471       0.41176471 </v>
   <v>      -0.35294118       0.41176471       0.41176471 </v>
   <v>      -0.29411765       0.41176471       0.41176471 </v>
   <v>      -0.23529412       0.41176471       0.41176471 </v>
   <v>      -0.17647059       0.41176471       0.41176471 </v>
   <v>      -0.11764706       0.41176471       0.41176471 </v>
   <v>      -0.05882353       0.41176471       0.41176471 </v>
   <v>       0.00000000       0.47058824       0.41176471 </v>
   <v>       0.05882353       0.47058824       0.41176471 </v>
   <v>       0.11764706       0.47058824       0.41176471 </v>
   <v>       0.17647059       0.47058824       0.41176471 </v>
   <v>       0.23529412       0.47058824       0.41176471 </v>
   <v>       0.29411765       0.47058824       0.41176471 </v>
   <v>       0.35294118       0.47058824       0.41176471 </v>
   <v>       0.41176471       0.47058824       0.41176471 </v>
   <v>       0.47058824       0.47058824       0.41176471 </v>
   <v>      -0.47058824       0.47058824       0.41176471 </v>
   <v>      -0.41176471       0.47058824       0.41176471 </v>
   <v>      -0.35294118       0.47058824       0.41176471 </v>
   <v>      -0.29411765       0.47058824       0.41176471 </v>
   <v>      -0.23529412       0.47058824       0.41176471 </v>
   <v>      -0.17647059       0.47058824       0.41176471 </v>
   <v>      -0.11764706       0.47058824       0.41176471 </v>
   <v>      -0.05882353       0.47058824       0.41176471 </v>
   <v>       0.00000000       0.00000000       0.47058824 </v>
   <v>       0.05882353      -0.00000000       0.47058824 </v>
   <v>       0.11764706      -0.00000000       0.47058824 </v>
   <v>       0.17647059      -0.00000000       0.47058824 </v>
   <v>       0.23529412      -0.00000000       0.47058824 </v>
   <v>       0.29411765      -0.00000000       0.47058824 </v>
   <v>       0.35294118      -0.00000000       0.47058824 </v>
   <v>       0.41176471      -0.00000000       0.47058824 </v>
   <v>       0.47058824      -0.00000000       0.47058824 </v>
   <v>      -0.00000000       0.05882353       0.47058824 </v>
   <v>       0.05882353       0.05882353       0.47058824 </v>
   <v>       0.11764706       0.05882353       0.47058824 </v>
   <v>       0.17647059       0.05882353       0.47058824 </v>
   <v>       0.23529412       0.05882353       0.47058824 </v>
   <v>       0.29411765       0.05882353       0.47058824 </v>
   <v>       0.35294118       0.05882353       0.47058824 </v>
   <v>       0.41176471       0.05882353       0.47058824 </v>
   <v>       0.47058824       0.05882353       0.47058824 </v>
   <v>      -0.47058824       0.05882353       0.47058824 </v>
   <v>      -0.41176471       0.05882353       0.47058824 </v>
   <v>      -0.35294118       0.05882353       0.47058824 </v>
   <v>      -0.29411765       0.05882353       0.47058824 </v>
   <v>      -0.23529412       0.05882353       0.47058824 </v>
   <v>      -0.17647059       0.05882353       0.47058824 </v>
   <v>      -0.11764706       0.05882353       0.47058824 </v>
   <v>      -0.05882353       0.05882353       0.47058824 </v>
   <v>       0.00000000       0.11764706       0.47058824 </v>
   <v>       0.05882353       0.11764706       0.47058824 </v>
   <v>       0.11764706       0.11764706       0.47058824 </v>
   <v>       0.17647059       0.11764706       0.47058824 </v>
   <v>       0.23529412       0.11764706       0.47058824 </v>
   <v>       0.29411765       0.11764706       0.47058824 </v>
   <v>       0.35294118       0.11764706       0.47058824 </v>
   <v>       0.41176471       0.11764706       0.47058824 </v>
   <v>       0.47058824       0.11764706       0.47058824 </v>
   <v>      -0.47058824       0.11764706       0.47058824 </v>
   <v>      -0.41176471       0.11764706       0.47058824 </v>
   <v>      -0.35294118       0.11764706       0.47058824 </v>
   <v>      -0.29411765       0.11764706       0.47058824 </v>
   <v>      -0.23529412       0.11764706       0.47058824 </v>
   <v>      -0.17647059       0.11764706       0.47058824 </v>
   <v>      -0.11764706       0.11764706       0.47058824 </v>
   <v>      -0.05882353       0.11764706       0.47058824 </v>
   <v>      -0.00000000       0.17647059       0.47058824 </v>
   <v>       0.05882353       0.17647059       0.47058824 </v>
   <v>       0.11764706       0.17647059       0.47058824 </v>
   <v>       0.17647059       0.17647059       0.47058824 </v>
   <v>       0.23529412       0.17647059       0.47058824 </v>
   <v>       0.29411765       0.17647059       0.47058824 </v>
   <v>       0.35294118       0.17647059       0.47058824 </v>
   <v>       0.41176471       0.17647059       0.47058824 </v>
   <v>       0.47058824       0.17647059       0.47058824 </v>
   <v>      -0.47058824       0.17647059       0.47058824 </v>
   <v>      -0.41176471       0.17647059       0.47058824 </v>
   <v>      -0.35294118       0.17647059       0.47058824 </v>
   <v>      -0.29411765       0.17647059       0.47058824 </v>
   <v>      -0.23529412       0.17647059       0.47058824 </v>
   <v>      -0.17647059       0.17647059       0.47058824 </v>
   <v>      -0.11764706       0.17647059       0.47058824 </v>
   <v>      -0.05882353       0.17647059       0.47058824 </v>
   <v>       0.00000000       0.23529412       0.47058824 </v>
   <v>       0.05882353       0.23529412       0.47058824 </v>
   <v>       0.11764706       0.23529412       0.47058824 </v>
   <v>       0.17647059       0.23529412       0.47058824 </v>
   <v>       0.23529412       0.23529412       0.47058824 </v>
   <v>       0.29411765       0.23529412       0.47058824 </v>
   <v>       0.35294118       0.23529412       0.47058824 </v>
   <v>       0.41176471       0.23529412       0.47058824 </v>
[...]
       <r>   -6.8603    1.0000 </r>
       <r>   -6.5097    1.0000 </r>
       <r>   -2.2650    1.0000 </r>
       <r>   -1.8382    1.0000 </r>
       <r>   -1.7506    1.0000 </r>
       <r>   -1.2920    1.0000 </r>
       <r>    4.3494    1.0000 </r>
       <r>    4.5287    1.0000 </r>
       <r>    4.6719    1.0000 </r>
       <r>    4.8971    1.0000 </r>
       <r>    6.5338    1.0000 </r>
       <r>    6.6086    1.0000 </r>
       <r>    6.7068    1.0000 </r>
       <r>    6.8967    1.0000 </r>
       <r>   17.5278    0.0000 </r>
       <r>   17.7642    0.0000 </r>
       <r>   17.8293    0.0000 </r>
       <r>   17.8330    0.0000 </r>
       <r>   18.2636    0.0000 </r>
       <r>   18.2909    0.0000 </r>
       <r>   18.3226    0.0000 </r>
       <r>   18.8765    0.0000 </r>
      </set>
      <set comment="kpoint 1303">
       <r>   -7.5342    1.0000 </r>
       <r>   -7.1110    1.0000 </r>
       <r>   -7.0456    1.0000 </r>
       <r>   -6.6472    1.0000 </r>
       <r>   -1.6024    1.0000 </r>
       <r>   -1.1564    1.0000 </r>
       <r>   -1.0523    1.0000 </r>
       <r>   -0.5860    1.0000 </r>
       <r>    3.5567    1.0000 </r>
       <r>    3.7732    1.0000 </r>
       <r>    3.9192    1.0000 </r>
       <r>    4.1736    1.0000 </r>
       <r>    6.4605    1.0000 </r>
       <r>    6.5838    1.0000 </r>
       <r>    6.6601    1.0000 </r>
       <r>    6.9080    1.0000 </r>
       <r>   17.4204    0.0000 </r>
       <r>   17.7037    0.0000 </r>
       <r>   17.7479    0.0000 </r>
       <r>   17.7997    0.0000 </r>
       <r>   18.4816    0.0000 </r>
       <r>   18.5467    0.0000 </r>
       <r>   18.5947    0.0000 </r>
       <r>   19.2549    0.0000 </r>
      </set>
      <set comment="kpoint 1304">
       <r>   -7.6800    1.0000 </r>
       <r>   -7.2275    1.0000 </r>
       <r>   -7.1848    1.0000 </r>
       <r>   -6.7504    1.0000 </r>
       <r>   -0.8904    1.0000 </r>
       <r>   -0.4358    1.0000 </r>
       <r>   -0.3209    1.0000 </r>
       <r>    0.1483    1.0000 </r>
       <r>    2.7417    1.0000 </r>
       <r>    2.9902    1.0000 </r>
       <r>    3.1331    1.0000 </r>
       <r>    3.4116    1.0000 </r>
       <r>    6.4010    1.0000 </r>
       <r>    6.5661    1.0000 </r>
       <r>    6.6184    1.0000 </r>
       <r>    6.9173    1.0000 </r>
       <r>   17.3334    0.0000 </r>
       <r>   17.6488    0.0000 </r>
       <r>   17.6768    0.0000 </r>
       <r>   17.7633    0.0000 </r>
       <r>   18.6538    0.0000 </r>
       <r>   18.8170    0.0000 </r>
       <r>   18.8523    0.0000 </r>
       <r>   19.5092    0.0000 </r>
      </set>
      <set comment="kpoint 1305">
       <r>   -7.7720    1.0000 </r>
       <r>   -7.2947    1.0000 </r>
       <r>   -7.2736    1.0000 </r>
       <r>   -6.8104    1.0000 </r>
       <r>   -0.1759    1.0000 </r>
       <r>    0.2821    1.0000 </r>
       <r>    0.3917    1.0000 </r>
       <r>    0.8631    1.0000 </r>
       <r>    1.9585    1.0000 </r>
       <r>    2.2447    1.0000 </r>
       <r>    2.3683    1.0000 </r>
       <r>    2.6759    1.0000 </r>
       <r>    6.3589    1.0000 </r>
       <r>    6.5586    1.0000 </r>
       <r>    6.5858    1.0000 </r>
       <r>    6.9273    1.0000 </r>
       <r>   17.2753    0.0000 </r>
       <r>   17.6137    0.0000 </r>
       <r>   17.6267    0.0000 </r>
       <r>   17.7395    0.0000 </r>
       <r>   18.7752    0.0000 </r>
       <r>   19.0246    0.0000 </r>
       <r>   19.0474    0.0000 </r>
       <r>   19.6889    0.0000 </r>
      </set>
     </set>
    </set>
   </array>
  </eigenvalues>
  <separator name="orbital magnetization" >
   <v name="MAGDIPOLOUT">      0.00000000      0.00000000      0.00000000</v>
  </separator>
  <dos>
   <i name="efermi">      9.60645120 </i>
   <total>
    <array>
     <dimension dim="1">gridpoints</dimension>
     <dimension dim="2">spin</dimension>
     <field>energy</field>
     <field>total</field>
     <field>integrated</field>
     <set>
      <set comment="spin 1">
       <r>   -13.7678     0.0000     0.0000 </r>
       <r>   -13.6442     0.0000     0.0000 </r>
       <r>   -13.5206     0.0000     0.0000 </r>
       <r>   -13.3970     0.0000     0.0000 </r>
       <r>   -13.2734     0.0000     0.0000 </r>
       <r>   -13.1498     0.0000     0.0000 </r>
       <r>   -13.0262     0.0000     0.0000 </r>
       <r>   -12.9026     0.0000     0.0000 </r>
       <r>   -12.7791     0.0000     0.0000 </r>
       <r>   -12.6555     0.0000     0.0000 </r>
       <r>   -12.5319     0.0000     0.0000 </r>
       <r>   -12.4083     0.0000     0.0000 </r>
       <r>   -12.2847     0.0000     0.0000 </r>
       <r>   -12.1611     0.0000     0.0000 </r>
       <r>   -12.0375     0.0000     0.0000 </r>
       <r>   -11.9139     0.0000     0.0000 </r>
       <r>   -11.7903     0.0000     0.0000 </r>
       <r>   -11.6667     0.1542     0.0075 </r>
       <r>   -11.5431     0.2066     0.0291 </r>
       <r>   -11.4195     0.2636     0.0586 </r>
       <r>   -11.2960     0.3106     0.0940 </r>
       <r>   -11.1724     0.3495     0.1351 </r>
       <r>   -11.0488     0.3861     0.1804 </r>
       <r>   -10.9252     0.4208     0.2305 </r>
       <r>   -10.8016     0.4495     0.2843 </r>
       <r>   -10.6780     0.4811     0.3418 </r>
       <r>   -10.5544     0.5090     0.4031 </r>
       <r>   -10.4308     0.5335     0.4675 </r>
       <r>   -10.3072     0.5608     0.5351 </r>
       <r>   -10.1836     0.5870     0.6061 </r>
       <r>   -10.0600     0.6084     0.6799 </r>
       <r>    -9.9364     0.6318     0.7566 </r>
       <r>    -9.8129     0.6565     0.8362 </r>
       <r>    -9.6893     0.7852     0.9260 </r>
       <r>    -9.5657     0.7435     1.0187 </r>
       <r>    -9.4421     0.6906     1.1069 </r>
       <r>    -9.3185     0.6590     1.1902 </r>
       <r>    -9.1949     0.7835     1.2747 </r>
       <r>    -9.0713     0.8110     1.3705 </r>
       <r>    -8.9477     0.8085     1.4686 </r>
       <r>    -8.8241     0.8232     1.5688 </r>
       <r>    -8.7005     0.8460     1.6722 </r>
       <r>    -8.5769     0.8637     1.7778 </r>
       <r>    -8.4534     0.8845     1.8859 </r>
       <r>    -8.3298     0.9042     1.9964 </r>
       <r>    -8.2062     0.9246     2.1094 </r>
       <r>    -8.0826     0.9448     2.2249 </r>
       <r>    -7.9590     0.9669     2.3430 </r>
       <r>    -7.8354     1.0181     2.4654 </r>
       <r>    -7.7118     1.0266     2.5913 </r>
       <r>    -7.5882     1.0473     2.7189 </r>
       <r>    -7.4646     1.0696     2.8499 </r>
       <r>    -7.3410     1.1291     2.9841 </r>
       <r>    -7.2174     1.1310     3.1234 </r>
       <r>    -7.0938     1.0805     3.2584 </r>
       <r>    -6.9703     1.0822     3.3916 </r>
       <r>    -6.8467     1.1713     3.5305 </r>
       <r>    -6.7231     1.2283     3.6797 </r>
       <r>    -6.5995     1.2315     3.8309 </r>
       <r>    -6.4759     1.2680     3.9849 </r>
       <r>    -6.3523     1.3323     4.1453 </r>
       <r>    -6.2287     1.4311     4.3155 </r>
       <r>    -6.1051     1.5534     4.5051 </r>
       <r>    -5.9815     1.6229     4.6966 </r>
       <r>    -5.8579     1.5133     4.8896 </r>
       <r>    -5.7343     1.5098     5.0754 </r>
       <r>    -5.6107     1.4548     5.2596 </r>
       <r>    -5.4872     1.4078     5.4366 </r>
       <r>    -5.3636     1.4098     5.6089 </r>
       <r>    -5.2400     1.3395     5.7789 </r>
       <r>    -5.1164     1.2922     5.9411 </r>
       <r>    -4.9928     1.2600     6.0984 </r>
       <r>    -4.8692     1.2259     6.2515 </r>
       <r>    -4.7456     1.2380     6.4033 </r>
       <r>    -4.6220     1.1498     6.5499 </r>
       <r>    -4.4984     1.1047     6.6892 </r>
       <r>    -4.3748     1.0627     6.8233 </r>
       <r>    -4.2512     1.0256     6.9521 </r>
       <r>    -4.1277     0.9959     7.0771 </r>
       <r>    -4.0041     0.9766     7.1987 </r>
       <r>    -3.8805     0.9327     7.3162 </r>
       <r>    -3.7569     0.8854     7.4280 </r>
       <r>    -3.6333     0.9749     7.5390 </r>
       <r>    -3.5097     1.0379     7.6617 </r>
       <r>    -3.3861     1.0848     7.7955 </r>
       <r>    -3.2625     1.0576     7.9264 </r>
       <r>    -3.1389     1.0242     8.0546 </r>
       <r>    -3.0153     0.9312     8.1774 </r>
       <r>    -2.8917     0.9470     8.2925 </r>
       <r>    -2.7681     0.9901     8.4114 </r>
       <r>    -2.6446     1.0031     8.5336 </r>
       <r>    -2.5210     1.1384     8.6650 </r>
       <r>    -2.3974     1.3334     8.8179 </r>
       <r>    -2.2738     1.5581     8.9962 </r>
       <r>    -2.1502     1.9648     9.2091 </r>
       <r>    -2.0266     2.3993     9.4765 </r>
       <r>    -1.9030     2.8500     9.8020 </r>
       <r>    -1.7794     2.5401    10.1375 </r>
       <r>    -1.6558     2.1537    10.4273 </r>
       <r>    -1.5322     1.9083    10.6765 </r>
       <r>    -1.4086     1.7699    10.9031 </r>
       <r>    -1.2850     1.6838    11.1161 </r>
       <r>    -1.1615     1.6005    11.3195 </r>
       <r>    -1.0379     1.4586    11.5066 </r>
       <r>    -0.9143     1.3770    11.6806 </r>
       <r>    -0.7907     1.3291    11.8476 </r>
       <r>    -0.6671     1.2844    12.0092 </r>
       <r>    -0.5435     1.2254    12.1643 </r>
       <r>    -0.4199     1.1768    12.3128 </r>
       <r>    -0.2963     1.1476    12.4570 </r>
       <r>    -0.1727     1.0900    12.5954 </r>
       <r>    -0.0491     1.0537    12.7274 </r>
       <r>     0.0745     1.0535    12.8569 </r>
       <r>     0.1981     1.0675    12.9887 </r>
       <r>     0.3216     1.1815    13.1249 </r>
       <r>     0.4452     1.5050    13.2916 </r>
       <r>     0.5688     1.6458    13.4892 </r>
       <r>     0.6924     1.7096    13.6964 </r>
       <r>     0.8160     1.8926    13.9192 </r>
       <r>     0.9396     2.2189    14.1696 </r>
       <r>     1.0632     2.2397    14.4435 </r>
       <r>     1.1868     2.2903    14.7222 </r>
       <r>     1.3104     2.3963    15.0136 </r>
       <r>     1.4340     2.2654    15.3110 </r>
       <r>     1.5576     1.6762    15.5543 </r>
       <r>     1.6811     1.4132    15.7347 </r>
       <r>     1.8047     1.8559    15.9299 </r>
       <r>     1.9283     2.3149    16.1832 </r>
       <r>     2.0519     2.3644    16.4778 </r>
       <r>     2.1755     2.2338    16.7610 </r>
       <r>     2.2991     2.2685    17.0369 </r>
       <r>     2.4227     2.3859    17.3257 </r>
       <r>     2.5463     2.3458    17.6185 </r>
       <r>     2.6699     2.4044    17.9098 </r>
       <r>     2.7935     2.5600    18.2160 </r>
       <r>     2.9171     2.8073    18.5476 </r>
       <r>     3.0407     2.8538    18.9045 </r>
       <r>     3.1642     2.9211    19.2512 </r>
       <r>     3.2878     2.9684    19.6037 </r>
       <r>     3.4114     3.0087    19.9722 </r>
       <r>     3.5350     3.2025    20.3512 </r>
       <r>     3.6586     3.4182    20.7644 </r>
       <r>     3.7822     3.1373    21.1656 </r>
       <r>     3.9058     3.2091    21.5563 </r>
       <r>     4.0294     3.1076    21.9497 </r>
       <r>     4.1530     3.0596    22.3195 </r>
       <r>     4.2766     3.1698    22.7103 </r>
       <r>     4.4002     2.8693    23.0858 </r>
       <r>     4.5238     2.7840    23.4304 </r>
       <r>     4.6473     2.7801    23.7744 </r>
       <r>     4.7709     2.9851    24.1267 </r>
       <r>     4.8945     3.0946    24.5066 </r>
       <r>     5.0181     2.9710    24.8798 </r>
       <r>     5.1417     2.9643    25.2466 </r>
       <r>     5.2653     2.8296    25.6067 </r>
       <r>     5.3889     2.7719    25.9492 </r>
       <r>     5.5125     2.6491    26.2787 </r>
       <r>     5.6361     2.6848    26.6053 </r>
       <r>     5.7597     2.7077    26.9366 </r>
       <r>     5.8833     2.8045    27.2775 </r>
       <r>     6.0068     2.7737    27.6218 </r>
       <r>     6.1304     2.7138    27.9589 </r>
       <r>     6.2540     2.6095    28.2875 </r>
       <r>     6.3776     2.8700    28.6144 </r>
       <r>     6.5012     2.5770    28.9588 </r>
       <r>     6.6248     2.2943    29.2231 </r>
       <r>     6.7484     2.0413    29.4613 </r>
       <r>     6.8720     2.0625    29.7055 </r>
       <r>     6.9956     2.1574    29.9671 </r>
       <r>     7.1192     1.7596    30.1956 </r>
       <r>     7.2428     1.5540    30.4008 </r>
       <r>     7.3664     1.3468    30.5744 </r>
       <r>     7.4899     1.2430    30.7341 </r>
       <r>     7.6135     1.1560    30.8822 </r>
       <r>     7.7371     1.0665    31.0192 </r>
       <r>     7.8607     0.9824    31.1460 </r>
       <r>     7.9843     0.9080    31.2628 </r>
       <r>     8.1079     0.8353    31.3705 </r>
       <r>     8.2315     0.7671    31.4693 </r>
       <r>     8.3551     0.7014    31.5601 </r>
       <r>     8.4787     0.6323    31.6428 </r>
       <r>     8.6023     0.5676    31.7168 </r>
       <r>     8.7259     0.5116    31.7829 </r>
       <r>     8.8495     0.4410    31.8426 </r>
       <r>     8.9730     0.3773    31.8926 </r>
       <r>     9.0966     0.3001    31.9355 </r>
       <r>     9.2202     0.2204    31.9674 </r>
       <r>     9.3438     0.1366    31.9896 </r>
       <r>     9.4674     0.0273    31.9996 </r>
       <r>     9.5910     0.0000    32.0000 </r>
       <r>     9.7146     0.0000    32.0000 </r>
       <r>     9.8382     0.0000    32.0000 </r>
       <r>     9.9618     0.0000    32.0000 </r>
       <r>    10.0854     0.0000    32.0000 </r>
       <r>    10.2090     0.0000    32.0000 </r>
       <r>    10.3326     0.0000    32.0000 </r>
       <r>    10.4561     0.0000    32.0000 </r>
       <r>    10.5797     0.0000    32.0000 </r>
       <r>    10.7033     0.0000    32.0000 </r>
       <r>    10.8269     0.0000    32.0000 </r>
       <r>    10.9505     0.0000    32.0000 </r>
       <r>    11.0741     0.0000    32.0000 </r>
       <r>    11.1977     0.0000    32.0000 </r>
       <r>    11.3213     0.0000    32.0000 </r>
       <r>    11.4449     0.0000    32.0000 </r>
       <r>    11.5685     0.0000    32.0000 </r>
       <r>    11.6921     0.0000    32.0000 </r>
       <r>    11.8156     0.0000    32.0000 </r>
       <r>    11.9392     0.0000    32.0000 </r>
       <r>    12.0628     0.0000    32.0000 </r>
       <r>    12.1864     0.0000    32.0000 </r>
       <r>    12.3100     0.0000    32.0000 </r>
       <r>    12.4336     0.0000    32.0000 </r>
       <r>    12.5572     0.0000    32.0000 </r>
       <r>    12.6808     0.0000    32.0000 </r>
       <r>    12.8044     0.0000    32.0000 </r>
       <r>    12.9280     0.0000    32.0000 </r>
       <r>    13.0516     0.0000    32.0000 </r>
       <r>    13.1752     0.0000    32.0000 </r>
       <r>    13.2987     0.0000    32.0000 </r>
       <r>    13.4223     0.0049    32.0000 </r>
       <r>    13.5459     0.1553    32.0081 </r>
       <r>    13.6695     0.2463    32.0343 </r>
       <r>    13.7931     0.3798    32.0716 </r>
       <r>    13.9167     0.5014    32.1241 </r>
       <r>    14.0403     0.6322    32.1974 </r>
       <r>    14.1639     0.7139    32.2796 </r>
       <r>    14.2875     0.8494    32.3755 </r>
       <r>    14.4111     0.9665    32.4877 </r>
       <r>    14.5347     1.1575    32.6180 </r>
       <r>    14.6583     1.3224    32.7729 </r>
       <r>    14.7818     1.3978    32.9421 </r>
       <r>    14.9054     1.5397    33.1239 </r>
       <r>    15.0290     1.6826    33.3232 </r>
       <r>    15.1526     1.7190    33.5323 </r>
       <r>    15.2762     1.8016    33.7500 </r>
       <r>    15.3998     1.9297    33.9801 </r>
       <r>    15.5234     1.9952    34.2238 </r>
       <r>    15.6470     2.0002    34.4695 </r>
       <r>    15.7706     2.0388    34.7208 </r>
       <r>    15.8942     2.1691    34.9785 </r>
       <r>    16.0178     2.2799    35.2513 </r>
       <r>    16.1413     2.4183    35.5437 </r>
       <r>    16.2649     2.4316    35.8429 </r>
       <r>    16.3885     2.4998    36.1465 </r>
       <r>    16.5121     2.5935    36.4626 </r>
       <r>    16.6357     2.7752    36.7941 </r>
       <r>    16.7593     2.9768    37.1492 </r>
       <r>    16.8829     3.0018    37.5155 </r>
       <r>    17.0065     3.0690    37.8879 </r>
       <r>    17.1301     3.4330    38.2855 </r>
       <r>    17.2537     3.8571    38.7252 </r>
       <r>    17.3773     4.2690    39.2330 </r>
       <r>    17.5009     4.3711    39.7738 </r>
       <r>    17.6244     4.4462    40.2879 </r>
       <r>    17.7480     4.1364    40.8042 </r>
       <r>    17.8716     4.0497    41.2821 </r>
       <r>    17.9952     3.5178    41.7276 </r>
       <r>    18.1188     3.6223    42.1610 </r>
       <r>    18.2424     3.9012    42.6232 </r>
       <r>    18.3660     3.6371    43.0844 </r>
       <r>    18.4896     3.4037    43.5176 </r>
       <r>    18.6132     3.1515    43.9203 </r>
       <r>    18.7368     3.0717    44.3022 </r>
       <r>    18.8604     2.8641    44.6694 </r>
       <r>    18.9840     2.7292    45.0140 </r>
       <r>    19.1075     2.7440    45.3485 </r>
       <r>    19.2311     2.7470    45.6866 </r>
       <r>    19.3547     2.7200    46.0219 </r>
       <r>    19.4783     2.5863    46.3504 </r>
       <r>    19.6019     2.3744    46.6564 </r>
       <r>    19.7255     2.0441    46.9259 </r>
       <r>    19.8491     1.9115    47.1653 </r>
       <r>    19.9727     1.7517    47.3867 </r>
       <r>    20.0963     1.3776    47.5816 </r>
       <r>    20.2199     1.0221    47.7289 </r>
       <r>    20.3435     0.6511    47.8350 </r>
       <r>    20.4671     0.4498    47.9011 </r>
       <r>    20.5906     0.2779    47.9462 </r>
       <r>    20.7142     0.1460    47.9700 </r>
       <r>    20.8378     0.0909    47.9846 </r>
       <r>    20.9614     0.0510    47.9933 </r>
       <r>    21.0850     0.0230    47.9975 </r>
       <r>    21.2086     0.0100    47.9996 </r>
       <r>    21.3322     0.0000    48.0000 </r>
       <r>    21.4558     0.0000    48.0000 </r>
       <r>    21.5794     0.0000    48.0000 </r>
       <r>    21.7030     0.0000    48.0000 </r>
       <r>    21.8266     0.0000    48.0000 </r>
       <r>    21.9501     0.0000    48.0000 </r>
       <r>    22.0737     0.0000    48.0000 </r>
       <r>    22.1973     0.0000    48.0000 </r>
       <r>    22.3209     0.0000    48.0000 </r>
       <r>    22.4445     0.0000    48.0000 </r>
       <r>    22.5681     0.0000    48.0000 </r>
       <r>    22.6917     0.0000    48.0000 </r>
       <r>    22.8153     0.0000    48.0000 </r>
       <r>    22.9389     0.0000    48.0000 </r>
       <r>    23.0625     0.0000    48.0000 </r>
       <r>    23.1861     0.0000    48.0000 </r>
       <r>    23.3097     0.0000    48.0000 </r>
      </set>
     </set>
    </array>
   </total>
  </dos>
 </calculation>
 <structure name="finalpos" >
  <crystal>
   <varray name="basis" >
    <v>       3.62615801       0.02679400       0.00000000 </v>
    <v>       0.02679400       3.57257001       0.00000000 </v>
    <v>       0.00000000       0.00000000       3.57257001 </v>
   </varray>
   <i name="volume">     46.27901994 </i>
   <varray name="rec_basis" >
    <v>       0.27578926      -0.00206840       0.00000000 </v>
    <v>      -0.00206840       0.27992605       0.00000000 </v>
    <v>       0.00000000       0.00000000       0.27991054 </v>
   </varray>
  </crystal>
  <varray name="positions" >
   <v>       0.00000000       0.00000000       0.50000000 </v>
   <v>       0.25000000       0.25000000       0.75000000 </v>
   <v>       0.00000000       0.50000000       0.00000000 </v>
   <v>       0.25000000       0.75000000       0.25000000 </v>
   <v>       0.50000000       0.00000000       0.00000000 </v>
   <v>       0.75000000       0.25000000       0.25000000 </v>
   <v>       0.50000000       0.50000000       0.50000000 </v>
   <v>       0.75000000       0.75000000       0.75000000 </v>
  </varray>
 </structure>
</modeling>
