  64  64   0   0
  0.1833879E+02  0.1047811E-08  0.1058395E-08  0.1058381E-08  0.5000000E-15
  1.000000000000000E-004
  CAR 
 Si64                                    
     12.22046663     -7.90271530  301      6.89799652      1.00000000
     -7.903  0.0000E+00  0.0000E+00
     -7.836  0.0000E+00  0.0000E+00
     -7.769  0.0000E+00  0.0000E+00
     -7.701  0.0000E+00  0.0000E+00
     -7.634  0.0000E+00  0.0000E+00
     -7.567 -0.1199E-30 -0.8042E-32
     -7.500 -0.2721E-28 -0.1834E-29
     -7.433 -0.4940E-26 -0.3332E-27
     -7.366 -0.7146E-24 -0.4826E-25
     -7.299 -0.8233E-22 -0.5571E-23
     -7.232 -0.7554E-20 -0.5122E-21
     -7.165 -0.5517E-18 -0.3752E-19
     -7.098 -0.3206E-16 -0.2188E-17
     -7.031 -0.1434E-14 -0.9835E-16
     -6.964 -0.5253E-13 -0.3622E-14
     -6.897 -0.1525E-11 -0.1059E-12
     -6.829 -0.3507E-10 -0.2458E-11
     -6.762 -0.6381E-09 -0.4526E-10
     -6.695 -0.9166E-08 -0.6601E-09
     -6.628 -0.1036E-06 -0.7611E-08
     -6.561 -0.9182E-06 -0.6920E-07
     -6.494 -0.6337E-05 -0.4943E-06
     -6.427 -0.3374E-04 -0.2758E-05
     -6.360 -0.1364E-03 -0.1190E-04
     -6.293 -0.4056E-03 -0.3911E-04
     -6.226 -0.8266E-03 -0.9455E-04
     -6.159 -0.8941E-03 -0.1545E-03
     -6.092  0.5489E-03 -0.1177E-03
     -6.025  0.4221E-02  0.1654E-03
     -5.957  0.8624E-02  0.7439E-03
     -5.890  0.1141E-01  0.1509E-02
     -5.823  0.1524E-01  0.2531E-02
     -5.756  0.2921E-01  0.4491E-02
     -5.689  0.5674E-01  0.8297E-02
     -5.622  0.8407E-01  0.1394E-01
     -5.555  0.9505E-01  0.2031E-01
     -5.488  0.9937E-01  0.2698E-01
     -5.421  0.1246E+00  0.3533E-01
     -5.354  0.1705E+00  0.4677E-01
     -5.287  0.1975E+00  0.6002E-01
     -5.220  0.1802E+00  0.7210E-01
     -5.153  0.1444E+00  0.8179E-01
     -5.085  0.1276E+00  0.9035E-01
     -5.018  0.1259E+00  0.9879E-01
     -4.951  0.1118E+00  0.1063E+00
     -4.884  0.8453E-01  0.1120E+00
     -4.817  0.6716E-01  0.1165E+00
     -4.750  0.6960E-01  0.1211E+00
     -4.683  0.8913E-01  0.1271E+00
     -4.616  0.1408E+00  0.1366E+00
     -4.549  0.2408E+00  0.1527E+00
     -4.482  0.3543E+00  0.1765E+00
     -4.415  0.4164E+00  0.2044E+00
     -4.348  0.4195E+00  0.2325E+00
     -4.281  0.4178E+00  0.2606E+00
     -4.213  0.4250E+00  0.2891E+00
     -4.146  0.3822E+00  0.3147E+00
     -4.079  0.2572E+00  0.3320E+00
     -4.012  0.1035E+00  0.3389E+00
     -3.945 -0.1945E-02  0.3388E+00
     -3.878 -0.2841E-01  0.3369E+00
     -3.811  0.1677E-01  0.3380E+00
     -3.744  0.1194E+00  0.3460E+00
     -3.677  0.2598E+00  0.3634E+00
     -3.610  0.4009E+00  0.3903E+00
     -3.543  0.4897E+00  0.4232E+00
     -3.476  0.4849E+00  0.4557E+00
     -3.409  0.3948E+00  0.4822E+00
     -3.341  0.2809E+00  0.5010E+00
     -3.274  0.2155E+00  0.5155E+00
     -3.207  0.2416E+00  0.5317E+00
     -3.140  0.3547E+00  0.5555E+00
     -3.073  0.5007E+00  0.5890E+00
     -3.006  0.6057E+00  0.6297E+00
     -2.939  0.6307E+00  0.6720E+00
     -2.872  0.5956E+00  0.7119E+00
     -2.805  0.5415E+00  0.7483E+00
     -2.738  0.4860E+00  0.7809E+00
     -2.671  0.4324E+00  0.8099E+00
     -2.604  0.4027E+00  0.8369E+00
     -2.537  0.4107E+00  0.8644E+00
     -2.469  0.4107E+00  0.8920E+00
     -2.402  0.3380E+00  0.9146E+00
     -2.335  0.1987E+00  0.9280E+00
     -2.268  0.6495E-01  0.9323E+00
     -2.201 -0.1008E-01  0.9316E+00
     -2.134 -0.3092E-01  0.9296E+00
     -2.067 -0.2287E-01  0.9280E+00
     -2.000  0.7913E-02  0.9286E+00
     -1.933  0.6884E-01  0.9332E+00
     -1.866  0.1468E+00  0.9430E+00
     -1.799  0.1962E+00  0.9562E+00
     -1.732  0.1769E+00  0.9681E+00
     -1.665  0.1015E+00  0.9749E+00
     -1.597  0.3222E-01  0.9770E+00
     -1.530  0.3601E-01  0.9794E+00
     -1.463  0.1438E+00  0.9891E+00
     -1.396  0.3300E+00  0.1011E+01
     -1.329  0.5123E+00  0.1046E+01
     -1.262  0.5909E+00  0.1085E+01
     -1.195  0.5194E+00  0.1120E+01
     -1.128  0.3407E+00  0.1143E+01
     -1.061  0.1532E+00  0.1153E+01
     -0.994  0.4419E-01  0.1156E+01
     -0.927  0.4627E-01  0.1159E+01
     -0.860  0.1279E+00  0.1168E+01
     -0.793  0.2127E+00  0.1182E+01
     -0.725  0.2349E+00  0.1198E+01
     -0.658  0.2047E+00  0.1212E+01
     -0.591  0.2020E+00  0.1225E+01
     -0.524  0.2751E+00  0.1244E+01
     -0.457  0.3609E+00  0.1268E+01
     -0.390  0.3494E+00  0.1291E+01
     -0.323  0.2338E+00  0.1307E+01
     -0.256  0.1549E+00  0.1317E+01
     -0.189  0.2728E+00  0.1336E+01
     -0.122  0.5950E+00  0.1376E+01
     -0.055  0.9382E+00  0.1438E+01
      0.012  0.1071E+01  0.1510E+01
      0.079  0.9094E+00  0.1571E+01
      0.147  0.5642E+00  0.1609E+01
      0.214  0.2254E+00  0.1624E+01
      0.281  0.1412E-01  0.1625E+01
      0.348 -0.5179E-01  0.1622E+01
      0.415  0.1783E-03  0.1622E+01
      0.482  0.1382E+00  0.1631E+01
      0.549  0.3039E+00  0.1651E+01
      0.616  0.4046E+00  0.1679E+01
      0.683  0.3798E+00  0.1704E+01
      0.750  0.2636E+00  0.1722E+01
      0.817  0.1487E+00  0.1732E+01
      0.884  0.1082E+00  0.1739E+01
      0.951  0.1687E+00  0.1750E+01
      1.019  0.3133E+00  0.1771E+01
      1.086  0.4728E+00  0.1803E+01
      1.153  0.5453E+00  0.1840E+01
      1.220  0.4722E+00  0.1871E+01
      1.287  0.2953E+00  0.1891E+01
      1.354  0.1171E+00  0.1899E+01
      1.421  0.9611E-02  0.1900E+01
      1.488 -0.2640E-01  0.1898E+01
      1.555 -0.2917E-01  0.1896E+01
      1.622 -0.2893E-01  0.1894E+01
      1.689 -0.2599E-01  0.1892E+01
      1.756  0.9144E-02  0.1893E+01
      1.823  0.1149E+00  0.1900E+01
      1.891  0.2926E+00  0.1920E+01
      1.958  0.4696E+00  0.1952E+01
      2.025  0.5369E+00  0.1988E+01
      2.092  0.4582E+00  0.2018E+01
      2.159  0.3304E+00  0.2041E+01
      2.226  0.2978E+00  0.2060E+01
      2.293  0.4008E+00  0.2087E+01
      2.360  0.5408E+00  0.2124E+01
      2.427  0.6005E+00  0.2164E+01
      2.494  0.5519E+00  0.2201E+01
      2.561  0.4378E+00  0.2230E+01
      2.628  0.3163E+00  0.2252E+01
      2.695  0.2667E+00  0.2269E+01
      2.763  0.3905E+00  0.2296E+01
      2.830  0.7216E+00  0.2344E+01
      2.897  0.1132E+01  0.2420E+01
      2.964  0.1377E+01  0.2512E+01
      3.031  0.1287E+01  0.2599E+01
      3.098  0.9133E+00  0.2660E+01
      3.165  0.4780E+00  0.2692E+01
      3.232  0.1667E+00  0.2703E+01
      3.299  0.1200E-01  0.2704E+01
      3.366 -0.4354E-01  0.2701E+01
      3.433 -0.2817E-01  0.2699E+01
      3.500  0.9302E-01  0.2705E+01
      3.567  0.3509E+00  0.2729E+01
      3.635  0.6874E+00  0.2775E+01
      3.702  0.9635E+00  0.2840E+01
      3.769  0.1078E+01  0.2912E+01
      3.836  0.1055E+01  0.2983E+01
      3.903  0.9929E+00  0.3049E+01
      3.970  0.9403E+00  0.3112E+01
      4.037  0.8736E+00  0.3171E+01
      4.104  0.7767E+00  0.3223E+01
      4.171  0.7045E+00  0.3270E+01
      4.238  0.7180E+00  0.3319E+01
      4.305  0.7716E+00  0.3370E+01
      4.372  0.7363E+00  0.3420E+01
      4.440  0.5588E+00  0.3457E+01
      4.507  0.3416E+00  0.3480E+01
      4.574  0.2342E+00  0.3496E+01
      4.641  0.2868E+00  0.3515E+01
      4.708  0.4319E+00  0.3544E+01
      4.775  0.5709E+00  0.3582E+01
      4.842  0.6498E+00  0.3626E+01
      4.909  0.6661E+00  0.3671E+01
      4.976  0.6432E+00  0.3714E+01
      5.043  0.6174E+00  0.3755E+01
      5.110  0.6267E+00  0.3797E+01
      5.177  0.6828E+00  0.3843E+01
      5.244  0.7573E+00  0.3894E+01
      5.312  0.8012E+00  0.3947E+01
      5.379  0.7676E+00  0.3999E+01
      5.446  0.6320E+00  0.4041E+01
      5.513  0.4198E+00  0.4070E+01
      5.580  0.2123E+00  0.4084E+01
      5.647  0.1024E+00  0.4091E+01
      5.714  0.1310E+00  0.4099E+01
      5.781  0.2550E+00  0.4117E+01
      5.848  0.3729E+00  0.4142E+01
      5.915  0.3963E+00  0.4168E+01
      5.982  0.3114E+00  0.4189E+01
      6.049  0.1752E+00  0.4201E+01
      6.116  0.5923E-01  0.4205E+01
      6.184  0.5224E-02  0.4205E+01
      6.251  0.2024E-01  0.4206E+01
      6.318  0.8485E-01  0.4212E+01
      6.385  0.1572E+00  0.4223E+01
      6.452  0.1906E+00  0.4235E+01
      6.519  0.1675E+00  0.4247E+01
      6.586  0.1129E+00  0.4254E+01
      6.653  0.6446E-01  0.4259E+01
      6.720  0.3758E-01  0.4261E+01
      6.787  0.2623E-01  0.4263E+01
      6.854  0.2759E-01  0.4265E+01
      6.921  0.5131E-01  0.4268E+01
      6.988  0.1016E+00  0.4275E+01
      7.056  0.1571E+00  0.4286E+01
      7.123  0.1806E+00  0.4298E+01
      7.190  0.1528E+00  0.4308E+01
      7.257  0.9024E-01  0.4314E+01
      7.324  0.2839E-01  0.4316E+01
      7.391 -0.2713E-02  0.4316E+01
      7.458  0.1470E-01  0.4317E+01
      7.525  0.8347E-01  0.4322E+01
      7.592  0.1781E+00  0.4334E+01
      7.659  0.2458E+00  0.4351E+01
      7.726  0.2508E+00  0.4368E+01
      7.793  0.2223E+00  0.4382E+01
      7.860  0.2358E+00  0.4398E+01
      7.928  0.3242E+00  0.4420E+01
      7.995  0.4243E+00  0.4448E+01
      8.062  0.4350E+00  0.4478E+01
      8.129  0.3238E+00  0.4499E+01
      8.196  0.1617E+00  0.4510E+01
      8.263  0.6514E-01  0.4515E+01
      8.330  0.1188E+00  0.4523E+01
      8.397  0.3249E+00  0.4544E+01
      8.464  0.5902E+00  0.4584E+01
      8.531  0.7699E+00  0.4636E+01
      8.598  0.7599E+00  0.4687E+01
      8.665  0.5757E+00  0.4725E+01
      8.732  0.3494E+00  0.4749E+01
      8.800  0.2378E+00  0.4765E+01
      8.867  0.3153E+00  0.4786E+01
      8.934  0.5484E+00  0.4822E+01
      9.001  0.8563E+00  0.4880E+01
      9.068  0.1155E+01  0.4957E+01
      9.135  0.1343E+01  0.5047E+01
      9.202  0.1311E+01  0.5135E+01
      9.269  0.1044E+01  0.5205E+01
      9.336  0.6702E+00  0.5250E+01
      9.403  0.3660E+00  0.5275E+01
      9.470  0.2212E+00  0.5290E+01
      9.537  0.2183E+00  0.5304E+01
      9.604  0.2871E+00  0.5324E+01
      9.672  0.3445E+00  0.5347E+01
      9.739  0.3272E+00  0.5369E+01
      9.806  0.2318E+00  0.5384E+01
      9.873  0.1129E+00  0.5392E+01
      9.940  0.2736E-01  0.5394E+01
     10.007 -0.7190E-02  0.5393E+01
     10.074 -0.5004E-02  0.5393E+01
     10.141  0.1268E-01  0.5394E+01
     10.208  0.2873E-01  0.5396E+01
     10.275  0.3267E-01  0.5398E+01
     10.342  0.2404E-01  0.5399E+01
     10.409  0.1097E-01  0.5400E+01
     10.476  0.1715E-02  0.5400E+01
     10.544 -0.1636E-02  0.5400E+01
     10.611 -0.1575E-02  0.5400E+01
     10.678 -0.7665E-03  0.5400E+01
     10.745 -0.2543E-03  0.5400E+01
     10.812 -0.6207E-04  0.5400E+01
     10.879 -0.1151E-04  0.5400E+01
     10.946 -0.1647E-05  0.5400E+01
     11.013 -0.1836E-06  0.5400E+01
     11.080 -0.1605E-07  0.5400E+01
     11.147 -0.1105E-08  0.5400E+01
     11.214 -0.6005E-10  0.5400E+01
     11.281 -0.2583E-11  0.5400E+01
     11.348 -0.8805E-13  0.5400E+01
     11.416 -0.2372E-14  0.5400E+01
     11.483 -0.5517E-16  0.5400E+01
     11.550  0.0000E+00  0.5400E+01
     11.617  0.0000E+00  0.5400E+01
     11.684  0.0000E+00  0.5400E+01
     11.751  0.0000E+00  0.5400E+01
     11.818  0.0000E+00  0.5400E+01
     11.885  0.0000E+00  0.5400E+01
     11.952  0.0000E+00  0.5400E+01
     12.019  0.0000E+00  0.5400E+01
     12.086  0.0000E+00  0.5400E+01
     12.153  0.0000E+00  0.5400E+01
     12.220  0.0000E+00  0.5400E+01
