       N       E                     dE             d eps       ncg     rms          rms(c)
DAV:   1     0.580047818210E+03    0.58005E+03   -0.85617E+04  2592   0.107E+03
DAV:   2    -0.307903596467E+03   -0.88795E+03   -0.84310E+03  3080   0.176E+02
DAV:   3    -0.371641190972E+03   -0.63738E+02   -0.62314E+02  3136   0.417E+01
DAV:   4    -0.373278636721E+03   -0.16374E+01   -0.16252E+01  3120   0.806E+00
DAV:   5    -0.373334001680E+03   -0.55365E-01   -0.55238E-01  3076   0.135E+00    0.315E+01
RMM:   6    -0.366926018829E+03    0.64080E+01   -0.34158E+00  2592   0.292E+00    0.190E+01
RMM:   7    -0.364183892554E+03    0.27421E+01   -0.85662E+00  2653   0.460E+00    0.126E+00
RMM:   8    -0.364213487965E+03   -0.29595E-01   -0.78390E-01  2611   0.175E+00    0.563E-01
RMM:   9    -0.364238179935E+03   -0.24692E-01   -0.24296E-01  2675   0.853E-01    0.629E-01
RMM:  10    -0.364243216204E+03   -0.50363E-02   -0.43307E-02  2718   0.402E-01    0.885E-01
RMM:  11    -0.364237654029E+03    0.55622E-02   -0.15605E-02  2592   0.247E-01    0.602E-01
RMM:  12    -0.364237853410E+03   -0.19938E-03   -0.19703E-03  2618   0.105E-01    0.581E-01
RMM:  13    -0.364237928206E+03   -0.74796E-04   -0.37989E-04  2727   0.432E-02    0.653E-01
RMM:  14    -0.364237908225E+03    0.19981E-04   -0.10222E-04  2598   0.252E-02    0.212E-01
RMM:  15    -0.364237975955E+03   -0.67730E-04   -0.45446E-05  2624   0.139E-02    0.190E-01
RMM:  16    -0.364238017994E+03   -0.42039E-04   -0.23046E-05  2592   0.108E-02    0.150E-01
RMM:  17    -0.364238021935E+03   -0.39407E-05   -0.64979E-06  2301   0.620E-03    0.394E-02
RMM:  18    -0.364238025122E+03   -0.31866E-05   -0.24729E-06  1670   0.356E-03    0.834E-03
RMM:  19    -0.364238025615E+03   -0.49327E-06   -0.65682E-07  1565   0.177E-03
   1 F= -.36423803E+03 E0= -.36424726E+03  d E =-.364238E+03
       N       E                     dE             d eps       ncg     rms          rms(c)
DAV:   1    -0.364249473588E+03   -0.11448E-01   -0.87436E-01  2968   0.180E+00    0.445E-01
RMM:   2    -0.364253526081E+03   -0.40525E-02   -0.42332E-02  2593   0.443E-01    0.181E-01
RMM:   3    -0.364253917219E+03   -0.39114E-03   -0.63774E-03  2637   0.193E-01    0.738E-02
RMM:   4    -0.364253885276E+03    0.31942E-04   -0.86569E-04  2622   0.797E-02    0.280E-02
RMM:   5    -0.364253893398E+03   -0.81212E-05   -0.16356E-04  2704   0.312E-02    0.575E-03
RMM:   6    -0.364253896845E+03   -0.34471E-05   -0.34555E-05  2702   0.135E-02    0.135E-03
RMM:   7    -0.364253897327E+03   -0.48262E-06   -0.52270E-06  1941   0.510E-03    0.992E-04
RMM:   8    -0.364253897369E+03   -0.41309E-07   -0.95789E-07  1561   0.214E-03
   2 F= -.36425390E+03 E0= -.36426092E+03  d E =-.158718E-01
       N       E                     dE             d eps       ncg     rms          rms(c)
DAV:   1    -0.364258866391E+03   -0.49691E-02   -0.98297E-02  2944   0.604E-01    0.149E-01
RMM:   2    -0.364259309803E+03   -0.44341E-03   -0.46238E-03  2592   0.148E-01    0.608E-02
RMM:   3    -0.364259350957E+03   -0.41154E-04   -0.68247E-04  2636   0.641E-02    0.242E-02
RMM:   4    -0.364259347940E+03    0.30170E-05   -0.92655E-05  2616   0.264E-02    0.931E-03
RMM:   5    -0.364259348748E+03   -0.80796E-06   -0.17846E-05  2634   0.103E-02    0.190E-03
RMM:   6    -0.364259349033E+03   -0.28560E-06   -0.34596E-06  1821   0.442E-03    0.443E-04
RMM:   7    -0.364259349109E+03   -0.75913E-07   -0.62256E-07  1526   0.179E-03    0.267E-04
RMM:   8    -0.364259349136E+03   -0.26514E-07   -0.15047E-07  1118   0.883E-04
   3 F= -.36425935E+03 E0= -.36426734E+03  d E =-.213235E-01
