  64  64   0   0
  0.2013400E+02  0.1088187E-08  0.1088187E-08  0.1088187E-08  0.5000000E-15
  1.000000000000000E-004
  CAR 
 Si64                                    
     11.44239386     -8.14162885  301      6.29427787      1.00000000
     -8.142  0.0000E+00  0.0000E+00
     -8.076  0.0000E+00  0.0000E+00
     -8.011  0.0000E+00  0.0000E+00
     -7.946  0.0000E+00  0.0000E+00
     -7.881  0.0000E+00  0.0000E+00
     -7.815  0.0000E+00  0.0000E+00
     -7.750 -0.1192E-28 -0.7778E-30
     -7.685 -0.1946E-26 -0.1278E-27
     -7.619 -0.2574E-24 -0.1693E-25
     -7.554 -0.2746E-22 -0.1810E-23
     -7.489 -0.2362E-20 -0.1560E-21
     -7.424 -0.1636E-18 -0.1084E-19
     -7.358 -0.9131E-17 -0.6069E-18
     -7.293 -0.3961E-15 -0.2646E-16
     -7.228 -0.1433E-13 -0.9622E-15
     -7.162 -0.4147E-12 -0.2804E-13
     -7.097 -0.9631E-11 -0.6568E-12
     -7.032 -0.1793E-09 -0.1236E-10
     -6.967 -0.2670E-08 -0.1866E-09
     -6.901 -0.3173E-07 -0.2258E-08
     -6.836 -0.3000E-06 -0.2184E-07
     -6.771 -0.2247E-05 -0.1685E-06
     -6.705 -0.1323E-04 -0.1032E-05
     -6.640 -0.6062E-04 -0.4990E-05
     -6.575 -0.2121E-03 -0.1884E-04
     -6.510 -0.5468E-03 -0.5453E-04
     -6.444 -0.9512E-03 -0.1166E-03
     -6.379 -0.7734E-03 -0.1671E-03
     -6.314  0.1050E-02 -0.9854E-04
     -6.249  0.4747E-02  0.2113E-03
     -6.183  0.8758E-02  0.7831E-03
     -6.118  0.1234E-01  0.1588E-02
     -6.053  0.2009E-01  0.2900E-02
     -5.987  0.3920E-01  0.5458E-02
     -5.922  0.6748E-01  0.9864E-02
     -5.857  0.9073E-01  0.1579E-01
     -5.792  0.1024E+00  0.2247E-01
     -5.726  0.1186E+00  0.3021E-01
     -5.661  0.1543E+00  0.4029E-01
     -5.596  0.1923E+00  0.5285E-01
     -5.530  0.1995E+00  0.6587E-01
     -5.465  0.1741E+00  0.7723E-01
     -5.400  0.1470E+00  0.8683E-01
     -5.335  0.1346E+00  0.9561E-01
     -5.269  0.1219E+00  0.1036E+00
     -5.204  0.9791E-01  0.1100E+00
     -5.139  0.7556E-01  0.1149E+00
     -5.073  0.7094E-01  0.1195E+00
     -5.008  0.8989E-01  0.1254E+00
     -4.943  0.1434E+00  0.1348E+00
     -4.878  0.2412E+00  0.1505E+00
     -4.812  0.3558E+00  0.1737E+00
     -4.747  0.4331E+00  0.2020E+00
     -4.682  0.4574E+00  0.2319E+00
     -4.617  0.4609E+00  0.2620E+00
     -4.551  0.4501E+00  0.2913E+00
     -4.486  0.3838E+00  0.3164E+00
     -4.421  0.2466E+00  0.3325E+00
     -4.355  0.9270E-01  0.3385E+00
     -4.290 -0.6497E-02  0.3381E+00
     -4.225 -0.1861E-01  0.3369E+00
     -4.160  0.5347E-01  0.3404E+00
     -4.094  0.1917E+00  0.3529E+00
     -4.029  0.3587E+00  0.3763E+00
     -3.964  0.4923E+00  0.4085E+00
     -3.898  0.5309E+00  0.4431E+00
     -3.833  0.4607E+00  0.4732E+00
     -3.768  0.3341E+00  0.4950E+00
     -3.703  0.2336E+00  0.5103E+00
     -3.637  0.2224E+00  0.5248E+00
     -3.572  0.3179E+00  0.5455E+00
     -3.507  0.4811E+00  0.5769E+00
     -3.441  0.6338E+00  0.6183E+00
     -3.376  0.7110E+00  0.6647E+00
     -3.311  0.7028E+00  0.7106E+00
     -3.246  0.6365E+00  0.7522E+00
     -3.180  0.5411E+00  0.7875E+00
     -3.115  0.4501E+00  0.8169E+00
     -3.050  0.4059E+00  0.8434E+00
     -2.985  0.4123E+00  0.8703E+00
     -2.919  0.4053E+00  0.8967E+00
     -2.854  0.3210E+00  0.9177E+00
     -2.789  0.1774E+00  0.9293E+00
     -2.723  0.4836E-01  0.9324E+00
     -2.658 -0.1989E-01  0.9311E+00
     -2.593 -0.3320E-01  0.9289E+00
     -2.528 -0.9726E-02  0.9283E+00
     -2.462  0.4634E-01  0.9313E+00
     -2.397  0.1257E+00  0.9395E+00
     -2.332  0.1906E+00  0.9520E+00
     -2.266  0.1945E+00  0.9647E+00
     -2.201  0.1300E+00  0.9732E+00
     -2.136  0.4505E-01  0.9761E+00
     -2.071  0.1104E-01  0.9768E+00
     -2.005  0.8157E-01  0.9822E+00
     -1.940  0.2609E+00  0.9992E+00
     -1.875  0.4821E+00  0.1031E+01
     -1.809  0.6268E+00  0.1072E+01
     -1.744  0.6050E+00  0.1111E+01
     -1.679  0.4314E+00  0.1139E+01
     -1.614  0.2116E+00  0.1153E+01
     -1.548  0.5648E-01  0.1157E+01
     -1.483  0.1523E-01  0.1158E+01
     -1.418  0.6802E-01  0.1162E+01
     -1.353  0.1522E+00  0.1172E+01
     -1.287  0.2006E+00  0.1185E+01
     -1.222  0.1862E+00  0.1197E+01
     -1.157  0.1419E+00  0.1207E+01
     -1.091  0.1335E+00  0.1215E+01
     -1.026  0.2003E+00  0.1228E+01
     -0.961  0.3104E+00  0.1249E+01
     -0.896  0.3815E+00  0.1274E+01
     -0.830  0.3723E+00  0.1298E+01
     -0.765  0.3476E+00  0.1321E+01
     -0.700  0.4190E+00  0.1348E+01
     -0.634  0.6220E+00  0.1389E+01
     -0.569  0.8662E+00  0.1445E+01
     -0.504  0.9926E+00  0.1510E+01
     -0.439  0.8888E+00  0.1568E+01
     -0.373  0.5861E+00  0.1606E+01
     -0.308  0.2480E+00  0.1622E+01
     -0.243  0.4451E-01  0.1625E+01
     -0.177  0.4089E-01  0.1628E+01
     -0.112  0.1829E+00  0.1640E+01
     -0.047  0.3459E+00  0.1662E+01
      0.018  0.4133E+00  0.1689E+01
      0.084  0.3548E+00  0.1713E+01
      0.149  0.2336E+00  0.1728E+01
      0.214  0.1318E+00  0.1736E+01
      0.280  0.8946E-01  0.1742E+01
      0.345  0.1118E+00  0.1750E+01
      0.410  0.1928E+00  0.1762E+01
      0.475  0.3139E+00  0.1783E+01
      0.541  0.4334E+00  0.1811E+01
      0.606  0.4897E+00  0.1843E+01
      0.671  0.4362E+00  0.1871E+01
      0.736  0.2893E+00  0.1890E+01
      0.802  0.1259E+00  0.1898E+01
      0.867  0.1760E-01  0.1900E+01
      0.932 -0.2163E-01  0.1898E+01
      0.998 -0.2134E-01  0.1897E+01
      1.063 -0.1289E-01  0.1896E+01
      1.128 -0.1138E-01  0.1895E+01
      1.193 -0.2055E-01  0.1894E+01
      1.259 -0.3567E-01  0.1892E+01
      1.324 -0.3337E-01  0.1889E+01
      1.389  0.3741E-01  0.1892E+01
      1.455  0.2313E+00  0.1907E+01
      1.520  0.5383E+00  0.1942E+01
      1.585  0.8324E+00  0.1996E+01
      1.650  0.9336E+00  0.2057E+01
      1.716  0.7694E+00  0.2108E+01
      1.781  0.4657E+00  0.2138E+01
      1.846  0.2430E+00  0.2154E+01
      1.912  0.2200E+00  0.2168E+01
      1.977  0.3294E+00  0.2190E+01
      2.042  0.4126E+00  0.2217E+01
      2.107  0.3827E+00  0.2242E+01
      2.173  0.3080E+00  0.2262E+01
      2.238  0.3568E+00  0.2285E+01
      2.303  0.6450E+00  0.2327E+01
      2.368  0.1100E+01  0.2399E+01
      2.434  0.1467E+01  0.2495E+01
      2.499  0.1486E+01  0.2592E+01
      2.564  0.1123E+01  0.2665E+01
      2.630  0.5928E+00  0.2704E+01
      2.695  0.1623E+00  0.2714E+01
      2.760 -0.5772E-01  0.2711E+01
      2.825 -0.1147E+00  0.2703E+01
      2.891 -0.7829E-01  0.2698E+01
      2.956  0.5028E-01  0.2701E+01
      3.021  0.3069E+00  0.2721E+01
      3.087  0.6739E+00  0.2765E+01
      3.152  0.1045E+01  0.2833E+01
      3.217  0.1293E+01  0.2918E+01
      3.282  0.1358E+01  0.3007E+01
      3.348  0.1263E+01  0.3089E+01
      3.413  0.1071E+01  0.3159E+01
      3.478  0.8426E+00  0.3214E+01
      3.544  0.6548E+00  0.3257E+01
      3.609  0.5967E+00  0.3296E+01
      3.674  0.6781E+00  0.3340E+01
      3.739  0.7644E+00  0.3390E+01
      3.805  0.6995E+00  0.3435E+01
      3.870  0.5019E+00  0.3468E+01
      3.935  0.3513E+00  0.3491E+01
      4.000  0.3699E+00  0.3515E+01
      4.066  0.4929E+00  0.3547E+01
      4.131  0.5823E+00  0.3585E+01
      4.196  0.5989E+00  0.3625E+01
      4.262  0.6045E+00  0.3664E+01
      4.327  0.6384E+00  0.3706E+01
      4.392  0.6789E+00  0.3750E+01
      4.457  0.7174E+00  0.3797E+01
      4.523  0.7864E+00  0.3848E+01
      4.588  0.8883E+00  0.3906E+01
      4.653  0.9459E+00  0.3968E+01
      4.719  0.8602E+00  0.4024E+01
      4.784  0.6152E+00  0.4064E+01
      4.849  0.3099E+00  0.4084E+01
      4.914  0.8366E-01  0.4090E+01
      4.980  0.2310E-01  0.4091E+01
      5.045  0.1258E+00  0.4100E+01
      5.110  0.3088E+00  0.4120E+01
      5.176  0.4447E+00  0.4149E+01
      5.241  0.4381E+00  0.4177E+01
      5.306  0.2990E+00  0.4197E+01
      5.371  0.1257E+00  0.4205E+01
      5.437  0.1462E-01  0.4206E+01
      5.502  0.4117E-03  0.4206E+01
      5.567  0.6238E-01  0.4210E+01
      5.632  0.1490E+00  0.4220E+01
      5.698  0.2005E+00  0.4233E+01
      5.763  0.1857E+00  0.4245E+01
      5.828  0.1268E+00  0.4253E+01
      5.894  0.7256E-01  0.4258E+01
      5.959  0.4738E-01  0.4261E+01
      6.024  0.3835E-01  0.4264E+01
      6.089  0.2544E-01  0.4265E+01
      6.155  0.6642E-02  0.4266E+01
      6.220 -0.3883E-02  0.4266E+01
      6.285  0.1131E-01  0.4266E+01
      6.351  0.6071E-01  0.4270E+01
      6.416  0.1310E+00  0.4279E+01
      6.481  0.1853E+00  0.4291E+01
      6.546  0.1872E+00  0.4303E+01
      6.612  0.1335E+00  0.4312E+01
      6.677  0.5752E-01  0.4316E+01
      6.742  0.2364E-02  0.4316E+01
      6.808 -0.7386E-03  0.4316E+01
      6.873  0.6051E-01  0.4320E+01
      6.938  0.1670E+00  0.4331E+01
      7.003  0.2589E+00  0.4348E+01
      7.069  0.2740E+00  0.4365E+01
      7.134  0.2204E+00  0.4380E+01
      7.199  0.1921E+00  0.4392E+01
      7.264  0.2735E+00  0.4410E+01
      7.330  0.4303E+00  0.4438E+01
      7.395  0.5256E+00  0.4473E+01
      7.460  0.4588E+00  0.4503E+01
      7.526  0.2702E+00  0.4520E+01
      7.591  0.1081E+00  0.4527E+01
      7.656  0.1191E+00  0.4535E+01
      7.721  0.3474E+00  0.4558E+01
      7.787  0.6804E+00  0.4602E+01
      7.852  0.9019E+00  0.4661E+01
      7.917  0.8718E+00  0.4718E+01
      7.983  0.6596E+00  0.4761E+01
      8.048  0.4691E+00  0.4792E+01
      8.113  0.4518E+00  0.4821E+01
      8.178  0.6213E+00  0.4862E+01
      8.244  0.8924E+00  0.4920E+01
      8.309  0.1135E+01  0.4994E+01
      8.374  0.1223E+01  0.5074E+01
      8.440  0.1107E+01  0.5146E+01
      8.505  0.8464E+00  0.5201E+01
      8.570  0.5547E+00  0.5237E+01
      8.635  0.3289E+00  0.5259E+01
      8.701  0.2088E+00  0.5273E+01
      8.766  0.1749E+00  0.5284E+01
      8.831  0.1898E+00  0.5296E+01
      8.896  0.2406E+00  0.5312E+01
      8.962  0.3144E+00  0.5333E+01
      9.027  0.3580E+00  0.5356E+01
      9.092  0.3147E+00  0.5377E+01
      9.158  0.1957E+00  0.5389E+01
      9.223  0.7383E-01  0.5394E+01
      9.288  0.7645E-02  0.5395E+01
      9.353 -0.7722E-03  0.5395E+01
      9.419  0.1594E-01  0.5396E+01
      9.484  0.2805E-01  0.5397E+01
      9.549  0.2552E-01  0.5399E+01
      9.615  0.1424E-01  0.5400E+01
      9.680  0.3888E-02  0.5400E+01
      9.745 -0.1060E-02  0.5400E+01
      9.810 -0.1802E-02  0.5400E+01
      9.876 -0.1077E-02  0.5400E+01
      9.941 -0.4222E-03  0.5400E+01
     10.006 -0.1210E-03  0.5400E+01
     10.072 -0.2644E-04  0.5400E+01
     10.137 -0.4492E-05  0.5400E+01
     10.202 -0.6000E-06  0.5400E+01
     10.267 -0.6345E-07  0.5400E+01
     10.333 -0.5338E-08  0.5400E+01
     10.398 -0.3585E-09  0.5400E+01
     10.463 -0.1926E-10  0.5400E+01
     10.528 -0.8293E-12  0.5400E+01
     10.594 -0.2866E-13  0.5400E+01
     10.659 -0.7937E-15  0.5400E+01
     10.724 -0.2835E-16  0.5400E+01
     10.790  0.0000E+00  0.5400E+01
     10.855  0.0000E+00  0.5400E+01
     10.920  0.0000E+00  0.5400E+01
     10.985  0.0000E+00  0.5400E+01
     11.051  0.0000E+00  0.5400E+01
     11.116  0.0000E+00  0.5400E+01
     11.181  0.0000E+00  0.5400E+01
     11.247  0.0000E+00  0.5400E+01
     11.312  0.0000E+00  0.5400E+01
     11.377  0.0000E+00  0.5400E+01
     11.442  0.0000E+00  0.5400E+01
