       N       E                     dE             d eps       ncg     rms          rms(c)
DAV:   1     0.555804707810E+03    0.55580E+03   -0.83694E+04  1296   0.106E+03
DAV:   2    -0.309906729313E+03   -0.86571E+03   -0.82147E+03  1536   0.172E+02
DAV:   3    -0.372982226244E+03   -0.63075E+02   -0.61823E+02  1568   0.409E+01
DAV:   4    -0.374664277786E+03   -0.16821E+01   -0.16700E+01  1552   0.800E+00
DAV:   5    -0.374715560019E+03   -0.51282E-01   -0.51178E-01  1510   0.132E+00    0.279E+01
RMM:   6    -0.369822199438E+03    0.48934E+01   -0.24101E+00  1296   0.242E+00    0.168E+01
RMM:   7    -0.367570632286E+03    0.22516E+01   -0.62841E+00  1322   0.391E+00    0.931E-01
RMM:   8    -0.367608697552E+03   -0.38065E-01   -0.55290E-01  1310   0.148E+00    0.480E-01
RMM:   9    -0.367626680108E+03   -0.17983E-01   -0.16517E-01  1322   0.726E-01    0.564E-01
RMM:  10    -0.367629569675E+03   -0.28896E-02   -0.28950E-02  1354   0.344E-01    0.682E-01
RMM:  11    -0.367628071930E+03    0.14977E-02   -0.95577E-03  1296   0.203E-01    0.819E-01
RMM:  12    -0.367627955942E+03    0.11599E-03   -0.17209E-03  1304   0.978E-02    0.981E-01
RMM:  13    -0.367628101843E+03   -0.14590E-03   -0.33053E-04  1368   0.421E-02    0.956E-01
RMM:  14    -0.367626376640E+03    0.17252E-02   -0.67685E-04  1296   0.575E-02    0.151E+00
RMM:  15    -0.367626156065E+03    0.22058E-03   -0.16016E-04  1299   0.257E-02    0.166E+00
RMM:  16    -0.367626243713E+03   -0.87648E-04   -0.20131E-05  1338   0.954E-03    0.162E+00
RMM:  17    -0.367627310178E+03   -0.10665E-02   -0.16341E-04  1350   0.268E-02    0.104E+00
RMM:  18    -0.367628459248E+03   -0.11491E-02   -0.57836E-04  1747   0.535E-02    0.293E-01
RMM:  19    -0.367628593290E+03   -0.13404E-03   -0.17536E-04  1324   0.278E-02    0.366E-02
RMM:  20    -0.367628600875E+03   -0.75847E-05   -0.46774E-05  1300   0.130E-02    0.337E-03
RMM:  21    -0.367628601367E+03   -0.49291E-06   -0.66531E-06  1076   0.503E-03
   1 F= -.35154329E+03 E0= -.35155168E+03  d E =-.351543E+03
       N       E                     dE             d eps       ncg     rms          rms(c)
DAV:   1    -0.367360093672E+03    0.26851E+00   -0.10510E+01  1400   0.563E+00    0.332E+00
RMM:   2    -0.367156137330E+03    0.20396E+00   -0.33485E-01  1296   0.110E+00    0.197E+00
RMM:   3    -0.367048323423E+03    0.10781E+00   -0.25203E-01  1296   0.869E-01    0.361E-01
RMM:   4    -0.367051076056E+03   -0.27526E-02   -0.23415E-02  1296   0.360E-01    0.403E-01
RMM:   5    -0.367051582975E+03   -0.50692E-03   -0.48609E-03  1322   0.151E-01    0.552E-01
RMM:   6    -0.367051901099E+03   -0.31812E-03   -0.18064E-03  1296   0.910E-02    0.370E-01
RMM:   7    -0.367051563255E+03    0.33784E-03   -0.46761E-04  1296   0.491E-02    0.109E-01
RMM:   8    -0.367051533298E+03    0.29957E-04   -0.70926E-05  1299   0.231E-02    0.994E-02
RMM:   9    -0.367051493506E+03    0.39792E-04   -0.27688E-05  1296   0.111E-02    0.542E-02
RMM:  10    -0.367051474768E+03    0.18737E-04   -0.51443E-05  1296   0.123E-02    0.853E-03
RMM:  11    -0.367051475364E+03   -0.59591E-06   -0.54769E-06  1093   0.452E-03
   2 F= -.35161932E+03 E0= -.35162973E+03  d E =-.760300E-01
       N       E                     dE             d eps       ncg     rms          rms(c)
DAV:   1    -0.367534368210E+03   -0.48289E+00   -0.20040E+00  1384   0.243E+00    0.144E+00
RMM:   2    -0.367494459644E+03    0.39909E-01   -0.59656E-02  1296   0.471E-01    0.861E-01
RMM:   3    -0.367473093394E+03    0.21366E-01   -0.49041E-02  1296   0.380E-01    0.158E-01
RMM:   4    -0.367473576568E+03   -0.48317E-03   -0.43859E-03  1296   0.156E-01    0.172E-01
RMM:   5    -0.367473673742E+03   -0.97174E-04   -0.87655E-04  1322   0.652E-02    0.212E-01
RMM:   6    -0.367473727756E+03   -0.54014E-04   -0.45156E-04  1296   0.411E-02    0.233E-01
RMM:   7    -0.367473609916E+03    0.11784E-03   -0.95381E-05  1296   0.228E-02    0.129E-01
RMM:   8    -0.367473598067E+03    0.11849E-04   -0.17877E-05  1302   0.114E-02    0.125E-01
RMM:   9    -0.367473575587E+03    0.22480E-04   -0.60148E-06  1269   0.539E-03    0.102E-01
RMM:  10    -0.367473539830E+03    0.35757E-04   -0.38794E-05  1385   0.100E-02    0.404E-02
RMM:  11    -0.367473536821E+03    0.30098E-05   -0.47284E-06  1032   0.373E-03    0.289E-02
RMM:  12    -0.367473534500E+03    0.23206E-05   -0.23198E-06   793   0.245E-03    0.187E-02
RMM:  13    -0.367473533051E+03    0.14493E-05   -0.28867E-06   857   0.262E-03    0.578E-03
RMM:  14    -0.367473533023E+03    0.28081E-07   -0.46464E-07   751   0.117E-03
   3 F= -.35175611E+03 E0= -.35176559E+03  d E =-.212820E+00
