  64  64   0   0
  0.1865836E+02  0.1071556E-08  0.1055721E-08  0.1055692E-08  0.5000000E-15
  1.000000000000000E-004
  CAR 
 Si64                                    
     11.99292146     -7.96296705  301      6.71489959      1.00000000
     -7.963  0.0000E+00  0.0000E+00
     -7.896  0.0000E+00  0.0000E+00
     -7.830  0.0000E+00  0.0000E+00
     -7.763  0.0000E+00  0.0000E+00
     -7.697  0.0000E+00  0.0000E+00
     -7.630  0.0000E+00  0.0000E+00
     -7.564 -0.2114E-28 -0.1406E-29
     -7.497 -0.3703E-26 -0.2477E-27
     -7.431 -0.5211E-24 -0.3491E-25
     -7.364 -0.5864E-22 -0.3936E-23
     -7.298 -0.5275E-20 -0.3548E-21
     -7.231 -0.3791E-18 -0.2558E-19
     -7.165 -0.2177E-16 -0.1474E-17
     -7.098 -0.9664E-15 -0.6576E-16
     -7.032 -0.3523E-13 -0.2409E-14
     -6.965 -0.1022E-11 -0.7039E-13
     -6.899 -0.2359E-10 -0.1639E-11
     -6.832 -0.4325E-09 -0.3041E-10
     -6.766 -0.6287E-08 -0.4486E-09
     -6.699 -0.7225E-07 -0.5255E-08
     -6.633 -0.6538E-06 -0.4875E-07
     -6.566 -0.4633E-05 -0.3569E-06
     -6.500 -0.2548E-04 -0.2052E-05
     -6.433 -0.1073E-03 -0.9188E-05
     -6.366 -0.3367E-03 -0.3158E-04
     -6.300 -0.7439E-03 -0.8107E-04
     -6.233 -0.9704E-03 -0.1456E-03
     -6.167  0.4410E-05 -0.1453E-03
     -6.100  0.3126E-02  0.6259E-04
     -6.034  0.7511E-02  0.5622E-03
     -5.967  0.1080E-01  0.1281E-02
     -5.901  0.1417E-01  0.2223E-02
     -5.834  0.2550E-01  0.3919E-02
     -5.768  0.5043E-01  0.7274E-02
     -5.701  0.7918E-01  0.1254E-01
     -5.635  0.9468E-01  0.1884E-01
     -5.568  0.9995E-01  0.2549E-01
     -5.502  0.1203E+00  0.3349E-01
     -5.435  0.1632E+00  0.4435E-01
     -5.369  0.1963E+00  0.5740E-01
     -5.302  0.1880E+00  0.6991E-01
     -5.236  0.1540E+00  0.8015E-01
     -5.169  0.1321E+00  0.8894E-01
     -5.103  0.1276E+00  0.9742E-01
     -5.036  0.1159E+00  0.1051E+00
     -4.970  0.9000E-01  0.1111E+00
     -4.903  0.6988E-01  0.1158E+00
     -4.837  0.6917E-01  0.1204E+00
     -4.770  0.8755E-01  0.1262E+00
     -4.704  0.1365E+00  0.1353E+00
     -4.637  0.2314E+00  0.1507E+00
     -4.570  0.3451E+00  0.1736E+00
     -4.504  0.4167E+00  0.2013E+00
     -4.437  0.4297E+00  0.2299E+00
     -4.371  0.4280E+00  0.2584E+00
     -4.304  0.4299E+00  0.2870E+00
     -4.238  0.3877E+00  0.3128E+00
     -4.171  0.2682E+00  0.3306E+00
     -4.105  0.1161E+00  0.3383E+00
     -4.038  0.6089E-02  0.3387E+00
     -3.972 -0.2549E-01  0.3371E+00
     -3.905  0.1846E-01  0.3383E+00
     -3.839  0.1236E+00  0.3465E+00
     -3.772  0.2676E+00  0.3643E+00
     -3.706  0.4092E+00  0.3915E+00
     -3.639  0.4940E+00  0.4244E+00
     -3.573  0.4842E+00  0.4566E+00
     -3.506  0.3929E+00  0.4827E+00
     -3.440  0.2816E+00  0.5015E+00
     -3.373  0.2207E+00  0.5161E+00
     -3.307  0.2509E+00  0.5328E+00
     -3.240  0.3660E+00  0.5572E+00
     -3.174  0.5122E+00  0.5912E+00
     -3.107  0.6183E+00  0.6324E+00
     -3.041  0.6474E+00  0.6754E+00
     -2.974  0.6151E+00  0.7164E+00
     -2.907  0.5561E+00  0.7533E+00
     -2.841  0.4895E+00  0.7859E+00
     -2.774  0.4304E+00  0.8145E+00
     -2.708  0.4041E+00  0.8414E+00
     -2.641  0.4120E+00  0.8688E+00
     -2.575  0.4011E+00  0.8955E+00
     -2.508  0.3179E+00  0.9167E+00
     -2.442  0.1794E+00  0.9286E+00
     -2.375  0.5421E-01  0.9322E+00
     -2.309 -0.1367E-01  0.9313E+00
     -2.242 -0.3061E-01  0.9292E+00
     -2.176 -0.1697E-01  0.9281E+00
     -2.109  0.2360E-01  0.9297E+00
     -2.043  0.9178E-01  0.9358E+00
     -1.976  0.1637E+00  0.9467E+00
     -1.910  0.1938E+00  0.9596E+00
     -1.843  0.1574E+00  0.9700E+00
     -1.777  0.8232E-01  0.9755E+00
     -1.710  0.3195E-01  0.9776E+00
     -1.644  0.6179E-01  0.9818E+00
     -1.577  0.1884E+00  0.9943E+00
     -1.511  0.3748E+00  0.1019E+01
     -1.444  0.5358E+00  0.1055E+01
     -1.378  0.5820E+00  0.1094E+01
     -1.311  0.4847E+00  0.1126E+01
     -1.244  0.3003E+00  0.1146E+01
     -1.178  0.1276E+00  0.1154E+01
     -1.111  0.4109E-01  0.1157E+01
     -1.045  0.5617E-01  0.1161E+01
     -0.978  0.1333E+00  0.1170E+01
     -0.912  0.2047E+00  0.1183E+01
     -0.845  0.2198E+00  0.1198E+01
     -0.779  0.1920E+00  0.1211E+01
     -0.712  0.1915E+00  0.1223E+01
     -0.646  0.2627E+00  0.1241E+01
     -0.579  0.3515E+00  0.1264E+01
     -0.513  0.3560E+00  0.1288E+01
     -0.446  0.2644E+00  0.1305E+01
     -0.380  0.2035E+00  0.1319E+01
     -0.313  0.3200E+00  0.1340E+01
     -0.247  0.6191E+00  0.1381E+01
     -0.180  0.9326E+00  0.1444E+01
     -0.114  0.1050E+01  0.1513E+01
     -0.047  0.8901E+00  0.1573E+01
      0.019  0.5524E+00  0.1609E+01
      0.086  0.2182E+00  0.1624E+01
      0.152  0.1359E-01  0.1625E+01
      0.219 -0.3437E-01  0.1622E+01
      0.285  0.4541E-01  0.1625E+01
      0.352  0.2005E+00  0.1639E+01
      0.419  0.3497E+00  0.1662E+01
      0.485  0.4056E+00  0.1689E+01
      0.552  0.3416E+00  0.1712E+01
      0.618  0.2179E+00  0.1726E+01
      0.685  0.1232E+00  0.1734E+01
      0.751  0.1108E+00  0.1742E+01
      0.818  0.1878E+00  0.1754E+01
      0.884  0.3260E+00  0.1776E+01
      0.951  0.4615E+00  0.1807E+01
      1.017  0.5146E+00  0.1841E+01
      1.084  0.4448E+00  0.1871E+01
      1.150  0.2874E+00  0.1890E+01
      1.217  0.1250E+00  0.1898E+01
      1.283  0.2008E-01  0.1899E+01
      1.350 -0.1993E-01  0.1898E+01
      1.416 -0.2479E-01  0.1896E+01
      1.483 -0.2426E-01  0.1895E+01
      1.549 -0.2712E-01  0.1893E+01
      1.616 -0.1609E-01  0.1892E+01
      1.682  0.4515E-01  0.1895E+01
      1.749  0.1818E+00  0.1907E+01
      1.815  0.3646E+00  0.1931E+01
      1.882  0.5079E+00  0.1965E+01
      1.948  0.5431E+00  0.2001E+01
      2.015  0.4948E+00  0.2034E+01
      2.081  0.4516E+00  0.2064E+01
      2.148  0.4615E+00  0.2095E+01
      2.215  0.4937E+00  0.2128E+01
      2.281  0.5031E+00  0.2161E+01
      2.348  0.4788E+00  0.2193E+01
      2.414  0.4238E+00  0.2221E+01
      2.481  0.3456E+00  0.2244E+01
      2.547  0.2926E+00  0.2264E+01
      2.614  0.3621E+00  0.2288E+01
      2.680  0.6209E+00  0.2329E+01
      2.747  0.1003E+01  0.2396E+01
      2.813  0.1308E+01  0.2483E+01
      2.880  0.1340E+01  0.2572E+01
      2.946  0.1069E+01  0.2643E+01
      3.013  0.6482E+00  0.2686E+01
      3.079  0.2752E+00  0.2704E+01
      3.146  0.4804E-01  0.2708E+01
      3.212 -0.4857E-01  0.2704E+01
      3.279 -0.5466E-01  0.2701E+01
      3.345  0.3557E-01  0.2703E+01
      3.412  0.2561E+00  0.2720E+01
      3.478  0.5856E+00  0.2759E+01
      3.545  0.9075E+00  0.2819E+01
      3.611  0.1096E+01  0.2892E+01
      3.678  0.1132E+01  0.2968E+01
      3.744  0.1085E+01  0.3040E+01
      3.811  0.1005E+01  0.3107E+01
      3.878  0.8976E+00  0.3166E+01
      3.944  0.7759E+00  0.3218E+01
      4.011  0.6898E+00  0.3264E+01
      4.077  0.6811E+00  0.3309E+01
      4.144  0.7243E+00  0.3357E+01
      4.210  0.7270E+00  0.3406E+01
      4.277  0.6173E+00  0.3447E+01
      4.343  0.4354E+00  0.3476E+01
      4.410  0.3076E+00  0.3496E+01
      4.476  0.3176E+00  0.3517E+01
      4.543  0.4316E+00  0.3546E+01
      4.609  0.5514E+00  0.3583E+01
      4.676  0.6127E+00  0.3623E+01
      4.742  0.6207E+00  0.3665E+01
      4.809  0.6171E+00  0.3706E+01
      4.875  0.6371E+00  0.3748E+01
      4.942  0.6880E+00  0.3794E+01
      5.008  0.7504E+00  0.3844E+01
      5.075  0.7931E+00  0.3897E+01
      5.141  0.7922E+00  0.3949E+01
      5.208  0.7330E+00  0.3998E+01
      5.274  0.6065E+00  0.4038E+01
      5.341  0.4266E+00  0.4067E+01
      5.407  0.2482E+00  0.4083E+01
      5.474  0.1433E+00  0.4093E+01
      5.541  0.1475E+00  0.4103E+01
      5.607  0.2327E+00  0.4118E+01
      5.674  0.3281E+00  0.4140E+01
      5.740  0.3643E+00  0.4164E+01
      5.807  0.3128E+00  0.4185E+01
      5.873  0.2005E+00  0.4198E+01
      5.940  0.8783E-01  0.4204E+01
      6.006  0.2715E-01  0.4206E+01
      6.073  0.3426E-01  0.4208E+01
      6.139  0.8886E-01  0.4214E+01
      6.206  0.1507E+00  0.4224E+01
      6.272  0.1808E+00  0.4236E+01
      6.339  0.1630E+00  0.4247E+01
      6.405  0.1132E+00  0.4255E+01
      6.472  0.6354E-01  0.4259E+01
      6.538  0.3432E-01  0.4261E+01
      6.605  0.2522E-01  0.4263E+01
      6.671  0.2964E-01  0.4265E+01
      6.738  0.4833E-01  0.4268E+01
      6.804  0.8293E-01  0.4274E+01
      6.871  0.1232E+00  0.4282E+01
      6.937  0.1495E+00  0.4292E+01
      7.004  0.1474E+00  0.4301E+01
      7.070  0.1162E+00  0.4309E+01
      7.137  0.6919E-01  0.4314E+01
      7.204  0.3087E-01  0.4316E+01
      7.270  0.2604E-01  0.4318E+01
      7.337  0.6468E-01  0.4322E+01
      7.403  0.1324E+00  0.4331E+01
      7.470  0.1972E+00  0.4344E+01
      7.536  0.2317E+00  0.4359E+01
      7.603  0.2373E+00  0.4375E+01
      7.669  0.2456E+00  0.4391E+01
      7.736  0.2887E+00  0.4411E+01
      7.802  0.3583E+00  0.4434E+01
      7.869  0.4023E+00  0.4461E+01
      7.935  0.3725E+00  0.4486E+01
      8.002  0.2799E+00  0.4505E+01
      8.068  0.1971E+00  0.4518E+01
      8.135  0.2009E+00  0.4531E+01
      8.201  0.3093E+00  0.4552E+01
      8.268  0.4695E+00  0.4583E+01
      8.334  0.6008E+00  0.4623E+01
      8.401  0.6464E+00  0.4666E+01
      8.467  0.5959E+00  0.4705E+01
      8.534  0.4886E+00  0.4738E+01
      8.600  0.4067E+00  0.4765E+01
      8.667  0.4340E+00  0.4794E+01
      8.733  0.5933E+00  0.4833E+01
      8.800  0.8276E+00  0.4888E+01
      8.866  0.1048E+01  0.4958E+01
      8.933  0.1186E+01  0.5037E+01
      9.000  0.1197E+01  0.5117E+01
      9.066  0.1056E+01  0.5187E+01
      9.133  0.7921E+00  0.5239E+01
      9.199  0.5026E+00  0.5273E+01
      9.266  0.2974E+00  0.5293E+01
      9.332  0.2214E+00  0.5307E+01
      9.399  0.2408E+00  0.5323E+01
      9.465  0.2854E+00  0.5342E+01
      9.532  0.2944E+00  0.5362E+01
      9.598  0.2438E+00  0.5378E+01
      9.665  0.1528E+00  0.5388E+01
      9.731  0.6430E-01  0.5393E+01
      9.798  0.1210E-01  0.5393E+01
      9.864  0.1194E-02  0.5394E+01
      9.931  0.1409E-01  0.5394E+01
      9.997  0.2819E-01  0.5396E+01
     10.064  0.3003E-01  0.5398E+01
     10.130  0.2028E-01  0.5400E+01
     10.197  0.8013E-02  0.5400E+01
     10.263  0.4078E-03  0.5400E+01
     10.330 -0.1807E-02  0.5400E+01
     10.396 -0.1396E-02  0.5400E+01
     10.463 -0.6216E-03  0.5400E+01
     10.529 -0.1944E-03  0.5400E+01
     10.596 -0.4537E-04  0.5400E+01
     10.663 -0.8109E-05  0.5400E+01
     10.729 -0.1126E-05  0.5400E+01
     10.796 -0.1225E-06  0.5400E+01
     10.862 -0.1051E-07  0.5400E+01
     10.929 -0.7124E-09  0.5400E+01
     10.995 -0.3832E-10  0.5400E+01
     11.062 -0.1638E-11  0.5400E+01
     11.128 -0.5570E-13  0.5400E+01
     11.195 -0.1502E-14  0.5400E+01
     11.261 -0.4173E-16  0.5400E+01
     11.328  0.0000E+00  0.5400E+01
     11.394  0.0000E+00  0.5400E+01
     11.461  0.0000E+00  0.5400E+01
     11.527  0.0000E+00  0.5400E+01
     11.594  0.0000E+00  0.5400E+01
     11.660  0.0000E+00  0.5400E+01
     11.727  0.0000E+00  0.5400E+01
     11.793  0.0000E+00  0.5400E+01
     11.860  0.0000E+00  0.5400E+01
     11.926  0.0000E+00  0.5400E+01
     11.993  0.0000E+00  0.5400E+01
