 vasp.6.4.3 19Mar24 (build Oct 21 2024 22:36:34) complex                        
  
 executed on             LinuxIFC date 2024.11.01  22:58:31
 running   96 mpi-ranks, on    1 nodes
 distrk:  each k-point on   24 cores,    4 groups
 distr:  one band on NCORE=  12 cores,    2 groups


--------------------------------------------------------------------------------------------------------


 INCAR:
   SYSTEM = Si64
   ISTART = 0
   ICHARG = 2
   LREAL = Auto
   PREC = Accurate
   LWAVE = .False.
   LCHARG = .False.
   ADDGRID = .True.
   ENCUT = 400
   GGA = PS
   GGA_COMPAT = .FALSE.
   ISMEAR = 1
   SIGMA = 0.2
   NELM = 60
   NELMIN = 8
   EDIFF = 1e-06
   EDIFFG = -0.01
   NSW = 60
   IBRION = 2
   ISIF = 2
   KPAR = 4
   NPAR = 2
   ALGO = Fast

 POTCAR:    PAW_PBE Si 05Jan2001                  
 POTCAR:    PAW_PBE Si 05Jan2001                  
   VRHFIN =Si: s2p2                                                                                 
   LEXCH  = PE                                                                                      
   EATOM  =   103.0669 eV,    7.5752 Ry                                                             
                                                                                                    
   TITEL  = PAW_PBE Si 05Jan2001                                                                    
   LULTRA =        F    use ultrasoft PP ?                                                          
   IUNSCR =        1    unscreen: 0-lin 1-nonlin 2-no                                               
   RPACOR =    1.500    partial core radius                                                         
   POMASS =   28.085; ZVAL   =    4.000    mass and valenz                                          
   RCORE  =    1.900    outmost cutoff radius                                                       
   RWIGS  =    2.480; RWIGS  =    1.312    wigner-seitz radius (au A)                               
   ENMAX  =  245.345; ENMIN  =  184.009 eV                                                          
   ICORE  =        2    local potential                                                             
   LCOR   =        T    correct aug charges                                                         
   LPAW   =        T    paw PP                                                                      
   EAUG   =  322.069                                                                                
   DEXC   =    0.000                                                                                
   RMAX   =    1.950    core radius for proj-oper                                                   
   RAUG   =    1.300    factor for augmentation sphere                                              
   RDEP   =    1.993    radius for radial grids                                                     
   RDEPT  =    1.837    core radius for aug-charge                                                  
                                                                                                    
   Atomic configuration                                                                             
    6 entries                                                                                       
     n  l   j            E        occ.                                                              
     1  0  0.50     -1785.8828   2.0000                                                             
     2  0  0.50      -139.4969   2.0000                                                             
     2  1  1.50       -95.5546   6.0000                                                             
     3  0  0.50       -10.8127   2.0000                                                             
     3  1  0.50        -4.0811   2.0000                                                             
     3  2  1.50        -4.0817   0.0000                                                             
   Description                                                                                      
     l       E           TYP  RCUT    TYP  RCUT                                                     
     0    -10.8127223     23  1.900                                                                 
     0     -7.6451159     23  1.900                                                                 
     1     -4.0811372     23  1.900                                                                 
     1      2.4879257     23  1.900                                                                 
     2     -4.0817478      7  1.900                                                                 
  local pseudopotential read in
  partial core-charges read in
  partial kinetic energy density read in
  atomic valenz-charges read in
  non local Contribution for L=           0  read in
    real space projection operators read in
  non local Contribution for L=           0  read in
    real space projection operators read in
  non local Contribution for L=           1  read in
    real space projection operators read in
  non local Contribution for L=           1  read in
    real space projection operators read in
    PAW grid and wavefunctions read in
 
   number of l-projection  operators is LMAX  =           4
   number of lm-projection operators is LMMAX =           8
 
 Optimization of the real space projectors (new method)

 maximal supplied QI-value         = 19.84
 optimisation between [QCUT,QGAM] = [ 10.12, 20.44] = [ 28.68,116.96] Ry 
 Optimized for a Real-space Cutoff    1.38 Angstroem

   l    n(q)    QCUT    max X(q) W(low)/X(q) W(high)/X(q)  e(spline) 
   0      8    10.119   159.560    0.58E-04    0.11E-03    0.54E-07
   0      8    10.119   115.863    0.56E-04    0.11E-03    0.54E-07
   1      8    10.119    88.339    0.22E-03    0.17E-03    0.19E-06
   1      8    10.119    48.592    0.22E-03    0.17E-03    0.18E-06
 -----------------------------------------------------------------------------
|                                                                             |
|               ----> ADVICE to this user running VASP <----                  |
|                                                                             |
|     You enforced a specific xc type in the INCAR file but a different       |
|     type was found in the POTCAR file.                                      |
|     I HOPE YOU KNOW WHAT YOU ARE DOING!                                     |
|                                                                             |
 -----------------------------------------------------------------------------

  PAW_PBE Si 05Jan2001                  :
 energy of atom  1       EATOM= -103.0669
 kinetic energy error for atom=    0.0012 (will be added to EATOM!!)
 
 
 POSCAR: Si8
  positions in direct lattice
  velocities in cartesian coordinates


 exchange-correlation table for PS
   RHO(1)=    0.500       N(1)  =     2000
   RHO(2)=  100.500       N(2)  =     4000
 


--------------------------------------------------------------------------------------------------------


 ion  position               nearest neighbor table
   1  0.000  0.000  0.000-  30 2.29  44 2.29  15 2.31  57 2.31
   2  0.000  0.000  0.500-  29 2.29  43 2.29  16 2.31  58 2.31
   3  0.000  0.500  0.000-  32 2.29  42 2.29  13 2.31  59 2.31
   4  0.000  0.500  0.500-  31 2.29  41 2.29  14 2.31  60 2.31
   5  0.500  0.000  0.000-  26 2.29  48 2.29  11 2.31  61 2.31
   6  0.500  0.000  0.500-  25 2.29  47 2.29  12 2.31  62 2.31
   7  0.500  0.500  0.000-  28 2.29  46 2.29   9 2.31  63 2.31
   8  0.500  0.500  0.500-  27 2.29  45 2.29  10 2.31  64 2.31
   9  0.375  0.375  0.125-  21 2.29  35 2.29   7 2.31  49 2.31
  10  0.375  0.375  0.625-  22 2.29  36 2.29   8 2.31  50 2.31
  11  0.375  0.875  0.125-  23 2.29  33 2.29   5 2.31  51 2.31
  12  0.375  0.875  0.625-  24 2.29  34 2.29   6 2.31  52 2.31
  13  0.875  0.375  0.125-  17 2.29  39 2.29   3 2.31  53 2.31
  14  0.875  0.375  0.625-  18 2.29  40 2.29   4 2.31  54 2.31
  15  0.875  0.875  0.125-  19 2.29  37 2.29   1 2.31  55 2.31
  16  0.875  0.875  0.625-  20 2.29  38 2.29   2 2.31  56 2.31
  17  0.000  0.250  0.250-  13 2.29  57 2.29  41 2.31  29 2.31
  18  0.000  0.250  0.750-  14 2.29  58 2.29  42 2.31  30 2.31
  19  0.000  0.750  0.250-  15 2.29  59 2.29  43 2.31  31 2.31
  20  0.000  0.750  0.750-  16 2.29  60 2.29  44 2.31  32 2.31
  21  0.500  0.250  0.250-   9 2.29  61 2.29  45 2.31  25 2.31
  22  0.500  0.250  0.750-  10 2.29  62 2.29  46 2.31  26 2.31
  23  0.500  0.750  0.250-  11 2.29  63 2.29  47 2.31  27 2.31
  24  0.500  0.750  0.750-  12 2.29  64 2.29  48 2.31  28 2.31
  25  0.375  0.125  0.375-   6 2.29  50 2.29  33 2.31  21 2.31
  26  0.375  0.125  0.875-   5 2.29  49 2.29  34 2.31  22 2.31
  27  0.375  0.625  0.375-   8 2.29  52 2.29  35 2.31  23 2.31
  28  0.375  0.625  0.875-   7 2.29  51 2.29  36 2.31  24 2.31
  29  0.875  0.125  0.375-   2 2.29  54 2.29  37 2.31  17 2.31
  30  0.875  0.125  0.875-   1 2.29  53 2.29  38 2.31  18 2.31
  31  0.875  0.625  0.375-   4 2.29  56 2.29  39 2.31  19 2.31
  32  0.875  0.625  0.875-   3 2.29  55 2.29  40 2.31  20 2.31
  33  0.250  0.000  0.250-  11 2.29  57 2.29  43 2.31  25 2.31
  34  0.250  0.000  0.750-  12 2.29  58 2.29  44 2.31  26 2.31
  35  0.250  0.500  0.250-   9 2.29  59 2.29  41 2.31  27 2.31
  36  0.250  0.500  0.750-  10 2.29  60 2.29  42 2.31  28 2.31
  37  0.750  0.000  0.250-  15 2.29  61 2.29  47 2.31  29 2.31
  38  0.750  0.000  0.750-  16 2.29  62 2.29  48 2.31  30 2.31
  39  0.750  0.500  0.250-  13 2.29  63 2.29  45 2.31  31 2.31
  40  0.750  0.500  0.750-  14 2.29  64 2.29  46 2.31  32 2.31
  41  0.125  0.375  0.375-   4 2.29  50 2.29  35 2.31  17 2.31
  42  0.125  0.375  0.875-   3 2.29  49 2.29  36 2.31  18 2.31
  43  0.125  0.875  0.375-   2 2.29  52 2.29  33 2.31  19 2.31
  44  0.125  0.875  0.875-   1 2.29  51 2.29  34 2.31  20 2.31
  45  0.625  0.375  0.375-   8 2.29  54 2.29  39 2.31  21 2.31
  46  0.625  0.375  0.875-   7 2.29  53 2.29  40 2.31  22 2.31
  47  0.625  0.875  0.375-   6 2.29  56 2.29  37 2.31  23 2.31
  48  0.625  0.875  0.875-   5 2.29  55 2.29  38 2.31  24 2.31
  49  0.250  0.250  0.000-  26 2.29  42 2.29   9 2.31  57 2.31
  50  0.250  0.250  0.500-  25 2.29  41 2.29  10 2.31  58 2.31
  51  0.250  0.750  0.000-  28 2.29  44 2.29  11 2.31  59 2.31
  52  0.250  0.750  0.500-  27 2.29  43 2.29  12 2.31  60 2.31
  53  0.750  0.250  0.000-  30 2.29  46 2.29  13 2.31  61 2.31
  54  0.750  0.250  0.500-  29 2.29  45 2.29  14 2.31  62 2.31
  55  0.750  0.750  0.000-  32 2.29  48 2.29  15 2.31  63 2.31
  56  0.750  0.750  0.500-  31 2.29  47 2.29  16 2.31  64 2.31
  57  0.125  0.125  0.125-  17 2.29  33 2.29   1 2.31  49 2.31
  58  0.125  0.125  0.625-  18 2.29  34 2.29   2 2.31  50 2.31
  59  0.125  0.625  0.125-  19 2.29  35 2.29   3 2.31  51 2.31
  60  0.125  0.625  0.625-  20 2.29  36 2.29   4 2.31  52 2.31
  61  0.625  0.125  0.125-  21 2.29  37 2.29   5 2.31  53 2.31
  62  0.625  0.125  0.625-  22 2.29  38 2.29   6 2.31  54 2.31
  63  0.625  0.625  0.125-  23 2.29  39 2.29   7 2.31  55 2.31
  64  0.625  0.625  0.625-  24 2.29  40 2.29   8 2.31  56 2.31
 
  LATTYP: Found a simple monoclinic cell.
 ALAT       =    10.5572144692
 B/A-ratio  =     0.9999718761
 C/A-ratio  =     1.0149990924
 COS(beta)  =    -0.0148883623
  
  Lattice vectors:
  
 A1 = (   0.0791770117,  10.5569175591,   0.0000000000)
 A2 = (   0.0000000000,   0.0000000000, -10.5569175591)
 A3 = ( -10.7152705824,  -0.0791770117,   0.0000000000)


Analysis of symmetry for initial positions (statically):
=====================================================================
 Subroutine PRICEL returns following result:
 
  LATTYP: Found a base centered monoclinic cell.
 ALAT       =     5.2786072346
 B/A-ratio  =     0.9999718761
 C/A-ratio  =     0.7071067474
 COS(beta)  =    -0.6964212471
  
  Lattice vectors:
  
 A1 = (   0.0197942529,   2.6392293898,  -2.6392293898)
 A2 = (   0.0197942529,   2.6392293898,   2.6392293898)
 A3 = (   2.6590233927,  -2.6194351368,   0.0000000000)
 
  32 primitive cells build up your supercell.
 

 Routine SETGRP: Setting up the symmetry group for a 
 simple monoclinic supercell.


 Subroutine GETGRP returns: Found  4 space group operations
 (whereof  2 operations were pure point group operations)
 out of a pool of  4 trial point group operations.


The static configuration has the point symmetry C_2 .
 The point group associated with its full space group is C_2h.


Analysis of symmetry for dynamics (positions and initial velocities):
=====================================================================
 Subroutine PRICEL returns following result:
 
  LATTYP: Found a base centered monoclinic cell.
 ALAT       =     5.2786072346
 B/A-ratio  =     0.9999718761
 C/A-ratio  =     0.7071067474
 COS(beta)  =    -0.6964212471
  
  Lattice vectors:
  
 A1 = (   0.0197942529,   2.6392293898,  -2.6392293898)
 A2 = (   0.0197942529,   2.6392293898,   2.6392293898)
 A3 = (   2.6590233927,  -2.6194351368,   0.0000000000)
 
  32 primitive cells build up your supercell.
 

 Routine SETGRP: Setting up the symmetry group for a 
 simple monoclinic supercell.


 Subroutine GETGRP returns: Found  4 space group operations
 (whereof  2 operations were pure point group operations)
 out of a pool of  4 trial point group operations.


The dynamic configuration has the point symmetry C_2 .
 The point group associated with its full space group is C_2h.


 Subroutine INISYM returns: Found  4 space group operations
 (whereof  2 operations are pure point group operations),
 and found    32 'primitive' translations


----------------------------------------------------------------------------------------

                                     Primitive cell                                     

  volume of cell :      37.3167

  direct lattice vectors                    reciprocal lattice vectors
     0.019794253  2.639229390 -2.639229390     0.185259903  0.188059788 -0.189449239
     0.019794253  2.639229390  2.639229390     0.185259903  0.188059788  0.189449239
     2.659023393 -2.619435137  0.000000000     0.373319708 -0.002799902 -0.000000000

  length of vectors
     3.732486484  3.732486484  3.732538793     0.324928807  0.324928807  0.373330208

  position of ions in fractional coordinates (direct lattice)
     0.000000000  0.000000000  0.000000000
     0.250000000  0.750000000  0.500000000

  ion indices of the primitive-cell ions
   primitive index   ion index
                 1           1
                 2          15

----------------------------------------------------------------------------------------

 
 
 KPOINTS: Automatic mesh                          

Automatic generation of k-mesh.
 Grid dimensions read from file:
 generate k-points for:    2    2    2

 Generating k-lattice:

  Cartesian coordinates                     Fractional coordinates (reciprocal lattice)
     0.046664964 -0.000349988  0.000000000     0.500000000 -0.000000000  0.000000000
    -0.000349988  0.047364935  0.000000000    -0.000000000  0.500000000  0.000000000
     0.000000000  0.000000000  0.047362310     0.000000000  0.000000000  0.500000000

  Length of vectors
     0.046666276  0.047366228  0.047362310

  Shift w.r.t. Gamma in fractional coordinates (k-lattice)
     0.000000000  0.000000000  0.000000000

 
 Subroutine IBZKPT returns following result:
 ===========================================
 
 Found      8 irreducible k-points:
 
 Following reciprocal coordinates:
            Coordinates               Weight
  0.000000  0.000000  0.000000      1.000000
  0.500000  0.000000  0.000000      1.000000
 -0.000000  0.500000  0.000000      1.000000
  0.500000  0.500000  0.000000      1.000000
  0.000000  0.000000  0.500000      1.000000
  0.500000  0.000000  0.500000      1.000000
 -0.000000  0.500000  0.500000      1.000000
  0.500000  0.500000  0.500000      1.000000
 
 Following cartesian coordinates:
            Coordinates               Weight
  0.000000  0.000000  0.000000      1.000000
  0.046665 -0.000350  0.000000      1.000000
 -0.000350  0.047365  0.000000      1.000000
  0.046315  0.047015  0.000000      1.000000
  0.000000  0.000000  0.047362      1.000000
  0.046665 -0.000350  0.047362      1.000000
 -0.000350  0.047365  0.047362      1.000000
  0.046315  0.047015  0.047362      1.000000
 


--------------------------------------------------------------------------------------------------------




 Dimension of arrays:
   k-points           NKPTS =      8   k-points in BZ     NKDIM =      8   number of bands    NBANDS=    162
   number of dos      NEDOS =    301   number of ions     NIONS =     64
   non local maximal  LDIM  =      4   non local SUM 2l+1 LMDIM =      8
   total plane-waves  NPLWV = 343000
   max r-space proj   IRMAX =   3215   max aug-charges    IRDMAX=  77021
   dimension x,y,z NGX =    70 NGY =   70 NGZ =   70
   dimension x,y,z NGXF=   140 NGYF=  140 NGZF=  140
   support grid    NGXF=   280 NGYF=  280 NGZF=  280
   ions per type =              64
   NGX,Y,Z   is equivalent  to a cutoff of  10.86, 11.02, 11.02 a.u.
   NGXF,Y,Z  is equivalent  to a cutoff of  21.72, 22.05, 22.05 a.u.

 SYSTEM =  Si64                                    
 POSCAR =  Si8                                     

 Startparameter for this run:
   NWRITE =      2    write-flag & timer
   PREC   = accura    normal or accurate (medium, high low for compatibility)
   ISTART =      0    job   : 0-new  1-cont  2-samecut
   ICHARG =      2    charge: 1-file 2-atom 10-const
   ISPIN  =      1    spin polarized calculation?
   LNONCOLLINEAR =      F non collinear calculations
   LSORBIT =      F    spin-orbit coupling
   INIWAV =      1    electr: 0-lowe 1-rand  2-diag
   LASPH  =      F    aspherical Exc in radial PAW
 Electronic Relaxation 1
   ENCUT  =  400.0 eV  29.40 Ry    5.42 a.u.  17.47 17.22 17.22*2*pi/ulx,y,z
   ENINI  =  400.0     initial cutoff
   ENAUG  =  322.1 eV  augmentation charge cutoff
   NELM   =     60;   NELMIN=  8; NELMDL= -5     # of ELM steps 
   EDIFF  = 0.1E-05   stopping-criterion for ELM
   LREAL  =      T    real-space projection
   NLSPLINE    = F    spline interpolate recip. space projectors
   LCOMPAT=      F    compatible to vasp.4.4
   GGA_COMPAT  = F    GGA compatible to vasp.4.4-vasp.4.6
   LMAXPAW     = -100 max onsite density
   LMAXMIX     =    2 max onsite mixed and CHGCAR
   VOSKOWN=      0    Vosko Wilk Nusair interpolation
   ROPT   =   -0.00025
 Ionic relaxation
   EDIFFG = -.1E-01   stopping-criterion for IOM
   NSW    =     60    number of steps for IOM
   NBLOCK =      1;   KBLOCK =     60    inner block; outer block 
   IBRION =      2    ionic relax: 0-MD 1-quasi-New 2-CG
   NFREE  =      1    steps in history (QN), initial steepest desc. (CG)
   ISIF   =      2    stress and relaxation
   IWAVPR =     11    prediction:  0-non 1-charg 2-wave 3-comb
   ISYM   =      2    0-nonsym 1-usesym 2-fastsym
   LCORR  =      T    Harris-Foulkes like correction to forces

   POTIM  = 0.5000    time-step for ionic-motion
   TEIN   =    0.0    initial temperature
   TEBEG  =    0.0;   TEEND  =   0.0 temperature during run
   SMASS  =  -3.00    Nose mass-parameter (am)
   estimated Nose-frequenzy (Omega)   =  0.10E-29 period in steps = 0.13E+47 mass=  -0.262E-26a.u.
   SCALEE = 1.0000    scale energy and forces
   NPACO  =    256;   APACO  = 10.0  distance and # of slots for P.C.
   PSTRESS=    0.0 pullay stress

  Mass of Ions in am
   POMASS =  28.09
  Ionic Valenz
   ZVAL   =   4.00
  Atomic Wigner-Seitz radii
   RWIGS  =  -1.00
  virtual crystal weights 
   VCA    =   1.00
   NELECT =     256.0000    total number of electrons
   NUPDOWN=      -1.0000    fix difference up-down

 DOS related values:
   EMIN   =  10.00;   EMAX   =-10.00  energy-range for DOS
   EFERMI =   0.00;   METHOD = LEGACY      
   ISMEAR =     1;   SIGMA  =   0.20  broadening in eV -4-tet -1-fermi 0-gaus

 Electronic relaxation 2 (details)
   IALGO  =     68    algorithm
   LDIAG  =      T    sub-space diagonalisation (order eigenvalues)
   LSUBROT=      F    optimize rotation matrix (better conditioning)
   TURBO    =      0    0=normal 1=particle mesh
   IRESTART =      0    0=no restart 2=restart with 2 vectors
   NREBOOT  =      0    no. of reboots
   NMIN     =      0    reboot dimension
   EREF     =   0.00    reference energy to select bands
   IMIX   =      4    mixing-type and parameters
     AMIX     =   0.40;   BMIX     =  1.00
     AMIX_MAG =   1.60;   BMIX_MAG =  1.00
     AMIN     =   0.10
     WC   =   100.;   INIMIX=   1;  MIXPRE=   1;  MAXMIX= -45

 Intra band minimization:
   WEIMIN = 0.0010     energy-eigenvalue tresh-hold
   EBREAK =  0.15E-08  absolut break condition
   DEPER  =   0.30     relativ break condition  

   TIME   =   0.40     timestep for ELM

  volume/ion in A,a.u.               =      18.66       125.91
  Fermi-wavevector in a.u.,A,eV,Ry     =   0.979799  1.851552 13.061679  0.960006
  Thomas-Fermi vector in A             =   2.110680
 
 Write flags
   LWAVE        =      F    write WAVECAR
   LDOWNSAMPLE  =      F    k-point downsampling of WAVECAR
   LCHARG       =      F    write CHGCAR
   LVTOT        =      F    write LOCPOT, total local potential
   LVHAR        =      F    write LOCPOT, Hartree potential only
   WRT_POTENTIAL= false  ! write potential to hdf5 file
   LELF         =      F    write electronic localiz. function (ELF)
   LORBIT       =      0    0 simple, 1 ext, 2 COOP (PROOUT), +10 PAW based schemes


 Dipole corrections
   LMONO      =      F    monopole corrections only (constant potential shift)
   LDIPOL     =      F    correct potential (dipole corrections)
   IDIPOL     =      0    1-x, 2-y, 3-z, 4-all directions 
   EPSILON    =  1.0000000 bulk dielectric constant
   LVACPOTAV  =      F  vacuum potentials using an averaging scheme for the charge density
   VACPOTFLAT =  0.1000000 required flatness to determine vacuum potential
 Exchange correlation treatment:
   GGA     = PS    functional components
   XC_C    = 1    coefficients multiplying the functional components
   LIBXC   =     F    Libxc                    
   VOSKOWN =     0    Vosko Wilk Nusair interpolation
   LHFCALC =     F    Hartree Fock is set to
   LHFONE  =     F    Hartree Fock one center treatment
   AEXX    =    0.0000 exact exchange contribution

 Parameters of functionals:
   PS:
     No parameter
 
 Van der Waals corrections
   IVDW    =     0    specifies the selected vdW correction

 Linear response parameters
   LEPSILON=     F    determine dielectric tensor
   LRPA    =     F    only Hartree local field effects (RPA)
   LNABLA  =     F    use nabla operator in PAW spheres
   LVEL    =     F    velocity operator in full k-point grid
   CSHIFT  =0.1000    complex shift for real part using Kramers Kronig
   OMEGAMAX=  -1.0    maximum frequency
   DEG_THRESHOLD= 0.2000000E-02 threshold for treating states as degnerate
   RTIME   =   -0.100 relaxation time in fs
  (WPLASMAI=    0.000 imaginary part of plasma frequency in eV, 0.658/RTIME)
   DFIELD  = 0.0000000 0.0000000 0.0000000 field for delta impulse in time
 
  Optional k-point grid parameters
   LKPOINTS_OPT  =     F    use optional k-point grid
   KPOINTS_OPT_MODE=     1    mode for optional k-point grid
 
 Orbital magnetization related:
   ORBITALMAG=     F  switch on orbital magnetization
   LCHIMAG   =     F  perturbation theory with respect to B field
   DQ        =  0.001000  dq finite difference perturbation B field
   LLRAUG    =     F  two centre corrections for induced B field
   LBONE     =     F  B-component reconstruction in AE one-centre
   LVGVCALC  =     T  calculate vGv susceptibility
   LVGVAPPL  =     F  apply vGv susceptibility instead of pGv for G=0

 Random number generation:
   RANDOM_GENERATOR = DEFAULT
   PCG_SEED         = not used


--------------------------------------------------------------------------------------------------------


 conjugate gradient relaxation of ions
 charge density and potential will be updated during run
 non-spin polarized calculation
 RMM-DIIS sequential band-by-band and
  variant of blocked Davidson during initial phase
 perform sub-space diagonalisation
    before iterative eigenvector-optimisation
 modified Broyden-mixing scheme, WC =      100.0
 initial mixing is a Kerker type mixing with AMIX =  0.4000 and BMIX =      1.0000
 Hartree-type preconditioning will be used
 using additional bands           34
 real space projection scheme for non local part
 use partial core corrections
 calculate Harris-corrections to forces 
   (improved forces if not selfconsistent)
 use gradient corrections 
 use of overlap-Matrix (Vanderbilt PP)
 Methfessel and Paxton  Order N= 1 SIGMA  =   0.20


--------------------------------------------------------------------------------------------------------


  energy-cutoff  :      400.00
  volume of cell :     1194.13
      direct lattice vectors                 reciprocal lattice vectors
    10.715270582  0.079177012  0.000000000     0.093329927 -0.000699976  0.000000000
     0.079177012 10.556917559  0.000000000    -0.000699976  0.094729869  0.000000000
     0.000000000  0.000000000 10.556917559     0.000000000  0.000000000  0.094724620

  length of vectors
    10.715563105 10.557214469 10.556917559     0.093332552  0.094732456  0.094724620


 
 k-points in units of 2pi/SCALE and weight: Automatic mesh                          
   0.00000000  0.00000000  0.00000000       0.125
   0.04666497 -0.00034999  0.00000000       0.125
  -0.00034999  0.04736494  0.00000000       0.125
   0.04631498  0.04701495  0.00000000       0.125
   0.00000000  0.00000000  0.04736232       0.125
   0.04666497 -0.00034999  0.04736232       0.125
  -0.00034999  0.04736494  0.04736232       0.125
   0.04631498  0.04701495  0.04736232       0.125
 
 k-points in reciprocal lattice and weights: Automatic mesh                          
   0.00000000  0.00000000  0.00000000       0.125
   0.50000000  0.00000000  0.00000000       0.125
  -0.00000000  0.50000000  0.00000000       0.125
   0.50000000  0.50000000  0.00000000       0.125
   0.00000000  0.00000000  0.50000000       0.125
   0.50000000  0.00000000  0.50000000       0.125
  -0.00000000  0.50000000  0.50000000       0.125
   0.50000000  0.50000000  0.50000000       0.125
 
 position of ions in fractional coordinates (direct lattice) 
   0.00000000  0.00000000  0.00000000
   0.00000000  0.00000000  0.50000000
   0.00000000  0.50000000  0.00000000
   0.00000000  0.50000000  0.50000000
   0.50000000  0.00000000  0.00000000
   0.50000000  0.00000000  0.50000000
   0.50000000  0.50000000  0.00000000
   0.50000000  0.50000000  0.50000000
   0.37500000  0.37500000  0.12500000
   0.37500000  0.37500000  0.62500000
   0.37500000  0.87500000  0.12500000
   0.37500000  0.87500000  0.62500000
   0.87500000  0.37500000  0.12500000
   0.87500000  0.37500000  0.62500000
   0.87500000  0.87500000  0.12500000
   0.87500000  0.87500000  0.62500000
   0.00000000  0.25000000  0.25000000
   0.00000000  0.25000000  0.75000000
   0.00000000  0.75000000  0.25000000
   0.00000000  0.75000000  0.75000000
   0.50000000  0.25000000  0.25000000
   0.50000000  0.25000000  0.75000000
   0.50000000  0.75000000  0.25000000
   0.50000000  0.75000000  0.75000000
   0.37500000  0.12500000  0.37500000
   0.37500000  0.12500000  0.87500000
   0.37500000  0.62500000  0.37500000
   0.37500000  0.62500000  0.87500000
   0.87500000  0.12500000  0.37500000
   0.87500000  0.12500000  0.87500000
   0.87500000  0.62500000  0.37500000
   0.87500000  0.62500000  0.87500000
   0.25000000  0.00000000  0.25000000
   0.25000000  0.00000000  0.75000000
   0.25000000  0.50000000  0.25000000
   0.25000000  0.50000000  0.75000000
   0.75000000  0.00000000  0.25000000
   0.75000000  0.00000000  0.75000000
   0.75000000  0.50000000  0.25000000
   0.75000000  0.50000000  0.75000000
   0.12500000  0.37500000  0.37500000
   0.12500000  0.37500000  0.87500000
   0.12500000  0.87500000  0.37500000
   0.12500000  0.87500000  0.87500000
   0.62500000  0.37500000  0.37500000
   0.62500000  0.37500000  0.87500000
   0.62500000  0.87500000  0.37500000
   0.62500000  0.87500000  0.87500000
   0.25000000  0.25000000  0.00000000
   0.25000000  0.25000000  0.50000000
   0.25000000  0.75000000  0.00000000
   0.25000000  0.75000000  0.50000000
   0.75000000  0.25000000  0.00000000
   0.75000000  0.25000000  0.50000000
   0.75000000  0.75000000  0.00000000
   0.75000000  0.75000000  0.50000000
   0.12500000  0.12500000  0.12500000
   0.12500000  0.12500000  0.62500000
   0.12500000  0.62500000  0.12500000
   0.12500000  0.62500000  0.62500000
   0.62500000  0.12500000  0.12500000
   0.62500000  0.12500000  0.62500000
   0.62500000  0.62500000  0.12500000
   0.62500000  0.62500000  0.62500000
 
 position of ions in cartesian coordinates  (Angst):
   0.00000000  0.00000000  0.00000000
   0.00000000  0.00000000  5.27845878
   0.03958851  5.27845878  0.00000000
   0.03958851  5.27845878  5.27845878
   5.35763529  0.03958851  0.00000000
   5.35763529  0.03958851  5.27845878
   5.39722380  5.31804729  0.00000000
   5.39722380  5.31804729  5.27845878
   4.04791785  3.98853546  1.31961469
   4.04791785  3.98853546  6.59807347
   4.08750635  9.26699424  1.31961469
   4.08750635  9.26699424  6.59807347
   9.40555314  4.02812397  1.31961469
   9.40555314  4.02812397  6.59807347
   9.44514164  9.30658275  1.31961469
   9.44514164  9.30658275  6.59807347
   0.01979425  2.63922939  2.63922939
   0.01979425  2.63922939  7.91768817
   0.05938276  7.91768817  2.63922939
   0.05938276  7.91768817  7.91768817
   5.37742954  2.67881790  2.63922939
   5.37742954  2.67881790  7.91768817
   5.41701805  7.95727668  2.63922939
   5.41701805  7.95727668  7.91768817
   4.02812359  1.34930607  3.95884408
   4.02812359  1.34930607  9.23730286
   4.06771210  6.62776485  3.95884408
   4.06771210  6.62776485  9.23730286
   9.38575889  1.38889458  3.95884408
   9.38575889  1.38889458  9.23730286
   9.42534739  6.66735336  3.95884408
   9.42534739  6.66735336  9.23730286
   2.67881765  0.01979425  2.63922939
   2.67881765  0.01979425  7.91768817
   2.71840615  5.29825303  2.63922939
   2.71840615  5.29825303  7.91768817
   8.03645294  0.05938276  2.63922939
   8.03645294  0.05938276  7.91768817
   8.07604144  5.33784154  2.63922939
   8.07604144  5.33784154  7.91768817
   1.36910020  3.96874121  3.95884408
   1.36910020  3.96874121  9.23730286
   1.40868871  9.24719999  3.95884408
   1.40868871  9.24719999  9.23730286
   6.72673549  4.00832972  3.95884408
   6.72673549  4.00832972  9.23730286
   6.76632400  9.28678850  3.95884408
   6.76632400  9.28678850  9.23730286
   2.69861190  2.65902364  0.00000000
   2.69861190  2.65902364  5.27845878
   2.73820040  7.93748242  0.00000000
   2.73820040  7.93748242  5.27845878
   8.05624719  2.69861215  0.00000000
   8.05624719  2.69861215  5.27845878
   8.09583570  7.97707093  0.00000000
   8.09583570  7.97707093  5.27845878
   1.34930595  1.32951182  1.31961469
   1.34930595  1.32951182  6.59807347
   1.38889446  6.60797060  1.31961469
   1.38889446  6.60797060  6.59807347
   6.70694124  1.36910033  1.31961469
   6.70694124  1.36910033  6.59807347
   6.74652975  6.64755911  1.31961469
   6.74652975  6.64755911  6.59807347
 


--------------------------------------------------------------------------------------------------------


 k-point     1 :   0.0000 0.0000 0.0000  plane waves:   21713
 k-point     2 :   0.5000 0.0000 0.0000  plane waves:   21682
 k-point     3 :  -0.0000 0.5000 0.0000  plane waves:   21720
 k-point     4 :   0.5000 0.5000 0.0000  plane waves:   21644
 k-point     5 :   0.0000 0.0000 0.5000  plane waves:   21674
 k-point     6 :   0.5000 0.0000 0.5000  plane waves:   21672
 k-point     7 :  -0.0000 0.5000 0.5000  plane waves:   21688
 k-point     8 :   0.5000 0.5000 0.5000  plane waves:   21732

 maximum and minimum number of plane-waves per node :      1835     1779

 maximum number of plane-waves:     21732
 maximum index in each direction: 
   IXMAX=   17   IYMAX=   17   IZMAX=   17
   IXMIN=  -17   IYMIN=  -17   IZMIN=  -17


 real space projection operators:
  total allocation   :      12312.50 KBytes
  max/ min on nodes  :       1071.75        888.75


 parallel 3D FFT for wavefunctions:
    minimum data exchange during FFTs selected (reduces bandwidth)
 parallel 3D FFT for charge:
    minimum data exchange during FFTs selected (reduces bandwidth)


 total amount of memory used by VASP MPI-rank0    78917. kBytes
=======================================================================

   base      :      30000. kBytes
   nonlr-proj:       4764. kBytes
   fftplans  :      17991. kBytes
   grid      :       6881. kBytes
   one-center:         18. kBytes
   wavefun   :      19263. kBytes
 
     INWAV:  cpu time      0.0000: real time      0.0000
 Broyden mixing: mesh for mixing (old mesh)
   NGX = 35   NGY = 35   NGZ = 35
  (NGX  =140   NGY  =140   NGZ  =140)
  gives a total of  42875 points

 initial charge density was supplied:
 charge density of overlapping atoms calculated
 number of electron     256.0000000 magnetization 
 keeping initial charge density in first step


--------------------------------------------------------------------------------------------------------


 Maximum index for non-local projection operator          286
 Maximum index for augmentation-charges         3794 (set IRDMAX)


--------------------------------------------------------------------------------------------------------


 First call to EWALD:  gamma=   0.167
 Maximum number of real-space cells 3x 3x 3
 Maximum number of reciprocal cells 3x 3x 3

    FEWALD:  cpu time      0.0051: real time      0.0051


--------------------------------------- Ionic step        1  -------------------------------------------




--------------------------------------- Iteration      1(   1)  ---------------------------------------


    POTLOK:  cpu time      0.0832: real time      0.0858
    SETDIJ:  cpu time      0.0798: real time      0.0825
     EDDAV:  cpu time      1.2428: real time      1.3150
       DOS:  cpu time      0.0043: real time      0.0043
    --------------------------------------------
      LOOP:  cpu time      1.4101: real time      1.4876

 eigenvalue-minimisations  :  2592
 total energy-change (2. order) : 0.5789747E+03  (-0.8525205E+04)
 number of electron     256.0000000 magnetization 
 augmentation part      256.0000000 magnetization 

 Free energy of the ion-electron system (eV)
  ---------------------------------------------------
  alpha Z        PSCENC =       115.46786049
  Ewald energy   TEWEN  =     -7486.84787977
  -Hartree energ DENC   =      -319.22471758
  -exchange      EXHF   =         0.00000000
  -V(xc)+E(xc)   XCENC  =      -550.19698427
  PAW double counting   =      5598.62625415    -4492.17844134
  entropy T*S    EENTRO =        -0.00064346
  eigenvalues    EBANDS =      1148.53336855
  atomic energy  EATOM  =      6564.79586099
  Solvation  Ediel_sol  =         0.00000000
  ---------------------------------------------------
  free energy    TOTEN  =       578.97467776 eV

  energy without entropy =      578.97532122  energy(sigma->0) =      578.97489225


--------------------------------------------------------------------------------------------------------




--------------------------------------- Iteration      1(   2)  ---------------------------------------


     EDDAV:  cpu time      1.3170: real time      1.3292
       DOS:  cpu time      0.0012: real time      0.0012
    --------------------------------------------
      LOOP:  cpu time      1.3182: real time      1.3304

 eigenvalue-minimisations  :  3088
 total energy-change (2. order) :-0.8875210E+03  (-0.8406252E+03)
 number of electron     256.0000000 magnetization 
 augmentation part      256.0000000 magnetization 

 Free energy of the ion-electron system (eV)
  ---------------------------------------------------
  alpha Z        PSCENC =       115.46786049
  Ewald energy   TEWEN  =     -7486.84787977
  -Hartree energ DENC   =      -319.22471758
  -exchange      EXHF   =         0.00000000
  -V(xc)+E(xc)   XCENC  =      -550.19698427
  PAW double counting   =      5598.62625415    -4492.17844134
  entropy T*S    EENTRO =         0.01107478
  eigenvalues    EBANDS =       261.00066780
  atomic energy  EATOM  =      6564.79586099
  Solvation  Ediel_sol  =         0.00000000
  ---------------------------------------------------
  free energy    TOTEN  =      -308.54630475 eV

  energy without entropy =     -308.55737953  energy(sigma->0) =     -308.54999634


--------------------------------------------------------------------------------------------------------




--------------------------------------- Iteration      1(   3)  ---------------------------------------


     EDDAV:  cpu time      1.3332: real time      1.3477
       DOS:  cpu time      0.0015: real time      0.0015
    --------------------------------------------
      LOOP:  cpu time      1.3347: real time      1.3492

 eigenvalue-minimisations  :  3152
 total energy-change (2. order) :-0.6382049E+02  (-0.6259005E+02)
 number of electron     256.0000000 magnetization 
 augmentation part      256.0000000 magnetization 

 Free energy of the ion-electron system (eV)
  ---------------------------------------------------
  alpha Z        PSCENC =       115.46786049
  Ewald energy   TEWEN  =     -7486.84787977
  -Hartree energ DENC   =      -319.22471758
  -exchange      EXHF   =         0.00000000
  -V(xc)+E(xc)   XCENC  =      -550.19698427
  PAW double counting   =      5598.62625415    -4492.17844134
  entropy T*S    EENTRO =         0.00769050
  eigenvalues    EBANDS =       197.18355858
  atomic energy  EATOM  =      6564.79586099
  Solvation  Ediel_sol  =         0.00000000
  ---------------------------------------------------
  free energy    TOTEN  =      -372.36679825 eV

  energy without entropy =     -372.37448875  energy(sigma->0) =     -372.36936175


--------------------------------------------------------------------------------------------------------




--------------------------------------- Iteration      1(   4)  ---------------------------------------


     EDDAV:  cpu time      1.3162: real time      1.3279
       DOS:  cpu time      0.0014: real time      0.0014
    --------------------------------------------
      LOOP:  cpu time      1.3175: real time      1.3292

 eigenvalue-minimisations  :  3104
 total energy-change (2. order) :-0.1608587E+01  (-0.1595914E+01)
 number of electron     256.0000000 magnetization 
 augmentation part      256.0000000 magnetization 

 Free energy of the ion-electron system (eV)
  ---------------------------------------------------
  alpha Z        PSCENC =       115.46786049
  Ewald energy   TEWEN  =     -7486.84787977
  -Hartree energ DENC   =      -319.22471758
  -exchange      EXHF   =         0.00000000
  -V(xc)+E(xc)   XCENC  =      -550.19698427
  PAW double counting   =      5598.62625415    -4492.17844134
  entropy T*S    EENTRO =         0.00773372
  eigenvalues    EBANDS =       195.57492838
  atomic energy  EATOM  =      6564.79586099
  Solvation  Ediel_sol  =         0.00000000
  ---------------------------------------------------
  free energy    TOTEN  =      -373.97538523 eV

  energy without entropy =     -373.98311895  energy(sigma->0) =     -373.97796314


--------------------------------------------------------------------------------------------------------




--------------------------------------- Iteration      1(   5)  ---------------------------------------


     EDDAV:  cpu time      1.3310: real time      1.3485
       DOS:  cpu time      0.0013: real time      0.0013
    CHARGE:  cpu time      0.2464: real time      0.2482
    MIXING:  cpu time      0.0090: real time      0.0090
    --------------------------------------------
      LOOP:  cpu time      1.5878: real time      1.6071

 eigenvalue-minimisations  :  3152
 total energy-change (2. order) :-0.5741557E-01  (-0.5729711E-01)
 number of electron     255.9999998 magnetization 
 augmentation part      -15.1344153 magnetization 

 Broyden mixing:
  rms(total) = 0.30820E+01    rms(broyden)= 0.30820E+01
  rms(prec ) = 0.33890E+01
  weight for this iteration     100.00

 Free energy of the ion-electron system (eV)
  ---------------------------------------------------
  alpha Z        PSCENC =       115.46786049
  Ewald energy   TEWEN  =     -7486.84787977
  -Hartree energ DENC   =      -319.22471758
  -exchange      EXHF   =         0.00000000
  -V(xc)+E(xc)   XCENC  =      -550.19698427
  PAW double counting   =      5598.62625415    -4492.17844134
  entropy T*S    EENTRO =         0.00780578
  eigenvalues    EBANDS =       195.51744076
  atomic energy  EATOM  =      6564.79586099
  Solvation  Ediel_sol  =         0.00000000
  ---------------------------------------------------
  free energy    TOTEN  =      -374.03280080 eV

  energy without entropy =     -374.04060658  energy(sigma->0) =     -374.03540272


--------------------------------------------------------------------------------------------------------




--------------------------------------- Iteration      1(   6)  ---------------------------------------


    POTLOK:  cpu time      0.0809: real time      0.0940
    SETDIJ:  cpu time      0.0686: real time      0.0688
    EDDIAG:  cpu time      0.1333: real time      0.1337
  RMM-DIIS:  cpu time      0.6881: real time      0.6900
    ORTHCH:  cpu time      0.0195: real time      0.0196
       DOS:  cpu time      0.0021: real time      0.0021
    CHARGE:  cpu time      0.2338: real time      0.2344
    MIXING:  cpu time      0.0052: real time      0.0089
    --------------------------------------------
      LOOP:  cpu time      1.2315: real time      1.2514

 eigenvalue-minimisations  :  2592
 total energy-change (2. order) : 0.6116393E+01  (-0.3225207E+00)
 number of electron     255.9999998 magnetization 
 augmentation part      -14.9458092 magnetization 

 Broyden mixing:
  rms(total) = 0.18602E+01    rms(broyden)= 0.18602E+01
  rms(prec ) = 0.20318E+01
  weight for this iteration     100.00

 eigenvalues of (default mixing * dielectric matrix)
  average eigenvalue GAMMA=   2.5160
  2.5160

 Free energy of the ion-electron system (eV)
  ---------------------------------------------------
  alpha Z        PSCENC =       115.46786049
  Ewald energy   TEWEN  =     -7486.84787977
  -Hartree energ DENC   =      -368.98334403
  -exchange      EXHF   =         0.00000000
  -V(xc)+E(xc)   XCENC  =      -542.31107325
  PAW double counting   =     13363.22096309   -12260.82774007
  entropy T*S    EENTRO =         0.02180473
  eigenvalues    EBANDS =       247.54714020
  atomic energy  EATOM  =      6564.79586099
  Solvation  Ediel_sol  =         0.00000000
  ---------------------------------------------------
  free energy    TOTEN  =      -367.91640763 eV

  energy without entropy =     -367.93821236  energy(sigma->0) =     -367.92367588


--------------------------------------------------------------------------------------------------------




--------------------------------------- Iteration      1(   7)  ---------------------------------------


    POTLOK:  cpu time      0.0728: real time      0.0868
    SETDIJ:  cpu time      0.0742: real time      0.0744
    EDDIAG:  cpu time      0.1315: real time      0.1318
  RMM-DIIS:  cpu time      0.7008: real time      0.7028
    ORTHCH:  cpu time      0.0201: real time      0.0202
       DOS:  cpu time      0.0017: real time      0.0017
    CHARGE:  cpu time      0.2337: real time      0.2343
    MIXING:  cpu time      0.0058: real time      0.0072
    --------------------------------------------
      LOOP:  cpu time      1.2407: real time      1.2591

 eigenvalue-minimisations  :  2653
 total energy-change (2. order) : 0.2646059E+01  (-0.8143390E+00)
 number of electron     255.9999998 magnetization 
 augmentation part      -14.6796511 magnetization 

 Broyden mixing:
  rms(total) = 0.11977E+00    rms(broyden)= 0.11977E+00
  rms(prec ) = 0.15014E+00
  weight for this iteration     100.00

 eigenvalues of (default mixing * dielectric matrix)
  average eigenvalue GAMMA=   2.3037
  2.3037  2.3037

 Free energy of the ion-electron system (eV)
  ---------------------------------------------------
  alpha Z        PSCENC =       115.46786049
  Ewald energy   TEWEN  =     -7486.84787977
  -Hartree energ DENC   =      -450.85002087
  -exchange      EXHF   =         0.00000000
  -V(xc)+E(xc)   XCENC  =      -528.74746658
  PAW double counting   =     32650.61407600   -31553.92311793
  entropy T*S    EENTRO =         0.01960043
  eigenvalues    EBANDS =       324.20073894
  atomic energy  EATOM  =      6564.79586099
  Solvation  Ediel_sol  =         0.00000000
  ---------------------------------------------------
  free energy    TOTEN  =      -365.27034831 eV

  energy without entropy =     -365.28994874  energy(sigma->0) =     -365.27688179


--------------------------------------------------------------------------------------------------------




--------------------------------------- Iteration      1(   8)  ---------------------------------------


    POTLOK:  cpu time      0.0744: real time      0.0876
    SETDIJ:  cpu time      0.0728: real time      0.0730
    EDDIAG:  cpu time      0.1323: real time      0.1326
  RMM-DIIS:  cpu time      0.7061: real time      0.7082
    ORTHCH:  cpu time      0.0199: real time      0.0200
       DOS:  cpu time      0.0014: real time      0.0015
    CHARGE:  cpu time      0.2352: real time      0.2358
    MIXING:  cpu time      0.0070: real time      0.0076
    --------------------------------------------
      LOOP:  cpu time      1.2492: real time      1.2662

 eigenvalue-minimisations  :  2615
 total energy-change (2. order) :-0.3207954E-01  (-0.7516030E-01)
 number of electron     255.9999998 magnetization 
 augmentation part      -14.7396956 magnetization 

 Broyden mixing:
  rms(total) = 0.54886E-01    rms(broyden)= 0.54886E-01
  rms(prec ) = 0.58967E-01
  weight for this iteration     100.00

 eigenvalues of (default mixing * dielectric matrix)
  average eigenvalue GAMMA=   2.0808
  2.5576  1.8424  1.8424

 Free energy of the ion-electron system (eV)
  ---------------------------------------------------
  alpha Z        PSCENC =       115.46786049
  Ewald energy   TEWEN  =     -7486.84787977
  -Hartree energ DENC   =      -441.30250248
  -exchange      EXHF   =         0.00000000
  -V(xc)+E(xc)   XCENC  =      -529.55733971
  PAW double counting   =     32424.17084301   -31326.36517853
  entropy T*S    EENTRO =         0.02496796
  eigenvalues    EBANDS =       314.31094020
  atomic energy  EATOM  =      6564.79586099
  Solvation  Ediel_sol  =         0.00000000
  ---------------------------------------------------
  free energy    TOTEN  =      -365.30242785 eV

  energy without entropy =     -365.32739581  energy(sigma->0) =     -365.31075050


--------------------------------------------------------------------------------------------------------




--------------------------------------- Iteration      1(   9)  ---------------------------------------


    POTLOK:  cpu time      0.0763: real time      0.0917
    SETDIJ:  cpu time      0.0738: real time      0.0740
    EDDIAG:  cpu time      0.1343: real time      0.1346
  RMM-DIIS:  cpu time      0.7066: real time      0.7088
    ORTHCH:  cpu time      0.0196: real time      0.0196
       DOS:  cpu time      0.0025: real time      0.0026
    CHARGE:  cpu time      0.2342: real time      0.2348
    MIXING:  cpu time      0.0078: real time      0.0079
    --------------------------------------------
      LOOP:  cpu time      1.2550: real time      1.2740

 eigenvalue-minimisations  :  2667
 total energy-change (2. order) :-0.2334170E-01  (-0.2267574E-01)
 number of electron     255.9999998 magnetization 
 augmentation part      -14.7238818 magnetization 

 Broyden mixing:
  rms(total) = 0.61774E-01    rms(broyden)= 0.61774E-01
  rms(prec ) = 0.70459E-01
  weight for this iteration     100.00

 eigenvalues of (default mixing * dielectric matrix)
  average eigenvalue GAMMA=   1.9201
  2.5472  2.3506  2.3506  0.4320

 Free energy of the ion-electron system (eV)
  ---------------------------------------------------
  alpha Z        PSCENC =       115.46786049
  Ewald energy   TEWEN  =     -7486.84787977
  -Hartree energ DENC   =      -444.99994641
  -exchange      EXHF   =         0.00000000
  -V(xc)+E(xc)   XCENC  =      -529.06788153
  PAW double counting   =     32884.89659837   -31787.41558648
  entropy T*S    EENTRO =         0.02361755
  eigenvalues    EBANDS =       317.82158724
  atomic energy  EATOM  =      6564.79586099
  Solvation  Ediel_sol  =         0.00000000
  ---------------------------------------------------
  free energy    TOTEN  =      -365.32576955 eV

  energy without entropy =     -365.34938710  energy(sigma->0) =     -365.33364206


--------------------------------------------------------------------------------------------------------




--------------------------------------- Iteration      1(  10)  ---------------------------------------


    POTLOK:  cpu time      0.0761: real time      0.0920
    SETDIJ:  cpu time      0.0700: real time      0.0701
    EDDIAG:  cpu time      0.1672: real time      0.1676
  RMM-DIIS:  cpu time      0.7238: real time      0.7258
    ORTHCH:  cpu time      0.0200: real time      0.0201
       DOS:  cpu time      0.0018: real time      0.0018
    CHARGE:  cpu time      0.2367: real time      0.2373
    MIXING:  cpu time      0.0060: real time      0.0061
    --------------------------------------------
      LOOP:  cpu time      1.3017: real time      1.3208

 eigenvalue-minimisations  :  2729
 total energy-change (2. order) :-0.4607832E-02  (-0.4111203E-02)
 number of electron     255.9999998 magnetization 
 augmentation part      -14.7299882 magnetization 

 Broyden mixing:
  rms(total) = 0.84724E-01    rms(broyden)= 0.84724E-01
  rms(prec ) = 0.92592E-01
  weight for this iteration     100.00

 eigenvalues of (default mixing * dielectric matrix)
  average eigenvalue GAMMA=   1.5982
  2.6477  2.1554  1.9489  0.6194  0.6194

 Free energy of the ion-electron system (eV)
  ---------------------------------------------------
  alpha Z        PSCENC =       115.46786049
  Ewald energy   TEWEN  =     -7486.84787977
  -Hartree energ DENC   =      -445.16254361
  -exchange      EXHF   =         0.00000000
  -V(xc)+E(xc)   XCENC  =      -529.05019147
  PAW double counting   =     32926.60386644   -31829.12923419
  entropy T*S    EENTRO =         0.02351949
  eigenvalues    EBANDS =       317.96836424
  atomic energy  EATOM  =      6564.79586099
  Solvation  Ediel_sol  =         0.00000000
  ---------------------------------------------------
  free energy    TOTEN  =      -365.33037738 eV

  energy without entropy =     -365.35389687  energy(sigma->0) =     -365.33821721


--------------------------------------------------------------------------------------------------------




--------------------------------------- Iteration      1(  11)  ---------------------------------------


    POTLOK:  cpu time      0.0819: real time      0.0936
    SETDIJ:  cpu time      0.0693: real time      0.0694
    EDDIAG:  cpu time      0.1321: real time      0.1324
  RMM-DIIS:  cpu time      0.6866: real time      0.6886
    ORTHCH:  cpu time      0.0199: real time      0.0200
       DOS:  cpu time      0.0019: real time      0.0019
    CHARGE:  cpu time      0.2355: real time      0.2360
    MIXING:  cpu time      0.0069: real time      0.0069
    --------------------------------------------
      LOOP:  cpu time      1.2340: real time      1.2489

 eigenvalue-minimisations  :  2592
 total energy-change (2. order) : 0.4886591E-02  (-0.1462171E-02)
 number of electron     255.9999998 magnetization 
 augmentation part      -14.7451218 magnetization 

 Broyden mixing:
  rms(total) = 0.62025E-01    rms(broyden)= 0.62025E-01
  rms(prec ) = 0.62593E-01
  weight for this iteration     100.00

 eigenvalues of (default mixing * dielectric matrix)
  average eigenvalue GAMMA=   1.4579
  2.5715  2.5715  1.2469  1.2469  0.8112  0.2992

 Free energy of the ion-electron system (eV)
  ---------------------------------------------------
  alpha Z        PSCENC =       115.46786049
  Ewald energy   TEWEN  =     -7486.84787977
  -Hartree energ DENC   =      -442.33199342
  -exchange      EXHF   =         0.00000000
  -V(xc)+E(xc)   XCENC  =      -529.26951880
  PAW double counting   =     32832.96545143   -31735.21488991
  entropy T*S    EENTRO =         0.02506817
  eigenvalues    EBANDS =       315.08455003
  atomic energy  EATOM  =      6564.79586099
  Solvation  Ediel_sol  =         0.00000000
  ---------------------------------------------------
  free energy    TOTEN  =      -365.32549079 eV

  energy without entropy =     -365.35055896  energy(sigma->0) =     -365.33384685


--------------------------------------------------------------------------------------------------------




--------------------------------------- Iteration      1(  12)  ---------------------------------------


    POTLOK:  cpu time      0.0738: real time      0.0881
    SETDIJ:  cpu time      0.0720: real time      0.0722
    EDDIAG:  cpu time      0.1325: real time      0.1328
  RMM-DIIS:  cpu time      0.6902: real time      0.6925
    ORTHCH:  cpu time      0.0194: real time      0.0195
       DOS:  cpu time      0.0024: real time      0.0024
    CHARGE:  cpu time      0.2354: real time      0.2360
    MIXING:  cpu time      0.0064: real time      0.0065
    --------------------------------------------
      LOOP:  cpu time      1.2320: real time      1.2498

 eigenvalue-minimisations  :  2622
 total energy-change (2. order) :-0.1883289E-03  (-0.1971147E-03)
 number of electron     255.9999998 magnetization 
 augmentation part      -14.7481770 magnetization 

 Broyden mixing:
  rms(total) = 0.60572E-01    rms(broyden)= 0.60572E-01
  rms(prec ) = 0.60941E-01
  weight for this iteration     100.00

 eigenvalues of (default mixing * dielectric matrix)
  average eigenvalue GAMMA=   1.4310
  2.5784  2.5784  1.7007  0.7997  1.0716  0.8929  0.3951

 Free energy of the ion-electron system (eV)
  ---------------------------------------------------
  alpha Z        PSCENC =       115.46786049
  Ewald energy   TEWEN  =     -7486.84787977
  -Hartree energ DENC   =      -442.20307014
  -exchange      EXHF   =         0.00000000
  -V(xc)+E(xc)   XCENC  =      -529.29299616
  PAW double counting   =     32752.66221622   -31654.92099366
  entropy T*S    EENTRO =         0.02510262
  eigenvalues    EBANDS =       314.98822029
  atomic energy  EATOM  =      6564.79586099
  Solvation  Ediel_sol  =         0.00000000
  ---------------------------------------------------
  free energy    TOTEN  =      -365.32567912 eV

  energy without entropy =     -365.35078174  energy(sigma->0) =     -365.33404666


--------------------------------------------------------------------------------------------------------




--------------------------------------- Iteration      1(  13)  ---------------------------------------


    POTLOK:  cpu time      0.0857: real time      0.0944
    SETDIJ:  cpu time      0.0690: real time      0.0692
    EDDIAG:  cpu time      0.1299: real time      0.1302
  RMM-DIIS:  cpu time      0.7229: real time      0.7250
    ORTHCH:  cpu time      0.0195: real time      0.0196
       DOS:  cpu time      0.0031: real time      0.0031
    CHARGE:  cpu time      0.2340: real time      0.2345
    MIXING:  cpu time      0.0065: real time      0.0066
    --------------------------------------------
      LOOP:  cpu time      1.2706: real time      1.2826

 eigenvalue-minimisations  :  2732
 total energy-change (2. order) :-0.7693365E-04  (-0.3780836E-04)
 number of electron     255.9999998 magnetization 
 augmentation part      -14.7487761 magnetization 

 Broyden mixing:
  rms(total) = 0.68555E-01    rms(broyden)= 0.68555E-01
  rms(prec ) = 0.68882E-01
  weight for this iteration     100.00

 eigenvalues of (default mixing * dielectric matrix)
  average eigenvalue GAMMA=   1.7555
  3.1314  3.1314  2.4203  2.1825  0.9841  0.8858  0.8858  0.4226

 Free energy of the ion-electron system (eV)
  ---------------------------------------------------
  alpha Z        PSCENC =       115.46786049
  Ewald energy   TEWEN  =     -7486.84787977
  -Hartree energ DENC   =      -442.24577073
  -exchange      EXHF   =         0.00000000
  -V(xc)+E(xc)   XCENC  =      -529.27994134
  PAW double counting   =     32822.75864918   -31725.01959015
  entropy T*S    EENTRO =         0.02510784
  eigenvalues    EBANDS =       315.01994744
  atomic energy  EATOM  =      6564.79586099
  Solvation  Ediel_sol  =         0.00000000
  ---------------------------------------------------
  free energy    TOTEN  =      -365.32575605 eV

  energy without entropy =     -365.35086389  energy(sigma->0) =     -365.33412533


--------------------------------------------------------------------------------------------------------




--------------------------------------- Iteration      1(  14)  ---------------------------------------


    POTLOK:  cpu time      0.0802: real time      0.0937
    SETDIJ:  cpu time      0.0686: real time      0.0687
    EDDIAG:  cpu time      0.1310: real time      0.1314
  RMM-DIIS:  cpu time      0.6855: real time      0.6874
    ORTHCH:  cpu time      0.0194: real time      0.0195
       DOS:  cpu time      0.0021: real time      0.0021
    CHARGE:  cpu time      0.2346: real time      0.2352
    MIXING:  cpu time      0.0073: real time      0.0073
    --------------------------------------------
      LOOP:  cpu time      1.2286: real time      1.2453

 eigenvalue-minimisations  :  2602
 total energy-change (2. order) : 0.1941995E-04  (-0.1036761E-04)
 number of electron     255.9999998 magnetization 
 augmentation part      -14.7489228 magnetization 

 Broyden mixing:
  rms(total) = 0.25059E-01    rms(broyden)= 0.25059E-01
  rms(prec ) = 0.25472E-01
  weight for this iteration     100.00

 eigenvalues of (default mixing * dielectric matrix)
  average eigenvalue GAMMA=   1.5095
  2.5778  2.5778  2.5050  2.0803  0.9556  0.9389  0.9389  0.4406  0.5700

 Free energy of the ion-electron system (eV)
  ---------------------------------------------------
  alpha Z        PSCENC =       115.46786049
  Ewald energy   TEWEN  =     -7486.84787977
  -Hartree energ DENC   =      -442.03069691
  -exchange      EXHF   =         0.00000000
  -V(xc)+E(xc)   XCENC  =      -529.33352159
  PAW double counting   =     32424.72388185   -31327.00936324
  entropy T*S    EENTRO =         0.02512940
  eigenvalues    EBANDS =       314.88299215
  atomic energy  EATOM  =      6564.79586099
  Solvation  Ediel_sol  =         0.00000000
  ---------------------------------------------------
  free energy    TOTEN  =      -365.32573663 eV

  energy without entropy =     -365.35086603  energy(sigma->0) =     -365.33411310


--------------------------------------------------------------------------------------------------------




--------------------------------------- Iteration      1(  15)  ---------------------------------------


    POTLOK:  cpu time      0.0722: real time      0.0879
    SETDIJ:  cpu time      0.0741: real time      0.0743
    EDDIAG:  cpu time      0.1310: real time      0.1313
  RMM-DIIS:  cpu time      0.6987: real time      0.7007
    ORTHCH:  cpu time      0.0197: real time      0.0197
       DOS:  cpu time      0.0022: real time      0.0022
    CHARGE:  cpu time      0.2342: real time      0.2348
    MIXING:  cpu time      0.0075: real time      0.0076
    --------------------------------------------
      LOOP:  cpu time      1.2397: real time      1.2585

 eigenvalue-minimisations  :  2630
 total energy-change (2. order) :-0.7573364E-04  (-0.4305222E-05)
 number of electron     255.9999998 magnetization 
 augmentation part      -14.7492042 magnetization 

 Broyden mixing:
  rms(total) = 0.24011E-01    rms(broyden)= 0.24011E-01
  rms(prec ) = 0.24261E-01
  weight for this iteration     100.00

 eigenvalues of (default mixing * dielectric matrix)
  average eigenvalue GAMMA=   1.4719
  2.6569  2.6569  2.2708  1.9311  0.9475  0.9475  1.0028  1.0028  0.8783  0.4246

 Free energy of the ion-electron system (eV)
  ---------------------------------------------------
  alpha Z        PSCENC =       115.46786049
  Ewald energy   TEWEN  =     -7486.84787977
  -Hartree energ DENC   =      -442.04484140
  -exchange      EXHF   =         0.00000000
  -V(xc)+E(xc)   XCENC  =      -529.32128819
  PAW double counting   =     32473.73588978   -31376.01715048
  entropy T*S    EENTRO =         0.02517692
  eigenvalues    EBANDS =       314.88055930
  atomic energy  EATOM  =      6564.79586099
  Solvation  Ediel_sol  =         0.00000000
  ---------------------------------------------------
  free energy    TOTEN  =      -365.32581237 eV

  energy without entropy =     -365.35098928  energy(sigma->0) =     -365.33420467


--------------------------------------------------------------------------------------------------------




--------------------------------------- Iteration      1(  16)  ---------------------------------------


    POTLOK:  cpu time      0.0739: real time      0.0881
    SETDIJ:  cpu time      0.0733: real time      0.0734
    EDDIAG:  cpu time      0.1334: real time      0.1338
  RMM-DIIS:  cpu time      0.6919: real time      0.6939
    ORTHCH:  cpu time      0.0198: real time      0.0199
       DOS:  cpu time      0.0017: real time      0.0017
    CHARGE:  cpu time      0.2394: real time      0.2400
    MIXING:  cpu time      0.0073: real time      0.0076
    --------------------------------------------
      LOOP:  cpu time      1.2407: real time      1.2583

 eigenvalue-minimisations  :  2592
 total energy-change (2. order) :-0.4973001E-04  (-0.2604434E-05)
 number of electron     255.9999998 magnetization 
 augmentation part      -14.7488863 magnetization 

 Broyden mixing:
  rms(total) = 0.18728E-01    rms(broyden)= 0.18728E-01
  rms(prec ) = 0.18840E-01
  weight for this iteration     100.00

 eigenvalues of (default mixing * dielectric matrix)
  average eigenvalue GAMMA=   1.5051
  2.7326  2.7326  2.2918  2.2918  1.2321  1.2321  0.9676  0.9676  0.8403  0.8403
  0.4267

 Free energy of the ion-electron system (eV)
  ---------------------------------------------------
  alpha Z        PSCENC =       115.46786049
  Ewald energy   TEWEN  =     -7486.84787977
  -Hartree energ DENC   =      -442.16592389
  -exchange      EXHF   =         0.00000000
  -V(xc)+E(xc)   XCENC  =      -529.30714872
  PAW double counting   =     32489.10626069   -31391.38887291
  entropy T*S    EENTRO =         0.02518562
  eigenvalues    EBANDS =       314.98879539
  atomic energy  EATOM  =      6564.79586099
  Solvation  Ediel_sol  =         0.00000000
  ---------------------------------------------------
  free energy    TOTEN  =      -365.32586210 eV

  energy without entropy =     -365.35104772  energy(sigma->0) =     -365.33425730


--------------------------------------------------------------------------------------------------------




--------------------------------------- Iteration      1(  17)  ---------------------------------------


    POTLOK:  cpu time      0.0805: real time      0.0898
    SETDIJ:  cpu time      0.0750: real time      0.0752
    EDDIAG:  cpu time      0.1347: real time      0.1350
  RMM-DIIS:  cpu time      0.6706: real time      0.6725
    ORTHCH:  cpu time      0.0197: real time      0.0199
       DOS:  cpu time      0.0018: real time      0.0020
    CHARGE:  cpu time      0.2363: real time      0.2369
    MIXING:  cpu time      0.0094: real time      0.0094
    --------------------------------------------
      LOOP:  cpu time      1.2280: real time      1.2407

 eigenvalue-minimisations  :  2558
 total energy-change (2. order) :-0.7283135E-05  (-0.7655716E-06)
 number of electron     255.9999998 magnetization 
 augmentation part      -14.7488222 magnetization 

 Broyden mixing:
  rms(total) = 0.52010E-02    rms(broyden)= 0.52010E-02
  rms(prec ) = 0.52914E-02
  weight for this iteration     100.00

 eigenvalues of (default mixing * dielectric matrix)
  average eigenvalue GAMMA=   1.6892
  2.9840  2.9840  2.1201  2.1201  2.4692  1.9929  1.1328  1.1328  1.0020  1.0020
  0.9043  0.4262

 Free energy of the ion-electron system (eV)
  ---------------------------------------------------
  alpha Z        PSCENC =       115.46786049
  Ewald energy   TEWEN  =     -7486.84787977
  -Hartree energ DENC   =      -442.14265232
  -exchange      EXHF   =         0.00000000
  -V(xc)+E(xc)   XCENC  =      -529.31843221
  PAW double counting   =     32389.36767489   -31291.65141073
  entropy T*S    EENTRO =         0.02520374
  eigenvalues    EBANDS =       314.97790555
  atomic energy  EATOM  =      6564.79586099
  Solvation  Ediel_sol  =         0.00000000
  ---------------------------------------------------
  free energy    TOTEN  =      -365.32586938 eV

  energy without entropy =     -365.35107312  energy(sigma->0) =     -365.33427063


--------------------------------------------------------------------------------------------------------




--------------------------------------- Iteration      1(  18)  ---------------------------------------


    POTLOK:  cpu time      0.0845: real time      0.0856
    SETDIJ:  cpu time      0.0759: real time      0.0761
    EDDIAG:  cpu time      0.1323: real time      0.1326
  RMM-DIIS:  cpu time      0.5463: real time      0.5479
    ORTHCH:  cpu time      0.0195: real time      0.0196
       DOS:  cpu time      0.0018: real time      0.0018
    CHARGE:  cpu time      0.2360: real time      0.2365
    MIXING:  cpu time      0.0069: real time      0.0069
    --------------------------------------------
      LOOP:  cpu time      1.1032: real time      1.1070

 eigenvalue-minimisations  :  2010
 total energy-change (2. order) :-0.5712490E-05  (-0.3909209E-06)
 number of electron     255.9999998 magnetization 
 augmentation part      -14.7486668 magnetization 

 Broyden mixing:
  rms(total) = 0.13010E-02    rms(broyden)= 0.13010E-02
  rms(prec ) = 0.13418E-02
  weight for this iteration     100.00

 eigenvalues of (default mixing * dielectric matrix)
  average eigenvalue GAMMA=   1.9213
  6.3475  3.0028  2.4021  2.3602  2.3602  1.6126  1.6126  0.4262  1.1713  0.9549
  0.9549  0.9297  0.8415

 Free energy of the ion-electron system (eV)
  ---------------------------------------------------
  alpha Z        PSCENC =       115.46786049
  Ewald energy   TEWEN  =     -7486.84787977
  -Hartree energ DENC   =      -442.17147364
  -exchange      EXHF   =         0.00000000
  -V(xc)+E(xc)   XCENC  =      -529.31631977
  PAW double counting   =     32379.05731809   -31281.34106156
  entropy T*S    EENTRO =         0.02521134
  eigenvalues    EBANDS =       315.00460873
  atomic energy  EATOM  =      6564.79586099
  Solvation  Ediel_sol  =         0.00000000
  ---------------------------------------------------
  free energy    TOTEN  =      -365.32587509 eV

  energy without entropy =     -365.35108643  energy(sigma->0) =     -365.33427887


--------------------------------------------------------------------------------------------------------




--------------------------------------- Iteration      1(  19)  ---------------------------------------


    POTLOK:  cpu time      0.0796: real time      0.0872
    SETDIJ:  cpu time      0.0736: real time      0.0738
    EDDIAG:  cpu time      0.1313: real time      0.1316
  RMM-DIIS:  cpu time      0.4457: real time      0.4471
    ORTHCH:  cpu time      0.0196: real time      0.0196
       DOS:  cpu time      0.0023: real time      0.0023
    --------------------------------------------
      LOOP:  cpu time      0.7521: real time      0.7616

 eigenvalue-minimisations  :  1568
 total energy-change (2. order) :-0.9277055E-06  (-0.1278813E-06)
 number of electron     255.9999998 magnetization 
 augmentation part      -14.7486668 magnetization 

 Free energy of the ion-electron system (eV)
  ---------------------------------------------------
  alpha Z        PSCENC =       115.46786049
  Ewald energy   TEWEN  =     -7486.84787977
  -Hartree energ DENC   =      -442.19092199
  -exchange      EXHF   =         0.00000000
  -V(xc)+E(xc)   XCENC  =      -529.31460070
  PAW double counting   =     32381.66944738   -31283.95288054
  entropy T*S    EENTRO =         0.02521319
  eigenvalues    EBANDS =       315.02202493
  atomic energy  EATOM  =      6564.79586099
  Solvation  Ediel_sol  =         0.00000000
  ---------------------------------------------------
  free energy    TOTEN  =      -365.32587602 eV

  energy without entropy =     -365.35108921  energy(sigma->0) =     -365.33428042


--------------------------------------------------------------------------------------------------------




 average (electrostatic) potential at core
  the test charge radii are     0.9892
  (the norm of the test charge is              1.0000)
       1 -82.2258       2 -82.2258       3 -82.2258       4 -82.2258       5 -82.2258
       6 -82.2258       7 -82.2258       8 -82.2258       9 -82.2258      10 -82.2258
      11 -82.2258      12 -82.2258      13 -82.2258      14 -82.2258      15 -82.2258
      16 -82.2258      17 -82.2258      18 -82.2258      19 -82.2258      20 -82.2258
      21 -82.2258      22 -82.2258      23 -82.2258      24 -82.2258      25 -82.2258
      26 -82.2258      27 -82.2258      28 -82.2258      29 -82.2258      30 -82.2258
      31 -82.2258      32 -82.2258      33 -82.2258      34 -82.2258      35 -82.2258
      36 -82.2258      37 -82.2258      38 -82.2258      39 -82.2258      40 -82.2258
      41 -82.2258      42 -82.2258      43 -82.2258      44 -82.2258      45 -82.2258
      46 -82.2258      47 -82.2258      48 -82.2258      49 -82.2258      50 -82.2258
      51 -82.2258      52 -82.2258      53 -82.2258      54 -82.2258      55 -82.2258
      56 -82.2258      57 -82.2258      58 -82.2258      59 -82.2258      60 -82.2258
      61 -82.2258      62 -82.2258      63 -82.2258      64 -82.2258
 
 
 
 E-fermi :   6.7155     XC(G=0):  -9.8254     alpha+bet :-12.8546

 val. band max:        6.5721812993   @ k =   0.0000   0.0000   0.0000
 cond. band min:       6.8401564468   @ k =   0.0000   0.0000   0.0000
 fundamental gap:      0.2679751475
 Fermi energy:         6.7154825376

 k-point     1 :       0.0000    0.0000    0.0000
  band No.  band energies     occupation 
      1      -5.9634      2.00000
      2      -4.8295      2.00000
      3      -4.8295      2.00000
      4      -4.8002      2.00000
      5      -4.8002      2.00000
      6      -4.7998      2.00000
      7      -4.7998      2.00000
      8      -3.8233      2.00000
      9      -3.8233      2.00000
     10      -3.7786      2.00000
     11      -3.7786      2.00000
     12      -3.7786      2.00000
     13      -3.7786      2.00000
     14      -3.7571      2.00000
     15      -3.7571      2.00000
     16      -3.7571      2.00000
     17      -3.7571      2.00000
     18      -3.7327      2.00000
     19      -3.7327      2.00000
     20      -3.4797      2.00000
     21      -3.4797      2.00000
     22      -3.3747      2.00000
     23      -3.3747      2.00000
     24      -1.6041      2.00000
     25      -1.6041      2.00000
     26      -1.5687      2.00000
     27      -1.5061      2.00000
     28      -1.5061      2.00000
     29      -1.4456      2.00000
     30      -1.4161      2.00000
     31      -1.4161      2.00000
     32      -1.3813      2.00000
     33      -1.3813      2.00000
     34      -1.3451      2.00000
     35      -1.3451      2.00000
     36      -1.3451      2.00000
     37      -1.3451      2.00000
     38      -1.2740      2.00000
     39      -1.2740      2.00000
     40      -1.2405      2.00000
     41      -1.2405      2.00000
     42      -0.8460      2.00000
     43      -0.8460      2.00000
     44      -0.8270      2.00000
     45      -0.8270      2.00000
     46       0.8586      2.00000
     47       0.8586      2.00000
     48       0.8586      2.00000
     49       0.8586      2.00000
     50       0.8890      2.00000
     51       0.8890      2.00000
     52       0.9173      2.00000
     53       0.9173      2.00000
     54       0.9173      2.00000
     55       0.9174      2.00000
     56       0.9440      2.00000
     57       0.9440      2.00000
     58       2.3069      2.00000
     59       2.3069      2.00000
     60       2.3088      2.00000
     61       2.3088      2.00000
     62       2.3088      2.00000
     63       2.3088      2.00000
     64       2.3093      2.00000
     65       2.3093      2.00000
     66       2.3146      2.00000
     67       2.3146      2.00000
     68       2.3181      2.00000
     69       2.3181      2.00000
     70       2.3871      2.00000
     71       2.3872      2.00000
     72       2.3872      2.00000
     73       2.3872      2.00000
     74       2.4560      2.00000
     75       2.4560      2.00000
     76       2.4752      2.00000
     77       2.4752      2.00000
     78       2.4752      2.00000
     79       2.4752      2.00000
     80       2.4930      2.00000
     81       2.4930      2.00000
     82       2.9403      2.00000
     83       2.9403      2.00000
     84       3.0543      2.00000
     85       3.0544      2.00000
     86       3.0579      2.00000
     87       3.0580      2.00000
     88       3.3398      2.00000
     89       3.4257      2.00000
     90       3.4257      2.00000
     91       3.5126      2.00000
     92       3.5474      2.00000
     93       3.5474      2.00000
     94       4.3778      2.00000
     95       4.3779      2.00000
     96       4.4372      2.00000
     97       4.4372      2.00000
     98       4.4709      2.00000
     99       4.4709      2.00000
    100       4.5329      2.00000
    101       4.5329      2.00000
    102       4.5487      2.00000
    103       4.5487      2.00000
    104       4.5487      2.00000
    105       4.5487      2.00000
    106       5.0284      2.00000
    107       5.0284      2.00000
    108       5.0688      2.00000
    109       5.0688      2.00000
    110       5.0688      2.00000
    111       5.0688      2.00000
    112       5.1113      2.00000
    113       5.1113      2.00000
    114       5.1496      2.00000
    115       5.1496      2.00000
    116       5.1978      2.00000
    117       5.1978      2.00000
    118       5.1978      2.00000
    119       5.1978      2.00000
    120       5.2274      2.00000
    121       5.2274      2.00000
    122       5.3027      2.00000
    123       5.3027      2.00000
    124       5.3810      2.00000
    125       5.3810      2.00000
    126       6.4541      2.06906
    127       6.5653      1.95281
    128       6.5722      1.93101
    129       6.8402      0.13955
    130       6.9293     -0.06179
    131       6.9293     -0.06179
    132       7.0206     -0.05297
    133       7.0531     -0.03814
    134       7.0531     -0.03813
    135       7.4529     -0.00000
    136       7.4529     -0.00000
    137       7.4530     -0.00000
    138       7.4530     -0.00000
    139       7.5739     -0.00000
    140       7.5739     -0.00000
    141       8.1549     -0.00000
    142       8.1549     -0.00000
    143       8.3118     -0.00000
    144       8.3118     -0.00000
    145       8.8226     -0.00000
    146       8.8249     -0.00000
    147       8.8707     -0.00000
    148       8.8708     -0.00000
    149       8.8714     -0.00000
    150       8.8722     -0.00000
    151       8.9243     -0.00000
    152       8.9254     -0.00000
    153       8.9597     -0.00000
    154       9.0157     -0.00000
    155       9.0158     -0.00000
    156       9.0165     -0.00000
    157       9.0186     -0.00000
    158       9.0439     -0.00000
    159       9.2169     -0.00000
    160       9.5289     -0.00000
    161       9.5408     -0.00000
    162       9.6006     -0.00000

 k-point     2 :       0.5000    0.0000    0.0000
  band No.  band energies     occupation 
      1      -5.6776      2.00000
      2      -5.6776      2.00000
      3      -4.5604      2.00000
      4      -4.5604      2.00000
      5      -4.5382      2.00000
      6      -4.5382      2.00000
      7      -4.5382      2.00000
      8      -4.5382      2.00000
      9      -4.5150      2.00000
     10      -4.5150      2.00000
     11      -3.6420      2.00000
     12      -3.6420      2.00000
     13      -3.6420      2.00000
     14      -3.6420      2.00000
     15      -3.5791      2.00000
     16      -3.5791      2.00000
     17      -3.5791      2.00000
     18      -3.5791      2.00000
     19      -3.4502      2.00000
     20      -3.4502      2.00000
     21      -2.6924      2.00000
     22      -2.6924      2.00000
     23      -2.6275      2.00000
     24      -2.6275      2.00000
     25      -2.6275      2.00000
     26      -2.6275      2.00000
     27      -2.5612      2.00000
     28      -2.5612      2.00000
     29      -1.4816      2.00000
     30      -1.4816      2.00000
     31      -1.4584      2.00000
     32      -1.4584      2.00000
     33      -1.3695      2.00000
     34      -1.3695      2.00000
     35      -1.3482      2.00000
     36      -1.3482      2.00000
     37      -0.2589      2.00000
     38      -0.2589      2.00000
     39      -0.2071      2.00000
     40      -0.2071      2.00000
     41      -0.2071      2.00000
     42      -0.2071      2.00000
     43      -0.1878      2.00000
     44      -0.1878      2.00000
     45      -0.1878      2.00000
     46      -0.1878      2.00000
     47      -0.1724      2.00000
     48      -0.1724      2.00000
     49      -0.1724      2.00000
     50      -0.1724      2.00000
     51      -0.1583      2.00000
     52      -0.1583      2.00000
     53       0.5895      2.00000
     54       0.5895      2.00000
     55       1.9453      2.00000
     56       1.9453      2.00000
     57       1.9480      2.00000
     58       1.9480      2.00000
     59       1.9481      2.00000
     60       1.9481      2.00000
     61       1.9511      2.00000
     62       1.9511      2.00000
     63       2.1607      2.00000
     64       2.1607      2.00000
     65       2.1749      2.00000
     66       2.1749      2.00000
     67       2.1749      2.00000
     68       2.1749      2.00000
     69       2.1937      2.00000
     70       2.1937      2.00000
     71       2.7482      2.00000
     72       2.7482      2.00000
     73       2.7837      2.00000
     74       2.7837      2.00000
     75       2.8102      2.00000
     76       2.8102      2.00000
     77       2.8468      2.00000
     78       2.8468      2.00000
     79       3.5523      2.00000
     80       3.5523      2.00000
     81       3.5857      2.00000
     82       3.5857      2.00000
     83       3.5857      2.00000
     84       3.5857      2.00000
     85       3.6131      2.00000
     86       3.6131      2.00000
     87       3.6341      2.00000
     88       3.6341      2.00000
     89       3.6610      2.00000
     90       3.6610      2.00000
     91       3.6610      2.00000
     92       3.6610      2.00000
     93       3.6870      2.00000
     94       3.6870      2.00000
     95       3.7959      2.00000
     96       3.7959      2.00000
     97       3.7959      2.00000
     98       3.7959      2.00000
     99       3.8022      2.00000
    100       3.8022      2.00000
    101       3.8026      2.00000
    102       3.8026      2.00000
    103       3.8788      2.00000
    104       3.8788      2.00000
[...]
 -0.000  -0.000   4.168   0.000  -0.000   7.765   0.000   0.000
  0.001   0.001   0.000   4.168   0.000   0.000   7.765   0.000
 -0.000  -0.000  -0.000   0.000   4.168   0.000   0.000   7.765
 -0.000  -0.000   7.765   0.000   0.000  14.475   0.000   0.000
  0.002   0.002   0.000   7.765   0.000   0.000  14.475   0.000
 -0.000  -0.000   0.000   0.000   7.765   0.000   0.000  14.475
 total augmentation occupancy for first ion, spin component:           1
  6.544  -2.622   0.000  -0.040  -0.000   0.000   0.015   0.000
 -2.622   1.158   0.000   0.021   0.000   0.000  -0.007  -0.000
  0.000  -0.000   3.193  -0.000  -0.002  -0.732   0.000  -0.002
 -0.040   0.021  -0.000   3.195   0.000   0.000  -0.733   0.000
 -0.000   0.000  -0.002   0.000   3.224  -0.002   0.000  -0.744
  0.000   0.000  -0.732   0.000  -0.002   0.178  -0.000   0.001
  0.015  -0.007   0.000  -0.733   0.000  -0.000   0.178   0.000
  0.000  -0.000  -0.002   0.000  -0.744   0.001   0.000   0.181


------------------------ aborting loop because EDIFF is reached ----------------------------------------


    CHARGE:  cpu time      0.2456: real time      0.2462
    FORLOC:  cpu time      0.0209: real time      0.0210
    FORNL :  cpu time      0.6750: real time      0.6768
    STRESS:  cpu time      2.0919: real time      2.1009
    FORCOR:  cpu time      0.0852: real time      0.0854
    FORHAR:  cpu time      0.0343: real time      0.0343
    MIXING:  cpu time      0.0262: real time      0.0262
    OFIELD:  cpu time      0.0000: real time      0.0001

  FORCE on cell =-STRESS in cart. coord.  units (eV):
  Direction    XX          YY          ZZ          XY          YZ          ZX
  --------------------------------------------------------------------------------------
  Alpha Z   115.46786   115.46786   115.46786
  Ewald   -2461.77120 -2512.83733 -2512.73845    -6.41192     0.00000     0.00000
  Hartree   152.54772   144.71152   144.58200    -5.85572    -0.00000    -0.00000
  E(xc)    -832.06956  -831.56143  -831.59460     0.02340    -0.00000    -0.00000
  Local    -940.25979  -879.22081  -879.67344    13.75730    -0.00000    -0.00000
  n-local  2536.68975  2528.21435  2528.78604     0.17255    -0.00000    -0.00000
  augment  -369.91023  -369.91179  -369.95245     0.48654     0.00000     0.00000
  Kinetic  1852.36184  1868.41515  1867.89853   -10.05065    -0.00000    -0.00001
  Fock        0.00000     0.00000     0.00000     0.00000     0.00000     0.00000
  -------------------------------------------------------------------------------------
  Total      53.05640    63.27752    62.77549    -7.87849     0.00000     0.00000
  in kB      71.18607    84.89981    84.22623   -10.57062     0.00000     0.00000
  external pressure =       80.10 kB  Pullay stress =        0.00 kB


 VOLUME and BASIS-vectors are now :
 -----------------------------------------------------------------------------
  energy-cutoff  :      400.00
  volume of cell :     1194.13
      direct lattice vectors                 reciprocal lattice vectors
    10.715270582  0.079177012  0.000000000     0.093329927 -0.000699976  0.000000000
     0.079177012 10.556917559  0.000000000    -0.000699976  0.094729869  0.000000000
     0.000000000  0.000000000 10.556917559     0.000000000  0.000000000  0.094724620

  length of vectors
    10.715563105 10.557214469 10.556917559     0.093332552  0.094732456  0.094724620


 FORCES acting on ions
    electron-ion (+dipol)            ewald-force                    non-local-force                 convergence-correction
 -----------------------------------------------------------------------------------------------
   -.104E-08 -.319E-09 -.125E+01   -.444E-15 0.102E-13 0.886E+00   0.492E-20 -.227E-20 0.361E+00   -.112E-12 -.108E-12 0.234E-04
   -.104E-08 -.319E-09 -.125E+01   -.799E-14 0.173E-13 0.886E+00   0.197E-20 0.231E-20 0.361E+00   0.104E-12 0.341E-13 0.234E-04
   -.104E-08 -.319E-09 -.125E+01   0.933E-14 0.195E-13 0.886E+00   0.655E-20 -.808E-20 0.361E+00   -.567E-13 0.125E-12 0.234E-04
   -.104E-08 -.319E-09 -.125E+01   0.178E-14 0.195E-13 0.886E+00   -.272E-20 0.783E-20 0.361E+00   0.503E-13 -.314E-13 0.234E-04
   -.104E-08 -.319E-09 -.125E+01   -.111E-13 0.195E-13 0.886E+00   0.704E-20 -.105E-19 0.361E+00   0.118E-12 -.125E-12 0.234E-04
   -.104E-08 -.319E-09 -.125E+01   0.844E-14 0.195E-13 0.886E+00   -.501E-20 0.544E-20 0.361E+00   -.105E-12 0.629E-13 0.234E-04
   -.104E-08 -.318E-09 -.125E+01   -.124E-13 0.213E-13 0.886E+00   0.346E-20 -.202E-20 0.361E+00   0.644E-13 0.120E-12 0.234E-04
   -.104E-08 -.318E-09 -.125E+01   -.142E-13 0.178E-13 0.886E+00   -.366E-20 0.346E-20 0.361E+00   -.614E-13 -.551E-13 0.234E-04
   0.197E-08 0.170E-08 0.125E+01   -.444E-15 -.400E-14 -.886E+00   0.394E-20 0.758E-20 -.361E+00   -.227E-13 0.560E-13 -.234E-04
   0.197E-08 0.170E-08 0.125E+01   -.160E-13 -.107E-13 -.886E+00   -.354E-20 0.392E-20 -.361E+00   0.305E-13 -.253E-13 -.234E-04
   0.197E-08 0.170E-08 0.125E+01   -.147E-13 -.107E-13 -.886E+00   -.811E-21 -.198E-20 -.361E+00   0.173E-13 -.675E-13 -.234E-04
   0.197E-08 0.170E-08 0.125E+01   -.231E-13 -.355E-14 -.886E+00   -.724E-20 -.479E-22 -.361E+00   -.254E-14 0.129E-13 -.234E-04
   0.197E-08 0.170E-08 0.125E+01   -.888E-14 -.666E-14 -.886E+00   0.648E-20 0.408E-21 -.361E+00   0.259E-13 0.511E-13 -.234E-04
   0.197E-08 0.170E-08 0.125E+01   -.107E-13 -.711E-14 -.886E+00   -.322E-20 -.127E-20 -.361E+00   -.276E-13 0.110E-13 -.234E-04
   0.197E-08 0.170E-08 0.125E+01   -.133E-14 -.444E-14 -.886E+00   0.811E-21 0.580E-20 -.361E+00   -.152E-13 -.525E-13 -.234E-04
   0.197E-08 0.170E-08 0.125E+01   -.142E-13 0.355E-14 -.886E+00   0.288E-21 0.341E-20 -.361E+00   0.825E-14 -.238E-13 -.234E-04
   -.104E-08 -.319E-09 -.125E+01   -.777E-14 0.298E-13 0.886E+00   0.567E-21 -.306E-20 0.361E+00   0.461E-13 0.703E-13 0.234E-04
   -.104E-08 -.319E-09 -.125E+01   -.151E-13 0.298E-13 0.886E+00   0.369E-20 -.715E-20 0.361E+00   -.513E-13 -.603E-13 0.234E-04
   -.104E-08 -.319E-09 -.125E+01   0.533E-14 0.309E-13 0.886E+00   -.715E-20 0.302E-20 0.361E+00   0.745E-13 -.669E-13 0.234E-04
   -.104E-08 -.319E-09 -.125E+01   0.000E+00 0.253E-13 0.886E+00   0.377E-20 0.114E-20 0.361E+00   -.991E-13 0.640E-13 0.234E-04
   -.104E-08 -.318E-09 -.125E+01   -.600E-14 0.222E-13 0.886E+00   -.441E-20 0.126E-20 0.361E+00   -.482E-13 0.200E-13 0.234E-04
   -.104E-08 -.319E-09 -.125E+01   -.200E-13 0.293E-13 0.886E+00   -.137E-21 0.170E-20 0.361E+00   0.527E-13 -.208E-13 0.234E-04
   -.104E-08 -.319E-09 -.125E+01   0.000E+00 0.333E-13 0.886E+00   0.133E-21 -.216E-20 0.361E+00   -.751E-13 -.192E-13 0.234E-04
   -.104E-08 -.319E-09 -.125E+01   -.711E-14 0.320E-13 0.886E+00   0.136E-19 -.580E-20 0.361E+00   0.996E-13 0.262E-13 0.234E-04
   0.197E-08 0.170E-08 0.125E+01   -.129E-13 0.480E-14 -.886E+00   0.779E-20 -.868E-20 -.361E+00   -.259E-13 0.419E-13 -.234E-04
   0.197E-08 0.170E-08 0.125E+01   -.577E-14 0.502E-14 -.886E+00   -.315E-20 0.978E-20 -.361E+00   0.467E-13 -.835E-13 -.234E-04
   0.197E-08 0.170E-08 0.125E+01   -.195E-13 0.129E-13 -.886E+00   0.142E-20 -.108E-19 -.361E+00   -.670E-13 -.414E-13 -.234E-04
   0.197E-08 0.170E-08 0.125E+01   -.160E-13 0.472E-14 -.886E+00   -.322E-20 0.316E-20 -.361E+00   0.805E-13 0.808E-13 -.234E-04
   0.197E-08 0.170E-08 0.125E+01   -.160E-13 -.319E-14 -.886E+00   0.366E-20 -.772E-20 -.361E+00   0.399E-13 0.105E-12 -.234E-04
   0.197E-08 0.170E-08 0.125E+01   -.124E-13 0.391E-14 -.886E+00   -.176E-20 0.625E-20 -.361E+00   -.507E-13 -.164E-12 -.234E-04
   0.197E-08 0.170E-08 0.125E+01   -.888E-14 0.405E-14 -.886E+00   0.671E-20 -.968E-20 -.361E+00   0.790E-13 -.101E-12 -.234E-04
   0.197E-08 0.170E-08 0.125E+01   -.160E-13 0.107E-13 -.886E+00   -.271E-21 0.114E-19 -.361E+00   -.866E-13 0.164E-12 -.234E-04
   -.104E-08 -.319E-09 -.125E+01   0.207E-13 -.200E-14 0.886E+00   0.550E-20 0.122E-20 0.361E+00   0.256E-13 -.863E-14 0.234E-04
   -.104E-08 -.319E-09 -.125E+01   0.178E-13 -.933E-14 0.886E+00   0.275E-20 0.110E-21 0.361E+00   -.123E-13 -.452E-13 0.234E-04
   -.104E-08 -.319E-09 -.125E+01   0.155E-13 -.910E-14 0.886E+00   0.635E-20 -.118E-20 0.361E+00   -.156E-13 0.146E-13 0.234E-04
   -.104E-08 -.319E-09 -.125E+01   0.195E-13 -.151E-13 0.886E+00   -.739E-20 0.809E-20 0.361E+00   0.220E-13 0.492E-13 0.234E-04
   -.104E-08 -.319E-09 -.125E+01   0.118E-13 -.711E-14 0.886E+00   0.626E-20 -.147E-20 0.361E+00   -.218E-13 0.224E-13 0.234E-04
   -.104E-08 -.319E-09 -.125E+01   0.533E-14 -.711E-14 0.886E+00   -.242E-21 0.978E-20 0.361E+00   0.249E-13 -.921E-13 0.234E-04
   -.104E-08 -.319E-09 -.125E+01   0.622E-14 -.111E-13 0.886E+00   0.571E-20 0.130E-20 0.361E+00   0.344E-13 -.967E-14 0.234E-04
   -.104E-08 -.318E-09 -.125E+01   0.355E-14 -.107E-13 0.886E+00   -.104E-19 -.103E-20 0.361E+00   -.174E-13 0.989E-13 0.234E-04
   0.197E-08 0.170E-08 0.125E+01   0.172E-14 -.298E-13 -.886E+00   -.437E-20 0.751E-20 -.361E+00   0.549E-13 0.164E-13 -.234E-04
   0.197E-08 0.170E-08 0.125E+01   -.494E-14 -.298E-13 -.886E+00   0.538E-20 -.134E-19 -.361E+00   -.454E-13 0.242E-13 -.234E-04
   0.197E-08 0.170E-08 0.125E+01   0.124E-13 -.284E-13 -.886E+00   -.104E-20 0.468E-20 -.361E+00   0.118E-12 -.272E-13 -.234E-04
   0.197E-08 0.170E-08 0.125E+01   0.926E-14 -.284E-13 -.886E+00   0.139E-20 -.651E-20 -.361E+00   -.128E-12 -.378E-13 -.234E-04
   0.197E-08 0.170E-08 0.125E+01   0.117E-13 -.284E-13 -.886E+00   -.640E-20 0.990E-20 -.361E+00   -.681E-13 -.273E-13 -.234E-04
   0.197E-08 0.170E-08 0.125E+01   -.271E-14 -.249E-13 -.886E+00   0.162E-20 -.604E-20 -.361E+00   0.555E-13 0.646E-13 -.234E-04
   0.197E-08 0.170E-08 0.125E+01   0.250E-13 -.338E-13 -.886E+00   -.645E-20 0.809E-20 -.361E+00   -.126E-12 0.108E-13 -.234E-04
   0.197E-08 0.170E-08 0.125E+01   0.108E-13 -.266E-13 -.886E+00   0.359E-20 -.714E-20 -.361E+00   0.134E-12 -.687E-13 -.234E-04
   -.104E-08 -.319E-09 -.125E+01   0.466E-14 0.910E-14 0.886E+00   -.199E-20 0.657E-20 0.361E+00   -.296E-13 0.147E-14 0.234E-04
   -.104E-08 -.319E-09 -.125E+01   0.444E-15 0.933E-14 0.886E+00   0.111E-19 -.667E-20 0.361E+00   0.548E-13 0.949E-14 0.234E-04
   -.104E-08 -.319E-09 -.125E+01   -.444E-14 -.666E-15 0.886E+00   -.478E-20 0.224E-20 0.361E+00   -.240E-13 0.652E-14 0.234E-04
   -.104E-08 -.319E-09 -.125E+01   0.888E-15 0.102E-13 0.886E+00   -.234E-20 -.810E-20 0.361E+00   0.302E-13 -.552E-14 0.234E-04
   -.104E-08 -.320E-09 -.125E+01   -.444E-15 0.000E+00 0.886E+00   -.332E-20 0.352E-20 0.361E+00   0.332E-13 -.579E-13 0.234E-04
   -.104E-08 -.318E-09 -.125E+01   0.120E-13 0.355E-14 0.886E+00   0.132E-20 -.649E-20 0.361E+00   -.408E-13 0.604E-13 0.234E-04
   -.104E-08 -.319E-09 -.125E+01   0.191E-13 0.000E+00 0.886E+00   -.358E-20 0.105E-19 0.361E+00   0.267E-13 0.588E-13 0.234E-04
   -.104E-08 -.319E-09 -.125E+01   0.213E-13 0.711E-14 0.886E+00   0.645E-20 -.554E-20 0.361E+00   -.139E-13 -.528E-13 0.234E-04
   0.197E-08 0.170E-08 0.125E+01   0.784E-14 -.243E-13 -.886E+00   0.485E-20 -.770E-20 -.361E+00   -.298E-13 -.239E-13 -.234E-04
   0.197E-08 0.170E-08 0.125E+01   0.579E-14 -.241E-13 -.886E+00   0.427E-21 -.120E-21 -.361E+00   0.379E-13 -.218E-13 -.234E-04
   0.197E-08 0.170E-08 0.125E+01   0.183E-14 -.158E-13 -.886E+00   -.953E-20 0.114E-20 -.361E+00   -.219E-13 0.180E-13 -.234E-04
   0.197E-08 0.170E-08 0.125E+01   0.830E-17 -.239E-13 -.886E+00   0.423E-21 0.173E-20 -.361E+00   0.394E-14 0.262E-13 -.234E-04
   0.197E-08 0.170E-08 0.125E+01   0.338E-15 -.761E-14 -.886E+00   -.912E-20 0.486E-20 -.361E+00   0.327E-13 -.632E-13 -.234E-04
   0.197E-08 0.170E-08 0.125E+01   0.923E-14 -.218E-13 -.886E+00   0.699E-20 0.388E-21 -.361E+00   -.424E-13 0.113E-13 -.234E-04
   0.197E-08 0.170E-08 0.125E+01   -.192E-13 -.207E-13 -.886E+00   0.786E-20 -.810E-20 -.361E+00   0.204E-13 0.602E-13 -.234E-04
   0.197E-08 0.170E-08 0.125E+01   -.716E-14 -.136E-13 -.886E+00   -.334E-21 -.232E-20 -.361E+00   -.421E-14 -.110E-13 -.234E-04
 -----------------------------------------------------------------------------------------------
   0.299E-07 0.443E-07 0.142E-04   -.581E-13 -.382E-13 0.122E-13   0.372E-19 -.354E-20 -.444E-14   0.979E-13 -.556E-15 0.384E-10
 
 
 POSITION                                       TOTAL-FORCE (eV/Angst)
 -----------------------------------------------------------------------------------
      0.00000      0.00000      0.00671        -0.000000     -0.000000      0.000268
      0.00000      0.00000      5.28517        -0.000000     -0.000000      0.000268
      0.03959      5.27846      0.00671        -0.000000     -0.000000      0.000268
      0.03959      5.27846      5.28517        -0.000000      0.000000      0.000268
      5.35764      0.03959      0.00671         0.000000     -0.000000      0.000268
      5.35764      0.03959      5.28517         0.000000      0.000000      0.000268
      5.39722      5.31805      0.00671         0.000000      0.000000      0.000268
      5.39722      5.31805      5.28517         0.000000      0.000000      0.000268
      4.04792      3.98854      1.31291        -0.000000     -0.000000     -0.000268
      4.04792      3.98854      6.59137         0.000000      0.000000     -0.000268
      4.08751      9.26699      1.31291         0.000000      0.000000     -0.000268
      4.08751      9.26699      6.59137         0.000000     -0.000000     -0.000268
      9.40555      4.02812      1.31291         0.000000      0.000000     -0.000268
      9.40555      4.02812      6.59137        -0.000000     -0.000000     -0.000268
      9.44514      9.30658      1.31291         0.000000     -0.000000     -0.000268
      9.44514      9.30658      6.59137        -0.000000      0.000000     -0.000268
      0.01979      2.63923      2.64594        -0.000000     -0.000000      0.000268
      0.01979      2.63923      7.92439        -0.000000      0.000000      0.000268
      0.05938      7.91769      2.64594        -0.000000      0.000000      0.000268
      0.05938      7.91769      7.92439        -0.000000     -0.000000      0.000268
      5.37743      2.67882      2.64594         0.000000      0.000000      0.000268
      5.37743      2.67882      7.92439        -0.000000     -0.000000      0.000268
      5.41702      7.95728      2.64594         0.000000      0.000000      0.000268
      5.41702      7.95728      7.92439         0.000000      0.000000      0.000268
      4.02812      1.34931      3.95214         0.000000      0.000000     -0.000268
      4.02812      1.34931      9.23060         0.000000      0.000000     -0.000268
      4.06771      6.62776      3.95214         0.000000      0.000000     -0.000268
      4.06771      6.62776      9.23060         0.000000     -0.000000     -0.000268
      9.38576      1.38889      3.95214         0.000000      0.000000     -0.000268
      9.38576      1.38889      9.23060         0.000000     -0.000000     -0.000268
      9.42535      6.66735      3.95214        -0.000000     -0.000000     -0.000268
      9.42535      6.66735      9.23060        -0.000000      0.000000     -0.000268
      2.67882      0.01979      2.64594         0.000000     -0.000000      0.000268
      2.67882      0.01979      7.92439        -0.000000      0.000000      0.000268
      2.71841      5.29825      2.64594         0.000000     -0.000000      0.000268
      2.71841      5.29825      7.92439        -0.000000     -0.000000      0.000268
      8.03645      0.05938      2.64594         0.000000     -0.000000      0.000268
      8.03645      0.05938      7.92439         0.000000      0.000000      0.000268
      8.07604      5.33784      2.64594         0.000000      0.000000      0.000268
      8.07604      5.33784      7.92439        -0.000000      0.000000      0.000268
      1.36910      3.96874      3.95214         0.000000      0.000000     -0.000268
      1.36910      3.96874      9.23060        -0.000000      0.000000     -0.000268
      1.40869      9.24720      3.95214         0.000000      0.000000     -0.000268
      1.40869      9.24720      9.23060        -0.000000      0.000000     -0.000268
      6.72674      4.00833      3.95214         0.000000     -0.000000     -0.000268
      6.72674      4.00833      9.23060        -0.000000      0.000000     -0.000268
      6.76632      9.28679      3.95214         0.000000     -0.000000     -0.000268
      6.76632      9.28679      9.23060        -0.000000     -0.000000     -0.000268
      2.69861      2.65902      0.00671         0.000000     -0.000000      0.000268
      2.69861      2.65902      5.28517         0.000000      0.000000      0.000268
      2.73820      7.93748      0.00671         0.000000     -0.000000      0.000268
      2.73820      7.93748      5.28517        -0.000000     -0.000000      0.000268
      8.05625      2.69861      0.00671         0.000000      0.000000      0.000268
      8.05625      2.69861      5.28517        -0.000000     -0.000000      0.000268
      8.09584      7.97707      0.00671         0.000000      0.000000      0.000268
      8.09584      7.97707      5.28517        -0.000000      0.000000      0.000268
      1.34931      1.32951      1.31291        -0.000000      0.000000     -0.000268
      1.34931      1.32951      6.59137        -0.000000      0.000000     -0.000268
      1.38889      6.60797      1.31291        -0.000000     -0.000000     -0.000268
      1.38889      6.60797      6.59137        -0.000000      0.000000     -0.000268
      6.70694      1.36910      1.31291         0.000000     -0.000000     -0.000268
      6.70694      1.36910      6.59137         0.000000     -0.000000     -0.000268
      6.74653      6.64756      1.31291         0.000000     -0.000000     -0.000268
      6.74653      6.64756      6.59137         0.000000      0.000000     -0.000268
 -----------------------------------------------------------------------------------
    total drift:                                0.000000      0.000000      0.000014


--------------------------------------------------------------------------------------------------------



  FREE ENERGIE OF THE ION-ELECTRON SYSTEM (eV)
  ---------------------------------------------------
  free  energy   TOTEN  =      -365.36908072 eV

  energy  without entropy=     -365.38792979  energy(sigma->0) =     -365.37536374
 
 d Force = 0.8743953E-02[-0.521E-04, 0.175E-01]  d Energy = 0.8780774E-02-0.368E-04
 d Force =-0.1573371E+00[-0.172E+00,-0.142E+00]  d Ewald  =-0.1573364E+00-0.741E-06


--------------------------------------------------------------------------------------------------------


    POTLOK:  cpu time      0.1438: real time      0.1442


--------------------------------------------------------------------------------------------------------




--------------------------------------------------------------------------------------------------------


  
 reached required accuracy - stopping structural energy minimisation
     LOOP+:  cpu time     12.9185: real time     13.0670
    4ORBIT:  cpu time      0.0000: real time      0.0000

 total amount of memory used by VASP MPI-rank0    78917. kBytes
=======================================================================

   base      :      30000. kBytes
   nonlr-proj:       4764. kBytes
   fftplans  :      17991. kBytes
   grid      :       6881. kBytes
   one-center:         18. kBytes
   wavefun   :      19263. kBytes
 
  
  
 General timing and accounting informations for this job:
 ========================================================
  
                  Total CPU time used (sec):       59.259
                            User time (sec):       56.039
                          System time (sec):        3.220
                         Elapsed time (sec):       62.724
  
                   Maximum memory used (kb):      404788.
                   Average memory used (kb):          N/A
  
                          Minor page faults:        92554
                          Major page faults:            0
                 Voluntary context switches:         8997
