WARNING: $PATH does not agree with $PATH_modshare counter. The following directories' usage counters were adjusted to match. Note that this may mean that module unloading may not work correctly.
 /public1/home/sc80607/atat/bin/
 running   96 mpi-ranks, on    1 nodes
 distrk:  each k-point on   24 cores,    4 groups
 distr:  one band on   12 cores,    2 groups
 vasp.6.4.3 19Mar24 (build Oct 21 2024 22:36:34) complex                        
  
 POSCAR found type information on POSCAR Si
 POSCAR found :  1 types and      64 ions
 scaLAPACK will be used
 -----------------------------------------------------------------------------
|                                                                             |
|               ----> ADVICE to this user running VASP <----                  |
|                                                                             |
|     You enforced a specific xc type in the INCAR file but a different       |
|     type was found in the POTCAR file.                                      |
|     I HOPE YOU KNOW WHAT YOU ARE DOING!                                     |
|                                                                             |
 -----------------------------------------------------------------------------

 LDA part: xc-table for (Slater+PW92), standard interpolation
 POSCAR, INCAR and KPOINTS ok, starting setup
 FFT: planning ... GRIDC
 FFT: planning ... GRID_SOFT
 FFT: planning ... GRID
 WAVECAR not read
 entering main loop
       N       E                     dE             d eps       ncg     rms          rms(c)
DAV:   1     0.578974677763E+03    0.57897E+03   -0.85252E+04  2592   0.107E+03
DAV:   2    -0.308546304745E+03   -0.88752E+03   -0.84063E+03  3088   0.176E+02
DAV:   3    -0.372366798251E+03   -0.63820E+02   -0.62590E+02  3152   0.416E+01
DAV:   4    -0.373975385228E+03   -0.16086E+01   -0.15959E+01  3104   0.800E+00
DAV:   5    -0.374032800799E+03   -0.57416E-01   -0.57297E-01  3152   0.137E+00    0.308E+01
RMM:   6    -0.367916407634E+03    0.61164E+01   -0.32252E+00  2592   0.283E+00    0.186E+01
RMM:   7    -0.365270348311E+03    0.26461E+01   -0.81434E+00  2653   0.447E+00    0.120E+00
RMM:   8    -0.365302427849E+03   -0.32080E-01   -0.75160E-01  2615   0.170E+00    0.549E-01
RMM:   9    -0.365325769549E+03   -0.23342E-01   -0.22676E-01  2667   0.832E-01    0.618E-01
RMM:  10    -0.365330377380E+03   -0.46078E-02   -0.41112E-02  2729   0.394E-01    0.847E-01
RMM:  11    -0.365325490789E+03    0.48866E-02   -0.14622E-02  2592   0.240E-01    0.620E-01
RMM:  12    -0.365325679118E+03   -0.18833E-03   -0.19711E-03  2622   0.105E-01    0.606E-01
RMM:  13    -0.365325756052E+03   -0.76934E-04   -0.37808E-04  2732   0.429E-02    0.686E-01
RMM:  14    -0.365325736632E+03    0.19420E-04   -0.10368E-04  2602   0.252E-02    0.251E-01
RMM:  15    -0.365325812365E+03   -0.75734E-04   -0.43052E-05  2630   0.138E-02    0.240E-01
RMM:  16    -0.365325862095E+03   -0.49730E-04   -0.26044E-05  2592   0.114E-02    0.187E-01
RMM:  17    -0.365325869379E+03   -0.72831E-05   -0.76557E-06  2558   0.694E-03    0.520E-02
RMM:  18    -0.365325875091E+03   -0.57125E-05   -0.39092E-06  2010   0.451E-03    0.130E-02
RMM:  19    -0.365325876019E+03   -0.92771E-06   -0.12788E-06  1568   0.251E-03
   1 F= -.36532588E+03 E0= -.36533428E+03  d E =-.365326E+03
 curvature:   0.00 expect dE= 0.000E+00 dE for cont linesearch  0.000E+00
 trial: gam= 0.00000 g(F)=  0.126E+00 g(S)=  0.000E+00 ort = 0.000E+00 (trialstep = 0.100E+01)
 search vector abs. value=  0.126E+00
 bond charge predicted
       N       E                     dE             d eps       ncg     rms          rms(c)
DAV:   1    -0.365351530081E+03   -0.25655E-01   -0.16753E+00  2944   0.249E+00    0.599E-01
RMM:   2    -0.365359421577E+03   -0.78915E-02   -0.82062E-02  2592   0.614E-01    0.243E-01
RMM:   3    -0.365360317825E+03   -0.89625E-03   -0.12554E-02  2635   0.270E-01    0.101E-01
RMM:   4    -0.365360277447E+03    0.40378E-04   -0.17171E-03  2631   0.112E-01    0.386E-02
RMM:   5    -0.365360291576E+03   -0.14130E-04   -0.31886E-04  2682   0.442E-02    0.741E-03
RMM:   6    -0.365360298903E+03   -0.73265E-05   -0.74290E-05  2785   0.195E-02    0.178E-03
RMM:   7    -0.365360299867E+03   -0.96427E-06   -0.10003E-05  2172   0.698E-03    0.142E-03
RMM:   8    -0.365360299948E+03   -0.81044E-07   -0.16364E-06  1663   0.282E-03
   2 F= -.36536030E+03 E0= -.36536534E+03  d E =-.344239E-01
 trial-energy change:   -0.034424  1 .order   -0.034881   -0.126008    0.056246
 step:   0.6882(harm=  0.6914)  dis= 0.00671  next Energy=  -365.369084 (dE=-0.432E-01)
 bond charge predicted
       N       E                     dE             d eps       ncg     rms          rms(c)
DAV:   1    -0.365368252426E+03   -0.79526E-02   -0.16301E-01  2904   0.777E-01    0.187E-01
RMM:   2    -0.365369003452E+03   -0.75103E-03   -0.77972E-03  2592   0.190E-01    0.764E-02
RMM:   3    -0.365369082690E+03   -0.79237E-04   -0.11636E-03  2637   0.833E-02    0.309E-02
RMM:   4    -0.365369078679E+03    0.40102E-05   -0.15740E-04  2623   0.344E-02    0.118E-02
RMM:   5    -0.365369080006E+03   -0.13263E-05   -0.29823E-05  2670   0.135E-02    0.230E-03
RMM:   6    -0.365369080585E+03   -0.57900E-06   -0.66686E-06  2080   0.600E-03    0.463E-04
RMM:   7    -0.365369080679E+03   -0.94248E-07   -0.96273E-07  1571   0.224E-03    0.634E-04
RMM:   8    -0.365369080723E+03   -0.43612E-07   -0.20403E-07  1282   0.103E-03
   3 F= -.36536908E+03 E0= -.36537536E+03  d E =-.432047E-01
 curvature:  -0.35 expect dE=-0.765E-07 dE for cont linesearch -0.765E-07
 trial: gam=-0.00132 g(F)=  0.221E-06 g(S)=  0.000E+00 ort = 0.167E-03 (trialstep = 0.938E+00)
 search vector abs. value=  0.100E-09
 reached required accuracy - stopping structural energy minimisation
