Si64                                    
           1
    10.715271    0.079177    0.000000
     0.079177   10.556918    0.000000
     0.000000    0.000000   10.556918
   Si
    64
Direct configuration=     1
   0.00000000  0.00000000  0.00000000
   0.00000000  0.00000000  0.50000000
   0.00000000  0.50000000  0.00000000
   0.00000000  0.50000000  0.50000000
   0.50000000  0.00000000  0.00000000
   0.50000000  0.00000000  0.50000000
   0.50000000  0.50000000  0.00000000
   0.50000000  0.50000000  0.50000000
   0.37500000  0.37500000  0.12500000
   0.37500000  0.37500000  0.62500000
   0.37500000  0.87500000  0.12500000
   0.37500000  0.87500000  0.62500000
   0.87500000  0.37500000  0.12500000
   0.87500000  0.37500000  0.62500000
   0.87500000  0.87500000  0.12500000
   0.87500000  0.87500000  0.62500000
   0.00000000  0.25000000  0.25000000
   0.00000000  0.25000000  0.75000000
   0.00000000  0.75000000  0.25000000
   0.00000000  0.75000000  0.75000000
   0.50000000  0.25000000  0.25000000
   0.50000000  0.25000000  0.75000000
   0.50000000  0.75000000  0.25000000
   0.50000000  0.75000000  0.75000000
   0.37500000  0.12500000  0.37500000
   0.37500000  0.12500000  0.87500000
   0.37500000  0.62500000  0.37500000
   0.37500000  0.62500000  0.87500000
   0.87500000  0.12500000  0.37500000
   0.87500000  0.12500000  0.87500000
   0.87500000  0.62500000  0.37500000
   0.87500000  0.62500000  0.87500000
   0.25000000  0.00000000  0.25000000
   0.25000000  0.00000000  0.75000000
   0.25000000  0.50000000  0.25000000
   0.25000000  0.50000000  0.75000000
   0.75000000  0.00000000  0.25000000
   0.75000000  0.00000000  0.75000000
   0.75000000  0.50000000  0.25000000
   0.75000000  0.50000000  0.75000000
   0.12500000  0.37500000  0.37500000
   0.12500000  0.37500000  0.87500000
   0.12500000  0.87500000  0.37500000
   0.12500000  0.87500000  0.87500000
   0.62500000  0.37500000  0.37500000
   0.62500000  0.37500000  0.87500000
   0.62500000  0.87500000  0.37500000
   0.62500000  0.87500000  0.87500000
   0.25000000  0.25000000  0.00000000
   0.25000000  0.25000000  0.50000000
   0.25000000  0.75000000  0.00000000
   0.25000000  0.75000000  0.50000000
   0.75000000  0.25000000  0.00000000
   0.75000000  0.25000000  0.50000000
   0.75000000  0.75000000  0.00000000
   0.75000000  0.75000000  0.50000000
   0.12500000  0.12500000  0.12500000
   0.12500000  0.12500000  0.62500000
   0.12500000  0.62500000  0.12500000
   0.12500000  0.62500000  0.62500000
   0.62500000  0.12500000  0.12500000
   0.62500000  0.12500000  0.62500000
   0.62500000  0.62500000  0.12500000
   0.62500000  0.62500000  0.62500000
Direct configuration=     2
   0.00000000  1.00000000  0.00092318
   0.00000000  1.00000000  0.50092318
   0.00000000  0.50000000  0.00092318
   1.00000000  0.50000000  0.50092318
   0.50000000  0.00000000  0.00092318
   0.50000000  0.00000000  0.50092318
   0.50000000  0.50000000  0.00092318
   0.50000000  0.50000000  0.50092318
   0.37500000  0.37500000  0.12407682
   0.37500000  0.37500000  0.62407682
   0.37500000  0.87500000  0.12407682
   0.37500000  0.87500000  0.62407682
   0.87500000  0.37500000  0.12407682
   0.87500000  0.37500000  0.62407682
   0.87500000  0.87500000  0.12407682
   0.87500000  0.87500000  0.62407682
   0.00000000  0.25000000  0.25092318
   0.00000000  0.25000000  0.75092318
   0.00000000  0.75000000  0.25092318
   0.00000000  0.75000000  0.75092318
   0.50000000  0.25000000  0.25092318
   0.50000000  0.25000000  0.75092318
   0.50000000  0.75000000  0.25092318
   0.50000000  0.75000000  0.75092318
   0.37500000  0.12500000  0.37407682
   0.37500000  0.12500000  0.87407682
   0.37500000  0.62500000  0.37407682
   0.37500000  0.62500000  0.87407682
   0.87500000  0.12500000  0.37407682
   0.87500000  0.12500000  0.87407682
   0.87500000  0.62500000  0.37407682
   0.87500000  0.62500000  0.87407682
   0.25000000  0.00000000  0.25092318
   0.25000000  0.00000000  0.75092318
   0.25000000  0.50000000  0.25092318
   0.25000000  0.50000000  0.75092318
   0.75000000  1.00000000  0.25092318
   0.75000000  1.00000000  0.75092318
   0.75000000  0.50000000  0.25092318
   0.75000000  0.50000000  0.75092318
   0.12500000  0.37500000  0.37407682
   0.12500000  0.37500000  0.87407682
   0.12500000  0.87500000  0.37407682
   0.12500000  0.87500000  0.87407682
   0.62500000  0.37500000  0.37407682
   0.62500000  0.37500000  0.87407682
   0.62500000  0.87500000  0.37407682
   0.62500000  0.87500000  0.87407682
   0.25000000  0.25000000  0.00092318
   0.25000000  0.25000000  0.50092318
   0.25000000  0.75000000  0.00092318
   0.25000000  0.75000000  0.50092318
   0.75000000  0.25000000  0.00092318
   0.75000000  0.25000000  0.50092318
   0.75000000  0.75000000  0.00092318
   0.75000000  0.75000000  0.50092318
   0.12500000  0.12500000  0.12407682
   0.12500000  0.12500000  0.62407682
   0.12500000  0.62500000  0.12407682
   0.12500000  0.62500000  0.62407682
   0.62500000  0.12500000  0.12407682
   0.62500000  0.12500000  0.62407682
   0.62500000  0.62500000  0.12407682
   0.62500000  0.62500000  0.62407682
Direct configuration=     3
   0.00000000  0.00000000  0.00063530
   0.00000000  0.00000000  0.50063530
   0.00000000  0.50000000  0.00063530
   0.00000000  0.50000000  0.50063530
   0.50000000  0.00000000  0.00063530
   0.50000000  0.00000000  0.50063530
   0.50000000  0.50000000  0.00063530
   0.50000000  0.50000000  0.50063530
   0.37500000  0.37500000  0.12436470
   0.37500000  0.37500000  0.62436470
   0.37500000  0.87500000  0.12436470
   0.37500000  0.87500000  0.62436470
   0.87500000  0.37500000  0.12436470
   0.87500000  0.37500000  0.62436470
   0.87500000  0.87500000  0.12436470
   0.87500000  0.87500000  0.62436470
   0.00000000  0.25000000  0.25063530
   0.00000000  0.25000000  0.75063530
   0.00000000  0.75000000  0.25063530
   0.00000000  0.75000000  0.75063530
   0.50000000  0.25000000  0.25063530
   0.50000000  0.25000000  0.75063530
   0.50000000  0.75000000  0.25063530
   0.50000000  0.75000000  0.75063530
   0.37500000  0.12500000  0.37436470
   0.37500000  0.12500000  0.87436470
   0.37500000  0.62500000  0.37436470
   0.37500000  0.62500000  0.87436470
   0.87500000  0.12500000  0.37436470
   0.87500000  0.12500000  0.87436470
   0.87500000  0.62500000  0.37436470
   0.87500000  0.62500000  0.87436470
   0.25000000  0.00000000  0.25063530
   0.25000000  0.00000000  0.75063530
   0.25000000  0.50000000  0.25063530
   0.25000000  0.50000000  0.75063530
   0.75000000  0.00000000  0.25063530
   0.75000000  0.00000000  0.75063530
   0.75000000  0.50000000  0.25063530
   0.75000000  0.50000000  0.75063530
   0.12500000  0.37500000  0.37436470
   0.12500000  0.37500000  0.87436470
   0.12500000  0.87500000  0.37436470
   0.12500000  0.87500000  0.87436470
   0.62500000  0.37500000  0.37436470
   0.62500000  0.37500000  0.87436470
   0.62500000  0.87500000  0.37436470
   0.62500000  0.87500000  0.87436470
   0.25000000  0.25000000  0.00063530
   0.25000000  0.25000000  0.50063530
   0.25000000  0.75000000  0.00063530
   0.25000000  0.75000000  0.50063530
   0.75000000  0.25000000  0.00063530
   0.75000000  0.25000000  0.50063530
   0.75000000  0.75000000  0.00063530
   0.75000000  0.75000000  0.50063530
   0.12500000  0.12500000  0.12436470
   0.12500000  0.12500000  0.62436470
   0.12500000  0.62500000  0.12436470
   0.12500000  0.62500000  0.62436470
   0.62500000  0.12500000  0.12436470
   0.62500000  0.12500000  0.62436470
   0.62500000  0.62500000  0.12436470
   0.62500000  0.62500000  0.62436470
