       N       E                     dE             d eps       ncg     rms          rms(c)
DAV:   1     0.572954810494E+03    0.57295E+03   -0.85076E+04  2592   0.107E+03
DAV:   2    -0.309929754140E+03   -0.88288E+03   -0.83899E+03  3104   0.175E+02
DAV:   3    -0.372473178516E+03   -0.62543E+02   -0.61351E+02  3120   0.413E+01
DAV:   4    -0.374055255815E+03   -0.15821E+01   -0.15700E+01  3104   0.798E+00
DAV:   5    -0.374108593701E+03   -0.53338E-01   -0.53234E-01  3134   0.133E+00    0.307E+01
RMM:   6    -0.368027479050E+03    0.60811E+01   -0.32073E+00  2592   0.282E+00    0.185E+01
RMM:   7    -0.365393513732E+03    0.26340E+01   -0.80964E+00  2652   0.446E+00    0.119E+00
RMM:   8    -0.365425944225E+03   -0.32430E-01   -0.74792E-01  2615   0.170E+00    0.547E-01
RMM:   9    -0.365449253645E+03   -0.23309E-01   -0.22574E-01  2671   0.828E-01    0.616E-01
RMM:  10    -0.365453926105E+03   -0.46725E-02   -0.40131E-02  2719   0.390E-01    0.871E-01
RMM:  11    -0.365449128119E+03    0.47980E-02   -0.14930E-02  2592   0.241E-01    0.585E-01
RMM:  12    -0.365449325956E+03   -0.19784E-03   -0.19259E-03  2615   0.104E-01    0.561E-01
RMM:  13    -0.365449397078E+03   -0.71122E-04   -0.36380E-04  2713   0.427E-02    0.641E-01
RMM:  14    -0.365449394543E+03    0.25345E-05   -0.99499E-05  2601   0.248E-02    0.217E-01
RMM:  15    -0.365449450549E+03   -0.56006E-04   -0.40534E-05  2630   0.133E-02    0.189E-01
RMM:  16    -0.365449487017E+03   -0.36468E-04   -0.23986E-05  2592   0.109E-02    0.131E-01
RMM:  17    -0.365449490166E+03   -0.31492E-05   -0.59505E-06  2214   0.597E-03    0.312E-02
RMM:  18    -0.365449492511E+03   -0.23451E-05   -0.17796E-06  1603   0.298E-03    0.840E-03
RMM:  19    -0.365449492908E+03   -0.39658E-06   -0.65683E-07  1559   0.174E-03
   1 F= -.36544949E+03 E0= -.36545844E+03  d E =-.365449E+03
       N       E                     dE             d eps       ncg     rms          rms(c)
DAV:   1    -0.365474739481E+03   -0.25247E-01   -0.16767E+00  2944   0.248E+00    0.603E-01
RMM:   2    -0.365482662365E+03   -0.79229E-02   -0.82414E-02  2593   0.614E-01    0.246E-01
RMM:   3    -0.365483506274E+03   -0.84391E-03   -0.12459E-02  2635   0.269E-01    0.101E-01
RMM:   4    -0.365483461210E+03    0.45064E-04   -0.17261E-03  2635   0.112E-01    0.387E-02
RMM:   5    -0.365483476454E+03   -0.15243E-04   -0.31962E-04  2696   0.439E-02    0.833E-03
RMM:   6    -0.365483483187E+03   -0.67337E-05   -0.67719E-05  2763   0.187E-02    0.230E-03
RMM:   7    -0.365483484152E+03   -0.96410E-06   -0.10585E-05  2206   0.712E-03    0.114E-03
RMM:   8    -0.365483484222E+03   -0.70482E-07   -0.16447E-06  1671   0.286E-03
   2 F= -.36548348E+03 E0= -.36548918E+03  d E =-.339913E-01
       N       E                     dE             d eps       ncg     rms          rms(c)
DAV:   1    -0.365491314714E+03   -0.78306E-02   -0.16201E-01  2920   0.772E-01    0.187E-01
RMM:   2    -0.365492062133E+03   -0.74742E-03   -0.77576E-03  2592   0.190E-01    0.768E-02
RMM:   3    -0.365492138788E+03   -0.76655E-04   -0.11520E-03  2634   0.830E-02    0.307E-02
RMM:   4    -0.365492135301E+03    0.34864E-05   -0.15940E-04  2626   0.344E-02    0.118E-02
RMM:   5    -0.365492136733E+03   -0.14315E-05   -0.30486E-05  2683   0.135E-02    0.252E-03
RMM:   6    -0.365492137241E+03   -0.50818E-06   -0.59693E-06  2032   0.575E-03    0.627E-04
RMM:   7    -0.365492137364E+03   -0.12342E-06   -0.10259E-06  1570   0.230E-03    0.310E-04
RMM:   8    -0.365492137402E+03   -0.37839E-07   -0.22257E-07  1295   0.106E-03
   3 F= -.36549214E+03 E0= -.36549909E+03  d E =-.426445E-01
