 vasp.6.4.3 19Mar24 (build Oct 21 2024 22:36:34) complex                        
  
 executed on             LinuxIFC date 2024.11.01  22:45:05
 running   96 mpi-ranks, on    1 nodes
 distrk:  each k-point on   24 cores,    4 groups
 distr:  one band on NCORE=  12 cores,    2 groups


--------------------------------------------------------------------------------------------------------


 INCAR:
   SYSTEM = Si64
   ISTART = 0
   ICHARG = 2
   LREAL = Auto
   PREC = Accurate
   LWAVE = .False.
   LCHARG = .False.
   ADDGRID = .True.
   ENCUT = 400
   GGA = PS
   GGA_COMPAT = .FALSE.
   ISMEAR = 1
   SIGMA = 0.2
   NELM = 60
   NELMIN = 8
   EDIFF = 1e-06
   EDIFFG = -0.01
   NSW = 60
   IBRION = 2
   ISIF = 2
   KPAR = 4
   NPAR = 2
   ALGO = Fast

 POTCAR:    PAW_PBE Si 05Jan2001                  
 POTCAR:    PAW_PBE Si 05Jan2001                  
   VRHFIN =Si: s2p2                                                                                 
   LEXCH  = PE                                                                                      
   EATOM  =   103.0669 eV,    7.5752 Ry                                                             
                                                                                                    
   TITEL  = PAW_PBE Si 05Jan2001                                                                    
   LULTRA =        F    use ultrasoft PP ?                                                          
   IUNSCR =        1    unscreen: 0-lin 1-nonlin 2-no                                               
   RPACOR =    1.500    partial core radius                                                         
   POMASS =   28.085; ZVAL   =    4.000    mass and valenz                                          
   RCORE  =    1.900    outmost cutoff radius                                                       
   RWIGS  =    2.480; RWIGS  =    1.312    wigner-seitz radius (au A)                               
   ENMAX  =  245.345; ENMIN  =  184.009 eV                                                          
   ICORE  =        2    local potential                                                             
   LCOR   =        T    correct aug charges                                                         
   LPAW   =        T    paw PP                                                                      
   EAUG   =  322.069                                                                                
   DEXC   =    0.000                                                                                
   RMAX   =    1.950    core radius for proj-oper                                                   
   RAUG   =    1.300    factor for augmentation sphere                                              
   RDEP   =    1.993    radius for radial grids                                                     
   RDEPT  =    1.837    core radius for aug-charge                                                  
                                                                                                    
   Atomic configuration                                                                             
    6 entries                                                                                       
     n  l   j            E        occ.                                                              
     1  0  0.50     -1785.8828   2.0000                                                             
     2  0  0.50      -139.4969   2.0000                                                             
     2  1  1.50       -95.5546   6.0000                                                             
     3  0  0.50       -10.8127   2.0000                                                             
     3  1  0.50        -4.0811   2.0000                                                             
     3  2  1.50        -4.0817   0.0000                                                             
   Description                                                                                      
     l       E           TYP  RCUT    TYP  RCUT                                                     
     0    -10.8127223     23  1.900                                                                 
     0     -7.6451159     23  1.900                                                                 
     1     -4.0811372     23  1.900                                                                 
     1      2.4879257     23  1.900                                                                 
     2     -4.0817478      7  1.900                                                                 
  local pseudopotential read in
  partial core-charges read in
  partial kinetic energy density read in
  atomic valenz-charges read in
  non local Contribution for L=           0  read in
    real space projection operators read in
  non local Contribution for L=           0  read in
    real space projection operators read in
  non local Contribution for L=           1  read in
    real space projection operators read in
  non local Contribution for L=           1  read in
    real space projection operators read in
    PAW grid and wavefunctions read in
 
   number of l-projection  operators is LMAX  =           4
   number of lm-projection operators is LMMAX =           8
 
 Optimization of the real space projectors (new method)

 maximal supplied QI-value         = 19.84
 optimisation between [QCUT,QGAM] = [ 10.12, 20.44] = [ 28.68,116.96] Ry 
 Optimized for a Real-space Cutoff    1.38 Angstroem

   l    n(q)    QCUT    max X(q) W(low)/X(q) W(high)/X(q)  e(spline) 
   0      8    10.119   159.560    0.58E-04    0.11E-03    0.54E-07
   0      8    10.119   115.863    0.56E-04    0.11E-03    0.54E-07
   1      8    10.119    88.339    0.22E-03    0.17E-03    0.19E-06
   1      8    10.119    48.592    0.22E-03    0.17E-03    0.18E-06
 -----------------------------------------------------------------------------
|                                                                             |
|               ----> ADVICE to this user running VASP <----                  |
|                                                                             |
|     You enforced a specific xc type in the INCAR file but a different       |
|     type was found in the POTCAR file.                                      |
|     I HOPE YOU KNOW WHAT YOU ARE DOING!                                     |
|                                                                             |
 -----------------------------------------------------------------------------

  PAW_PBE Si 05Jan2001                  :
 energy of atom  1       EATOM= -103.0669
 kinetic energy error for atom=    0.0012 (will be added to EATOM!!)
 
 
 POSCAR: Si8
  positions in direct lattice
  velocities in cartesian coordinates


 exchange-correlation table for PS
   RHO(1)=    0.500       N(1)  =     2000
   RHO(2)=  100.500       N(2)  =     4000
 


--------------------------------------------------------------------------------------------------------


 ion  position               nearest neighbor table
   1  0.000  0.000  0.000-  30 2.35  44 2.35  15 2.38  57 2.38
   2  0.000  0.000  0.500-  29 2.35  43 2.35  16 2.38  58 2.38
   3  0.000  0.500  0.000-  32 2.35  42 2.35  13 2.38  59 2.38
   4  0.000  0.500  0.500-  31 2.35  41 2.35  14 2.38  60 2.38
   5  0.500  0.000  0.000-  26 2.35  48 2.35  11 2.38  61 2.38
   6  0.500  0.000  0.500-  25 2.35  47 2.35  12 2.38  62 2.38
   7  0.500  0.500  0.000-  28 2.35  46 2.35   9 2.38  63 2.38
   8  0.500  0.500  0.500-  27 2.35  45 2.35  10 2.38  64 2.38
   9  0.375  0.375  0.125-  21 2.35  35 2.35   7 2.38  49 2.38
  10  0.375  0.375  0.625-  22 2.35  36 2.35   8 2.38  50 2.38
  11  0.375  0.875  0.125-  23 2.35  33 2.35   5 2.38  51 2.38
  12  0.375  0.875  0.625-  24 2.35  34 2.35   6 2.38  52 2.38
  13  0.875  0.375  0.125-  17 2.35  39 2.35   3 2.38  53 2.38
  14  0.875  0.375  0.625-  18 2.35  40 2.35   4 2.38  54 2.38
  15  0.875  0.875  0.125-  19 2.35  37 2.35   1 2.38  55 2.38
  16  0.875  0.875  0.625-  20 2.35  38 2.35   2 2.38  56 2.38
  17  0.000  0.250  0.250-  13 2.35  57 2.35  41 2.38  29 2.38
  18  0.000  0.250  0.750-  14 2.35  58 2.35  42 2.38  30 2.38
  19  0.000  0.750  0.250-  15 2.35  59 2.35  43 2.38  31 2.38
  20  0.000  0.750  0.750-  16 2.35  60 2.35  44 2.38  32 2.38
  21  0.500  0.250  0.250-   9 2.35  61 2.35  45 2.38  25 2.38
  22  0.500  0.250  0.750-  10 2.35  62 2.35  46 2.38  26 2.38
  23  0.500  0.750  0.250-  11 2.35  63 2.35  47 2.38  27 2.38
  24  0.500  0.750  0.750-  12 2.35  64 2.35  48 2.38  28 2.38
  25  0.375  0.125  0.375-   6 2.35  50 2.35  33 2.38  21 2.38
  26  0.375  0.125  0.875-   5 2.35  49 2.35  34 2.38  22 2.38
  27  0.375  0.625  0.375-   8 2.35  52 2.35  35 2.38  23 2.38
  28  0.375  0.625  0.875-   7 2.35  51 2.35  36 2.38  24 2.38
  29  0.875  0.125  0.375-   2 2.35  54 2.35  37 2.38  17 2.38
  30  0.875  0.125  0.875-   1 2.35  53 2.35  38 2.38  18 2.38
  31  0.875  0.625  0.375-   4 2.35  56 2.35  39 2.38  19 2.38
  32  0.875  0.625  0.875-   3 2.35  55 2.35  40 2.38  20 2.38
  33  0.250  0.000  0.250-  11 2.35  57 2.35  43 2.38  25 2.38
  34  0.250  0.000  0.750-  12 2.35  58 2.35  44 2.38  26 2.38
  35  0.250  0.500  0.250-   9 2.35  59 2.35  41 2.38  27 2.38
  36  0.250  0.500  0.750-  10 2.35  60 2.35  42 2.38  28 2.38
  37  0.750  0.000  0.250-  15 2.35  61 2.35  47 2.38  29 2.38
  38  0.750  0.000  0.750-  16 2.35  62 2.35  48 2.38  30 2.38
  39  0.750  0.500  0.250-  13 2.35  63 2.35  45 2.38  31 2.38
  40  0.750  0.500  0.750-  14 2.35  64 2.35  46 2.38  32 2.38
  41  0.125  0.375  0.375-   4 2.35  50 2.35  35 2.38  17 2.38
  42  0.125  0.375  0.875-   3 2.35  49 2.35  36 2.38  18 2.38
  43  0.125  0.875  0.375-   2 2.35  52 2.35  33 2.38  19 2.38
  44  0.125  0.875  0.875-   1 2.35  51 2.35  34 2.38  20 2.38
  45  0.625  0.375  0.375-   8 2.35  54 2.35  39 2.38  21 2.38
  46  0.625  0.375  0.875-   7 2.35  53 2.35  40 2.38  22 2.38
  47  0.625  0.875  0.375-   6 2.35  56 2.35  37 2.38  23 2.38
  48  0.625  0.875  0.875-   5 2.35  55 2.35  38 2.38  24 2.38
  49  0.250  0.250  0.000-  26 2.35  42 2.35   9 2.38  57 2.38
  50  0.250  0.250  0.500-  25 2.35  41 2.35  10 2.38  58 2.38
  51  0.250  0.750  0.000-  28 2.35  44 2.35  11 2.38  59 2.38
  52  0.250  0.750  0.500-  27 2.35  43 2.35  12 2.38  60 2.38
  53  0.750  0.250  0.000-  30 2.35  46 2.35  13 2.38  61 2.38
  54  0.750  0.250  0.500-  29 2.35  45 2.35  14 2.38  62 2.38
  55  0.750  0.750  0.000-  32 2.35  48 2.35  15 2.38  63 2.38
  56  0.750  0.750  0.500-  31 2.35  47 2.35  16 2.38  64 2.38
  57  0.125  0.125  0.125-  17 2.35  33 2.35   1 2.38  49 2.38
  58  0.125  0.125  0.625-  18 2.35  34 2.35   2 2.38  50 2.38
  59  0.125  0.625  0.125-  19 2.35  35 2.35   3 2.38  51 2.38
  60  0.125  0.625  0.625-  20 2.35  36 2.35   4 2.38  52 2.38
  61  0.625  0.125  0.125-  21 2.35  37 2.35   5 2.38  53 2.38
  62  0.625  0.125  0.625-  22 2.35  38 2.35   6 2.38  54 2.38
  63  0.625  0.625  0.125-  23 2.35  39 2.35   7 2.38  55 2.38
  64  0.625  0.625  0.625-  24 2.35  40 2.35   8 2.38  56 2.38
 
  LATTYP: Found a simple monoclinic cell.
 ALAT       =    10.8717733613
 B/A-ratio  =     0.9999718762
 C/A-ratio  =     1.0149991635
 COS(beta)  =    -0.0148883383
  
  Lattice vectors:
  
 A1 = (   0.0815360120,  10.8714676055,   0.0000000000)
 A2 = (   0.0000000000,   0.0000000000, -10.8714676055)
 A3 = ( -11.0345396296,  -0.0815360120,   0.0000000000)


Analysis of symmetry for initial positions (statically):
=====================================================================
 Subroutine PRICEL returns following result:
 
  LATTYP: Found a base centered monoclinic cell.
 ALAT       =     5.4358866806
 B/A-ratio  =     0.9999718762
 C/A-ratio  =     0.7071067812
 COS(beta)  =    -0.6964212304
  
  Lattice vectors:
  
 A1 = (   0.0203840030,   2.7178669014,  -2.7178669014)
 A2 = (   0.0203840030,   2.7178669014,   2.7178669014)
 A3 = (   2.7382509044,  -2.6974828984,   0.0000000000)
 
  32 primitive cells build up your supercell.
 

 Routine SETGRP: Setting up the symmetry group for a 
 simple monoclinic supercell.


 Subroutine GETGRP returns: Found  4 space group operations
 (whereof  2 operations were pure point group operations)
 out of a pool of  4 trial point group operations.


The static configuration has the point symmetry C_2 .
 The point group associated with its full space group is C_2h.


Analysis of symmetry for dynamics (positions and initial velocities):
=====================================================================
 Subroutine PRICEL returns following result:
 
  LATTYP: Found a base centered monoclinic cell.
 ALAT       =     5.4358866806
 B/A-ratio  =     0.9999718762
 C/A-ratio  =     0.7071067812
 COS(beta)  =    -0.6964212304
  
  Lattice vectors:
  
 A1 = (   0.0203840030,   2.7178669014,  -2.7178669014)
 A2 = (   0.0203840030,   2.7178669014,   2.7178669014)
 A3 = (   2.7382509044,  -2.6974828984,   0.0000000000)
 
  32 primitive cells build up your supercell.
 

 Routine SETGRP: Setting up the symmetry group for a 
 simple monoclinic supercell.


 Subroutine GETGRP returns: Found  4 space group operations
 (whereof  2 operations were pure point group operations)
 out of a pool of  4 trial point group operations.


The dynamic configuration has the point symmetry C_2 .
 The point group associated with its full space group is C_2h.


 Subroutine INISYM returns: Found  4 space group operations
 (whereof  2 operations are pure point group operations),
 and found    32 'primitive' translations


----------------------------------------------------------------------------------------

                                     Primitive cell                                     

  volume of cell :      40.7527

  direct lattice vectors                    reciprocal lattice vectors
     0.020384003  2.717866901 -2.717866901     0.179899668  0.182618554 -0.183967802
     0.020384003  2.717866901  2.717866901     0.179899668  0.182618554  0.183967802
     2.738250904 -2.697482898  0.000000000     0.362518222 -0.002718887 -0.000000000

  length of vectors
     3.843698284  3.843698284  3.843752334     0.315527462  0.315527462  0.362528418

  position of ions in fractional coordinates (direct lattice)
     0.000000000  0.000000000  0.000000000
     0.250000000  0.750000000  0.500000000

  ion indices of the primitive-cell ions
   primitive index   ion index
                 1           1
                 2          15

----------------------------------------------------------------------------------------

 
 
 KPOINTS: Automatic mesh                          

Automatic generation of k-mesh.
 Grid dimensions read from file:
 generate k-points for:    2    2    2

 Generating k-lattice:

  Cartesian coordinates                     Fractional coordinates (reciprocal lattice)
     0.045314778 -0.000339861  0.000000000     0.500000000 -0.000000000  0.000000000
    -0.000339861  0.045994499  0.000000000    -0.000000000  0.500000000  0.000000000
     0.000000000  0.000000000  0.045991951     0.000000000  0.000000000  0.500000000

  Length of vectors
     0.045316052  0.045995755  0.045991951

  Shift w.r.t. Gamma in fractional coordinates (k-lattice)
     0.000000000  0.000000000  0.000000000

 
 Subroutine IBZKPT returns following result:
 ===========================================
 
 Found      8 irreducible k-points:
 
 Following reciprocal coordinates:
            Coordinates               Weight
  0.000000  0.000000  0.000000      1.000000
  0.500000 -0.000000  0.000000      1.000000
 -0.000000  0.500000  0.000000      1.000000
  0.500000  0.500000  0.000000      1.000000
  0.000000  0.000000  0.500000      1.000000
  0.500000 -0.000000  0.500000      1.000000
 -0.000000  0.500000  0.500000      1.000000
  0.500000  0.500000  0.500000      1.000000
 
 Following cartesian coordinates:
            Coordinates               Weight
  0.000000  0.000000  0.000000      1.000000
  0.045315 -0.000340  0.000000      1.000000
 -0.000340  0.045995  0.000000      1.000000
  0.044975  0.045655  0.000000      1.000000
  0.000000  0.000000  0.045992      1.000000
  0.045315 -0.000340  0.045992      1.000000
 -0.000340  0.045995  0.045992      1.000000
  0.044975  0.045655  0.045992      1.000000
 


--------------------------------------------------------------------------------------------------------




 Dimension of arrays:
   k-points           NKPTS =      8   k-points in BZ     NKDIM =      8   number of bands    NBANDS=    162
   number of dos      NEDOS =    301   number of ions     NIONS =     64
   non local maximal  LDIM  =      4   non local SUM 2l+1 LMDIM =      8
   total plane-waves  NPLWV = 373248
   max r-space proj   IRMAX =   3204   max aug-charges    IRDMAX=  76747
   dimension x,y,z NGX =    72 NGY =   72 NGZ =   72
   dimension x,y,z NGXF=   144 NGYF=  144 NGZF=  144
   support grid    NGXF=   288 NGYF=  288 NGZF=  288
   ions per type =              64
   NGX,Y,Z   is equivalent  to a cutoff of  10.85, 11.01, 11.01 a.u.
   NGXF,Y,Z  is equivalent  to a cutoff of  21.69, 22.02, 22.02 a.u.

 SYSTEM =  Si64                                    
 POSCAR =  Si8                                     

 Startparameter for this run:
   NWRITE =      2    write-flag & timer
   PREC   = accura    normal or accurate (medium, high low for compatibility)
   ISTART =      0    job   : 0-new  1-cont  2-samecut
   ICHARG =      2    charge: 1-file 2-atom 10-const
   ISPIN  =      1    spin polarized calculation?
   LNONCOLLINEAR =      F non collinear calculations
   LSORBIT =      F    spin-orbit coupling
   INIWAV =      1    electr: 0-lowe 1-rand  2-diag
   LASPH  =      F    aspherical Exc in radial PAW
 Electronic Relaxation 1
   ENCUT  =  400.0 eV  29.40 Ry    5.42 a.u.  18.00 17.73 17.73*2*pi/ulx,y,z
   ENINI  =  400.0     initial cutoff
   ENAUG  =  322.1 eV  augmentation charge cutoff
   NELM   =     60;   NELMIN=  8; NELMDL= -5     # of ELM steps 
   EDIFF  = 0.1E-05   stopping-criterion for ELM
   LREAL  =      T    real-space projection
   NLSPLINE    = F    spline interpolate recip. space projectors
   LCOMPAT=      F    compatible to vasp.4.4
   GGA_COMPAT  = F    GGA compatible to vasp.4.4-vasp.4.6
   LMAXPAW     = -100 max onsite density
   LMAXMIX     =    2 max onsite mixed and CHGCAR
   VOSKOWN=      0    Vosko Wilk Nusair interpolation
   ROPT   =   -0.00025
 Ionic relaxation
   EDIFFG = -.1E-01   stopping-criterion for IOM
   NSW    =     60    number of steps for IOM
   NBLOCK =      1;   KBLOCK =     60    inner block; outer block 
   IBRION =      2    ionic relax: 0-MD 1-quasi-New 2-CG
   NFREE  =      1    steps in history (QN), initial steepest desc. (CG)
   ISIF   =      2    stress and relaxation
   IWAVPR =     11    prediction:  0-non 1-charg 2-wave 3-comb
   ISYM   =      2    0-nonsym 1-usesym 2-fastsym
   LCORR  =      T    Harris-Foulkes like correction to forces

   POTIM  = 0.5000    time-step for ionic-motion
   TEIN   =    0.0    initial temperature
   TEBEG  =    0.0;   TEEND  =   0.0 temperature during run
   SMASS  =  -3.00    Nose mass-parameter (am)
   estimated Nose-frequenzy (Omega)   =  0.10E-29 period in steps = 0.13E+47 mass=  -0.278E-26a.u.
   SCALEE = 1.0000    scale energy and forces
   NPACO  =    256;   APACO  = 10.0  distance and # of slots for P.C.
   PSTRESS=    0.0 pullay stress

  Mass of Ions in am
   POMASS =  28.09
  Ionic Valenz
   ZVAL   =   4.00
  Atomic Wigner-Seitz radii
   RWIGS  =  -1.00
  virtual crystal weights 
   VCA    =   1.00
   NELECT =     256.0000    total number of electrons
   NUPDOWN=      -1.0000    fix difference up-down

 DOS related values:
   EMIN   =  10.00;   EMAX   =-10.00  energy-range for DOS
   EFERMI =   0.00;   METHOD = LEGACY      
   ISMEAR =     1;   SIGMA  =   0.20  broadening in eV -4-tet -1-fermi 0-gaus

 Electronic relaxation 2 (details)
   IALGO  =     68    algorithm
   LDIAG  =      T    sub-space diagonalisation (order eigenvalues)
   LSUBROT=      F    optimize rotation matrix (better conditioning)
   TURBO    =      0    0=normal 1=particle mesh
   IRESTART =      0    0=no restart 2=restart with 2 vectors
   NREBOOT  =      0    no. of reboots
   NMIN     =      0    reboot dimension
   EREF     =   0.00    reference energy to select bands
   IMIX   =      4    mixing-type and parameters
     AMIX     =   0.40;   BMIX     =  1.00
     AMIX_MAG =   1.60;   BMIX_MAG =  1.00
     AMIN     =   0.10
     WC   =   100.;   INIMIX=   1;  MIXPRE=   1;  MAXMIX= -45

 Intra band minimization:
   WEIMIN = 0.0010     energy-eigenvalue tresh-hold
   EBREAK =  0.15E-08  absolut break condition
   DEPER  =   0.30     relativ break condition  

   TIME   =   0.40     timestep for ELM

  volume/ion in A,a.u.               =      20.38       137.51
  Fermi-wavevector in a.u.,A,eV,Ry     =   0.951450  1.797980 12.316771  0.905257
  Thomas-Fermi vector in A             =   2.079921
 
 Write flags
   LWAVE        =      F    write WAVECAR
   LDOWNSAMPLE  =      F    k-point downsampling of WAVECAR
   LCHARG       =      F    write CHGCAR
   LVTOT        =      F    write LOCPOT, total local potential
   LVHAR        =      F    write LOCPOT, Hartree potential only
   WRT_POTENTIAL= false  ! write potential to hdf5 file
   LELF         =      F    write electronic localiz. function (ELF)
   LORBIT       =      0    0 simple, 1 ext, 2 COOP (PROOUT), +10 PAW based schemes


 Dipole corrections
   LMONO      =      F    monopole corrections only (constant potential shift)
   LDIPOL     =      F    correct potential (dipole corrections)
   IDIPOL     =      0    1-x, 2-y, 3-z, 4-all directions 
   EPSILON    =  1.0000000 bulk dielectric constant
   LVACPOTAV  =      F  vacuum potentials using an averaging scheme for the charge density
   VACPOTFLAT =  0.1000000 required flatness to determine vacuum potential
 Exchange correlation treatment:
   GGA     = PS    functional components
   XC_C    = 1    coefficients multiplying the functional components
   LIBXC   =     F    Libxc                    
   VOSKOWN =     0    Vosko Wilk Nusair interpolation
   LHFCALC =     F    Hartree Fock is set to
   LHFONE  =     F    Hartree Fock one center treatment
   AEXX    =    0.0000 exact exchange contribution

 Parameters of functionals:
   PS:
     No parameter
 
 Van der Waals corrections
   IVDW    =     0    specifies the selected vdW correction

 Linear response parameters
   LEPSILON=     F    determine dielectric tensor
   LRPA    =     F    only Hartree local field effects (RPA)
   LNABLA  =     F    use nabla operator in PAW spheres
   LVEL    =     F    velocity operator in full k-point grid
   CSHIFT  =0.1000    complex shift for real part using Kramers Kronig
   OMEGAMAX=  -1.0    maximum frequency
   DEG_THRESHOLD= 0.2000000E-02 threshold for treating states as degnerate
   RTIME   =   -0.100 relaxation time in fs
  (WPLASMAI=    0.000 imaginary part of plasma frequency in eV, 0.658/RTIME)
   DFIELD  = 0.0000000 0.0000000 0.0000000 field for delta impulse in time
 
  Optional k-point grid parameters
   LKPOINTS_OPT  =     F    use optional k-point grid
   KPOINTS_OPT_MODE=     1    mode for optional k-point grid
 
 Orbital magnetization related:
   ORBITALMAG=     F  switch on orbital magnetization
   LCHIMAG   =     F  perturbation theory with respect to B field
   DQ        =  0.001000  dq finite difference perturbation B field
   LLRAUG    =     F  two centre corrections for induced B field
   LBONE     =     F  B-component reconstruction in AE one-centre
   LVGVCALC  =     T  calculate vGv susceptibility
   LVGVAPPL  =     F  apply vGv susceptibility instead of pGv for G=0

 Random number generation:
   RANDOM_GENERATOR = DEFAULT
   PCG_SEED         = not used


--------------------------------------------------------------------------------------------------------


 conjugate gradient relaxation of ions
 charge density and potential will be updated during run
 non-spin polarized calculation
 RMM-DIIS sequential band-by-band and
  variant of blocked Davidson during initial phase
 perform sub-space diagonalisation
    before iterative eigenvector-optimisation
 modified Broyden-mixing scheme, WC =      100.0
 initial mixing is a Kerker type mixing with AMIX =  0.4000 and BMIX =      1.0000
 Hartree-type preconditioning will be used
 using additional bands           34
 real space projection scheme for non local part
 use partial core corrections
 calculate Harris-corrections to forces 
   (improved forces if not selfconsistent)
 use gradient corrections 
 use of overlap-Matrix (Vanderbilt PP)
 Methfessel and Paxton  Order N= 1 SIGMA  =   0.20


--------------------------------------------------------------------------------------------------------


  energy-cutoff  :      400.00
  volume of cell :     1304.09
      direct lattice vectors                 reciprocal lattice vectors
    11.034539630  0.081536012  0.000000000     0.090629556 -0.000679722  0.000000000
     0.081536012 10.871467606  0.000000000    -0.000679722  0.091988999  0.000000000
     0.000000000  0.000000000 10.871467606     0.000000000  0.000000000  0.091983901

  length of vectors
    11.034840867 10.871773361 10.871467606     0.090632104  0.091991510  0.091983901


 
 k-points in units of 2pi/SCALE and weight: Automatic mesh                          
   0.00000000  0.00000000  0.00000000       0.125
   0.04531478 -0.00033986  0.00000000       0.125
  -0.00033986  0.04599451  0.00000000       0.125
   0.04497492  0.04565465  0.00000000       0.125
   0.00000000  0.00000000  0.04599196       0.125
   0.04531478 -0.00033986  0.04599196       0.125
  -0.00033986  0.04599451  0.04599196       0.125
   0.04497492  0.04565465  0.04599196       0.125
 
 k-points in reciprocal lattice and weights: Automatic mesh                          
   0.00000000  0.00000000  0.00000000       0.125
   0.50000000 -0.00000000  0.00000000       0.125
  -0.00000000  0.50000000  0.00000000       0.125
   0.50000000  0.50000000  0.00000000       0.125
   0.00000000  0.00000000  0.50000000       0.125
   0.50000000 -0.00000000  0.50000000       0.125
  -0.00000000  0.50000000  0.50000000       0.125
   0.50000000  0.50000000  0.50000000       0.125
 
 position of ions in fractional coordinates (direct lattice) 
   0.00000000  0.00000000  0.00000000
   0.00000000  0.00000000  0.50000000
   0.00000000  0.50000000  0.00000000
   0.00000000  0.50000000  0.50000000
   0.50000000  0.00000000  0.00000000
   0.50000000  0.00000000  0.50000000
   0.50000000  0.50000000  0.00000000
   0.50000000  0.50000000  0.50000000
   0.37500000  0.37500000  0.12500000
   0.37500000  0.37500000  0.62500000
   0.37500000  0.87500000  0.12500000
   0.37500000  0.87500000  0.62500000
   0.87500000  0.37500000  0.12500000
   0.87500000  0.37500000  0.62500000
   0.87500000  0.87500000  0.12500000
   0.87500000  0.87500000  0.62500000
   0.00000000  0.25000000  0.25000000
   0.00000000  0.25000000  0.75000000
   0.00000000  0.75000000  0.25000000
   0.00000000  0.75000000  0.75000000
   0.50000000  0.25000000  0.25000000
   0.50000000  0.25000000  0.75000000
   0.50000000  0.75000000  0.25000000
   0.50000000  0.75000000  0.75000000
   0.37500000  0.12500000  0.37500000
   0.37500000  0.12500000  0.87500000
   0.37500000  0.62500000  0.37500000
   0.37500000  0.62500000  0.87500000
   0.87500000  0.12500000  0.37500000
   0.87500000  0.12500000  0.87500000
   0.87500000  0.62500000  0.37500000
   0.87500000  0.62500000  0.87500000
   0.25000000  0.00000000  0.25000000
   0.25000000  0.00000000  0.75000000
   0.25000000  0.50000000  0.25000000
   0.25000000  0.50000000  0.75000000
   0.75000000  0.00000000  0.25000000
   0.75000000  0.00000000  0.75000000
   0.75000000  0.50000000  0.25000000
   0.75000000  0.50000000  0.75000000
   0.12500000  0.37500000  0.37500000
   0.12500000  0.37500000  0.87500000
   0.12500000  0.87500000  0.37500000
   0.12500000  0.87500000  0.87500000
   0.62500000  0.37500000  0.37500000
   0.62500000  0.37500000  0.87500000
   0.62500000  0.87500000  0.37500000
   0.62500000  0.87500000  0.87500000
   0.25000000  0.25000000  0.00000000
   0.25000000  0.25000000  0.50000000
   0.25000000  0.75000000  0.00000000
   0.25000000  0.75000000  0.50000000
   0.75000000  0.25000000  0.00000000
   0.75000000  0.25000000  0.50000000
   0.75000000  0.75000000  0.00000000
   0.75000000  0.75000000  0.50000000
   0.12500000  0.12500000  0.12500000
   0.12500000  0.12500000  0.62500000
   0.12500000  0.62500000  0.12500000
   0.12500000  0.62500000  0.62500000
   0.62500000  0.12500000  0.12500000
   0.62500000  0.12500000  0.62500000
   0.62500000  0.62500000  0.12500000
   0.62500000  0.62500000  0.62500000
 
 position of ions in cartesian coordinates  (Angst):
   0.00000000  0.00000000  0.00000000
   0.00000000  0.00000000  5.43573380
   0.04076801  5.43573380  0.00000000
   0.04076801  5.43573380  5.43573380
   5.51726981  0.04076801  0.00000000
   5.51726981  0.04076801  5.43573380
   5.55803782  5.47650181  0.00000000
   5.55803782  5.47650181  5.43573380
   4.16852837  4.10737636  1.35893345
   4.16852837  4.10737636  6.79466725
   4.20929637  9.54311016  1.35893345
   4.20929637  9.54311016  6.79466725
   9.68579818  4.14814436  1.35893345
   9.68579818  4.14814436  6.79466725
   9.72656619  9.58387817  1.35893345
   9.72656619  9.58387817  6.79466725
   0.02038400  2.71786690  2.71786690
   0.02038400  2.71786690  8.15360070
   0.06115201  8.15360070  2.71786690
   0.06115201  8.15360070  8.15360070
   5.53765382  2.75863491  2.71786690
   5.53765382  2.75863491  8.15360070
   5.57842182  8.19436871  2.71786690
   5.57842182  8.19436871  8.15360070
   4.14814436  1.38950946  4.07680035
   4.14814436  1.38950946  9.51253415
   4.18891237  6.82524326  4.07680035
   4.18891237  6.82524326  9.51253415
   9.66541418  1.43027746  4.07680035
   9.66541418  1.43027746  9.51253415
   9.70618218  6.86601126  4.07680035
   9.70618218  6.86601126  9.51253415
   2.75863491  0.02038400  2.71786690
   2.75863491  0.02038400  8.15360070
   2.79940291  5.45611781  2.71786690
   2.79940291  5.45611781  8.15360070
   8.27590472  0.06115201  2.71786690
   8.27590472  0.06115201  8.15360070
   8.31667273  5.49688581  2.71786690
   8.31667273  5.49688581  8.15360070
   1.40989346  4.08699235  4.07680035
   1.40989346  4.08699235  9.51253415
   1.45066146  9.52272616  4.07680035
   1.45066146  9.52272616  9.51253415
   6.92716327  4.12776036  4.07680035
   6.92716327  4.12776036  9.51253415
   6.96793128  9.56349416  4.07680035
   6.96793128  9.56349416  9.51253415
   2.77901891  2.73825090  0.00000000
   2.77901891  2.73825090  5.43573380
   2.81978692  8.17398471  0.00000000
   2.81978692  8.17398471  5.43573380
   8.29628873  2.77901891  0.00000000
   8.29628873  2.77901891  5.43573380
   8.33705673  8.21475271  0.00000000
   8.33705673  8.21475271  5.43573380
   1.38950946  1.36912545  1.35893345
   1.38950946  1.36912545  6.79466725
   1.43027746  6.80485925  1.35893345
   1.43027746  6.80485925  6.79466725
   6.90677927  1.40989346  1.35893345
   6.90677927  1.40989346  6.79466725
   6.94754728  6.84562726  1.35893345
   6.94754728  6.84562726  6.79466725
 


--------------------------------------------------------------------------------------------------------


 k-point     1 :   0.0000 0.0000 0.0000  plane waves:   23667
 k-point     2 :   0.5000-0.0000 0.0000  plane waves:   23692
 k-point     3 :  -0.0000 0.5000 0.0000  plane waves:   23690
 k-point     4 :   0.5000 0.5000 0.0000  plane waves:   23696
 k-point     5 :   0.0000 0.0000 0.5000  plane waves:   23728
 k-point     6 :   0.5000-0.0000 0.5000  plane waves:   23720
 k-point     7 :  -0.0000 0.5000 0.5000  plane waves:   23632
 k-point     8 :   0.5000 0.5000 0.5000  plane waves:   23700

 maximum and minimum number of plane-waves per node :      2014     1934

 maximum number of plane-waves:     23728
 maximum index in each direction: 
   IXMAX=   17   IYMAX=   17   IZMAX=   17
   IXMIN=  -18   IYMIN=  -18   IZMIN=  -18


 real space projection operators:
  total allocation   :      12116.00 KBytes
  max/ min on nodes  :       1020.00        989.00


 parallel 3D FFT for wavefunctions:
    minimum data exchange during FFTs selected (reduces bandwidth)
 parallel 3D FFT for charge:
    minimum data exchange during FFTs selected (reduces bandwidth)


 total amount of memory used by VASP MPI-rank0    82077. kBytes
=======================================================================

   base      :      30000. kBytes
   nonlr-proj:       4625. kBytes
   fftplans  :      19172. kBytes
   grid      :       7278. kBytes
   one-center:         18. kBytes
   wavefun   :      20984. kBytes
 
     INWAV:  cpu time      0.0000: real time      0.0000
 Broyden mixing: mesh for mixing (old mesh)
   NGX = 35   NGY = 35   NGZ = 35
  (NGX  =144   NGY  =144   NGZ  =144)
  gives a total of  42875 points

 initial charge density was supplied:
 charge density of overlapping atoms calculated
 number of electron     256.0000000 magnetization 
 keeping initial charge density in first step


--------------------------------------------------------------------------------------------------------


 Maximum index for non-local projection operator          282
 Maximum index for augmentation-charges         3386 (set IRDMAX)


--------------------------------------------------------------------------------------------------------


 First call to EWALD:  gamma=   0.162
 Maximum number of real-space cells 3x 3x 3
 Maximum number of reciprocal cells 3x 3x 3

    FEWALD:  cpu time      0.0058: real time      0.0058


--------------------------------------- Ionic step        1  -------------------------------------------




--------------------------------------- Iteration      1(   1)  ---------------------------------------


    POTLOK:  cpu time      0.0987: real time      0.1067
    SETDIJ:  cpu time      0.0858: real time      0.0881
     EDDAV:  cpu time      1.2939: real time      1.3693
       DOS:  cpu time      0.0102: real time      0.0119
    --------------------------------------------
      LOOP:  cpu time      1.4886: real time      1.5761

 eigenvalue-minimisations  :  2592
 total energy-change (2. order) : 0.5631356E+03  (-0.8357238E+04)
 number of electron     256.0000000 magnetization 
 augmentation part      256.0000000 magnetization 

 Free energy of the ion-electron system (eV)
  ---------------------------------------------------
  alpha Z        PSCENC =       105.73236592
  Ewald energy   TEWEN  =     -7270.22669797
  -Hartree energ DENC   =      -360.76221922
  -exchange      EXHF   =         0.00000000
  -V(xc)+E(xc)   XCENC  =      -560.65518719
  PAW double counting   =      5598.62625415    -4492.17844134
  entropy T*S    EENTRO =        -0.00135106
  eigenvalues    EBANDS =       977.80501624
  atomic energy  EATOM  =      6564.79586099
  Solvation  Ediel_sol  =         0.00000000
  ---------------------------------------------------
  free energy    TOTEN  =       563.13560053 eV

  energy without entropy =      563.13695159  energy(sigma->0) =      563.13605088


--------------------------------------------------------------------------------------------------------




--------------------------------------- Iteration      1(   2)  ---------------------------------------


     EDDAV:  cpu time      1.3738: real time      1.3790
       DOS:  cpu time      0.0013: real time      0.0014
    --------------------------------------------
      LOOP:  cpu time      1.3751: real time      1.3804

 eigenvalue-minimisations  :  3080
 total energy-change (2. order) :-0.8716415E+03  (-0.8277442E+03)
 number of electron     256.0000000 magnetization 
 augmentation part      256.0000000 magnetization 

 Free energy of the ion-electron system (eV)
  ---------------------------------------------------
  alpha Z        PSCENC =       105.73236592
  Ewald energy   TEWEN  =     -7270.22669797
  -Hartree energ DENC   =      -360.76221922
  -exchange      EXHF   =         0.00000000
  -V(xc)+E(xc)   XCENC  =      -560.65518719
  PAW double counting   =      5598.62625415    -4492.17844134
  entropy T*S    EENTRO =         0.01392249
  eigenvalues    EBANDS =       106.14826102
  atomic energy  EATOM  =      6564.79586099
  Solvation  Ediel_sol  =         0.00000000
  ---------------------------------------------------
  free energy    TOTEN  =      -308.50588114 eV

  energy without entropy =     -308.51980363  energy(sigma->0) =     -308.51052197


--------------------------------------------------------------------------------------------------------




--------------------------------------- Iteration      1(   3)  ---------------------------------------


     EDDAV:  cpu time      1.3948: real time      1.4121
       DOS:  cpu time      0.0018: real time      0.0018
    --------------------------------------------
      LOOP:  cpu time      1.3965: real time      1.4138

 eigenvalue-minimisations  :  3136
 total energy-change (2. order) :-0.6401252E+02  (-0.6282159E+02)
 number of electron     256.0000000 magnetization 
 augmentation part      256.0000000 magnetization 

 Free energy of the ion-electron system (eV)
  ---------------------------------------------------
  alpha Z        PSCENC =       105.73236592
  Ewald energy   TEWEN  =     -7270.22669797
  -Hartree energ DENC   =      -360.76221922
  -exchange      EXHF   =         0.00000000
  -V(xc)+E(xc)   XCENC  =      -560.65518719
  PAW double counting   =      5598.62625415    -4492.17844134
  entropy T*S    EENTRO =         0.00736956
  eigenvalues    EBANDS =        42.14229342
  atomic energy  EATOM  =      6564.79586099
  Solvation  Ediel_sol  =         0.00000000
  ---------------------------------------------------
  free energy    TOTEN  =      -372.51840168 eV

  energy without entropy =     -372.52577124  energy(sigma->0) =     -372.52085820


--------------------------------------------------------------------------------------------------------




--------------------------------------- Iteration      1(   4)  ---------------------------------------


     EDDAV:  cpu time      1.3598: real time      1.3757
       DOS:  cpu time      0.0012: real time      0.0012
    --------------------------------------------
      LOOP:  cpu time      1.3610: real time      1.3769

 eigenvalue-minimisations  :  3096
 total energy-change (2. order) :-0.1703990E+01  (-0.1691268E+01)
 number of electron     256.0000000 magnetization 
 augmentation part      256.0000000 magnetization 

 Free energy of the ion-electron system (eV)
  ---------------------------------------------------
  alpha Z        PSCENC =       105.73236592
  Ewald energy   TEWEN  =     -7270.22669797
  -Hartree energ DENC   =      -360.76221922
  -exchange      EXHF   =         0.00000000
  -V(xc)+E(xc)   XCENC  =      -560.65518719
  PAW double counting   =      5598.62625415    -4492.17844134
  entropy T*S    EENTRO =         0.00812298
  eigenvalues    EBANDS =        40.43755027
  atomic energy  EATOM  =      6564.79586099
  Solvation  Ediel_sol  =         0.00000000
  ---------------------------------------------------
  free energy    TOTEN  =      -374.22239141 eV

  energy without entropy =     -374.23051438  energy(sigma->0) =     -374.22509906


--------------------------------------------------------------------------------------------------------




--------------------------------------- Iteration      1(   5)  ---------------------------------------


     EDDAV:  cpu time      1.3814: real time      1.3975
       DOS:  cpu time      0.0011: real time      0.0011
    CHARGE:  cpu time      0.2661: real time      0.2693
    MIXING:  cpu time      0.0086: real time      0.0093
    --------------------------------------------
      LOOP:  cpu time      1.6573: real time      1.6773

 eigenvalue-minimisations  :  3120
 total energy-change (2. order) :-0.5901794E-01  (-0.5888464E-01)
 number of electron     255.9999998 magnetization 
 augmentation part      -14.9375971 magnetization 

 Broyden mixing:
  rms(total) = 0.27491E+01    rms(broyden)= 0.27491E+01
  rms(prec ) = 0.30292E+01
  weight for this iteration     100.00

 Free energy of the ion-electron system (eV)
  ---------------------------------------------------
  alpha Z        PSCENC =       105.73236592
  Ewald energy   TEWEN  =     -7270.22669797
  -Hartree energ DENC   =      -360.76221922
  -exchange      EXHF   =         0.00000000
  -V(xc)+E(xc)   XCENC  =      -560.65518719
  PAW double counting   =      5598.62625415    -4492.17844134
  entropy T*S    EENTRO =         0.00823664
  eigenvalues    EBANDS =        40.37841867
  atomic energy  EATOM  =      6564.79586099
  Solvation  Ediel_sol  =         0.00000000
  ---------------------------------------------------
  free energy    TOTEN  =      -374.28140935 eV

  energy without entropy =     -374.28964599  energy(sigma->0) =     -374.28415489


--------------------------------------------------------------------------------------------------------




--------------------------------------- Iteration      1(   6)  ---------------------------------------


    POTLOK:  cpu time      0.0847: real time      0.1013
    SETDIJ:  cpu time      0.0728: real time      0.0730
    EDDIAG:  cpu time      0.1385: real time      0.1403
  RMM-DIIS:  cpu time      0.7487: real time      0.7526
    ORTHCH:  cpu time      0.0213: real time      0.0213
       DOS:  cpu time      0.0014: real time      0.0014
    CHARGE:  cpu time      0.2530: real time      0.2535
    MIXING:  cpu time      0.0068: real time      0.0068
    --------------------------------------------
      LOOP:  cpu time      1.3272: real time      1.3502

 eigenvalue-minimisations  :  2592
 total energy-change (2. order) : 0.4737401E+01  (-0.2316663E+00)
 number of electron     255.9999998 magnetization 
 augmentation part      -14.7866189 magnetization 

 Broyden mixing:
  rms(total) = 0.16516E+01    rms(broyden)= 0.16516E+01
  rms(prec ) = 0.18135E+01
  weight for this iteration     100.00

 eigenvalues of (default mixing * dielectric matrix)
  average eigenvalue GAMMA=   2.5000
  2.5000

 Free energy of the ion-electron system (eV)
  ---------------------------------------------------
  alpha Z        PSCENC =       105.73236592
  Ewald energy   TEWEN  =     -7270.22669797
  -Hartree energ DENC   =      -405.93504632
  -exchange      EXHF   =         0.00000000
  -V(xc)+E(xc)   XCENC  =      -553.52660108
  PAW double counting   =     12082.09803777   -10978.71621093
  entropy T*S    EENTRO =         0.00896749
  eigenvalues    EBANDS =        86.22531622
  atomic energy  EATOM  =      6564.79586099
  Solvation  Ediel_sol  =         0.00000000
  ---------------------------------------------------
  free energy    TOTEN  =      -369.54400789 eV

  energy without entropy =     -369.55297539  energy(sigma->0) =     -369.54699706


--------------------------------------------------------------------------------------------------------




--------------------------------------- Iteration      1(   7)  ---------------------------------------


    POTLOK:  cpu time      0.0864: real time      0.0971
    SETDIJ:  cpu time      0.0703: real time      0.0705
    EDDIAG:  cpu time      0.1359: real time      0.1362
  RMM-DIIS:  cpu time      0.7285: real time      0.7299
    ORTHCH:  cpu time      0.0215: real time      0.0216
       DOS:  cpu time      0.0024: real time      0.0024
    CHARGE:  cpu time      0.2548: real time      0.2552
    MIXING:  cpu time      0.0060: real time      0.0060
    --------------------------------------------
      LOOP:  cpu time      1.3059: real time      1.3189

 eigenvalue-minimisations  :  2629
 total energy-change (2. order) : 0.2202947E+01  (-0.5981338E+00)
 number of electron     255.9999999 magnetization 
 augmentation part      -14.5758557 magnetization 

 Broyden mixing:
  rms(total) = 0.88427E-01    rms(broyden)= 0.88427E-01
  rms(prec ) = 0.11114E+00
  weight for this iteration     100.00

 eigenvalues of (default mixing * dielectric matrix)
  average eigenvalue GAMMA=   2.2644
  2.2644  2.2644

 Free energy of the ion-electron system (eV)
  ---------------------------------------------------
  alpha Z        PSCENC =       105.73236592
  Ewald energy   TEWEN  =     -7270.22669797
  -Hartree energ DENC   =      -480.82576254
  -exchange      EXHF   =         0.00000000
  -V(xc)+E(xc)   XCENC  =      -541.15143570
  PAW double counting   =     27362.05989134   -26262.88340617
  entropy T*S    EENTRO =         0.02811967
  eigenvalues    EBANDS =       155.13000398
  atomic energy  EATOM  =      6564.79586099
  Solvation  Ediel_sol  =         0.00000000
  ---------------------------------------------------
  free energy    TOTEN  =      -367.34106047 eV

  energy without entropy =     -367.36918014  energy(sigma->0) =     -367.35043370


--------------------------------------------------------------------------------------------------------




--------------------------------------- Iteration      1(   8)  ---------------------------------------


    POTLOK:  cpu time      0.0794: real time      0.0955
    SETDIJ:  cpu time      0.0769: real time      0.0770
    EDDIAG:  cpu time      0.1337: real time      0.1339
  RMM-DIIS:  cpu time      0.7344: real time      0.7361
    ORTHCH:  cpu time      0.0225: real time      0.0226
       DOS:  cpu time      0.0013: real time      0.0014
    CHARGE:  cpu time      0.2516: real time      0.2520
    MIXING:  cpu time      0.0053: real time      0.0053
    --------------------------------------------
      LOOP:  cpu time      1.3051: real time      1.3240

 eigenvalue-minimisations  :  2634
 total energy-change (2. order) :-0.4705303E-01  (-0.6038891E-01)
 number of electron     255.9999999 magnetization 
 augmentation part      -14.6245120 magnetization 

 Broyden mixing:
  rms(total) = 0.48175E-01    rms(broyden)= 0.48175E-01
  rms(prec ) = 0.51516E-01
  weight for this iteration     100.00

 eigenvalues of (default mixing * dielectric matrix)
  average eigenvalue GAMMA=   2.1590
  2.5500  1.9635  1.9635

 Free energy of the ion-electron system (eV)
  ---------------------------------------------------
  alpha Z        PSCENC =       105.73236592
  Ewald energy   TEWEN  =     -7270.22669797
  -Hartree energ DENC   =      -474.36715201
  -exchange      EXHF   =         0.00000000
  -V(xc)+E(xc)   XCENC  =      -541.66771599
  PAW double counting   =     26926.37248857   -25826.38309448
  entropy T*S    EENTRO =         0.02604813
  eigenvalues    EBANDS =       148.32978333
  atomic energy  EATOM  =      6564.79586099
  Solvation  Ediel_sol  =         0.00000000
  ---------------------------------------------------
  free energy    TOTEN  =      -367.38811351 eV

  energy without entropy =     -367.41416164  energy(sigma->0) =     -367.39679622


--------------------------------------------------------------------------------------------------------




--------------------------------------- Iteration      1(   9)  ---------------------------------------


    POTLOK:  cpu time      0.0830: real time      0.0978
    SETDIJ:  cpu time      0.0690: real time      0.0691
    EDDIAG:  cpu time      0.1320: real time      0.1322
  RMM-DIIS:  cpu time      0.7487: real time      0.7503
    ORTHCH:  cpu time      0.0214: real time      0.0214
       DOS:  cpu time      0.0017: real time      0.0017
    CHARGE:  cpu time      0.2510: real time      0.2515
    MIXING:  cpu time      0.0058: real time      0.0058
    --------------------------------------------
      LOOP:  cpu time      1.3126: real time      1.3299

 eigenvalue-minimisations  :  2682
 total energy-change (2. order) :-0.1814946E-01  (-0.1671928E-01)
 number of electron     255.9999999 magnetization 
 augmentation part      -14.6162877 magnetization 

 Broyden mixing:
  rms(total) = 0.56235E-01    rms(broyden)= 0.56234E-01
  rms(prec ) = 0.62039E-01
  weight for this iteration     100.00

 eigenvalues of (default mixing * dielectric matrix)
  average eigenvalue GAMMA=   1.7470
  2.5468  2.1315  2.1315  0.1782

 Free energy of the ion-electron system (eV)
  ---------------------------------------------------
  alpha Z        PSCENC =       105.73236592
  Ewald energy   TEWEN  =     -7270.22669797
  -Hartree energ DENC   =      -476.71014233
  -exchange      EXHF   =         0.00000000
  -V(xc)+E(xc)   XCENC  =      -541.33899869
  PAW double counting   =     27221.50358848   -26121.69204058
  entropy T*S    EENTRO =         0.02650700
  eigenvalues    EBANDS =       150.50329422
  atomic energy  EATOM  =      6564.79586099
  Solvation  Ediel_sol  =         0.00000000
  ---------------------------------------------------
  free energy    TOTEN  =      -367.40626296 eV

  energy without entropy =     -367.43276996  energy(sigma->0) =     -367.41509863


--------------------------------------------------------------------------------------------------------




--------------------------------------- Iteration      1(  10)  ---------------------------------------


    POTLOK:  cpu time      0.0859: real time      0.0936
    SETDIJ:  cpu time      0.0741: real time      0.0742
    EDDIAG:  cpu time      0.1322: real time      0.1324
  RMM-DIIS:  cpu time      0.7520: real time      0.7536
    ORTHCH:  cpu time      0.0214: real time      0.0215
       DOS:  cpu time      0.0016: real time      0.0016
    CHARGE:  cpu time      0.2526: real time      0.2531
    MIXING:  cpu time      0.0051: real time      0.0051
    --------------------------------------------
      LOOP:  cpu time      1.3249: real time      1.3351

 eigenvalue-minimisations  :  2731
 total energy-change (2. order) :-0.3084411E-02  (-0.2823758E-02)
 number of electron     255.9999999 magnetization 
 augmentation part      -14.6223262 magnetization 

 Broyden mixing:
  rms(total) = 0.76045E-01    rms(broyden)= 0.76045E-01
  rms(prec ) = 0.81264E-01
  weight for this iteration     100.00

 eigenvalues of (default mixing * dielectric matrix)
  average eigenvalue GAMMA=   1.6063
  2.6630  2.1220  2.1220  0.5623  0.5623

 Free energy of the ion-electron system (eV)
  ---------------------------------------------------
  alpha Z        PSCENC =       105.73236592
  Ewald energy   TEWEN  =     -7270.22669797
  -Hartree energ DENC   =      -476.85530290
  -exchange      EXHF   =         0.00000000
  -V(xc)+E(xc)   XCENC  =      -541.32152661
  PAW double counting   =     27257.10797995   -26157.30172341
  entropy T*S    EENTRO =         0.02655706
  eigenvalues    EBANDS =       150.63313959
  atomic energy  EATOM  =      6564.79586099
  Solvation  Ediel_sol  =         0.00000000
  ---------------------------------------------------
  free energy    TOTEN  =      -367.40934737 eV

  energy without entropy =     -367.43590443  energy(sigma->0) =     -367.41819973


--------------------------------------------------------------------------------------------------------




--------------------------------------- Iteration      1(  11)  ---------------------------------------


    POTLOK:  cpu time      0.0789: real time      0.0933
    SETDIJ:  cpu time      0.0772: real time      0.0773
    EDDIAG:  cpu time      0.1324: real time      0.1326
  RMM-DIIS:  cpu time      0.7210: real time      0.7226
    ORTHCH:  cpu time      0.0213: real time      0.0213
       DOS:  cpu time      0.0016: real time      0.0016
    CHARGE:  cpu time      0.2522: real time      0.2527
    MIXING:  cpu time      0.0053: real time      0.0053
    --------------------------------------------
      LOOP:  cpu time      1.2898: real time      1.3067

 eigenvalue-minimisations  :  2592
 total energy-change (2. order) : 0.1526984E-02  (-0.1015515E-02)
 number of electron     255.9999999 magnetization 
 augmentation part      -14.6346558 magnetization 

 Broyden mixing:
  rms(total) = 0.61111E-01    rms(broyden)= 0.61111E-01
  rms(prec ) = 0.61619E-01
  weight for this iteration     100.00

 eigenvalues of (default mixing * dielectric matrix)
  average eigenvalue GAMMA=   1.4555
  2.5774  2.5774  1.3199  0.9601  0.9601  0.3379

 Free energy of the ion-electron system (eV)
  ---------------------------------------------------
  alpha Z        PSCENC =       105.73236592
  Ewald energy   TEWEN  =     -7270.22669797
  -Hartree energ DENC   =      -474.84784726
  -exchange      EXHF   =         0.00000000
  -V(xc)+E(xc)   XCENC  =      -541.44826611
  PAW double counting   =     27161.29332092   -26061.27266753
  entropy T*S    EENTRO =         0.02576271
  eigenvalues    EBANDS =       148.54034793
  atomic energy  EATOM  =      6564.79586099
  Solvation  Ediel_sol  =         0.00000000
  ---------------------------------------------------
  free energy    TOTEN  =      -367.40782039 eV

  energy without entropy =     -367.43358310  energy(sigma->0) =     -367.41640796


--------------------------------------------------------------------------------------------------------




--------------------------------------- Iteration      1(  12)  ---------------------------------------


    POTLOK:  cpu time      0.0828: real time      0.1003
    SETDIJ:  cpu time      0.0689: real time      0.0690
    EDDIAG:  cpu time      0.1317: real time      0.1320
  RMM-DIIS:  cpu time      0.7125: real time      0.7140
    ORTHCH:  cpu time      0.0215: real time      0.0216
       DOS:  cpu time      0.0015: real time      0.0015
    CHARGE:  cpu time      0.2520: real time      0.2525
    MIXING:  cpu time      0.0052: real time      0.0053
    --------------------------------------------
      LOOP:  cpu time      1.2762: real time      1.2961

 eigenvalue-minimisations  :  2602
 total energy-change (2. order) :-0.1381076E-03  (-0.1674799E-03)
 number of electron     255.9999999 magnetization 
 augmentation part      -14.6384203 magnetization 

 Broyden mixing:
  rms(total) = 0.58940E-01    rms(broyden)= 0.58940E-01
  rms(prec ) = 0.59225E-01
  weight for this iteration     100.00

 eigenvalues of (default mixing * dielectric matrix)
  average eigenvalue GAMMA=   1.3067
  2.5774  2.5774  1.4139  0.9360  0.9360  0.3999  0.3064

 Free energy of the ion-electron system (eV)
  ---------------------------------------------------
  alpha Z        PSCENC =       105.73236592
  Ewald energy   TEWEN  =     -7270.22669797
  -Hartree energ DENC   =      -474.60574948
  -exchange      EXHF   =         0.00000000
  -V(xc)+E(xc)   XCENC  =      -541.48553358
  PAW double counting   =     27078.98133729   -25978.96764126
  entropy T*S    EENTRO =         0.02570926
  eigenvalues    EBANDS =       148.34239032
  atomic energy  EATOM  =      6564.79586099
  Solvation  Ediel_sol  =         0.00000000
  ---------------------------------------------------
  free energy    TOTEN  =      -367.40795850 eV

  energy without entropy =     -367.43366776  energy(sigma->0) =     -367.41652825


--------------------------------------------------------------------------------------------------------




--------------------------------------- Iteration      1(  13)  ---------------------------------------


    POTLOK:  cpu time      0.0825: real time      0.0975
    SETDIJ:  cpu time      0.0740: real time      0.0741
    EDDIAG:  cpu time      0.1326: real time      0.1330
  RMM-DIIS:  cpu time      0.7664: real time      0.7679
    ORTHCH:  cpu time      0.0213: real time      0.0213
       DOS:  cpu time      0.0016: real time      0.0016
    CHARGE:  cpu time      0.2350: real time      0.2857
    MIXING:  cpu time      0.0053: real time      0.0053
    --------------------------------------------
      LOOP:  cpu time      1.3186: real time      1.3865

 eigenvalue-minimisations  :  2783
 total energy-change (2. order) :-0.3657255E-04  (-0.2901223E-04)
 number of electron     255.9999999 magnetization 
 augmentation part      -14.6387587 magnetization 

 Broyden mixing:
  rms(total) = 0.66429E-01    rms(broyden)= 0.66429E-01
  rms(prec ) = 0.66719E-01
  weight for this iteration     100.00

 eigenvalues of (default mixing * dielectric matrix)
  average eigenvalue GAMMA=   1.5571
  2.6899  2.6899  2.3583  1.7778  0.8894  0.7821  0.7821  0.4872

 Free energy of the ion-electron system (eV)
  ---------------------------------------------------
  alpha Z        PSCENC =       105.73236592
  Ewald energy   TEWEN  =     -7270.22669797
  -Hartree energ DENC   =      -474.65068014
  -exchange      EXHF   =         0.00000000
  -V(xc)+E(xc)   XCENC  =      -541.47649793
  PAW double counting   =     27120.16440928   -26020.14963401
  entropy T*S    EENTRO =         0.02571731
  eigenvalues    EBANDS =       148.37716147
  atomic energy  EATOM  =      6564.79586099
  Solvation  Ediel_sol  =         0.00000000
  ---------------------------------------------------
  free energy    TOTEN  =      -367.40799507 eV

  energy without entropy =     -367.43371237  energy(sigma->0) =     -367.41656750


--------------------------------------------------------------------------------------------------------




--------------------------------------- Iteration      1(  14)  ---------------------------------------


    POTLOK:  cpu time      0.0796: real time      0.0934
    SETDIJ:  cpu time      0.0742: real time      0.0746
    EDDIAG:  cpu time      0.1329: real time      0.1332
  RMM-DIIS:  cpu time      0.7181: real time      0.7199
    ORTHCH:  cpu time      0.0221: real time      0.0222
       DOS:  cpu time      0.0014: real time      0.0014
    CHARGE:  cpu time      0.2524: real time      0.2529
    MIXING:  cpu time      0.0056: real time      0.0056
    --------------------------------------------
      LOOP:  cpu time      1.2863: real time      1.3032

 eigenvalue-minimisations  :  2602
 total energy-change (2. order) :-0.5320039E-04  (-0.7721153E-05)
 number of electron     255.9999999 magnetization 
 augmentation part      -14.6389789 magnetization 

 Broyden mixing:
  rms(total) = 0.34050E-01    rms(broyden)= 0.34050E-01
  rms(prec ) = 0.34260E-01
  weight for this iteration     100.00

 eigenvalues of (default mixing * dielectric matrix)
  average eigenvalue GAMMA=   1.4424
  2.6579  2.6579  2.3450  1.6504  0.9708  0.9708  0.7694  0.4799  0.4799

 Free energy of the ion-electron system (eV)
  ---------------------------------------------------
  alpha Z        PSCENC =       105.73236592
  Ewald energy   TEWEN  =     -7270.22669797
  -Hartree energ DENC   =      -474.50661376
  -exchange      EXHF   =         0.00000000
  -V(xc)+E(xc)   XCENC  =      -541.50847162
  PAW double counting   =     26905.36736431   -25805.37804802
  entropy T*S    EENTRO =         0.02568159
  eigenvalues    EBANDS =       148.29051028
  atomic energy  EATOM  =      6564.79586099
  Solvation  Ediel_sol  =         0.00000000
  ---------------------------------------------------
  free energy    TOTEN  =      -367.40804827 eV

  energy without entropy =     -367.43372986  energy(sigma->0) =     -367.41660880


--------------------------------------------------------------------------------------------------------




--------------------------------------- Iteration      1(  15)  ---------------------------------------


    POTLOK:  cpu time      0.0813: real time      0.0944
    SETDIJ:  cpu time      0.0740: real time      0.0742
    EDDIAG:  cpu time      0.1335: real time      0.1338
  RMM-DIIS:  cpu time      0.7304: real time      0.7322
    ORTHCH:  cpu time      0.0229: real time      0.0230
       DOS:  cpu time      0.0013: real time      0.0013
    CHARGE:  cpu time      0.2527: real time      0.2534
    MIXING:  cpu time      0.0063: real time      0.0063
    --------------------------------------------
      LOOP:  cpu time      1.3025: real time      1.3188

 eigenvalue-minimisations  :  2631
 total energy-change (2. order) :-0.5562290E-04  (-0.2655904E-05)
 number of electron     255.9999999 magnetization 
 augmentation part      -14.6391713 magnetization 

 Broyden mixing:
  rms(total) = 0.26130E-01    rms(broyden)= 0.26130E-01
  rms(prec ) = 0.26297E-01
  weight for this iteration     100.00

 eigenvalues of (default mixing * dielectric matrix)
  average eigenvalue GAMMA=   1.3803
  2.7027  2.7027  2.3215  1.6067  0.9702  0.9702  0.7712  0.6334  0.6334  0.4908

 Free energy of the ion-electron system (eV)
  ---------------------------------------------------
  alpha Z        PSCENC =       105.73236592
  Ewald energy   TEWEN  =     -7270.22669797
  -Hartree energ DENC   =      -474.48578609
  -exchange      EXHF   =         0.00000000
  -V(xc)+E(xc)   XCENC  =      -541.50941899
  PAW double counting   =     26866.04377836   -25766.05146177
  entropy T*S    EENTRO =         0.02565288
  eigenvalues    EBANDS =       148.26760278
  atomic energy  EATOM  =      6564.79586099
  Solvation  Ediel_sol  =         0.00000000
  ---------------------------------------------------
  free energy    TOTEN  =      -367.40810389 eV

  energy without entropy =     -367.43375677  energy(sigma->0) =     -367.41665485


--------------------------------------------------------------------------------------------------------




--------------------------------------- Iteration      1(  16)  ---------------------------------------


    POTLOK:  cpu time      0.0787: real time      0.0967
    SETDIJ:  cpu time      0.0749: real time      0.0751
    EDDIAG:  cpu time      0.1372: real time      0.1375
  RMM-DIIS:  cpu time      0.7247: real time      0.7264
    ORTHCH:  cpu time      0.0220: real time      0.0220
       DOS:  cpu time      0.0014: real time      0.0015
    CHARGE:  cpu time      0.2536: real time      0.2546
    MIXING:  cpu time      0.0069: real time      0.0070
    --------------------------------------------
      LOOP:  cpu time      1.2994: real time      1.3207

 eigenvalue-minimisations  :  2592
 total energy-change (2. order) :-0.3016916E-04  (-0.1692354E-05)
 number of electron     255.9999999 magnetization 
 augmentation part      -14.6388204 magnetization 

 Broyden mixing:
  rms(total) = 0.14626E-01    rms(broyden)= 0.14626E-01
  rms(prec ) = 0.14726E-01
  weight for this iteration     100.00

 eigenvalues of (default mixing * dielectric matrix)
  average eigenvalue GAMMA=   1.2551
  2.7027  2.7027  2.3213  1.6070  0.9699  0.9699  0.7711  0.6327  0.6327  0.4905
  0.0057

 Free energy of the ion-electron system (eV)
  ---------------------------------------------------
  alpha Z        PSCENC =       105.73236592
  Ewald energy   TEWEN  =     -7270.22669797
  -Hartree energ DENC   =      -474.56748708
  -exchange      EXHF   =         0.00000000
  -V(xc)+E(xc)   XCENC  =      -541.50572965
  PAW double counting   =     26808.34786164   -25708.35789453
  entropy T*S    EENTRO =         0.02565048
  eigenvalues    EBANDS =       148.34793613
  atomic energy  EATOM  =      6564.79586099
  Solvation  Ediel_sol  =         0.00000000
  ---------------------------------------------------
  free energy    TOTEN  =      -367.40813406 eV

  energy without entropy =     -367.43378454  energy(sigma->0) =     -367.41668422


--------------------------------------------------------------------------------------------------------




--------------------------------------- Iteration      1(  17)  ---------------------------------------


    POTLOK:  cpu time      0.0788: real time      0.0938
    SETDIJ:  cpu time      0.0731: real time      0.0732
    EDDIAG:  cpu time      0.1341: real time      0.1344
  RMM-DIIS:  cpu time      0.7282: real time      0.7300
    ORTHCH:  cpu time      0.0295: real time      0.0295
       DOS:  cpu time      0.0013: real time      0.0016
    CHARGE:  cpu time      0.2578: real time      0.2586
    MIXING:  cpu time      0.0068: real time      0.0069
    --------------------------------------------
      LOOP:  cpu time      1.3096: real time      1.3280

 eigenvalue-minimisations  :  2593
 total energy-change (2. order) :-0.1232115E-04  (-0.1198671E-05)
 number of electron     255.9999999 magnetization 
 augmentation part      -14.6384324 magnetization 

 Broyden mixing:
  rms(total) = 0.41864E-02    rms(broyden)= 0.41864E-02
  rms(prec ) = 0.42403E-02
  weight for this iteration     100.00

 eigenvalues of (default mixing * dielectric matrix)
  average eigenvalue GAMMA=   1.7254
  3.0424  3.0424  2.7207  2.7207  2.3678  1.9986  0.9920  0.9920  0.8650  0.7175
  0.7175  0.5276

 Free energy of the ion-electron system (eV)
  ---------------------------------------------------
  alpha Z        PSCENC =       105.73236592
  Ewald energy   TEWEN  =     -7270.22669797
  -Hartree energ DENC   =      -474.64293826
  -exchange      EXHF   =         0.00000000
  -V(xc)+E(xc)   XCENC  =      -541.50302943
  PAW double counting   =     26753.82527483   -25653.83659186
  entropy T*S    EENTRO =         0.02564931
  eigenvalues    EBANDS =       148.42196008
  atomic energy  EATOM  =      6564.79586099
  Solvation  Ediel_sol  =         0.00000000
  ---------------------------------------------------
  free energy    TOTEN  =      -367.40814638 eV

  energy without entropy =     -367.43379569  energy(sigma->0) =     -367.41669615


--------------------------------------------------------------------------------------------------------




--------------------------------------- Iteration      1(  18)  ---------------------------------------


    POTLOK:  cpu time      0.0820: real time      0.0983
    SETDIJ:  cpu time      0.0713: real time      0.0715
    EDDIAG:  cpu time      0.1351: real time      0.1354
  RMM-DIIS:  cpu time      0.6111: real time      0.6124
    ORTHCH:  cpu time      0.0217: real time      0.0218
       DOS:  cpu time      0.0014: real time      0.0014
    CHARGE:  cpu time      0.2535: real time      0.2544
    MIXING:  cpu time      0.0052: real time      0.0052
    --------------------------------------------
      LOOP:  cpu time      1.1814: real time      1.2006

 eigenvalue-minimisations  :  2103
 total energy-change (2. order) :-0.1390399E-05  (-0.4592287E-06)
 number of electron     255.9999999 magnetization 
 augmentation part      -14.6381406 magnetization 

 Broyden mixing:
  rms(total) = 0.32478E-03    rms(broyden)= 0.32478E-03
  rms(prec ) = 0.40002E-03
  weight for this iteration     100.00

 eigenvalues of (default mixing * dielectric matrix)
  average eigenvalue GAMMA=   1.6423
  3.2006  3.2006  2.6930  2.6930  2.4121  1.9563  0.9832  0.9832  0.8615  0.7124
  0.7124  0.5256  0.4166

 Free energy of the ion-electron system (eV)
  ---------------------------------------------------
  alpha Z        PSCENC =       105.73236592
  Ewald energy   TEWEN  =     -7270.22669797
  -Hartree energ DENC   =      -474.68976360
  -exchange      EXHF   =         0.00000000
  -V(xc)+E(xc)   XCENC  =      -541.50058167
  PAW double counting   =     26731.79113562   -25631.80313769
  entropy T*S    EENTRO =         0.02565229
  eigenvalues    EBANDS =       148.46701834
  atomic energy  EATOM  =      6564.79586099
  Solvation  Ediel_sol  =         0.00000000
  ---------------------------------------------------
  free energy    TOTEN  =      -367.40814777 eV

  energy without entropy =     -367.43380006  energy(sigma->0) =     -367.41669854


--------------------------------------------------------------------------------------------------------




--------------------------------------- Iteration      1(  19)  ---------------------------------------


    POTLOK:  cpu time      0.0840: real time      0.1002
    SETDIJ:  cpu time      0.0685: real time      0.0686
    EDDIAG:  cpu time      0.1327: real time      0.1330
  RMM-DIIS:  cpu time      0.4614: real time      0.4625
    ORTHCH:  cpu time      0.0211: real time      0.0212
       DOS:  cpu time      0.0016: real time      0.0016
    --------------------------------------------
      LOOP:  cpu time      0.7693: real time      0.7871

 eigenvalue-minimisations  :  1564
 total energy-change (2. order) :-0.2240067E-06  (-0.1358189E-06)
 number of electron     255.9999999 magnetization 
 augmentation part      -14.6381406 magnetization 

 Free energy of the ion-electron system (eV)
  ---------------------------------------------------
  alpha Z        PSCENC =       105.73236592
  Ewald energy   TEWEN  =     -7270.22669797
  -Hartree energ DENC   =      -474.71901356
  -exchange      EXHF   =         0.00000000
  -V(xc)+E(xc)   XCENC  =      -541.49811611
  PAW double counting   =     26729.20885152   -25629.22130683
  entropy T*S    EENTRO =         0.02565676
  eigenvalues    EBANDS =       148.49425126
  atomic energy  EATOM  =      6564.79586099
  Solvation  Ediel_sol  =         0.00000000
  ---------------------------------------------------
  free energy    TOTEN  =      -367.40814800 eV

  energy without entropy =     -367.43380476  energy(sigma->0) =     -367.41670025


--------------------------------------------------------------------------------------------------------




 average (electrostatic) potential at core
  the test charge radii are     0.9892
  (the norm of the test charge is              1.0000)
       1 -83.2283       2 -83.2283       3 -83.2283       4 -83.2283       5 -83.2283
       6 -83.2283       7 -83.2283       8 -83.2283       9 -83.2283      10 -83.2283
      11 -83.2283      12 -83.2283      13 -83.2283      14 -83.2283      15 -83.2283
      16 -83.2283      17 -83.2283      18 -83.2283      19 -83.2283      20 -83.2283
      21 -83.2283      22 -83.2283      23 -83.2283      24 -83.2283      25 -83.2283
      26 -83.2283      27 -83.2283      28 -83.2283      29 -83.2283      30 -83.2283
      31 -83.2283      32 -83.2283      33 -83.2283      34 -83.2283      35 -83.2283
      36 -83.2283      37 -83.2283      38 -83.2283      39 -83.2283      40 -83.2283
      41 -83.2283      42 -83.2283      43 -83.2283      44 -83.2283      45 -83.2283
      46 -83.2283      47 -83.2283      48 -83.2283      49 -83.2283      50 -83.2283
      51 -83.2283      52 -83.2283      53 -83.2283      54 -83.2283      55 -83.2283
      56 -83.2283      57 -83.2283      58 -83.2283      59 -83.2283      60 -83.2283
      61 -83.2283      62 -83.2283      63 -83.2283      64 -83.2283
 
 
 
 E-fermi :   5.9540     XC(G=0):  -9.4852     alpha+bet :-11.7708

 val. band max:        5.6543320107   @ k =   0.0000   0.0000   0.0000
 cond. band min:       6.0985773900   @ k =   0.0000   0.0000   0.5000
 fundamental gap:      0.4442453793
 Fermi energy:         5.9540263320

 k-point     1 :       0.0000    0.0000    0.0000
  band No.  band energies     occupation 
      1      -6.2551      2.00000
      2      -5.2029      2.00000
      3      -5.2029      2.00000
      4      -5.1766      2.00000
      5      -5.1766      2.00000
      6      -5.1761      2.00000
      7      -5.1761      2.00000
      8      -4.2829      2.00000
      9      -4.2829      2.00000
     10      -4.2403      2.00000
     11      -4.2403      2.00000
     12      -4.2403      2.00000
     13      -4.2403      2.00000
     14      -4.2219      2.00000
     15      -4.2219      2.00000
     16      -4.2219      2.00000
     17      -4.2219      2.00000
     18      -4.1966      2.00000
     19      -4.1966      2.00000
     20      -3.9980      2.00000
     21      -3.9980      2.00000
     22      -3.8997      2.00000
     23      -3.8997      2.00000
     24      -2.2149      2.00000
     25      -2.2149      2.00000
     26      -2.1917      2.00000
     27      -2.1281      2.00000
     28      -2.1281      2.00000
     29      -2.0731      2.00000
     30      -2.0731      2.00000
     31      -2.0664      2.00000
     32      -2.0416      2.00000
     33      -2.0416      2.00000
     34      -2.0056      2.00000
     35      -2.0056      2.00000
     36      -2.0056      2.00000
     37      -2.0056      2.00000
     38      -1.9380      2.00000
     39      -1.9380      2.00000
     40      -1.9075      2.00000
     41      -1.9075      2.00000
     42      -1.3304      2.00000
     43      -1.3304      2.00000
     44      -1.3049      2.00000
     45      -1.3049      2.00000
     46       0.1213      2.00000
     47       0.1213      2.00000
     48       0.1213      2.00000
     49       0.1213      2.00000
     50       0.1405      2.00000
     51       0.1405      2.00000
     52       0.1717      2.00000
     53       0.1717      2.00000
     54       0.1717      2.00000
     55       0.1717      2.00000
     56       0.2008      2.00000
     57       0.2008      2.00000
     58       1.7800      2.00000
     59       1.7800      2.00000
     60       1.7803      2.00000
     61       1.7803      2.00000
     62       1.7808      2.00000
     63       1.7808      2.00000
     64       1.7808      2.00000
     65       1.7808      2.00000
     66       1.7852      2.00000
     67       1.7852      2.00000
     68       1.7864      2.00000
     69       1.7864      2.00000
     70       1.8241      2.00000
     71       1.8241      2.00000
     72       1.8241      2.00000
     73       1.8241      2.00000
     74       1.8888      2.00000
     75       1.8888      2.00000
     76       1.9047      2.00000
     77       1.9047      2.00000
     78       1.9047      2.00000
     79       1.9047      2.00000
     80       1.9199      2.00000
     81       1.9199      2.00000
     82       2.0239      2.00000
     83       2.0239      2.00000
     84       2.1250      2.00000
     85       2.1250      2.00000
     86       2.1280      2.00000
     87       2.1280      2.00000
     88       2.6745      2.00000
     89       2.7510      2.00000
     90       2.7510      2.00000
     91       2.8283      2.00000
     92       2.8628      2.00000
     93       2.8628      2.00000
     94       3.6438      2.00000
     95       3.6438      2.00000
     96       3.6941      2.00000
     97       3.6941      2.00000
     98       3.7280      2.00000
     99       3.7280      2.00000
    100       3.7806      2.00000
    101       3.7806      2.00000
    102       3.7982      2.00000
    103       3.7982      2.00000
    104       3.7983      2.00000
    105       3.7983      2.00000
    106       4.2258      2.00000
    107       4.2258      2.00000
    108       4.2597      2.00000
    109       4.2597      2.00000
    110       4.2597      2.00000
    111       4.2597      2.00000
    112       4.2955      2.00000
    113       4.2955      2.00000
    114       4.3239      2.00000
    115       4.3239      2.00000
    116       4.3772      2.00000
    117       4.3772      2.00000
    118       4.3772      2.00000
    119       4.3772      2.00000
    120       4.3917      2.00000
    121       4.3917      2.00000
    122       4.4624      2.00000
    123       4.4624      2.00000
    124       4.5350      2.00000
    125       4.5350      2.00000
    126       5.5445      2.01368
    127       5.6498      2.05338
    128       5.6543      2.05544
    129       6.1179      0.01023
    130       6.1996     -0.07091
    131       6.1996     -0.07091
    132       6.2834     -0.04181
    133       6.3165     -0.02790
    134       6.3165     -0.02790
    135       6.6273     -0.00002
    136       6.6273     -0.00002
    137       6.6274     -0.00002
    138       6.6274     -0.00002
    139       6.7449     -0.00000
    140       6.7449     -0.00000
    141       6.9384     -0.00000
    142       6.9384     -0.00000
    143       7.0823     -0.00000
    144       7.0823     -0.00000
    145       7.8732     -0.00000
    146       7.8737     -0.00000
    147       7.9223     -0.00000
    148       7.9223     -0.00000
    149       7.9225     -0.00000
    150       7.9230     -0.00000
    151       7.9768     -0.00000
    152       7.9780     -0.00000
    153       8.0224     -0.00000
    154       8.0599     -0.00000
    155       8.0600     -0.00000
    156       8.0614     -0.00000
    157       8.0644     -0.00000
    158       8.0776     -0.00000
    159       8.2579     -0.00000
    160       8.6632     -0.00000
    161       8.6951     -0.00000
    162       8.7333     -0.00000

 k-point     2 :       0.5000   -0.0000    0.0000
  band No.  band energies     occupation 
      1      -5.9898      2.00000
      2      -5.9898      2.00000
      3      -4.9572      2.00000
      4      -4.9572      2.00000
      5      -4.9360      2.00000
      6      -4.9360      2.00000
      7      -4.9360      2.00000
      8      -4.9360      2.00000
      9      -4.9139      2.00000
     10      -4.9139      2.00000
     11      -4.1286      2.00000
     12      -4.1286      2.00000
     13      -4.1286      2.00000
     14      -4.1286      2.00000
     15      -4.0684      2.00000
     16      -4.0684      2.00000
     17      -4.0684      2.00000
     18      -4.0684      2.00000
     19      -3.9244      2.00000
     20      -3.9244      2.00000
     21      -3.2504      2.00000
     22      -3.2504      2.00000
     23      -3.1890      2.00000
     24      -3.1890      2.00000
     25      -3.1890      2.00000
     26      -3.1890      2.00000
     27      -3.1264      2.00000
     28      -3.1264      2.00000
     29      -2.1220      2.00000
     30      -2.1220      2.00000
     31      -2.0966      2.00000
     32      -2.0966      2.00000
     33      -2.0129      2.00000
     34      -2.0129      2.00000
     35      -1.9891      2.00000
     36      -1.9891      2.00000
     37      -0.9654      2.00000
     38      -0.9654      2.00000
     39      -0.9134      2.00000
     40      -0.9134      2.00000
     41      -0.9134      2.00000
     42      -0.9134      2.00000
     43      -0.8640      2.00000
     44      -0.8640      2.00000
     45      -0.7484      2.00000
     46      -0.7484      2.00000
     47      -0.7484      2.00000
     48      -0.7484      2.00000
     49      -0.7438      2.00000
     50      -0.7438      2.00000
     51      -0.7438      2.00000
     52      -0.7438      2.00000
     53      -0.1803      2.00000
     54      -0.1803      2.00000
     55       1.3322      2.00000
     56       1.3322      2.00000
     57       1.3493      2.00000
     58       1.3493      2.00000
     59       1.3493      2.00000
     60       1.3493      2.00000
     61       1.3694      2.00000
     62       1.3694      2.00000
     63       1.4339      2.00000
     64       1.4339      2.00000
     65       1.4354      2.00000
     66       1.4354      2.00000
     67       1.4354      2.00000
     68       1.4354      2.00000
     69       1.4371      2.00000
     70       1.4371      2.00000
     71       2.1629      2.00000
     72       2.1629      2.00000
     73       2.1924      2.00000
     74       2.1924      2.00000
     75       2.2189      2.00000
     76       2.2189      2.00000
     77       2.2493      2.00000
     78       2.2493      2.00000
     79       2.8935      2.00000
     80       2.8935      2.00000
     81       2.9221      2.00000
     82       2.9221      2.00000
     83       2.9221      2.00000
     84       2.9221      2.00000
     85       2.9465      2.00000
     86       2.9465      2.00000
     87       2.9762      2.00000
     88       2.9762      2.00000
     89       2.9986      2.00000
     90       2.9986      2.00000
     91       2.9986      2.00000
     92       2.9986      2.00000
     93       3.0199      2.00000
     94       3.0199      2.00000
     95       3.0569      2.00000
     96       3.0569      2.00000
     97       3.0569      2.00000
     98       3.0569      2.00000
     99       3.1012      2.00000
    100       3.1012      2.00000
    101       3.1016      2.00000
    102       3.1016      2.00000
    103       3.1275      2.00000
    104       3.1275      2.00000
[...]
 -0.000  -0.000   4.179   0.000  -0.000   7.785   0.000  -0.000
  0.001   0.001   0.000   4.179   0.000   0.000   7.785   0.000
 -0.000  -0.000  -0.000   0.000   4.179  -0.000   0.000   7.785
 -0.000  -0.000   7.785   0.000  -0.000  14.515   0.000  -0.000
  0.002   0.002   0.000   7.785   0.000   0.000  14.515   0.000
 -0.000  -0.000  -0.000   0.000   7.785  -0.000   0.000  14.515
 total augmentation occupancy for first ion, spin component:           1
  5.768  -2.190   0.000  -0.041   0.000   0.000   0.015  -0.000
 -2.190   0.942   0.000   0.021  -0.000   0.000  -0.007   0.000
  0.000   0.000   2.859   0.000  -0.011  -0.632  -0.000   0.001
 -0.041   0.021   0.000   2.860  -0.000   0.000  -0.632  -0.000
  0.000  -0.000  -0.011  -0.000   2.887   0.001  -0.000  -0.643
  0.000   0.000  -0.632   0.000   0.001   0.148  -0.000  -0.000
  0.015  -0.007  -0.000  -0.632  -0.000  -0.000   0.148  -0.000
 -0.000   0.000   0.001  -0.000  -0.643  -0.000  -0.000   0.151


------------------------ aborting loop because EDIFF is reached ----------------------------------------


    CHARGE:  cpu time      0.2773: real time      0.2788
    FORLOC:  cpu time      0.0227: real time      0.0228
    FORNL :  cpu time      0.6814: real time      0.6830
    STRESS:  cpu time      2.1209: real time      2.1267
    FORCOR:  cpu time      0.0914: real time      0.0916
    FORHAR:  cpu time      0.0374: real time      0.0375
    MIXING:  cpu time      0.0670: real time      0.0672
    OFIELD:  cpu time      0.0001: real time      0.0001

  FORCE on cell =-STRESS in cart. coord.  units (eV):
  Direction    XX          YY          ZZ          XY          YZ          ZX
  --------------------------------------------------------------------------------------
  Alpha Z   105.73237   105.73237   105.73237
  Ewald   -2390.52979 -2440.12418 -2439.96602   -14.35225    -0.00000    -0.00000
  Hartree   163.95153   155.35151   155.22826    -6.87621    -0.00000    -0.00000
  E(xc)    -814.52891  -814.11266  -814.12817     0.15604    -0.00000    -0.00000
  Local    -977.79865  -916.93368  -917.07010    22.78756    -0.00000     0.00000
  n-local  2477.71710  2470.53199  2470.80098    -1.88107    -0.00000     0.00000
  augment  -368.17279  -368.19003  -368.18913     0.60358     0.00000     0.00000
  Kinetic  1784.96786  1800.71731  1800.23492    -9.18623     0.00000    -0.00000
  Fock        0.00000     0.00000     0.00000     0.00000     0.00000     0.00000
  -------------------------------------------------------------------------------------
  Total     -18.66128    -7.02738    -7.35689    -8.74857     0.00000     0.00000
  in kB     -22.92690    -8.63371    -9.03854   -10.74833     0.00000     0.00000
  external pressure =      -13.53 kB  Pullay stress =        0.00 kB


 VOLUME and BASIS-vectors are now :
 -----------------------------------------------------------------------------
  energy-cutoff  :      400.00
  volume of cell :     1304.09
      direct lattice vectors                 reciprocal lattice vectors
    11.034539630  0.081536012  0.000000000     0.090629556 -0.000679722  0.000000000
     0.081536012 10.871467606  0.000000000    -0.000679722  0.091988999  0.000000000
     0.000000000  0.000000000 10.871467606     0.000000000  0.000000000  0.091983901

  length of vectors
    11.034840867 10.871773361 10.871467606     0.090632104  0.091991510  0.091983901


 FORCES acting on ions
    electron-ion (+dipol)            ewald-force                    non-local-force                 convergence-correction
 -----------------------------------------------------------------------------------------------
   -.316E-09 -.365E-09 -.127E+01   -.400E-14 0.555E-14 0.911E+00   0.392E-23 -.548E-23 0.356E+00   -.151E-12 0.280E-13 0.866E-05
   -.316E-09 -.365E-09 -.127E+01   -.444E-15 0.888E-14 0.911E+00   0.465E-23 0.374E-23 0.356E+00   0.974E-13 0.811E-13 0.866E-05
   -.316E-09 -.365E-09 -.127E+01   0.160E-13 0.153E-13 0.911E+00   0.612E-23 -.846E-23 0.356E+00   -.749E-13 -.249E-13 0.866E-05
   -.316E-09 -.365E-09 -.127E+01   0.124E-13 0.444E-15 0.911E+00   0.632E-23 0.121E-23 0.356E+00   0.225E-13 -.908E-13 0.866E-05
   -.316E-09 -.365E-09 -.127E+01   0.131E-13 0.533E-14 0.911E+00   -.191E-23 0.144E-22 0.356E+00   0.139E-12 0.481E-14 0.866E-05
   -.316E-09 -.365E-09 -.127E+01   0.933E-14 0.533E-14 0.911E+00   -.503E-23 0.565E-23 0.356E+00   -.969E-13 0.125E-12 0.866E-05
   -.316E-09 -.366E-09 -.127E+01   0.666E-14 0.444E-15 0.911E+00   -.601E-23 -.163E-22 0.356E+00   0.631E-13 -.865E-14 0.866E-05
   -.316E-09 -.366E-09 -.127E+01   0.107E-13 0.711E-14 0.911E+00   -.188E-22 -.414E-23 0.356E+00   -.193E-13 -.131E-12 0.866E-05
   0.316E-09 0.365E-09 0.127E+01   0.311E-14 0.124E-13 -.911E+00   0.405E-23 0.128E-22 -.356E+00   0.699E-13 -.528E-13 -.866E-05
   0.316E-09 0.365E-09 0.127E+01   0.000E+00 0.160E-13 -.911E+00   0.383E-23 -.319E-23 -.356E+00   0.487E-13 -.109E-13 -.866E-05
   0.316E-09 0.365E-09 0.127E+01   0.444E-14 0.164E-13 -.911E+00   -.310E-23 -.756E-23 -.356E+00   0.125E-12 0.538E-13 -.866E-05
   0.316E-09 0.366E-09 0.127E+01   0.711E-14 0.178E-13 -.911E+00   0.110E-23 -.193E-24 -.356E+00   -.457E-13 0.127E-13 -.866E-05
   0.316E-09 0.365E-09 0.127E+01   0.289E-13 0.129E-13 -.911E+00   -.737E-23 -.341E-23 -.356E+00   -.597E-13 -.762E-13 -.866E-05
   0.316E-09 0.364E-09 0.127E+01   0.711E-14 0.124E-13 -.911E+00   -.202E-23 -.535E-23 -.356E+00   -.600E-13 0.598E-14 -.866E-05
   0.316E-09 0.366E-09 0.127E+01   0.400E-14 0.107E-13 -.911E+00   -.260E-23 0.823E-23 -.356E+00   -.124E-12 0.859E-13 -.866E-05
   0.316E-09 0.366E-09 0.127E+01   0.178E-14 0.195E-13 -.911E+00   -.531E-24 0.753E-23 -.356E+00   0.353E-13 -.267E-14 -.866E-05
   -.316E-09 -.365E-09 -.127E+01   0.755E-14 -.169E-13 0.911E+00   0.611E-23 0.245E-23 0.356E+00   0.185E-13 -.370E-13 0.866E-05
   -.316E-09 -.365E-09 -.127E+01   0.111E-13 -.666E-14 0.911E+00   0.135E-22 -.282E-23 0.356E+00   -.104E-12 0.727E-13 0.866E-05
   -.316E-09 -.365E-09 -.127E+01   0.115E-13 -.577E-14 0.911E+00   -.427E-23 -.137E-22 0.356E+00   0.532E-13 0.416E-13 0.866E-05
   -.316E-09 -.365E-09 -.127E+01   -.888E-15 -.933E-14 0.911E+00   -.486E-24 -.685E-23 0.356E+00   -.628E-13 -.686E-13 0.866E-05
   -.316E-09 -.365E-09 -.127E+01   0.222E-14 -.182E-13 0.911E+00   -.891E-23 -.101E-22 0.356E+00   -.807E-14 -.111E-12 0.866E-05
   -.316E-09 -.365E-09 -.127E+01   0.444E-15 -.151E-13 0.911E+00   -.867E-23 -.786E-23 0.356E+00   0.844E-13 0.115E-12 0.866E-05
   -.316E-09 -.366E-09 -.127E+01   0.155E-13 -.711E-14 0.911E+00   -.438E-23 -.109E-24 0.356E+00   -.522E-13 0.103E-12 0.866E-05
   -.316E-09 -.365E-09 -.127E+01   0.711E-14 -.711E-14 0.911E+00   -.498E-23 0.104E-22 0.356E+00   0.566E-13 -.109E-12 0.866E-05
   0.316E-09 0.365E-09 0.127E+01   0.444E-14 0.536E-14 -.911E+00   -.787E-24 0.221E-23 -.356E+00   0.177E-13 0.284E-13 -.866E-05
   0.316E-09 0.365E-09 0.127E+01   0.115E-13 0.580E-14 -.911E+00   -.228E-23 -.312E-23 -.356E+00   0.100E-12 0.496E-13 -.866E-05
   0.316E-09 0.365E-09 0.127E+01   0.533E-14 0.110E-14 -.911E+00   0.268E-23 -.733E-23 -.356E+00   -.489E-13 -.217E-13 -.866E-05
   0.316E-09 0.366E-09 0.127E+01   0.888E-14 0.911E-14 -.911E+00   0.256E-23 -.744E-23 -.356E+00   0.104E-12 -.598E-13 -.866E-05
   0.316E-09 0.364E-09 0.127E+01   0.133E-13 0.902E-15 -.911E+00   -.341E-23 0.458E-23 -.356E+00   -.284E-14 0.801E-13 -.866E-05
   0.316E-09 0.365E-09 0.127E+01   0.266E-14 -.221E-14 -.911E+00   0.268E-23 -.504E-23 -.356E+00   -.121E-12 0.467E-13 -.866E-05
   0.316E-09 0.365E-09 0.127E+01   0.249E-13 0.180E-13 -.911E+00   -.729E-24 0.464E-23 -.356E+00   0.625E-13 -.683E-13 -.866E-05
   0.316E-09 0.365E-09 0.127E+01   0.107E-13 0.113E-13 -.911E+00   0.328E-23 0.143E-22 -.356E+00   -.122E-12 -.529E-13 -.866E-05
   -.316E-09 -.365E-09 -.127E+01   0.111E-13 -.844E-14 0.911E+00   0.403E-23 -.677E-23 0.356E+00   0.101E-12 0.574E-13 0.866E-05
   -.316E-09 -.365E-09 -.127E+01   0.400E-14 -.160E-13 0.911E+00   0.257E-23 -.707E-25 0.356E+00   0.289E-14 0.182E-13 0.866E-05
   -.316E-09 -.365E-09 -.127E+01   0.444E-14 -.133E-14 0.911E+00   -.124E-23 0.792E-23 0.356E+00   0.433E-13 -.620E-13 0.866E-05
   -.316E-09 -.366E-09 -.127E+01   -.133E-13 -.133E-14 0.911E+00   0.929E-23 0.695E-23 0.356E+00   0.363E-13 -.242E-13 0.866E-05
   -.317E-09 -.365E-09 -.127E+01   -.666E-14 -.102E-13 0.911E+00   -.676E-23 0.861E-23 0.356E+00   -.116E-12 0.101E-12 0.866E-05
   -.317E-09 -.365E-09 -.127E+01   -.844E-14 -.711E-14 0.911E+00   0.284E-23 0.306E-23 0.356E+00   0.179E-13 0.507E-13 0.866E-05
   -.317E-09 -.364E-09 -.127E+01   -.124E-13 -.107E-13 0.911E+00   0.582E-23 0.103E-23 0.356E+00   -.380E-13 -.990E-13 0.866E-05
   -.317E-09 -.365E-09 -.127E+01   -.213E-13 -.355E-14 0.911E+00   0.752E-23 0.117E-23 0.356E+00   -.287E-13 -.618E-13 0.866E-05
   0.316E-09 0.365E-09 0.127E+01   -.655E-14 0.600E-14 -.911E+00   -.636E-24 0.104E-22 -.356E+00   0.588E-13 -.738E-13 -.866E-05
   0.316E-09 0.365E-09 0.127E+01   -.699E-14 0.131E-13 -.911E+00   -.604E-23 0.381E-23 -.356E+00   -.475E-13 0.351E-13 -.866E-05
   0.316E-09 0.365E-09 0.127E+01   -.698E-14 0.444E-15 -.911E+00   0.582E-23 0.626E-23 -.356E+00   0.982E-13 0.718E-13 -.866E-05
   0.316E-09 0.365E-09 0.127E+01   -.181E-13 0.755E-14 -.911E+00   0.107E-23 0.418E-23 -.356E+00   -.434E-13 -.283E-13 -.866E-05
   0.316E-09 0.364E-09 0.127E+01   -.143E-13 0.533E-14 -.911E+00   -.370E-23 -.868E-23 -.356E+00   -.610E-13 -.146E-12 -.866E-05
   0.316E-09 0.365E-09 0.127E+01   -.873E-14 0.124E-13 -.911E+00   0.193E-23 -.617E-23 -.356E+00   0.601E-13 0.414E-13 -.866E-05
   0.316E-09 0.366E-09 0.127E+01   0.389E-15 0.711E-14 -.911E+00   -.704E-23 -.135E-22 -.356E+00   -.120E-12 0.137E-12 -.866E-05
   0.316E-09 0.365E-09 0.127E+01   -.183E-14 0.711E-14 -.911E+00   0.920E-23 -.160E-22 -.356E+00   0.743E-13 -.271E-13 -.866E-05
   -.316E-09 -.365E-09 -.127E+01   -.422E-14 -.226E-13 0.911E+00   0.597E-24 0.216E-25 0.356E+00   0.739E-13 0.314E-13 0.866E-05
   -.316E-09 -.365E-09 -.127E+01   -.444E-15 -.155E-13 0.911E+00   -.159E-23 0.296E-24 0.356E+00   0.363E-13 -.141E-13 0.866E-05
   -.316E-09 -.365E-09 -.127E+01   0.444E-15 -.124E-13 0.911E+00   0.111E-22 -.940E-23 0.356E+00   0.886E-13 -.370E-13 0.866E-05
   -.316E-09 -.366E-09 -.127E+01   0.444E-14 -.115E-13 0.911E+00   -.247E-23 -.500E-23 0.356E+00   -.463E-14 0.165E-13 0.866E-05
   -.316E-09 -.365E-09 -.127E+01   -.129E-13 -.151E-13 0.911E+00   -.247E-23 -.285E-23 0.356E+00   -.562E-13 -.423E-13 0.866E-05
   -.317E-09 -.365E-09 -.127E+01   -.222E-14 -.799E-14 0.911E+00   -.619E-23 -.854E-23 0.356E+00   -.381E-13 0.669E-13 0.866E-05
   -.316E-09 -.365E-09 -.127E+01   -.213E-13 -.120E-13 0.911E+00   -.360E-23 -.644E-23 0.356E+00   -.819E-13 0.426E-13 0.866E-05
   -.317E-09 -.365E-09 -.127E+01   -.178E-13 -.213E-13 0.911E+00   0.650E-23 0.101E-22 0.356E+00   0.565E-14 -.596E-13 0.866E-05
   0.316E-09 0.365E-09 0.127E+01   -.101E-13 -.278E-14 -.911E+00   -.399E-24 0.120E-22 -.356E+00   0.137E-13 0.148E-13 -.866E-05
   0.316E-09 0.365E-09 0.127E+01   -.174E-13 -.628E-14 -.911E+00   0.301E-23 0.898E-23 -.356E+00   0.829E-14 0.635E-13 -.866E-05
   0.316E-09 0.365E-09 0.127E+01   -.412E-14 -.119E-13 -.911E+00   -.404E-23 0.673E-23 -.356E+00   0.415E-13 -.202E-13 -.866E-05
   0.316E-09 0.365E-09 0.127E+01   -.449E-14 -.567E-14 -.911E+00   -.586E-24 -.107E-23 -.356E+00   -.651E-14 -.590E-13 -.866E-05
   0.316E-09 0.365E-09 0.127E+01   -.131E-14 -.682E-14 -.911E+00   0.175E-23 -.366E-23 -.356E+00   -.179E-13 -.432E-13 -.866E-05
   0.316E-09 0.364E-09 0.127E+01   -.155E-13 -.678E-14 -.911E+00   -.968E-24 0.250E-23 -.356E+00   0.346E-14 0.155E-12 -.866E-05
   0.316E-09 0.365E-09 0.127E+01   0.868E-16 -.167E-14 -.911E+00   -.108E-23 -.720E-23 -.356E+00   -.443E-13 0.454E-13 -.866E-05
   0.316E-09 0.365E-09 0.127E+01   0.983E-16 -.656E-14 -.911E+00   -.310E-23 -.958E-24 -.356E+00   0.203E-13 -.158E-12 -.866E-05
 -----------------------------------------------------------------------------------------------
   -.121E-11 -.241E-11 0.159E-12   0.440E-13 -.368E-13 0.405E-13   -.438E-23 -.287E-22 -.422E-14   0.257E-13 0.714E-15 -.499E-13
 
 
 POSITION                                       TOTAL-FORCE (eV/Angst)
 -----------------------------------------------------------------------------------
      0.00000      0.00000      0.00527        -0.000000     -0.000000      0.000562
      0.00000      0.00000      5.44100        -0.000000     -0.000000      0.000562
      0.04077      5.43573      0.00527        -0.000000     -0.000000      0.000562
      0.04077      5.43573      5.44100        -0.000000     -0.000000      0.000562
      5.51727      0.04077      0.00527         0.000000      0.000000      0.000562
      5.51727      0.04077      5.44100         0.000000     -0.000000      0.000562
      5.55804      5.47650      0.00527        -0.000000      0.000000      0.000562
      5.55804      5.47650      5.44100        -0.000000      0.000000      0.000562
      4.16853      4.10738      1.35366         0.000000     -0.000000     -0.000562
      4.16853      4.10738      6.78940         0.000000     -0.000000     -0.000562
      4.20930      9.54311      1.35366         0.000000     -0.000000     -0.000562
      4.20930      9.54311      6.78940         0.000000      0.000000     -0.000562
      9.68580      4.14814      1.35366        -0.000000      0.000000     -0.000562
      9.68580      4.14814      6.78940         0.000000      0.000000     -0.000562
      9.72657      9.58388      1.35366         0.000000      0.000000     -0.000562
      9.72657      9.58388      6.78940         0.000000      0.000000     -0.000562
      0.02038      2.71787      2.72314        -0.000000     -0.000000      0.000562
      0.02038      2.71787      8.15887        -0.000000     -0.000000      0.000562
      0.06115      8.15360      2.72314        -0.000000     -0.000000      0.000562
      0.06115      8.15360      8.15887        -0.000000     -0.000000      0.000562
      5.53765      2.75863      2.72314        -0.000000      0.000000      0.000562
      5.53765      2.75863      8.15887        -0.000000      0.000000      0.000562
      5.57842      8.19437      2.72314         0.000000     -0.000000      0.000562
      5.57842      8.19437      8.15887         0.000000     -0.000000      0.000562
      4.14814      1.38951      4.07153         0.000000     -0.000000     -0.000562
      4.14814      1.38951      9.50726         0.000000     -0.000000     -0.000562
      4.18891      6.82524      4.07153         0.000000     -0.000000     -0.000562
      4.18891      6.82524      9.50726         0.000000      0.000000     -0.000562
      9.66541      1.43028      4.07153        -0.000000      0.000000     -0.000562
      9.66541      1.43028      9.50726        -0.000000      0.000000     -0.000562
      9.70618      6.86601      4.07153         0.000000      0.000000     -0.000562
      9.70618      6.86601      9.50726         0.000000     -0.000000     -0.000562
      2.75863      0.02038      2.72314         0.000000     -0.000000      0.000562
      2.75863      0.02038      8.15887         0.000000     -0.000000      0.000562
      2.79940      5.45612      2.72314         0.000000      0.000000      0.000562
      2.79940      5.45612      8.15887         0.000000      0.000000      0.000562
      8.27590      0.06115      2.72314        -0.000000      0.000000      0.000562
      8.27590      0.06115      8.15887         0.000000     -0.000000      0.000562
      8.31667      5.49689      2.72314        -0.000000      0.000000      0.000562
      8.31667      5.49689      8.15887         0.000000      0.000000      0.000562
      1.40989      4.08699      4.07153        -0.000000     -0.000000     -0.000562
      1.40989      4.08699      9.50726        -0.000000      0.000000     -0.000562
      1.45066      9.52273      4.07153        -0.000000      0.000000     -0.000562
      1.45066      9.52273      9.50726        -0.000000      0.000000     -0.000562
      6.92716      4.12776      4.07153         0.000000     -0.000000     -0.000562
      6.92716      4.12776      9.50726        -0.000000     -0.000000     -0.000562
      6.96793      9.56349      4.07153        -0.000000     -0.000000     -0.000562
      6.96793      9.56349      9.50726        -0.000000      0.000000     -0.000562
      2.77902      2.73825      0.00527         0.000000     -0.000000      0.000562
      2.77902      2.73825      5.44100         0.000000     -0.000000      0.000562
      2.81979      8.17398      0.00527         0.000000      0.000000      0.000562
      2.81979      8.17398      5.44100         0.000000     -0.000000      0.000562
      8.29629      2.77902      0.00527         0.000000     -0.000000      0.000562
      8.29629      2.77902      5.44100         0.000000      0.000000      0.000562
      8.33706      8.21475      0.00527         0.000000      0.000000      0.000562
      8.33706      8.21475      5.44100         0.000000      0.000000      0.000562
      1.38951      1.36913      1.35366         0.000000      0.000000     -0.000562
      1.38951      1.36913      6.78940         0.000000      0.000000     -0.000562
      1.43028      6.80486      1.35366        -0.000000      0.000000     -0.000562
      1.43028      6.80486      6.78940        -0.000000      0.000000     -0.000562
      6.90678      1.40989      1.35366        -0.000000     -0.000000     -0.000562
      6.90678      1.40989      6.78940        -0.000000     -0.000000     -0.000562
      6.94755      6.84563      1.35366        -0.000000     -0.000000     -0.000562
      6.94755      6.84563      6.78940        -0.000000     -0.000000     -0.000562
 -----------------------------------------------------------------------------------
    total drift:                               -0.000000     -0.000000      0.000000


--------------------------------------------------------------------------------------------------------



  FREE ENERGIE OF THE ION-ELECTRON SYSTEM (eV)
  ---------------------------------------------------
  free  energy   TOTEN  =      -367.43134025 eV

  energy  without entropy=     -367.45709626  energy(sigma->0) =     -367.43992559
 
 d Force = 0.1566130E-02[-0.499E-04, 0.318E-02]  d Energy = 0.1590800E-02-0.247E-04
 d Force =-0.7804785E-01[-0.809E-01,-0.752E-01]  d Ewald  =-0.7804782E-01-0.296E-07


--------------------------------------------------------------------------------------------------------


    POTLOK:  cpu time      0.1519: real time      0.1523


--------------------------------------------------------------------------------------------------------




--------------------------------------------------------------------------------------------------------


  
 reached required accuracy - stopping structural energy minimisation
     LOOP+:  cpu time     13.1313: real time     13.3231
    4ORBIT:  cpu time      0.0000: real time      0.0000

 total amount of memory used by VASP MPI-rank0    82077. kBytes
=======================================================================

   base      :      30000. kBytes
   nonlr-proj:       4625. kBytes
   fftplans  :      19172. kBytes
   grid      :       7278. kBytes
   one-center:         18. kBytes
   wavefun   :      20984. kBytes
 
  
  
 General timing and accounting informations for this job:
 ========================================================
  
                  Total CPU time used (sec):       61.384
                            User time (sec):       58.203
                          System time (sec):        3.181
                         Elapsed time (sec):       64.887
  
                   Maximum memory used (kb):      411484.
                   Average memory used (kb):          N/A
  
                          Minor page faults:        93918
                          Major page faults:            0
                 Voluntary context switches:         8836
