Si64                                    
           1
    11.034540    0.081536    0.000000
     0.081536   10.871468    0.000000
     0.000000    0.000000   10.871468
   Si
    64
Direct configuration=     1
   0.00000000  0.00000000  0.00000000
   0.00000000  0.00000000  0.50000000
   0.00000000  0.50000000  0.00000000
   0.00000000  0.50000000  0.50000000
   0.50000000  0.00000000  0.00000000
   0.50000000  0.00000000  0.50000000
   0.50000000  0.50000000  0.00000000
   0.50000000  0.50000000  0.50000000
   0.37500000  0.37500000  0.12500000
   0.37500000  0.37500000  0.62500000
   0.37500000  0.87500000  0.12500000
   0.37500000  0.87500000  0.62500000
   0.87500000  0.37500000  0.12500000
   0.87500000  0.37500000  0.62500000
   0.87500000  0.87500000  0.12500000
   0.87500000  0.87500000  0.62500000
   0.00000000  0.25000000  0.25000000
   0.00000000  0.25000000  0.75000000
   0.00000000  0.75000000  0.25000000
   0.00000000  0.75000000  0.75000000
   0.50000000  0.25000000  0.25000000
   0.50000000  0.25000000  0.75000000
   0.50000000  0.75000000  0.25000000
   0.50000000  0.75000000  0.75000000
   0.37500000  0.12500000  0.37500000
   0.37500000  0.12500000  0.87500000
   0.37500000  0.62500000  0.37500000
   0.37500000  0.62500000  0.87500000
   0.87500000  0.12500000  0.37500000
   0.87500000  0.12500000  0.87500000
   0.87500000  0.62500000  0.37500000
   0.87500000  0.62500000  0.87500000
   0.25000000  0.00000000  0.25000000
   0.25000000  0.00000000  0.75000000
   0.25000000  0.50000000  0.25000000
   0.25000000  0.50000000  0.75000000
   0.75000000  0.00000000  0.25000000
   0.75000000  0.00000000  0.75000000
   0.75000000  0.50000000  0.25000000
   0.75000000  0.50000000  0.75000000
   0.12500000  0.37500000  0.37500000
   0.12500000  0.37500000  0.87500000
   0.12500000  0.87500000  0.37500000
   0.12500000  0.87500000  0.87500000
   0.62500000  0.37500000  0.37500000
   0.62500000  0.37500000  0.87500000
   0.62500000  0.87500000  0.37500000
   0.62500000  0.87500000  0.87500000
   0.25000000  0.25000000  0.00000000
   0.25000000  0.25000000  0.50000000
   0.25000000  0.75000000  0.00000000
   0.25000000  0.75000000  0.50000000
   0.75000000  0.25000000  0.00000000
   0.75000000  0.25000000  0.50000000
   0.75000000  0.75000000  0.00000000
   0.75000000  0.75000000  0.50000000
   0.12500000  0.12500000  0.12500000
   0.12500000  0.12500000  0.62500000
   0.12500000  0.62500000  0.12500000
   0.12500000  0.62500000  0.62500000
   0.62500000  0.12500000  0.12500000
   0.62500000  0.12500000  0.62500000
   0.62500000  0.62500000  0.12500000
   0.62500000  0.62500000  0.62500000
Direct configuration=     2
   1.00000000  0.00000000  0.00061241
   0.00000000  0.00000000  0.50061241
   0.00000000  0.50000000  0.00061241
   0.00000000  0.50000000  0.50061241
   0.50000000  1.00000000  0.00061241
   0.50000000  1.00000000  0.50061241
   0.50000000  0.50000000  0.00061241
   0.50000000  0.50000000  0.50061241
   0.37500000  0.37500000  0.12438759
   0.37500000  0.37500000  0.62438759
   0.37500000  0.87500000  0.12438759
   0.37500000  0.87500000  0.62438759
   0.87500000  0.37500000  0.12438759
   0.87500000  0.37500000  0.62438759
   0.87500000  0.87500000  0.12438759
   0.87500000  0.87500000  0.62438759
   0.00000000  0.25000000  0.25061241
   0.00000000  0.25000000  0.75061241
   1.00000000  0.75000000  0.25061241
   0.00000000  0.75000000  0.75061241
   0.50000000  0.25000000  0.25061241
   0.50000000  0.25000000  0.75061241
   0.50000000  0.75000000  0.25061241
   0.50000000  0.75000000  0.75061241
   0.37500000  0.12500000  0.37438759
   0.37500000  0.12500000  0.87438759
   0.37500000  0.62500000  0.37438759
   0.37500000  0.62500000  0.87438759
   0.87500000  0.12500000  0.37438759
   0.87500000  0.12500000  0.87438759
   0.87500000  0.62500000  0.37438759
   0.87500000  0.62500000  0.87438759
   0.25000000  0.00000000  0.25061241
   0.25000000  0.00000000  0.75061241
   0.25000000  0.50000000  0.25061241
   0.25000000  0.50000000  0.75061241
   0.75000000  1.00000000  0.25061241
   0.75000000  1.00000000  0.75061241
   0.75000000  0.50000000  0.25061241
   0.75000000  0.50000000  0.75061241
   0.12500000  0.37500000  0.37438759
   0.12500000  0.37500000  0.87438759
   0.12500000  0.87500000  0.37438759
   0.12500000  0.87500000  0.87438759
   0.62500000  0.37500000  0.37438759
   0.62500000  0.37500000  0.87438759
   0.62500000  0.87500000  0.37438759
   0.62500000  0.87500000  0.87438759
   0.25000000  0.25000000  0.00061241
   0.25000000  0.25000000  0.50061241
   0.25000000  0.75000000  0.00061241
   0.25000000  0.75000000  0.50061241
   0.75000000  0.25000000  0.00061241
   0.75000000  0.25000000  0.50061241
   0.75000000  0.75000000  0.00061241
   0.75000000  0.75000000  0.50061241
   0.12500000  0.12500000  0.12438759
   0.12500000  0.12500000  0.62438759
   0.12500000  0.62500000  0.12438759
   0.12500000  0.62500000  0.62438759
   0.62500000  0.12500000  0.12438759
   0.62500000  0.12500000  0.62438759
   0.62500000  0.62500000  0.12438759
   0.62500000  0.62500000  0.62438759
Direct configuration=     3
   0.00000000  0.00000000  0.00048480
   0.00000000  0.00000000  0.50048480
   0.00000000  0.50000000  0.00048480
   0.00000000  0.50000000  0.50048480
   0.50000000  0.00000000  0.00048480
   0.50000000  0.00000000  0.50048480
   0.50000000  0.50000000  0.00048480
   0.50000000  0.50000000  0.50048480
   0.37500000  0.37500000  0.12451520
   0.37500000  0.37500000  0.62451520
   0.37500000  0.87500000  0.12451520
   0.37500000  0.87500000  0.62451520
   0.87500000  0.37500000  0.12451520
   0.87500000  0.37500000  0.62451520
   0.87500000  0.87500000  0.12451520
   0.87500000  0.87500000  0.62451520
   0.00000000  0.25000000  0.25048480
   0.00000000  0.25000000  0.75048480
   0.00000000  0.75000000  0.25048480
   0.00000000  0.75000000  0.75048480
   0.50000000  0.25000000  0.25048480
   0.50000000  0.25000000  0.75048480
   0.50000000  0.75000000  0.25048480
   0.50000000  0.75000000  0.75048480
   0.37500000  0.12500000  0.37451520
   0.37500000  0.12500000  0.87451520
   0.37500000  0.62500000  0.37451520
   0.37500000  0.62500000  0.87451520
   0.87500000  0.12500000  0.37451520
   0.87500000  0.12500000  0.87451520
   0.87500000  0.62500000  0.37451520
   0.87500000  0.62500000  0.87451520
   0.25000000  0.00000000  0.25048480
   0.25000000  0.00000000  0.75048480
   0.25000000  0.50000000  0.25048480
   0.25000000  0.50000000  0.75048480
   0.75000000  0.00000000  0.25048480
   0.75000000  0.00000000  0.75048480
   0.75000000  0.50000000  0.25048480
   0.75000000  0.50000000  0.75048480
   0.12500000  0.37500000  0.37451520
   0.12500000  0.37500000  0.87451520
   0.12500000  0.87500000  0.37451520
   0.12500000  0.87500000  0.87451520
   0.62500000  0.37500000  0.37451520
   0.62500000  0.37500000  0.87451520
   0.62500000  0.87500000  0.37451520
   0.62500000  0.87500000  0.87451520
   0.25000000  0.25000000  0.00048480
   0.25000000  0.25000000  0.50048480
   0.25000000  0.75000000  0.00048480
   0.25000000  0.75000000  0.50048480
   0.75000000  0.25000000  0.00048480
   0.75000000  0.25000000  0.50048480
   0.75000000  0.75000000  0.00048480
   0.75000000  0.75000000  0.50048480
   0.12500000  0.12500000  0.12451520
   0.12500000  0.12500000  0.62451520
   0.12500000  0.62500000  0.12451520
   0.12500000  0.62500000  0.62451520
   0.62500000  0.12500000  0.12451520
   0.62500000  0.12500000  0.62451520
   0.62500000  0.62500000  0.12451520
   0.62500000  0.62500000  0.62451520
