  64  64   0   0
  0.2013400E+02  0.1088187E-08  0.1088187E-08  0.1088187E-08  0.5000000E-15
  1.000000000000000E-004
  CAR 
 Si64                                    
     11.65016918     -8.07961492  301      6.45321619      1.00000000
     -8.080  0.0000E+00  0.0000E+00
     -8.014  0.0000E+00  0.0000E+00
     -7.948  0.0000E+00  0.0000E+00
     -7.882  0.0000E+00  0.0000E+00
     -7.817  0.0000E+00  0.0000E+00
     -7.751  0.0000E+00  0.0000E+00
     -7.685 -0.1492E-28 -0.9813E-30
     -7.619 -0.2505E-26 -0.1657E-27
     -7.553 -0.3396E-24 -0.2250E-25
     -7.488 -0.3700E-22 -0.2456E-23
     -7.422 -0.3239E-20 -0.2155E-21
     -7.356 -0.2277E-18 -0.1519E-19
     -7.290 -0.1285E-16 -0.8604E-18
     -7.225 -0.5645E-15 -0.3799E-16
     -7.159 -0.2043E-13 -0.1381E-14
     -7.093 -0.5918E-12 -0.4030E-13
     -7.027 -0.1372E-10 -0.9423E-12
     -6.962 -0.2539E-09 -0.1764E-10
     -6.896 -0.3746E-08 -0.2640E-09
     -6.830 -0.4396E-07 -0.3155E-08
     -6.764 -0.4088E-06 -0.3004E-07
     -6.699 -0.2997E-05 -0.2271E-06
     -6.633 -0.1720E-04 -0.1358E-05
     -6.567 -0.7629E-04 -0.6375E-05
     -6.501 -0.2562E-03 -0.2323E-04
     -6.435 -0.6241E-03 -0.6427E-04
     -6.370 -0.9851E-03 -0.1291E-03
     -6.304 -0.5423E-03 -0.1647E-03
     -6.238  0.1772E-02 -0.4821E-04
     -6.172  0.5809E-02  0.3338E-03
     -6.107  0.9643E-02  0.9680E-03
     -6.041  0.1311E-01  0.1830E-02
     -5.975  0.2214E-01  0.3286E-02
     -5.909  0.4362E-01  0.6155E-02
     -5.844  0.7252E-01  0.1092E-01
     -5.778  0.9305E-01  0.1704E-01
     -5.712  0.1021E+00  0.2376E-01
     -5.646  0.1197E+00  0.3164E-01
     -5.581  0.1586E+00  0.4206E-01
     -5.515  0.1948E+00  0.5488E-01
     -5.449  0.1955E+00  0.6773E-01
     -5.383  0.1660E+00  0.7865E-01
     -5.317  0.1408E+00  0.8791E-01
     -5.252  0.1316E+00  0.9656E-01
     -5.186  0.1191E+00  0.1044E+00
     -5.120  0.9413E-01  0.1106E+00
     -5.054  0.7289E-01  0.1154E+00
     -4.989  0.7035E-01  0.1200E+00
     -4.923  0.8998E-01  0.1259E+00
     -4.857  0.1436E+00  0.1354E+00
     -4.791  0.2424E+00  0.1513E+00
     -4.726  0.3566E+00  0.1748E+00
     -4.660  0.4292E+00  0.2030E+00
     -4.594  0.4474E+00  0.2324E+00
     -4.528  0.4496E+00  0.2620E+00
     -4.462  0.4436E+00  0.2912E+00
     -4.397  0.3825E+00  0.3163E+00
     -4.331  0.2474E+00  0.3326E+00
     -4.265  0.9342E-01  0.3387E+00
     -4.199 -0.6875E-02  0.3383E+00
     -4.134 -0.2237E-01  0.3368E+00
     -4.068  0.4256E-01  0.3396E+00
     -4.002  0.1716E+00  0.3509E+00
     -3.936  0.3334E+00  0.3728E+00
     -3.871  0.4719E+00  0.4039E+00
     -3.805  0.5251E+00  0.4384E+00
     -3.739  0.4702E+00  0.4693E+00
     -3.673  0.3494E+00  0.4923E+00
     -3.608  0.2424E+00  0.5082E+00
     -3.542  0.2156E+00  0.5224E+00
     -3.476  0.2933E+00  0.5417E+00
     -3.410  0.4461E+00  0.5710E+00
     -3.344  0.5994E+00  0.6105E+00
     -3.279  0.6839E+00  0.6554E+00
     -3.213  0.6844E+00  0.7005E+00
     -3.147  0.6298E+00  0.7419E+00
     -3.081  0.5486E+00  0.7780E+00
     -3.016  0.4626E+00  0.8084E+00
     -2.950  0.4083E+00  0.8352E+00
     -2.884  0.4074E+00  0.8620E+00
     -2.818  0.4143E+00  0.8893E+00
     -2.753  0.3544E+00  0.9126E+00
     -2.687  0.2199E+00  0.9270E+00
     -2.621  0.7910E-01  0.9322E+00
     -2.555 -0.6936E-02  0.9318E+00
     -2.490 -0.3357E-01  0.9296E+00
     -2.424 -0.2233E-01  0.9281E+00
     -2.358  0.1909E-01  0.9294E+00
     -2.292  0.9063E-01  0.9353E+00
     -2.226  0.1681E+00  0.9464E+00
     -2.161  0.2022E+00  0.9597E+00
     -2.095  0.1633E+00  0.9704E+00
     -2.029  0.7834E-01  0.9756E+00
     -1.963  0.1515E-01  0.9766E+00
     -1.898  0.3874E-01  0.9791E+00
     -1.832  0.1759E+00  0.9907E+00
     -1.766  0.3895E+00  0.1016E+01
     -1.700  0.5772E+00  0.1054E+01
     -1.635  0.6279E+00  0.1096E+01
     -1.569  0.5097E+00  0.1129E+01
     -1.503  0.2973E+00  0.1149E+01
     -1.437  0.1077E+00  0.1156E+01
     -1.371  0.1902E-01  0.1157E+01
     -1.306  0.3955E-01  0.1160E+01
     -1.240  0.1224E+00  0.1168E+01
     -1.174  0.1964E+00  0.1181E+01
     -1.108  0.2104E+00  0.1194E+01
     -1.043  0.1728E+00  0.1206E+01
     -0.977  0.1476E+00  0.1215E+01
     -0.911  0.1941E+00  0.1228E+01
     -0.845  0.2977E+00  0.1248E+01
     -0.780  0.3700E+00  0.1272E+01
     -0.714  0.3480E+00  0.1295E+01
     -0.648  0.2906E+00  0.1314E+01
     -0.582  0.3352E+00  0.1336E+01
     -0.517  0.5484E+00  0.1372E+01
     -0.451  0.8391E+00  0.1427E+01
     -0.385  0.1021E+01  0.1495E+01
     -0.319  0.9563E+00  0.1557E+01
     -0.253  0.6651E+00  0.1601E+01
     -0.188  0.3071E+00  0.1621E+01
     -0.122  0.5505E-01  0.1625E+01
     -0.056 -0.1170E-01  0.1624E+01
      0.010  0.8555E-01  0.1630E+01
      0.075  0.2594E+00  0.1647E+01
      0.141  0.3927E+00  0.1673E+01
      0.207  0.4035E+00  0.1699E+01
      0.273  0.3059E+00  0.1719E+01
      0.338  0.1833E+00  0.1731E+01
      0.404  0.1057E+00  0.1738E+01
      0.470  0.9713E-01  0.1745E+01
      0.536  0.1592E+00  0.1755E+01
      0.601  0.2801E+00  0.1774E+01
      0.667  0.4187E+00  0.1801E+01
      0.733  0.5035E+00  0.1834E+01
      0.799  0.4731E+00  0.1865E+01
      0.865  0.3325E+00  0.1887E+01
      0.930  0.1580E+00  0.1898E+01
      0.996  0.3233E-01  0.1900E+01
      1.062 -0.1930E-01  0.1899E+01
      1.128 -0.2367E-01  0.1897E+01
      1.193 -0.1597E-01  0.1896E+01
      1.259 -0.1489E-01  0.1895E+01
      1.325 -0.2340E-01  0.1893E+01
      1.391 -0.3048E-01  0.1891E+01
      1.456 -0.5947E-02  0.1891E+01
      1.522  0.9322E-01  0.1897E+01
      1.588  0.2884E+00  0.1916E+01
      1.654  0.5385E+00  0.1952E+01
      1.720  0.7428E+00  0.2000E+01
      1.785  0.8009E+00  0.2053E+01
      1.851  0.6863E+00  0.2098E+01
      1.917  0.4787E+00  0.2130E+01
      1.983  0.3179E+00  0.2151E+01
      2.048  0.2958E+00  0.2170E+01
      2.114  0.3728E+00  0.2195E+01
      2.180  0.4218E+00  0.2222E+01
      2.246  0.3693E+00  0.2247E+01
      2.311  0.2900E+00  0.2266E+01
      2.377  0.3518E+00  0.2289E+01
      2.443  0.6577E+00  0.2332E+01
      2.509  0.1117E+01  0.2405E+01
      2.574  0.1466E+01  0.2502E+01
      2.640  0.1459E+01  0.2598E+01
      2.706  0.1079E+01  0.2669E+01
      2.772  0.5526E+00  0.2705E+01
      2.838  0.1386E+00  0.2714E+01
      2.903 -0.6505E-01  0.2710E+01
      2.969 -0.1123E+00  0.2703E+01
      3.035 -0.6897E-01  0.2698E+01
      3.101  0.6893E-01  0.2703E+01
      3.166  0.3313E+00  0.2724E+01
      3.232  0.6847E+00  0.2769E+01
      3.298  0.1019E+01  0.2836E+01
      3.364  0.1229E+01  0.2917E+01
      3.429  0.1285E+01  0.3002E+01
      3.495  0.1216E+01  0.3082E+01
      3.561  0.1059E+01  0.3151E+01
      3.627  0.8563E+00  0.3208E+01
      3.692  0.6763E+00  0.3252E+01
      3.758  0.6113E+00  0.3292E+01
      3.824  0.6849E+00  0.3337E+01
      3.890  0.7717E+00  0.3388E+01
      3.956  0.7077E+00  0.3435E+01
      4.021  0.4964E+00  0.3467E+01
      4.087  0.3182E+00  0.3488E+01
      4.153  0.3164E+00  0.3509E+01
      4.219  0.4478E+00  0.3539E+01
      4.284  0.5700E+00  0.3576E+01
      4.350  0.6147E+00  0.3616E+01
      4.416  0.6233E+00  0.3657E+01
      4.482  0.6416E+00  0.3700E+01
      4.547  0.6614E+00  0.3743E+01
      4.613  0.6763E+00  0.3788E+01
      4.679  0.7211E+00  0.3835E+01
      4.745  0.8170E+00  0.3889E+01
      4.811  0.9084E+00  0.3948E+01
      4.876  0.8894E+00  0.4007E+01
      4.942  0.7018E+00  0.4053E+01
      5.008  0.4062E+00  0.4080E+01
      5.074  0.1420E+00  0.4089E+01
      5.139  0.2506E-01  0.4091E+01
      5.205  0.8309E-01  0.4096E+01
      5.271  0.2539E+00  0.4113E+01
      5.337  0.4153E+00  0.4140E+01
      5.402  0.4532E+00  0.4170E+01
      5.468  0.3445E+00  0.4193E+01
      5.534  0.1702E+00  0.4204E+01
      5.600  0.3458E-01  0.4206E+01
      5.665 -0.1006E-01  0.4206E+01
      5.731  0.2997E-01  0.4208E+01
      5.797  0.1149E+00  0.4215E+01
      5.863  0.1873E+00  0.4227E+01
      5.929  0.1999E+00  0.4241E+01
      5.994  0.1525E+00  0.4251E+01
      6.060  0.9045E-01  0.4257E+01
      6.126  0.5326E-01  0.4260E+01
      6.192  0.4048E-01  0.4263E+01
      6.257  0.2990E-01  0.4265E+01
      6.323  0.1241E-01  0.4266E+01
      6.389  0.1151E-02  0.4266E+01
      6.455  0.1742E-01  0.4267E+01
      6.520  0.7072E-01  0.4271E+01
      6.586  0.1430E+00  0.4281E+01
      6.652  0.1920E+00  0.4293E+01
      6.718  0.1828E+00  0.4305E+01
      6.783  0.1201E+00  0.4313E+01
      6.849  0.4320E-01  0.4316E+01
      6.915 -0.6177E-02  0.4316E+01
      6.981 -0.1451E-02  0.4316E+01
      7.047  0.6691E-01  0.4320E+01
      7.112  0.1774E+00  0.4332E+01
      7.178  0.2669E+00  0.4349E+01
      7.244  0.2741E+00  0.4367E+01
      7.310  0.2166E+00  0.4382E+01
      7.375  0.1950E+00  0.4394E+01
      7.441  0.2846E+00  0.4413E+01
      7.507  0.4322E+00  0.4442E+01
      7.573  0.4984E+00  0.4474E+01
      7.638  0.4080E+00  0.4501E+01
      7.704  0.2273E+00  0.4516E+01
      7.770  0.9820E-01  0.4523E+01
      7.836  0.1360E+00  0.4531E+01
      7.902  0.3653E+00  0.4555E+01
      7.967  0.6784E+00  0.4600E+01
      8.033  0.8720E+00  0.4657E+01
      8.099  0.8163E+00  0.4711E+01
      8.165  0.5929E+00  0.4750E+01
      8.230  0.4077E+00  0.4777E+01
      8.296  0.3915E+00  0.4803E+01
      8.362  0.5403E+00  0.4838E+01
      8.428  0.7978E+00  0.4891E+01
      8.493  0.1090E+01  0.4962E+01
      8.559  0.1291E+01  0.5047E+01
      8.625  0.1267E+01  0.5131E+01
      8.691  0.1005E+01  0.5197E+01
      8.756  0.6372E+00  0.5239E+01
      8.822  0.3369E+00  0.5261E+01
      8.888  0.1871E+00  0.5273E+01
      8.954  0.1554E+00  0.5283E+01
      9.020  0.1727E+00  0.5295E+01
      9.085  0.2138E+00  0.5309E+01
      9.151  0.2808E+00  0.5327E+01
      9.217  0.3391E+00  0.5349E+01
      9.283  0.3264E+00  0.5371E+01
      9.348  0.2293E+00  0.5386E+01
      9.414  0.1059E+00  0.5393E+01
      9.480  0.2327E-01  0.5394E+01
      9.546  0.3342E-03  0.5395E+01
      9.611  0.1215E-01  0.5395E+01
      9.677  0.2627E-01  0.5397E+01
      9.743  0.2690E-01  0.5399E+01
      9.809  0.1672E-01  0.5400E+01
      9.874  0.5581E-02  0.5400E+01
      9.940 -0.5078E-03  0.5400E+01
     10.006 -0.1848E-02  0.5400E+01
     10.072 -0.1228E-02  0.5400E+01
     10.138 -0.5099E-03  0.5400E+01
     10.203 -0.1523E-03  0.5400E+01
     10.269 -0.3437E-04  0.5400E+01
     10.335 -0.5993E-05  0.5400E+01
     10.401 -0.8174E-06  0.5400E+01
     10.466 -0.8791E-07  0.5400E+01
     10.532 -0.7492E-08  0.5400E+01
     10.598 -0.5077E-09  0.5400E+01
     10.664 -0.2743E-10  0.5400E+01
     10.729 -0.1184E-11  0.5400E+01
     10.795 -0.4085E-13  0.5400E+01
     10.861 -0.1125E-14  0.5400E+01
     10.927 -0.2814E-16  0.5400E+01
     10.993  0.0000E+00  0.5400E+01
     11.058  0.0000E+00  0.5400E+01
     11.124  0.0000E+00  0.5400E+01
     11.190  0.0000E+00  0.5400E+01
     11.256  0.0000E+00  0.5400E+01
     11.321  0.0000E+00  0.5400E+01
     11.387  0.0000E+00  0.5400E+01
     11.453  0.0000E+00  0.5400E+01
     11.519  0.0000E+00  0.5400E+01
     11.584  0.0000E+00  0.5400E+01
     11.650  0.0000E+00  0.5400E+01
