       N       E                     dE             d eps       ncg     rms          rms(c)
DAV:   1     0.555804707810E+03    0.55580E+03   -0.83694E+04  1296   0.106E+03
DAV:   2    -0.309906729313E+03   -0.86571E+03   -0.82147E+03  1536   0.172E+02
DAV:   3    -0.372982226243E+03   -0.63075E+02   -0.61823E+02  1568   0.409E+01
DAV:   4    -0.374664277786E+03   -0.16821E+01   -0.16700E+01  1552   0.800E+00
DAV:   5    -0.374715560019E+03   -0.51282E-01   -0.51178E-01  1510   0.132E+00    0.279E+01
RMM:   6    -0.369822199438E+03    0.48934E+01   -0.24101E+00  1296   0.242E+00    0.168E+01
RMM:   7    -0.367570632286E+03    0.22516E+01   -0.62841E+00  1322   0.391E+00    0.931E-01
RMM:   8    -0.367608697552E+03   -0.38065E-01   -0.55290E-01  1310   0.148E+00    0.480E-01
RMM:   9    -0.367626680108E+03   -0.17983E-01   -0.16517E-01  1322   0.726E-01    0.564E-01
RMM:  10    -0.367629569675E+03   -0.28896E-02   -0.28950E-02  1354   0.344E-01    0.682E-01
RMM:  11    -0.367628071931E+03    0.14977E-02   -0.95577E-03  1296   0.203E-01    0.819E-01
RMM:  12    -0.367627955942E+03    0.11599E-03   -0.17209E-03  1304   0.978E-02    0.981E-01
RMM:  13    -0.367628101843E+03   -0.14590E-03   -0.33053E-04  1368   0.421E-02    0.956E-01
RMM:  14    -0.367626376641E+03    0.17252E-02   -0.67685E-04  1296   0.575E-02    0.151E+00
RMM:  15    -0.367626156066E+03    0.22057E-03   -0.16016E-04  1299   0.257E-02    0.166E+00
RMM:  16    -0.367626243714E+03   -0.87648E-04   -0.20131E-05  1338   0.954E-03    0.162E+00
RMM:  17    -0.367627310179E+03   -0.10665E-02   -0.16341E-04  1350   0.268E-02    0.104E+00
RMM:  18    -0.367628459247E+03   -0.11491E-02   -0.57836E-04  1747   0.535E-02    0.293E-01
RMM:  19    -0.367628593290E+03   -0.13404E-03   -0.17536E-04  1324   0.278E-02    0.366E-02
RMM:  20    -0.367628600875E+03   -0.75856E-05   -0.46774E-05  1300   0.130E-02    0.337E-03
RMM:  21    -0.367628601368E+03   -0.49243E-06   -0.66531E-06  1076   0.503E-03
   1 F= -.33545798E+03 E0= -.33546637E+03  d E =-.335458E+03
       N       E                     dE             d eps       ncg     rms          rms(c)
DAV:   1    -0.366455694265E+03    0.11729E+01   -0.37834E+01  1376   0.108E+01    0.645E+00
RMM:   2    -0.365717362275E+03    0.73833E+00   -0.12627E+00  1296   0.213E+00    0.379E+00
RMM:   3    -0.365332102258E+03    0.38526E+00   -0.89055E-01  1296   0.165E+00    0.682E-01
RMM:   4    -0.365341782295E+03   -0.96800E-02   -0.84103E-02  1296   0.684E-01    0.762E-01
RMM:   5    -0.365343639407E+03   -0.18571E-02   -0.17424E-02  1322   0.285E-01    0.106E+00
RMM:   6    -0.365344135270E+03   -0.49586E-03   -0.67049E-03  1296   0.174E-01    0.698E-01
RMM:   7    -0.365342853303E+03    0.12820E-02   -0.17036E-03  1296   0.942E-02    0.234E-01
RMM:   8    -0.365342756365E+03    0.96938E-04   -0.24241E-04  1298   0.427E-02    0.210E-01
RMM:   9    -0.365342618917E+03    0.13745E-03   -0.84183E-05  1296   0.196E-02    0.119E-01
RMM:  10    -0.365342539323E+03    0.79595E-04   -0.20614E-04  1296   0.243E-02    0.162E-02
RMM:  11    -0.365342542123E+03   -0.28002E-05   -0.22771E-05  1325   0.901E-03    0.141E-02
RMM:  12    -0.365342542491E+03   -0.36846E-06   -0.31319E-06   931   0.356E-03
   2 F= -.33560260E+03 E0= -.33561362E+03  d E =-.144624E+00
       N       E                     dE             d eps       ncg     rms          rms(c)
DAV:   1    -0.367282769538E+03   -0.19402E+01   -0.79214E+00  1350   0.484E+00    0.291E+00
RMM:   2    -0.367123182059E+03    0.15959E+00   -0.23237E-01  1296   0.939E-01    0.174E+00
RMM:   3    -0.367038502199E+03    0.84680E-01   -0.19528E-01  1296   0.760E-01    0.319E-01
RMM:   4    -0.367040406063E+03   -0.19039E-02   -0.17185E-02  1296   0.311E-01    0.340E-01
RMM:   5    -0.367040783202E+03   -0.37714E-03   -0.34118E-03  1322   0.129E-01    0.401E-01
RMM:   6    -0.367041336599E+03   -0.55340E-03   -0.21590E-03  1296   0.850E-02    0.564E-01
RMM:   7    -0.367042021879E+03   -0.68528E-03   -0.98438E-04  1304   0.615E-02    0.651E-01
RMM:   8    -0.367042563996E+03   -0.54212E-03   -0.29750E-04  1306   0.302E-02    0.778E-01
RMM:   9    -0.367042588104E+03   -0.24107E-04   -0.68280E-05  1352   0.165E-02    0.792E-01
RMM:  10    -0.367042314609E+03    0.27349E-03   -0.23026E-05  1296   0.105E-02    0.764E-01
RMM:  11    -0.367040870547E+03    0.14441E-02   -0.12761E-03  2054   0.562E-02    0.529E-01
RMM:  12    -0.367040642465E+03    0.22808E-03   -0.86788E-05  1429   0.150E-02    0.468E-01
RMM:  13    -0.367040542997E+03    0.99468E-04   -0.40577E-05  1296   0.100E-02    0.413E-01
RMM:  14    -0.367040486495E+03    0.56502E-04   -0.28819E-05  1300   0.809E-03    0.332E-01
RMM:  15    -0.367040442317E+03    0.44177E-04   -0.31279E-05  1323   0.818E-03    0.228E-01
RMM:  16    -0.367040407877E+03    0.34441E-04   -0.42953E-05  1381   0.952E-03    0.109E-01
RMM:  17    -0.367040397318E+03    0.10559E-04   -0.24907E-05  1299   0.768E-03    0.294E-02
RMM:  18    -0.367040397360E+03   -0.42558E-07   -0.96133E-06  1258   0.470E-03
   3 F= -.33618723E+03 E0= -.33619765E+03  d E =-.729248E+00
