 vasp.6.4.3 19Mar24 (build Oct 21 2024 22:36:34) complex                        
  
 executed on             LinuxIFC date 2024.11.01  22:37:21
 running   96 mpi-ranks, on    1 nodes
 distrk:  each k-point on   24 cores,    4 groups
 distr:  one band on NCORE=  12 cores,    2 groups


--------------------------------------------------------------------------------------------------------


 INCAR:
   SYSTEM = Si64
   ISTART = 0
   ICHARG = 2
   LREAL = Auto
   PREC = Accurate
   LWAVE = .False.
   LCHARG = .False.
   ADDGRID = .True.
   ENCUT = 400
   GGA = PS
   GGA_COMPAT = .FALSE.
   ISMEAR = 1
   SIGMA = 0.2
   NELM = 60
   NELMIN = 8
   EDIFF = 1e-06
   EDIFFG = -0.01
   NSW = 60
   IBRION = 2
   ISIF = 3
   PSTRESS = 40.0
   KPAR = 4
   NPAR = 2
   ALGO = Fast

 POTCAR:    PAW_PBE Si 05Jan2001                  
 POTCAR:    PAW_PBE Si 05Jan2001                  
   VRHFIN =Si: s2p2                                                                                 
   LEXCH  = PE                                                                                      
   EATOM  =   103.0669 eV,    7.5752 Ry                                                             
                                                                                                    
   TITEL  = PAW_PBE Si 05Jan2001                                                                    
   LULTRA =        F    use ultrasoft PP ?                                                          
   IUNSCR =        1    unscreen: 0-lin 1-nonlin 2-no                                               
   RPACOR =    1.500    partial core radius                                                         
   POMASS =   28.085; ZVAL   =    4.000    mass and valenz                                          
   RCORE  =    1.900    outmost cutoff radius                                                       
   RWIGS  =    2.480; RWIGS  =    1.312    wigner-seitz radius (au A)                               
   ENMAX  =  245.345; ENMIN  =  184.009 eV                                                          
   ICORE  =        2    local potential                                                             
   LCOR   =        T    correct aug charges                                                         
   LPAW   =        T    paw PP                                                                      
   EAUG   =  322.069                                                                                
   DEXC   =    0.000                                                                                
   RMAX   =    1.950    core radius for proj-oper                                                   
   RAUG   =    1.300    factor for augmentation sphere                                              
   RDEP   =    1.993    radius for radial grids                                                     
   RDEPT  =    1.837    core radius for aug-charge                                                  
                                                                                                    
   Atomic configuration                                                                             
    6 entries                                                                                       
     n  l   j            E        occ.                                                              
     1  0  0.50     -1785.8828   2.0000                                                             
     2  0  0.50      -139.4969   2.0000                                                             
     2  1  1.50       -95.5546   6.0000                                                             
     3  0  0.50       -10.8127   2.0000                                                             
     3  1  0.50        -4.0811   2.0000                                                             
     3  2  1.50        -4.0817   0.0000                                                             
   Description                                                                                      
     l       E           TYP  RCUT    TYP  RCUT                                                     
     0    -10.8127223     23  1.900                                                                 
     0     -7.6451159     23  1.900                                                                 
     1     -4.0811372     23  1.900                                                                 
     1      2.4879257     23  1.900                                                                 
     2     -4.0817478      7  1.900                                                                 
  local pseudopotential read in
  partial core-charges read in
  partial kinetic energy density read in
  atomic valenz-charges read in
  non local Contribution for L=           0  read in
    real space projection operators read in
  non local Contribution for L=           0  read in
    real space projection operators read in
  non local Contribution for L=           1  read in
    real space projection operators read in
  non local Contribution for L=           1  read in
    real space projection operators read in
    PAW grid and wavefunctions read in
 
   number of l-projection  operators is LMAX  =           4
   number of lm-projection operators is LMMAX =           8
 
 Optimization of the real space projectors (new method)

 maximal supplied QI-value         = 19.84
 optimisation between [QCUT,QGAM] = [ 10.12, 20.44] = [ 28.68,116.96] Ry 
 Optimized for a Real-space Cutoff    1.38 Angstroem

   l    n(q)    QCUT    max X(q) W(low)/X(q) W(high)/X(q)  e(spline) 
   0      8    10.119   159.560    0.58E-04    0.11E-03    0.54E-07
   0      8    10.119   115.863    0.56E-04    0.11E-03    0.54E-07
   1      8    10.119    88.339    0.22E-03    0.17E-03    0.19E-06
   1      8    10.119    48.592    0.22E-03    0.17E-03    0.18E-06
 -----------------------------------------------------------------------------
|                                                                             |
|               ----> ADVICE to this user running VASP <----                  |
|                                                                             |
|     You enforced a specific xc type in the INCAR file but a different       |
|     type was found in the POTCAR file.                                      |
|     I HOPE YOU KNOW WHAT YOU ARE DOING!                                     |
|                                                                             |
 -----------------------------------------------------------------------------

  PAW_PBE Si 05Jan2001                  :
 energy of atom  1       EATOM= -103.0669
 kinetic energy error for atom=    0.0012 (will be added to EATOM!!)
 
 
 POSCAR: Si8
  positions in direct lattice
  velocities in cartesian coordinates
  No initial velocities read in


 exchange-correlation table for PS
   RHO(1)=    0.500       N(1)  =     2000
   RHO(2)=  100.500       N(2)  =     4000
 


--------------------------------------------------------------------------------------------------------


 ion  position               nearest neighbor table
   1  0.000  0.000  0.000-  15 2.36  30 2.36  44 2.36  57 2.36
   2  0.000  0.000  0.500-  16 2.36  29 2.36  43 2.36  58 2.36
   3  0.000  0.500  0.000-  13 2.36  32 2.36  42 2.36  59 2.36
   4  0.000  0.500  0.500-  14 2.36  31 2.36  41 2.36  60 2.36
   5  0.500  0.000  0.000-  11 2.36  26 2.36  48 2.36  61 2.36
   6  0.500  0.000  0.500-  12 2.36  25 2.36  47 2.36  62 2.36
   7  0.500  0.500  0.000-   9 2.36  28 2.36  46 2.36  63 2.36
   8  0.500  0.500  0.500-  10 2.36  27 2.36  45 2.36  64 2.36
   9  0.375  0.375  0.125-   7 2.36  21 2.36  35 2.36  49 2.36
  10  0.375  0.375  0.625-   8 2.36  22 2.36  36 2.36  50 2.36
  11  0.375  0.875  0.125-   5 2.36  23 2.36  33 2.36  51 2.36
  12  0.375  0.875  0.625-   6 2.36  24 2.36  34 2.36  52 2.36
  13  0.875  0.375  0.125-   3 2.36  17 2.36  39 2.36  53 2.36
  14  0.875  0.375  0.625-   4 2.36  18 2.36  40 2.36  54 2.36
  15  0.875  0.875  0.125-   1 2.36  19 2.36  37 2.36  55 2.36
  16  0.875  0.875  0.625-   2 2.36  20 2.36  38 2.36  56 2.36
  17  0.000  0.250  0.250-  13 2.36  29 2.36  41 2.36  57 2.36
  18  0.000  0.250  0.750-  14 2.36  30 2.36  42 2.36  58 2.36
  19  0.000  0.750  0.250-  15 2.36  31 2.36  43 2.36  59 2.36
  20  0.000  0.750  0.750-  16 2.36  32 2.36  44 2.36  60 2.36
  21  0.500  0.250  0.250-   9 2.36  25 2.36  45 2.36  61 2.36
  22  0.500  0.250  0.750-  10 2.36  26 2.36  46 2.36  62 2.36
  23  0.500  0.750  0.250-  11 2.36  27 2.36  47 2.36  63 2.36
  24  0.500  0.750  0.750-  12 2.36  28 2.36  48 2.36  64 2.36
  25  0.375  0.125  0.375-   6 2.36  21 2.36  33 2.36  50 2.36
  26  0.375  0.125  0.875-   5 2.36  22 2.36  34 2.36  49 2.36
  27  0.375  0.625  0.375-   8 2.36  23 2.36  35 2.36  52 2.36
  28  0.375  0.625  0.875-   7 2.36  24 2.36  36 2.36  51 2.36
  29  0.875  0.125  0.375-   2 2.36  17 2.36  37 2.36  54 2.36
  30  0.875  0.125  0.875-   1 2.36  18 2.36  38 2.36  53 2.36
  31  0.875  0.625  0.375-   4 2.36  19 2.36  39 2.36  56 2.36
  32  0.875  0.625  0.875-   3 2.36  20 2.36  40 2.36  55 2.36
  33  0.250  0.000  0.250-  11 2.36  25 2.36  43 2.36  57 2.36
  34  0.250  0.000  0.750-  12 2.36  26 2.36  44 2.36  58 2.36
  35  0.250  0.500  0.250-   9 2.36  27 2.36  41 2.36  59 2.36
  36  0.250  0.500  0.750-  10 2.36  28 2.36  42 2.36  60 2.36
  37  0.750  0.000  0.250-  15 2.36  29 2.36  47 2.36  61 2.36
  38  0.750  0.000  0.750-  16 2.36  30 2.36  48 2.36  62 2.36
  39  0.750  0.500  0.250-  13 2.36  31 2.36  45 2.36  63 2.36
  40  0.750  0.500  0.750-  14 2.36  32 2.36  46 2.36  64 2.36
  41  0.125  0.375  0.375-   4 2.36  17 2.36  35 2.36  50 2.36
  42  0.125  0.375  0.875-   3 2.36  18 2.36  36 2.36  49 2.36
  43  0.125  0.875  0.375-   2 2.36  19 2.36  33 2.36  52 2.36
  44  0.125  0.875  0.875-   1 2.36  20 2.36  34 2.36  51 2.36
  45  0.625  0.375  0.375-   8 2.36  21 2.36  39 2.36  54 2.36
  46  0.625  0.375  0.875-   7 2.36  22 2.36  40 2.36  53 2.36
  47  0.625  0.875  0.375-   6 2.36  23 2.36  37 2.36  56 2.36
  48  0.625  0.875  0.875-   5 2.36  24 2.36  38 2.36  55 2.36
  49  0.250  0.250  0.000-   9 2.36  26 2.36  42 2.36  57 2.36
  50  0.250  0.250  0.500-  10 2.36  25 2.36  41 2.36  58 2.36
  51  0.250  0.750  0.000-  11 2.36  28 2.36  44 2.36  59 2.36
  52  0.250  0.750  0.500-  12 2.36  27 2.36  43 2.36  60 2.36
  53  0.750  0.250  0.000-  13 2.36  30 2.36  46 2.36  61 2.36
  54  0.750  0.250  0.500-  14 2.36  29 2.36  45 2.36  62 2.36
  55  0.750  0.750  0.000-  15 2.36  32 2.36  48 2.36  63 2.36
  56  0.750  0.750  0.500-  16 2.36  31 2.36  47 2.36  64 2.36
  57  0.125  0.125  0.125-   1 2.36  17 2.36  33 2.36  49 2.36
  58  0.125  0.125  0.625-   2 2.36  18 2.36  34 2.36  50 2.36
  59  0.125  0.625  0.125-   3 2.36  19 2.36  35 2.36  51 2.36
  60  0.125  0.625  0.625-   4 2.36  20 2.36  36 2.36  52 2.36
  61  0.625  0.125  0.125-   5 2.36  21 2.36  37 2.36  53 2.36
  62  0.625  0.125  0.625-   6 2.36  22 2.36  38 2.36  54 2.36
  63  0.625  0.625  0.125-   7 2.36  23 2.36  39 2.36  55 2.36
  64  0.625  0.625  0.625-   8 2.36  24 2.36  40 2.36  56 2.36
 
  LATTYP: Found a simple cubic cell.
 ALAT       =    10.8818653088
  
  Lattice vectors:
  
 A1 = (  10.8818653088,   0.0000000000,   0.0000000000)
 A2 = (   0.0000000000,  10.8818653088,   0.0000000000)
 A3 = (   0.0000000000,   0.0000000000,  10.8818653088)


Analysis of symmetry for initial positions (statically):
=====================================================================
 Subroutine PRICEL returns following result:
 
  LATTYP: Found a face centered cubic cell.
 ALAT       =     5.4409326544
  
  Lattice vectors:
  
 A1 = (   2.7204663272,  -2.7204663272,   0.0000000000)
 A2 = (   2.7204663272,   0.0000000000,   2.7204663272)
 A3 = (   0.0000000000,  -2.7204663272,   2.7204663272)
 
  32 primitive cells build up your supercell.
 

 Routine SETGRP: Setting up the symmetry group for a 
 simple cubic supercell.


 Subroutine GETGRP returns: Found 48 space group operations
 (whereof 24 operations were pure point group operations)
 out of a pool of 48 trial point group operations.


The static configuration has the point symmetry T_d .
 The point group associated with its full space group is O_h .


Analysis of symmetry for dynamics (positions and initial velocities):
=====================================================================
 Subroutine PRICEL returns following result:
 
  LATTYP: Found a face centered cubic cell.
 ALAT       =     5.4409326544
  
  Lattice vectors:
  
 A1 = (   2.7204663272,  -2.7204663272,   0.0000000000)
 A2 = (   2.7204663272,   0.0000000000,   2.7204663272)
 A3 = (   0.0000000000,  -2.7204663272,   2.7204663272)
 
  32 primitive cells build up your supercell.
 

 Routine SETGRP: Setting up the symmetry group for a 
 simple cubic supercell.


 Subroutine GETGRP returns: Found 48 space group operations
 (whereof 24 operations were pure point group operations)
 out of a pool of 48 trial point group operations.


The dynamic configuration has the point symmetry T_d .
 The point group associated with its full space group is O_h .


 Subroutine INISYM returns: Found 48 space group operations
 (whereof 24 operations are pure point group operations),
 and found    32 'primitive' translations


----------------------------------------------------------------------------------------

                                     Primitive cell                                     

  volume of cell :      40.2680

  direct lattice vectors                    reciprocal lattice vectors
     2.720466327 -2.720466327  0.000000000     0.183792019 -0.183792019 -0.183792019
     2.720466327  0.000000000  2.720466327     0.183792019  0.183792019  0.183792019
     0.000000000 -2.720466327  2.720466327    -0.183792019 -0.183792019  0.183792019

  length of vectors
     3.847320376  3.847320376  3.847320376     0.318337116  0.318337116  0.318337116

  position of ions in fractional coordinates (direct lattice)
     0.000000000  0.000000000  0.000000000
     0.750000000  0.750000000  0.750000000

  ion indices of the primitive-cell ions
   primitive index   ion index
                 1           1
                 2          30

----------------------------------------------------------------------------------------

 
 
 KPOINTS: Automatic mesh                          

Automatic generation of k-mesh.
 Grid dimensions read from file:
 generate k-points for:    2    2    2

 Generating k-lattice:

  Cartesian coordinates                     Fractional coordinates (reciprocal lattice)
     0.045948005  0.000000000  0.000000000     0.500000000  0.000000000  0.000000000
     0.000000000  0.045948005  0.000000000     0.000000000  0.500000000  0.000000000
     0.000000000  0.000000000  0.045948005     0.000000000  0.000000000  0.500000000

  Length of vectors
     0.045948005  0.045948005  0.045948005

  Shift w.r.t. Gamma in fractional coordinates (k-lattice)
     0.000000000  0.000000000  0.000000000

 
 Subroutine IBZKPT returns following result:
 ===========================================
 
 Found      4 irreducible k-points:
 
 Following reciprocal coordinates:
            Coordinates               Weight
  0.000000  0.000000  0.000000      1.000000
  0.500000  0.000000  0.000000      3.000000
  0.500000  0.500000  0.000000      3.000000
  0.500000  0.500000  0.500000      1.000000
 
 Following cartesian coordinates:
            Coordinates               Weight
  0.000000  0.000000  0.000000      1.000000
  0.045948  0.000000  0.000000      3.000000
  0.045948  0.045948  0.000000      3.000000
  0.045948  0.045948  0.045948      1.000000
 


--------------------------------------------------------------------------------------------------------




 Dimension of arrays:
   k-points           NKPTS =      4   k-points in BZ     NKDIM =      4   number of bands    NBANDS=    162
   number of dos      NEDOS =    301   number of ions     NIONS =     64
   non local maximal  LDIM  =      4   non local SUM 2l+1 LMDIM =      8
   total plane-waves  NPLWV = 373248
   max r-space proj   IRMAX =   3242   max aug-charges    IRDMAX=  77668
   dimension x,y,z NGX =    72 NGY =   72 NGZ =   72
   dimension x,y,z NGXF=   144 NGYF=  144 NGZF=  144
   support grid    NGXF=   288 NGYF=  288 NGZF=  288
   ions per type =              64
   NGX,Y,Z   is equivalent  to a cutoff of  11.00, 11.00, 11.00 a.u.
   NGXF,Y,Z  is equivalent  to a cutoff of  22.00, 22.00, 22.00 a.u.

 SYSTEM =  Si64                                    
 POSCAR =  Si8                                     

 Startparameter for this run:
   NWRITE =      2    write-flag & timer
   PREC   = accura    normal or accurate (medium, high low for compatibility)
   ISTART =      0    job   : 0-new  1-cont  2-samecut
   ICHARG =      2    charge: 1-file 2-atom 10-const
   ISPIN  =      1    spin polarized calculation?
   LNONCOLLINEAR =      F non collinear calculations
   LSORBIT =      F    spin-orbit coupling
   INIWAV =      1    electr: 0-lowe 1-rand  2-diag
   LASPH  =      F    aspherical Exc in radial PAW
 Electronic Relaxation 1
   ENCUT  =  400.0 eV  29.40 Ry    5.42 a.u.  17.75 17.75 17.75*2*pi/ulx,y,z
   ENINI  =  400.0     initial cutoff
   ENAUG  =  322.1 eV  augmentation charge cutoff
   NELM   =     60;   NELMIN=  8; NELMDL= -5     # of ELM steps 
   EDIFF  = 0.1E-05   stopping-criterion for ELM
   LREAL  =      T    real-space projection
   NLSPLINE    = F    spline interpolate recip. space projectors
   LCOMPAT=      F    compatible to vasp.4.4
   GGA_COMPAT  = F    GGA compatible to vasp.4.4-vasp.4.6
   LMAXPAW     = -100 max onsite density
   LMAXMIX     =    2 max onsite mixed and CHGCAR
   VOSKOWN=      0    Vosko Wilk Nusair interpolation
   ROPT   =   -0.00025
 Ionic relaxation
   EDIFFG = -.1E-01   stopping-criterion for IOM
   NSW    =     60    number of steps for IOM
   NBLOCK =      1;   KBLOCK =     60    inner block; outer block 
   IBRION =      2    ionic relax: 0-MD 1-quasi-New 2-CG
   NFREE  =      1    steps in history (QN), initial steepest desc. (CG)
   ISIF   =      3    stress and relaxation
   IWAVPR =     11    prediction:  0-non 1-charg 2-wave 3-comb
   ISYM   =      2    0-nonsym 1-usesym 2-fastsym
   LCORR  =      T    Harris-Foulkes like correction to forces

   POTIM  = 0.5000    time-step for ionic-motion
   TEIN   =    0.0    initial temperature
   TEBEG  =    0.0;   TEEND  =   0.0 temperature during run
   SMASS  =  -3.00    Nose mass-parameter (am)
   estimated Nose-frequenzy (Omega)   =  0.10E-29 period in steps = 0.13E+47 mass=  -0.271E-26a.u.
   SCALEE = 1.0000    scale energy and forces
   NPACO  =    256;   APACO  = 10.0  distance and # of slots for P.C.
   PSTRESS=   40.0 pullay stress

  Mass of Ions in am
   POMASS =  28.09
  Ionic Valenz
   ZVAL   =   4.00
  Atomic Wigner-Seitz radii
   RWIGS  =  -1.00
  virtual crystal weights 
   VCA    =   1.00
   NELECT =     256.0000    total number of electrons
   NUPDOWN=      -1.0000    fix difference up-down

 DOS related values:
   EMIN   =  10.00;   EMAX   =-10.00  energy-range for DOS
   EFERMI =   0.00;   METHOD = LEGACY      
   ISMEAR =     1;   SIGMA  =   0.20  broadening in eV -4-tet -1-fermi 0-gaus

 Electronic relaxation 2 (details)
   IALGO  =     68    algorithm
   LDIAG  =      T    sub-space diagonalisation (order eigenvalues)
   LSUBROT=      F    optimize rotation matrix (better conditioning)
   TURBO    =      0    0=normal 1=particle mesh
   IRESTART =      0    0=no restart 2=restart with 2 vectors
   NREBOOT  =      0    no. of reboots
   NMIN     =      0    reboot dimension
   EREF     =   0.00    reference energy to select bands
   IMIX   =      4    mixing-type and parameters
     AMIX     =   0.40;   BMIX     =  1.00
     AMIX_MAG =   1.60;   BMIX_MAG =  1.00
     AMIN     =   0.10
     WC   =   100.;   INIMIX=   1;  MIXPRE=   1;  MAXMIX= -45

 Intra band minimization:
   WEIMIN = 0.0010     energy-eigenvalue tresh-hold
   EBREAK =  0.15E-08  absolut break condition
   DEPER  =   0.30     relativ break condition  

   TIME   =   0.40     timestep for ELM

  volume/ion in A,a.u.               =      20.13       135.87
  Fermi-wavevector in a.u.,A,eV,Ry     =   0.955252  1.805165 12.415414  0.912507
  Thomas-Fermi vector in A             =   2.084073
 
 Write flags
   LWAVE        =      F    write WAVECAR
   LDOWNSAMPLE  =      F    k-point downsampling of WAVECAR
   LCHARG       =      F    write CHGCAR
   LVTOT        =      F    write LOCPOT, total local potential
   LVHAR        =      F    write LOCPOT, Hartree potential only
   WRT_POTENTIAL= false  ! write potential to hdf5 file
   LELF         =      F    write electronic localiz. function (ELF)
   LORBIT       =      0    0 simple, 1 ext, 2 COOP (PROOUT), +10 PAW based schemes


 Dipole corrections
   LMONO      =      F    monopole corrections only (constant potential shift)
   LDIPOL     =      F    correct potential (dipole corrections)
   IDIPOL     =      0    1-x, 2-y, 3-z, 4-all directions 
   EPSILON    =  1.0000000 bulk dielectric constant
   LVACPOTAV  =      F  vacuum potentials using an averaging scheme for the charge density
   VACPOTFLAT =  0.1000000 required flatness to determine vacuum potential
 Exchange correlation treatment:
   GGA     = PS    functional components
   XC_C    = 1    coefficients multiplying the functional components
   LIBXC   =     F    Libxc                    
   VOSKOWN =     0    Vosko Wilk Nusair interpolation
   LHFCALC =     F    Hartree Fock is set to
   LHFONE  =     F    Hartree Fock one center treatment
   AEXX    =    0.0000 exact exchange contribution

 Parameters of functionals:
   PS:
     No parameter
 
 Van der Waals corrections
   IVDW    =     0    specifies the selected vdW correction

 Linear response parameters
   LEPSILON=     F    determine dielectric tensor
   LRPA    =     F    only Hartree local field effects (RPA)
   LNABLA  =     F    use nabla operator in PAW spheres
   LVEL    =     F    velocity operator in full k-point grid
   CSHIFT  =0.1000    complex shift for real part using Kramers Kronig
   OMEGAMAX=  -1.0    maximum frequency
   DEG_THRESHOLD= 0.2000000E-02 threshold for treating states as degnerate
   RTIME   =   -0.100 relaxation time in fs
  (WPLASMAI=    0.000 imaginary part of plasma frequency in eV, 0.658/RTIME)
   DFIELD  = 0.0000000 0.0000000 0.0000000 field for delta impulse in time
 
  Optional k-point grid parameters
   LKPOINTS_OPT  =     F    use optional k-point grid
   KPOINTS_OPT_MODE=     1    mode for optional k-point grid
 
 Orbital magnetization related:
   ORBITALMAG=     F  switch on orbital magnetization
   LCHIMAG   =     F  perturbation theory with respect to B field
   DQ        =  0.001000  dq finite difference perturbation B field
   LLRAUG    =     F  two centre corrections for induced B field
   LBONE     =     F  B-component reconstruction in AE one-centre
   LVGVCALC  =     T  calculate vGv susceptibility
   LVGVAPPL  =     F  apply vGv susceptibility instead of pGv for G=0

 Random number generation:
   RANDOM_GENERATOR = DEFAULT
   PCG_SEED         = not used


--------------------------------------------------------------------------------------------------------


 conjugate gradient relaxation of ions
 charge density and potential will be updated during run
 non-spin polarized calculation
 RMM-DIIS sequential band-by-band and
  variant of blocked Davidson during initial phase
 perform sub-space diagonalisation
    before iterative eigenvector-optimisation
 modified Broyden-mixing scheme, WC =      100.0
 initial mixing is a Kerker type mixing with AMIX =  0.4000 and BMIX =      1.0000
 Hartree-type preconditioning will be used
 using additional bands           34
 real space projection scheme for non local part
 use partial core corrections
 calculate Harris-corrections to forces 
   (improved forces if not selfconsistent)
 use gradient corrections 
 use of overlap-Matrix (Vanderbilt PP)
 Methfessel and Paxton  Order N= 1 SIGMA  =   0.20


--------------------------------------------------------------------------------------------------------


  energy-cutoff  :      400.00
  volume of cell :     1288.58
      direct lattice vectors                 reciprocal lattice vectors
    10.881865309  0.000000000  0.000000000     0.091896010  0.000000000  0.000000000
     0.000000000 10.881865309  0.000000000     0.000000000  0.091896010  0.000000000
     0.000000000  0.000000000 10.881865309     0.000000000  0.000000000  0.091896010

  length of vectors
    10.881865309 10.881865309 10.881865309     0.091896010  0.091896010  0.091896010


 
 k-points in units of 2pi/SCALE and weight: Automatic mesh                          
   0.00000000  0.00000000  0.00000000       0.125
   0.04594801  0.00000000  0.00000000       0.375
   0.04594801  0.04594801  0.00000000       0.375
   0.04594801  0.04594801  0.04594801       0.125
 
 k-points in reciprocal lattice and weights: Automatic mesh                          
   0.00000000  0.00000000  0.00000000       0.125
   0.50000000  0.00000000  0.00000000       0.375
   0.50000000  0.50000000  0.00000000       0.375
   0.50000000  0.50000000  0.50000000       0.125
 
 position of ions in fractional coordinates (direct lattice) 
   0.00000000  0.00000000  0.00000000
   0.00000000  0.00000000  0.50000000
   0.00000000  0.50000000  0.00000000
   0.00000000  0.50000000  0.50000000
   0.50000000  0.00000000  0.00000000
   0.50000000  0.00000000  0.50000000
   0.50000000  0.50000000  0.00000000
   0.50000000  0.50000000  0.50000000
   0.37500000  0.37500000  0.12500000
   0.37500000  0.37500000  0.62500000
   0.37500000  0.87500000  0.12500000
   0.37500000  0.87500000  0.62500000
   0.87500000  0.37500000  0.12500000
   0.87500000  0.37500000  0.62500000
   0.87500000  0.87500000  0.12500000
   0.87500000  0.87500000  0.62500000
   0.00000000  0.25000000  0.25000000
   0.00000000  0.25000000  0.75000000
   0.00000000  0.75000000  0.25000000
   0.00000000  0.75000000  0.75000000
   0.50000000  0.25000000  0.25000000
   0.50000000  0.25000000  0.75000000
   0.50000000  0.75000000  0.25000000
   0.50000000  0.75000000  0.75000000
   0.37500000  0.12500000  0.37500000
   0.37500000  0.12500000  0.87500000
   0.37500000  0.62500000  0.37500000
   0.37500000  0.62500000  0.87500000
   0.87500000  0.12500000  0.37500000
   0.87500000  0.12500000  0.87500000
   0.87500000  0.62500000  0.37500000
   0.87500000  0.62500000  0.87500000
   0.25000000  0.00000000  0.25000000
   0.25000000  0.00000000  0.75000000
   0.25000000  0.50000000  0.25000000
   0.25000000  0.50000000  0.75000000
   0.75000000  0.00000000  0.25000000
   0.75000000  0.00000000  0.75000000
   0.75000000  0.50000000  0.25000000
   0.75000000  0.50000000  0.75000000
   0.12500000  0.37500000  0.37500000
   0.12500000  0.37500000  0.87500000
   0.12500000  0.87500000  0.37500000
   0.12500000  0.87500000  0.87500000
   0.62500000  0.37500000  0.37500000
   0.62500000  0.37500000  0.87500000
   0.62500000  0.87500000  0.37500000
   0.62500000  0.87500000  0.87500000
   0.25000000  0.25000000  0.00000000
   0.25000000  0.25000000  0.50000000
   0.25000000  0.75000000  0.00000000
   0.25000000  0.75000000  0.50000000
   0.75000000  0.25000000  0.00000000
   0.75000000  0.25000000  0.50000000
   0.75000000  0.75000000  0.00000000
   0.75000000  0.75000000  0.50000000
   0.12500000  0.12500000  0.12500000
   0.12500000  0.12500000  0.62500000
   0.12500000  0.62500000  0.12500000
   0.12500000  0.62500000  0.62500000
   0.62500000  0.12500000  0.12500000
   0.62500000  0.12500000  0.62500000
   0.62500000  0.62500000  0.12500000
   0.62500000  0.62500000  0.62500000
 
 position of ions in cartesian coordinates  (Angst):
   0.00000000  0.00000000  0.00000000
   0.00000000  0.00000000  5.44093265
   0.00000000  5.44093265  0.00000000
   0.00000000  5.44093265  5.44093265
   5.44093265  0.00000000  0.00000000
   5.44093265  0.00000000  5.44093265
   5.44093265  5.44093265  0.00000000
   5.44093265  5.44093265  5.44093265
   4.08069949  4.08069949  1.36023316
   4.08069949  4.08069949  6.80116582
   4.08069949  9.52163215  1.36023316
   4.08069949  9.52163215  6.80116582
   9.52163215  4.08069949  1.36023316
   9.52163215  4.08069949  6.80116582
   9.52163215  9.52163215  1.36023316
   9.52163215  9.52163215  6.80116582
   0.00000000  2.72046633  2.72046633
   0.00000000  2.72046633  8.16139898
   0.00000000  8.16139898  2.72046633
   0.00000000  8.16139898  8.16139898
   5.44093265  2.72046633  2.72046633
   5.44093265  2.72046633  8.16139898
   5.44093265  8.16139898  2.72046633
   5.44093265  8.16139898  8.16139898
   4.08069949  1.36023316  4.08069949
   4.08069949  1.36023316  9.52163215
   4.08069949  6.80116582  4.08069949
   4.08069949  6.80116582  9.52163215
   9.52163215  1.36023316  4.08069949
   9.52163215  1.36023316  9.52163215
   9.52163215  6.80116582  4.08069949
   9.52163215  6.80116582  9.52163215
   2.72046633  0.00000000  2.72046633
   2.72046633  0.00000000  8.16139898
   2.72046633  5.44093265  2.72046633
   2.72046633  5.44093265  8.16139898
   8.16139898  0.00000000  2.72046633
   8.16139898  0.00000000  8.16139898
   8.16139898  5.44093265  2.72046633
   8.16139898  5.44093265  8.16139898
   1.36023316  4.08069949  4.08069949
   1.36023316  4.08069949  9.52163215
   1.36023316  9.52163215  4.08069949
   1.36023316  9.52163215  9.52163215
   6.80116582  4.08069949  4.08069949
   6.80116582  4.08069949  9.52163215
   6.80116582  9.52163215  4.08069949
   6.80116582  9.52163215  9.52163215
   2.72046633  2.72046633  0.00000000
   2.72046633  2.72046633  5.44093265
   2.72046633  8.16139898  0.00000000
   2.72046633  8.16139898  5.44093265
   8.16139898  2.72046633  0.00000000
   8.16139898  2.72046633  5.44093265
   8.16139898  8.16139898  0.00000000
   8.16139898  8.16139898  5.44093265
   1.36023316  1.36023316  1.36023316
   1.36023316  1.36023316  6.80116582
   1.36023316  6.80116582  1.36023316
   1.36023316  6.80116582  6.80116582
   6.80116582  1.36023316  1.36023316
   6.80116582  1.36023316  6.80116582
   6.80116582  6.80116582  1.36023316
   6.80116582  6.80116582  6.80116582
 


--------------------------------------------------------------------------------------------------------


 k-point     1 :   0.0000 0.0000 0.0000  plane waves:   23439
 k-point     2 :   0.5000 0.0000 0.0000  plane waves:   23396
 k-point     3 :   0.5000 0.5000 0.0000  plane waves:   23380
 k-point     4 :   0.5000 0.5000 0.5000  plane waves:   23600

 maximum and minimum number of plane-waves per node :      1983     1922

 maximum number of plane-waves:     23600
 maximum index in each direction: 
   IXMAX=   17   IYMAX=   17   IZMAX=   17
   IXMIN=  -18   IYMIN=  -18   IZMIN=  -18


 real space projection operators:
  total allocation   :      12284.00 KBytes
  max/ min on nodes  :       1038.00        995.00


 parallel 3D FFT for wavefunctions:
    minimum data exchange during FFTs selected (reduces bandwidth)
 parallel 3D FFT for charge:
    minimum data exchange during FFTs selected (reduces bandwidth)


 total amount of memory used by VASP MPI-rank0    71558. kBytes
=======================================================================

   base      :      30000. kBytes
   nonlr-proj:       4681. kBytes
   fftplans  :      19172. kBytes
   grid      :       7278. kBytes
   one-center:         18. kBytes
   wavefun   :      10409. kBytes
 
     INWAV:  cpu time      0.0000: real time      0.0000
 Broyden mixing: mesh for mixing (old mesh)
   NGX = 35   NGY = 35   NGZ = 35
  (NGX  =144   NGY  =144   NGZ  =144)
  gives a total of  42875 points

 initial charge density was supplied:
 charge density of overlapping atoms calculated
 number of electron     256.0000000 magnetization 
 keeping initial charge density in first step


--------------------------------------------------------------------------------------------------------


 Maximum index for non-local projection operator          290
 Maximum index for augmentation-charges         3402 (set IRDMAX)


--------------------------------------------------------------------------------------------------------


 First call to EWALD:  gamma=   0.163
 Maximum number of real-space cells 3x 3x 3
 Maximum number of reciprocal cells 3x 3x 3

    FEWALD:  cpu time      0.0060: real time      0.0063


--------------------------------------- Ionic step        1  -------------------------------------------




--------------------------------------- Iteration      1(   1)  ---------------------------------------


    POTLOK:  cpu time      0.0960: real time      0.1032
    SETDIJ:  cpu time      0.0875: real time      0.0884
     EDDAV:  cpu time      0.7067: real time      0.7771
       DOS:  cpu time      0.0100: real time      0.0133
    --------------------------------------------
      LOOP:  cpu time      0.9002: real time      0.9819

 eigenvalue-minimisations  :  1296
 total energy-change (2. order) : 0.5558047E+03  (-0.8369446E+04)
 number of electron     256.0000000 magnetization 
 augmentation part      256.0000000 magnetization 

 Free energy of the ion-electron system (eV)
  ---------------------------------------------------
  alpha Z        PSCENC =       107.00508449
  Ewald energy   TEWEN  =     -7299.33766899
  -Hartree energ DENC   =      -354.93841849
  -exchange      EXHF   =         0.00000000
  -V(xc)+E(xc)   XCENC  =      -559.26310674
  PAW double counting   =      5598.62625415    -4492.17844134
  entropy T*S    EENTRO =        -0.01043342
  eigenvalues    EBANDS =       991.10557716
  atomic energy  EATOM  =      6564.79586099
  Solvation  Ediel_sol  =         0.00000000
  ---------------------------------------------------
  free energy    TOTEN  =       555.80470781 eV

  energy without entropy =      555.81514123  energy(sigma->0) =      555.80818562


--------------------------------------------------------------------------------------------------------




--------------------------------------- Iteration      1(   2)  ---------------------------------------


     EDDAV:  cpu time      0.6976: real time      0.7061
       DOS:  cpu time      0.0011: real time      0.0011
    --------------------------------------------
      LOOP:  cpu time      0.6987: real time      0.7072

 eigenvalue-minimisations  :  1536
 total energy-change (2. order) :-0.8657114E+03  (-0.8214741E+03)
 number of electron     256.0000000 magnetization 
 augmentation part      256.0000000 magnetization 

 Free energy of the ion-electron system (eV)
  ---------------------------------------------------
  alpha Z        PSCENC =       107.00508449
  Ewald energy   TEWEN  =     -7299.33766899
  -Hartree energ DENC   =      -354.93841849
  -exchange      EXHF   =         0.00000000
  -V(xc)+E(xc)   XCENC  =      -559.26310674
  PAW double counting   =      5598.62625415    -4492.17844134
  entropy T*S    EENTRO =         0.00464599
  eigenvalues    EBANDS =       125.37906063
  atomic energy  EATOM  =      6564.79586099
  Solvation  Ediel_sol  =         0.00000000
  ---------------------------------------------------
  free energy    TOTEN  =      -309.90672931 eV

  energy without entropy =     -309.91137530  energy(sigma->0) =     -309.90827798


--------------------------------------------------------------------------------------------------------




--------------------------------------- Iteration      1(   3)  ---------------------------------------


     EDDAV:  cpu time      0.7059: real time      0.7194
       DOS:  cpu time      0.0011: real time      0.0011
    --------------------------------------------
      LOOP:  cpu time      0.7069: real time      0.7205

 eigenvalue-minimisations  :  1568
 total energy-change (2. order) :-0.6307550E+02  (-0.6182341E+02)
 number of electron     256.0000000 magnetization 
 augmentation part      256.0000000 magnetization 

 Free energy of the ion-electron system (eV)
  ---------------------------------------------------
  alpha Z        PSCENC =       107.00508449
  Ewald energy   TEWEN  =     -7299.33766899
  -Hartree energ DENC   =      -354.93841849
  -exchange      EXHF   =         0.00000000
  -V(xc)+E(xc)   XCENC  =      -559.26310674
  PAW double counting   =      5598.62625415    -4492.17844134
  entropy T*S    EENTRO =         0.00739353
  eigenvalues    EBANDS =        62.30081615
  atomic energy  EATOM  =      6564.79586099
  Solvation  Ediel_sol  =         0.00000000
  ---------------------------------------------------
  free energy    TOTEN  =      -372.98222624 eV

  energy without entropy =     -372.98961977  energy(sigma->0) =     -372.98469075


--------------------------------------------------------------------------------------------------------




--------------------------------------- Iteration      1(   4)  ---------------------------------------


     EDDAV:  cpu time      0.7089: real time      0.7213
       DOS:  cpu time      0.0007: real time      0.0007
    --------------------------------------------
      LOOP:  cpu time      0.7096: real time      0.7220

 eigenvalue-minimisations  :  1552
 total energy-change (2. order) :-0.1682052E+01  (-0.1669962E+01)
 number of electron     256.0000000 magnetization 
 augmentation part      256.0000000 magnetization 

 Free energy of the ion-electron system (eV)
  ---------------------------------------------------
  alpha Z        PSCENC =       107.00508449
  Ewald energy   TEWEN  =     -7299.33766899
  -Hartree energ DENC   =      -354.93841849
  -exchange      EXHF   =         0.00000000
  -V(xc)+E(xc)   XCENC  =      -559.26310674
  PAW double counting   =      5598.62625415    -4492.17844134
  entropy T*S    EENTRO =         0.00851277
  eigenvalues    EBANDS =        60.61764537
  atomic energy  EATOM  =      6564.79586099
  Solvation  Ediel_sol  =         0.00000000
  ---------------------------------------------------
  free energy    TOTEN  =      -374.66427779 eV

  energy without entropy =     -374.67279055  energy(sigma->0) =     -374.66711538


--------------------------------------------------------------------------------------------------------




--------------------------------------- Iteration      1(   5)  ---------------------------------------


     EDDAV:  cpu time      0.6745: real time      0.6889
       DOS:  cpu time      0.0010: real time      0.0010
    CHARGE:  cpu time      0.2599: real time      0.2622
    MIXING:  cpu time      0.0109: real time      0.0144
    --------------------------------------------
      LOOP:  cpu time      0.9464: real time      0.9666

 eigenvalue-minimisations  :  1510
 total energy-change (2. order) :-0.5128223E-01  (-0.5117784E-01)
 number of electron     255.9999996 magnetization 
 augmentation part      -14.9586065 magnetization 

 Broyden mixing:
  rms(total) = 0.27920E+01    rms(broyden)= 0.27920E+01
  rms(prec ) = 0.30807E+01
  weight for this iteration     100.00

 Free energy of the ion-electron system (eV)
  ---------------------------------------------------
  alpha Z        PSCENC =       107.00508449
  Ewald energy   TEWEN  =     -7299.33766899
  -Hartree energ DENC   =      -354.93841849
  -exchange      EXHF   =         0.00000000
  -V(xc)+E(xc)   XCENC  =      -559.26310674
  PAW double counting   =      5598.62625415    -4492.17844134
  entropy T*S    EENTRO =         0.00852614
  eigenvalues    EBANDS =        60.56634976
  atomic energy  EATOM  =      6564.79586099
  Solvation  Ediel_sol  =         0.00000000
  ---------------------------------------------------
  free energy    TOTEN  =      -374.71556002 eV

  energy without entropy =     -374.72408616  energy(sigma->0) =     -374.71840207


--------------------------------------------------------------------------------------------------------




--------------------------------------- Iteration      1(   6)  ---------------------------------------


    POTLOK:  cpu time      0.0930: real time      0.0950
    SETDIJ:  cpu time      0.0738: real time      0.0739
    EDDIAG:  cpu time      0.0732: real time      0.0750
  RMM-DIIS:  cpu time      0.3713: real time      0.3741
    ORTHCH:  cpu time      0.0102: real time      0.0109
       DOS:  cpu time      0.0015: real time      0.0015
    CHARGE:  cpu time      0.2474: real time      0.2480
    MIXING:  cpu time      0.0066: real time      0.0088
    --------------------------------------------
      LOOP:  cpu time      0.8770: real time      0.8873

 eigenvalue-minimisations  :  1296
 total energy-change (2. order) : 0.4893361E+01  (-0.2410092E+00)
 number of electron     255.9999996 magnetization 
 augmentation part      -14.8025700 magnetization 

 Broyden mixing:
  rms(total) = 0.16784E+01    rms(broyden)= 0.16784E+01
  rms(prec ) = 0.18446E+01
  weight for this iteration     100.00

 eigenvalues of (default mixing * dielectric matrix)
  average eigenvalue GAMMA=   2.5023
  2.5023

 Free energy of the ion-electron system (eV)
  ---------------------------------------------------
  alpha Z        PSCENC =       107.00508449
  Ewald energy   TEWEN  =     -7299.33766899
  -Hartree energ DENC   =      -400.75552083
  -exchange      EXHF   =         0.00000000
  -V(xc)+E(xc)   XCENC  =      -552.02591430
  PAW double counting   =     12245.12852906   -11141.87321818
  entropy T*S    EENTRO =         0.00861412
  eigenvalues    EBANDS =       107.23203421
  atomic energy  EATOM  =      6564.79586099
  Solvation  Ediel_sol  =         0.00000000
  ---------------------------------------------------
  free energy    TOTEN  =      -369.82219944 eV

  energy without entropy =     -369.83081356  energy(sigma->0) =     -369.82507081


--------------------------------------------------------------------------------------------------------




--------------------------------------- Iteration      1(   7)  ---------------------------------------


    POTLOK:  cpu time      0.0779: real time      0.0938
    SETDIJ:  cpu time      0.0719: real time      0.0720
    EDDIAG:  cpu time      0.0665: real time      0.0667
  RMM-DIIS:  cpu time      0.3765: real time      0.3774
    ORTHCH:  cpu time      0.0112: real time      0.0112
       DOS:  cpu time      0.0011: real time      0.0011
    CHARGE:  cpu time      0.2454: real time      0.2460
    MIXING:  cpu time      0.0083: real time      0.0089
    --------------------------------------------
      LOOP:  cpu time      0.8587: real time      0.8770

 eigenvalue-minimisations  :  1322
 total energy-change (2. order) : 0.2251567E+01  (-0.6284101E+00)
 number of electron     255.9999996 magnetization 
 augmentation part      -14.5833248 magnetization 

 Broyden mixing:
  rms(total) = 0.93069E-01    rms(broyden)= 0.93068E-01
  rms(prec ) = 0.11732E+00
  weight for this iteration     100.00

 eigenvalues of (default mixing * dielectric matrix)
  average eigenvalue GAMMA=   2.2293
  2.2293  2.2293

 Free energy of the ion-electron system (eV)
  ---------------------------------------------------
  alpha Z        PSCENC =       107.00508449
  Ewald energy   TEWEN  =     -7299.33766899
  -Hartree energ DENC   =      -476.61913306
  -exchange      EXHF   =         0.00000000
  -V(xc)+E(xc)   XCENC  =      -539.48086433
  PAW double counting   =     28022.59841705   -26923.73667211
  entropy T*S    EENTRO =         0.02830968
  eigenvalues    EBANDS =       177.17603399
  atomic energy  EATOM  =      6564.79586099
  Solvation  Ediel_sol  =         0.00000000
  ---------------------------------------------------
  free energy    TOTEN  =      -367.57063229 eV

  energy without entropy =     -367.59894196  energy(sigma->0) =     -367.58006885


--------------------------------------------------------------------------------------------------------




--------------------------------------- Iteration      1(   8)  ---------------------------------------


    POTLOK:  cpu time      0.0823: real time      0.0975
    SETDIJ:  cpu time      0.0701: real time      0.0703
    EDDIAG:  cpu time      0.0680: real time      0.0682
  RMM-DIIS:  cpu time      0.3791: real time      0.3800
    ORTHCH:  cpu time      0.0104: real time      0.0104
       DOS:  cpu time      0.0014: real time      0.0014
    CHARGE:  cpu time      0.2450: real time      0.2455
    MIXING:  cpu time      0.0088: real time      0.0092
    --------------------------------------------
      LOOP:  cpu time      0.8651: real time      0.8825

 eigenvalue-minimisations  :  1310
 total energy-change (2. order) :-0.3806527E-01  (-0.5528951E-01)
 number of electron     255.9999996 magnetization 
 augmentation part      -14.6337206 magnetization 

 Broyden mixing:
  rms(total) = 0.48021E-01    rms(broyden)= 0.48021E-01
  rms(prec ) = 0.51597E-01
  weight for this iteration     100.00

 eigenvalues of (default mixing * dielectric matrix)
  average eigenvalue GAMMA=   2.0538
  2.5294  1.8160  1.8160

 Free energy of the ion-electron system (eV)
  ---------------------------------------------------
  alpha Z        PSCENC =       107.00508449
  Ewald energy   TEWEN  =     -7299.33766899
  -Hartree energ DENC   =      -469.75831221
  -exchange      EXHF   =         0.00000000
  -V(xc)+E(xc)   XCENC  =      -540.03882979
  PAW double counting   =     27632.45459108   -26532.75232682
  entropy T*S    EENTRO =         0.02554468
  eigenvalues    EBANDS =       169.99735900
  atomic energy  EATOM  =      6564.79586099
  Solvation  Ediel_sol  =         0.00000000
  ---------------------------------------------------
  free energy    TOTEN  =      -367.60869755 eV

  energy without entropy =     -367.63424223  energy(sigma->0) =     -367.61721245


--------------------------------------------------------------------------------------------------------




--------------------------------------- Iteration      1(   9)  ---------------------------------------


    POTLOK:  cpu time      0.0789: real time      0.0931
    SETDIJ:  cpu time      0.0734: real time      0.0736
    EDDIAG:  cpu time      0.0668: real time      0.0670
  RMM-DIIS:  cpu time      0.3837: real time      0.3846
    ORTHCH:  cpu time      0.0102: real time      0.0102
       DOS:  cpu time      0.0015: real time      0.0015
    CHARGE:  cpu time      0.2457: real time      0.2463
    MIXING:  cpu time      0.0114: real time      0.0115
    --------------------------------------------
      LOOP:  cpu time      0.8716: real time      0.8878

 eigenvalue-minimisations  :  1322
 total energy-change (2. order) :-0.1798256E-01  (-0.1651742E-01)
 number of electron     255.9999996 magnetization 
 augmentation part      -14.6247373 magnetization 

 Broyden mixing:
  rms(total) = 0.56427E-01    rms(broyden)= 0.56427E-01
  rms(prec ) = 0.62625E-01
  weight for this iteration     100.00

 eigenvalues of (default mixing * dielectric matrix)
  average eigenvalue GAMMA=   1.7795
  2.5211  2.1321  2.1321  0.3329

 Free energy of the ion-electron system (eV)
  ---------------------------------------------------
  alpha Z        PSCENC =       107.00508449
  Ewald energy   TEWEN  =     -7299.33766899
  -Hartree energ DENC   =      -472.27779143
  -exchange      EXHF   =         0.00000000
  -V(xc)+E(xc)   XCENC  =      -539.68807200
  PAW double counting   =     27937.78767516   -26838.27498190
  entropy T*S    EENTRO =         0.02610189
  eigenvalues    EBANDS =       172.33711166
  atomic energy  EATOM  =      6564.79586099
  Solvation  Ediel_sol  =         0.00000000
  ---------------------------------------------------
  free energy    TOTEN  =      -367.62668011 eV

  energy without entropy =     -367.65278200  energy(sigma->0) =     -367.63538074


--------------------------------------------------------------------------------------------------------




--------------------------------------- Iteration      1(  10)  ---------------------------------------


    POTLOK:  cpu time      0.0795: real time      0.0942
    SETDIJ:  cpu time      0.0732: real time      0.0734
    EDDIAG:  cpu time      0.0671: real time      0.0673
  RMM-DIIS:  cpu time      0.4040: real time      0.4049
    ORTHCH:  cpu time      0.0111: real time      0.0111
       DOS:  cpu time      0.0011: real time      0.0011
    CHARGE:  cpu time      0.2465: real time      0.2471
    MIXING:  cpu time      0.0076: real time      0.0076
    --------------------------------------------
      LOOP:  cpu time      0.8900: real time      0.9066

 eigenvalue-minimisations  :  1354
 total energy-change (2. order) :-0.2889567E-02  (-0.2895046E-02)
 number of electron     255.9999996 magnetization 
 augmentation part      -14.6313984 magnetization 

 Broyden mixing:
  rms(total) = 0.68222E-01    rms(broyden)= 0.68222E-01
  rms(prec ) = 0.73512E-01
  weight for this iteration     100.00

 eigenvalues of (default mixing * dielectric matrix)
  average eigenvalue GAMMA=   1.4770
  2.6191  2.0656  1.9174  0.6530  0.1300

 Free energy of the ion-electron system (eV)
  ---------------------------------------------------
  alpha Z        PSCENC =       107.00508449
  Ewald energy   TEWEN  =     -7299.33766899
  -Hartree energ DENC   =      -472.25818887
  -exchange      EXHF   =         0.00000000
  -V(xc)+E(xc)   XCENC  =      -539.69015783
  PAW double counting   =     27932.11631616   -26832.60291295
  entropy T*S    EENTRO =         0.02609359
  eigenvalues    EBANDS =       172.31600374
  atomic energy  EATOM  =      6564.79586099
  Solvation  Ediel_sol  =         0.00000000
  ---------------------------------------------------
  free energy    TOTEN  =      -367.62956968 eV

  energy without entropy =     -367.65566326  energy(sigma->0) =     -367.63826754


--------------------------------------------------------------------------------------------------------




--------------------------------------- Iteration      1(  11)  ---------------------------------------


    POTLOK:  cpu time      0.0835: real time      0.0991
    SETDIJ:  cpu time      0.0721: real time      0.0723
    EDDIAG:  cpu time      0.0659: real time      0.0660
  RMM-DIIS:  cpu time      0.3646: real time      0.3655
    ORTHCH:  cpu time      0.0108: real time      0.0108
       DOS:  cpu time      0.0010: real time      0.0010
    CHARGE:  cpu time      0.2455: real time      0.2461
    MIXING:  cpu time      0.0092: real time      0.0092
    --------------------------------------------
      LOOP:  cpu time      0.8525: real time      0.8700

 eigenvalue-minimisations  :  1296
 total energy-change (2. order) : 0.1497744E-02  (-0.9557718E-03)
 number of electron     255.9999996 magnetization 
 augmentation part      -14.6441200 magnetization 

 Broyden mixing:
  rms(total) = 0.81938E-01    rms(broyden)= 0.81938E-01
  rms(prec ) = 0.82664E-01
  weight for this iteration     100.00

 eigenvalues of (default mixing * dielectric matrix)
  average eigenvalue GAMMA=   1.2961
  2.5088  2.5088  1.4135  0.5653  0.5653  0.2149

 Free energy of the ion-electron system (eV)
  ---------------------------------------------------
  alpha Z        PSCENC =       107.00508449
  Ewald energy   TEWEN  =     -7299.33766899
  -Hartree energ DENC   =      -470.27449804
  -exchange      EXHF   =         0.00000000
  -V(xc)+E(xc)   XCENC  =      -539.80656962
  PAW double counting   =     27960.31798458   -26860.56985642
  entropy T*S    EENTRO =         0.02530303
  eigenvalues    EBANDS =       170.21628805
  atomic energy  EATOM  =      6564.79586099
  Solvation  Ediel_sol  =         0.00000000
  ---------------------------------------------------
  free energy    TOTEN  =      -367.62807193 eV

  energy without entropy =     -367.65337496  energy(sigma->0) =     -367.63650627


--------------------------------------------------------------------------------------------------------




--------------------------------------- Iteration      1(  12)  ---------------------------------------


    POTLOK:  cpu time      0.0829: real time      0.0981
    SETDIJ:  cpu time      0.0685: real time      0.0686
    EDDIAG:  cpu time      0.0675: real time      0.0677
  RMM-DIIS:  cpu time      0.3647: real time      0.3656
    ORTHCH:  cpu time      0.0108: real time      0.0108
       DOS:  cpu time      0.0009: real time      0.0009
    CHARGE:  cpu time      0.2444: real time      0.2450
    MIXING:  cpu time      0.0102: real time      0.0102
    --------------------------------------------
      LOOP:  cpu time      0.8499: real time      0.8670

 eigenvalue-minimisations  :  1304
 total energy-change (2. order) : 0.1159887E-03  (-0.1720855E-03)
 number of electron     255.9999996 magnetization 
 augmentation part      -14.6483094 magnetization 

 Broyden mixing:
  rms(total) = 0.98105E-01    rms(broyden)= 0.98105E-01
  rms(prec ) = 0.98765E-01
  weight for this iteration     100.00

 eigenvalues of (default mixing * dielectric matrix)
  average eigenvalue GAMMA=   1.1957
  2.5008  2.5008  1.4012  0.6587  0.5355  0.5355  0.2374

 Free energy of the ion-electron system (eV)
  ---------------------------------------------------
  alpha Z        PSCENC =       107.00508449
  Ewald energy   TEWEN  =     -7299.33766899
  -Hartree energ DENC   =      -469.91677077
  -exchange      EXHF   =         0.00000000
  -V(xc)+E(xc)   XCENC  =      -539.85200891
  PAW double counting   =     27930.89751377   -26831.14702736
  entropy T*S    EENTRO =         0.02525955
  eigenvalues    EBANDS =       169.90180128
  atomic energy  EATOM  =      6564.79586099
  Solvation  Ediel_sol  =         0.00000000
  ---------------------------------------------------
  free energy    TOTEN  =      -367.62795594 eV

  energy without entropy =     -367.65321549  energy(sigma->0) =     -367.63637579


--------------------------------------------------------------------------------------------------------




--------------------------------------- Iteration      1(  13)  ---------------------------------------


    POTLOK:  cpu time      0.0824: real time      0.0983
    SETDIJ:  cpu time      0.0727: real time      0.0729
    EDDIAG:  cpu time      0.0660: real time      0.0662
  RMM-DIIS:  cpu time      0.3870: real time      0.3879
    ORTHCH:  cpu time      0.0112: real time      0.0112
       DOS:  cpu time      0.0012: real time      0.0013
    CHARGE:  cpu time      0.2448: real time      0.2454
    MIXING:  cpu time      0.0104: real time      0.0104
    --------------------------------------------
      LOOP:  cpu time      0.8758: real time      0.8937

 eigenvalue-minimisations  :  1368
 total energy-change (2. order) :-0.1459015E-03  (-0.3305317E-04)
 number of electron     255.9999996 magnetization 
 augmentation part      -14.6485327 magnetization 

 Broyden mixing:
  rms(total) = 0.95638E-01    rms(broyden)= 0.95638E-01
  rms(prec ) = 0.96224E-01
  weight for this iteration     100.00

 eigenvalues of (default mixing * dielectric matrix)
  average eigenvalue GAMMA=   1.5163
  2.3729  2.3729  2.5916  1.8196  1.2265  0.7482  0.7482  0.2507

 Free energy of the ion-electron system (eV)
  ---------------------------------------------------
  alpha Z        PSCENC =       107.00508449
  Ewald energy   TEWEN  =     -7299.33766899
  -Hartree energ DENC   =      -469.99123601
  -exchange      EXHF   =         0.00000000
  -V(xc)+E(xc)   XCENC  =      -539.84487481
  PAW double counting   =     27928.40688235   -26828.65704594
  entropy T*S    EENTRO =         0.02525859
  eigenvalues    EBANDS =       169.96963748
  atomic energy  EATOM  =      6564.79586099
  Solvation  Ediel_sol  =         0.00000000
  ---------------------------------------------------
  free energy    TOTEN  =      -367.62810184 eV

  energy without entropy =     -367.65336043  energy(sigma->0) =     -367.63652137


--------------------------------------------------------------------------------------------------------




--------------------------------------- Iteration      1(  14)  ---------------------------------------


    POTLOK:  cpu time      0.0811: real time      0.0958
    SETDIJ:  cpu time      0.0705: real time      0.0708
    EDDIAG:  cpu time      0.0672: real time      0.0674
  RMM-DIIS:  cpu time      0.3601: real time      0.3611
    ORTHCH:  cpu time      0.0109: real time      0.0110
       DOS:  cpu time      0.0010: real time      0.0013
    CHARGE:  cpu time      0.2466: real time      0.2472
    MIXING:  cpu time      0.0086: real time      0.0086
    --------------------------------------------
      LOOP:  cpu time      0.8460: real time      0.8631

 eigenvalue-minimisations  :  1296
 total energy-change (2. order) : 0.1725203E-02  (-0.6768494E-04)
 number of electron     255.9999996 magnetization 
 augmentation part      -14.6506815 magnetization 

 Broyden mixing:
  rms(total) = 0.15065E+00    rms(broyden)= 0.15065E+00
  rms(prec ) = 0.15201E+00
  weight for this iteration     100.00

 eigenvalues of (default mixing * dielectric matrix)
  average eigenvalue GAMMA=   1.5485
  3.2910  2.3930  2.3930  1.4833  1.4833  1.0792  0.7814  0.7814  0.2511

 Free energy of the ion-electron system (eV)
  ---------------------------------------------------
  alpha Z        PSCENC =       107.00508449
  Ewald energy   TEWEN  =     -7299.33766899
  -Hartree energ DENC   =      -469.31306955
  -exchange      EXHF   =         0.00000000
  -V(xc)+E(xc)   XCENC  =      -539.89520630
  PAW double counting   =     28063.58276250   -26963.85110612
  entropy T*S    EENTRO =         0.02529452
  eigenvalues    EBANDS =       169.36167181
  atomic energy  EATOM  =      6564.79586099
  Solvation  Ediel_sol  =         0.00000000
  ---------------------------------------------------
  free energy    TOTEN  =      -367.62637664 eV

  energy without entropy =     -367.65167116  energy(sigma->0) =     -367.63480815


--------------------------------------------------------------------------------------------------------




--------------------------------------- Iteration      1(  15)  ---------------------------------------


    POTLOK:  cpu time      0.0848: real time      0.1010
    SETDIJ:  cpu time      0.0686: real time      0.0687
    EDDIAG:  cpu time      0.0665: real time      0.0666
  RMM-DIIS:  cpu time      0.3668: real time      0.3677
    ORTHCH:  cpu time      0.0109: real time      0.0109
       DOS:  cpu time      0.0010: real time      0.0010
    CHARGE:  cpu time      0.2441: real time      0.2451
    MIXING:  cpu time      0.0098: real time      0.0098
    --------------------------------------------
      LOOP:  cpu time      0.8526: real time      0.8710

 eigenvalue-minimisations  :  1299
 total energy-change (2. order) : 0.2205748E-03  (-0.1601608E-04)
 number of electron     255.9999996 magnetization 
 augmentation part      -14.6527694 magnetization 

 Broyden mixing:
  rms(total) = 0.16554E+00    rms(broyden)= 0.16554E+00
  rms(prec ) = 0.16700E+00
  weight for this iteration     100.00

 eigenvalues of (default mixing * dielectric matrix)
  average eigenvalue GAMMA=   1.4922
  3.1131  2.4920  2.4920  1.7569  1.7569  0.2511  0.9670  0.7103  0.7103  0.6727

 Free energy of the ion-electron system (eV)
  ---------------------------------------------------
  alpha Z        PSCENC =       107.00508449
  Ewald energy   TEWEN  =     -7299.33766899
  -Hartree energ DENC   =      -469.06415661
  -exchange      EXHF   =         0.00000000
  -V(xc)+E(xc)   XCENC  =      -539.91063811
  PAW double counting   =     28111.33377732   -27011.59188180
  entropy T*S    EENTRO =         0.02525358
  eigenvalues    EBANDS =       169.11821306
  atomic energy  EATOM  =      6564.79586099
  Solvation  Ediel_sol  =         0.00000000
  ---------------------------------------------------
  free energy    TOTEN  =      -367.62615607 eV

  energy without entropy =     -367.65140965  energy(sigma->0) =     -367.63457393


--------------------------------------------------------------------------------------------------------




--------------------------------------- Iteration      1(  16)  ---------------------------------------


    POTLOK:  cpu time      0.0879: real time      0.0988
    SETDIJ:  cpu time      0.0689: real time      0.0691
    EDDIAG:  cpu time      0.0658: real time      0.0660
  RMM-DIIS:  cpu time      0.3789: real time      0.3798
    ORTHCH:  cpu time      0.0109: real time      0.0109
       DOS:  cpu time      0.0010: real time      0.0010
    CHARGE:  cpu time      0.2433: real time      0.2439
    MIXING:  cpu time      0.0096: real time      0.0100
    --------------------------------------------
      LOOP:  cpu time      0.8662: real time      0.8794

 eigenvalue-minimisations  :  1338
 total energy-change (2. order) :-0.8764834E-04  (-0.2013056E-05)
 number of electron     255.9999996 magnetization 
 augmentation part      -14.6528733 magnetization 

 Broyden mixing:
  rms(total) = 0.16153E+00    rms(broyden)= 0.16153E+00
  rms(prec ) = 0.16297E+00
  weight for this iteration     100.00

 eigenvalues of (default mixing * dielectric matrix)
  average eigenvalue GAMMA=   1.7857
  4.6791  2.8627  2.6352  2.6352  2.1949  0.2511  1.1815  0.9553  0.7485  0.7485
  0.7502

 Free energy of the ion-electron system (eV)
  ---------------------------------------------------
  alpha Z        PSCENC =       107.00508449
  Ewald energy   TEWEN  =     -7299.33766899
  -Hartree energ DENC   =      -469.08076199
  -exchange      EXHF   =         0.00000000
  -V(xc)+E(xc)   XCENC  =      -539.91142308
  PAW double counting   =     28087.40833034   -26987.66698490
  entropy T*S    EENTRO =         0.02525156
  eigenvalues    EBANDS =       169.13606785
  atomic energy  EATOM  =      6564.79586099
  Solvation  Ediel_sol  =         0.00000000
  ---------------------------------------------------
  free energy    TOTEN  =      -367.62624371 eV

  energy without entropy =     -367.65149527  energy(sigma->0) =     -367.63466090


--------------------------------------------------------------------------------------------------------




--------------------------------------- Iteration      1(  17)  ---------------------------------------


    POTLOK:  cpu time      0.0816: real time      0.0981
    SETDIJ:  cpu time      0.0686: real time      0.0687
    EDDIAG:  cpu time      0.0661: real time      0.0663
  RMM-DIIS:  cpu time      0.3787: real time      0.3796
    ORTHCH:  cpu time      0.0108: real time      0.0108
       DOS:  cpu time      0.0010: real time      0.0010
    CHARGE:  cpu time      0.2453: real time      0.2459
    MIXING:  cpu time      0.0102: real time      0.0102
    --------------------------------------------
      LOOP:  cpu time      0.8623: real time      0.8807

 eigenvalue-minimisations  :  1350
 total energy-change (2. order) :-0.1066464E-02  (-0.1634073E-04)
 number of electron     255.9999996 magnetization 
 augmentation part      -14.6526415 magnetization 

 Broyden mixing:
  rms(total) = 0.10436E+00    rms(broyden)= 0.10436E+00
  rms(prec ) = 0.10558E+00
  weight for this iteration     100.00

 eigenvalues of (default mixing * dielectric matrix)
  average eigenvalue GAMMA=   2.3323
 12.9301  2.5960  2.5960  2.5157  0.2511  1.3852  1.3852  1.1351  0.7767  0.7767
  0.9075  0.7319

 Free energy of the ion-electron system (eV)
  ---------------------------------------------------
  alpha Z        PSCENC =       107.00508449
  Ewald energy   TEWEN  =     -7299.33766899
  -Hartree energ DENC   =      -469.09864717
  -exchange      EXHF   =         0.00000000
  -V(xc)+E(xc)   XCENC  =      -539.93813731
  PAW double counting   =     27774.08472512   -26674.34715466
  entropy T*S    EENTRO =         0.02517262
  eigenvalues    EBANDS =       169.18345471
  atomic energy  EATOM  =      6564.79586099
  Solvation  Ediel_sol  =         0.00000000
  ---------------------------------------------------
  free energy    TOTEN  =      -367.62731018 eV

  energy without entropy =     -367.65248280  energy(sigma->0) =     -367.63570105


--------------------------------------------------------------------------------------------------------




--------------------------------------- Iteration      1(  18)  ---------------------------------------


    POTLOK:  cpu time      0.0831: real time      0.1004
    SETDIJ:  cpu time      0.0684: real time      0.0686
    EDDIAG:  cpu time      0.0665: real time      0.0666
  RMM-DIIS:  cpu time      0.5086: real time      0.5098
    ORTHCH:  cpu time      0.0111: real time      0.0111
       DOS:  cpu time      0.0009: real time      0.0009
    CHARGE:  cpu time      0.2442: real time      0.2448
    MIXING:  cpu time      0.0106: real time      0.0106
    --------------------------------------------
      LOOP:  cpu time      0.9934: real time      1.0128

 eigenvalue-minimisations  :  1747
 total energy-change (2. order) :-0.1149069E-02  (-0.5783617E-04)
 number of electron     255.9999996 magnetization 
 augmentation part      -14.6498043 magnetization 

 Broyden mixing:
  rms(total) = 0.29294E-01    rms(broyden)= 0.29294E-01
  rms(prec ) = 0.29915E-01
  weight for this iteration     100.00

 eigenvalues of (default mixing * dielectric matrix)
  average eigenvalue GAMMA=   1.6824
  3.5283  2.4545  2.4545  2.8537  2.6458  2.2860  0.2511  1.1460  0.9907  0.9907
  0.7553  0.7553  0.7599

 Free energy of the ion-electron system (eV)
  ---------------------------------------------------
  alpha Z        PSCENC =       107.00508449
  Ewald energy   TEWEN  =     -7299.33766899
  -Hartree energ DENC   =      -469.59475681
  -exchange      EXHF   =         0.00000000
  -V(xc)+E(xc)   XCENC  =      -539.91374302
  PAW double counting   =     27474.88260393   -26375.16370862
  entropy T*S    EENTRO =         0.02511792
  eigenvalues    EBANDS =       169.67275085
  atomic energy  EATOM  =      6564.79586099
  Solvation  Ediel_sol  =         0.00000000
  ---------------------------------------------------
  free energy    TOTEN  =      -367.62845925 eV

  energy without entropy =     -367.65357716  energy(sigma->0) =     -367.63683189


--------------------------------------------------------------------------------------------------------




--------------------------------------- Iteration      1(  19)  ---------------------------------------


    POTLOK:  cpu time      0.0822: real time      0.0987
    SETDIJ:  cpu time      0.0683: real time      0.0685
    EDDIAG:  cpu time      0.0659: real time      0.0661
  RMM-DIIS:  cpu time      0.3766: real time      0.3775
    ORTHCH:  cpu time      0.0108: real time      0.0108
       DOS:  cpu time      0.0011: real time      0.0011
    CHARGE:  cpu time      0.2442: real time      0.2448
    MIXING:  cpu time      0.0097: real time      0.0097
    --------------------------------------------
      LOOP:  cpu time      0.8589: real time      0.8772

 eigenvalue-minimisations  :  1324
 total energy-change (2. order) :-0.1340425E-03  (-0.1753624E-04)
 number of electron     255.9999996 magnetization 
 augmentation part      -14.6480959 magnetization 

 Broyden mixing:
  rms(total) = 0.36561E-02    rms(broyden)= 0.36561E-02
  rms(prec ) = 0.39244E-02
  weight for this iteration     100.00

 eigenvalues of (default mixing * dielectric matrix)
  average eigenvalue GAMMA=   1.6962
  4.7465  2.2037  2.2037  2.9087  2.5888  2.2021  1.6701  0.2511  1.0649  0.7592
  0.7592  0.9047  0.7421  0.7421

 Free energy of the ion-electron system (eV)
  ---------------------------------------------------
  alpha Z        PSCENC =       107.00508449
  Ewald energy   TEWEN  =     -7299.33766899
  -Hartree energ DENC   =      -470.03803484
  -exchange      EXHF   =         0.00000000
  -V(xc)+E(xc)   XCENC  =      -539.87233948
  PAW double counting   =     27425.21057979   -26325.50516276
  entropy T*S    EENTRO =         0.02513981
  eigenvalues    EBANDS =       170.08794769
  atomic energy  EATOM  =      6564.79586099
  Solvation  Ediel_sol  =         0.00000000
  ---------------------------------------------------
  free energy    TOTEN  =      -367.62859329 eV

  energy without entropy =     -367.65373310  energy(sigma->0) =     -367.63697323


--------------------------------------------------------------------------------------------------------




--------------------------------------- Iteration      1(  20)  ---------------------------------------


    POTLOK:  cpu time      0.0892: real time      0.0979
    SETDIJ:  cpu time      0.0690: real time      0.0692
    EDDIAG:  cpu time      0.0659: real time      0.0660
  RMM-DIIS:  cpu time      0.3640: real time      0.3650
    ORTHCH:  cpu time      0.0112: real time      0.0112
       DOS:  cpu time      0.0011: real time      0.0011
    CHARGE:  cpu time      0.2440: real time      0.2446
    MIXING:  cpu time      0.0099: real time      0.0099
    --------------------------------------------
      LOOP:  cpu time      0.8542: real time      0.8648

 eigenvalue-minimisations  :  1300
 total energy-change (2. order) :-0.7585571E-05  (-0.4677431E-05)
 number of electron     255.9999996 magnetization 
 augmentation part      -14.6471601 magnetization 

 Broyden mixing:
  rms(total) = 0.33722E-03    rms(broyden)= 0.33722E-03
  rms(prec ) = 0.34814E-03
  weight for this iteration     100.00

 eigenvalues of (default mixing * dielectric matrix)
  average eigenvalue GAMMA=   1.7776
  6.5078  2.8770  2.6992  2.2039  2.2039  1.6441  1.6441  0.2511  1.6355  0.7489
  0.7489  0.8992  0.8992  0.9072  0.7934

 Free energy of the ion-electron system (eV)
  ---------------------------------------------------
  alpha Z        PSCENC =       107.00508449
  Ewald energy   TEWEN  =     -7299.33766899
  -Hartree energ DENC   =      -470.19383620
  -exchange      EXHF   =         0.00000000
  -V(xc)+E(xc)   XCENC  =      -539.85620676
  PAW double counting   =     27432.83890531   -26333.13802682
  entropy T*S    EENTRO =         0.02515992
  eigenvalues    EBANDS =       170.23212717
  atomic energy  EATOM  =      6564.79586099
  Solvation  Ediel_sol  =         0.00000000
  ---------------------------------------------------
  free energy    TOTEN  =      -367.62860088 eV

  energy without entropy =     -367.65376080  energy(sigma->0) =     -367.63698752


--------------------------------------------------------------------------------------------------------




--------------------------------------- Iteration      1(  21)  ---------------------------------------


    POTLOK:  cpu time      0.0790: real time      0.0939
    SETDIJ:  cpu time      0.0702: real time      0.0704
    EDDIAG:  cpu time      0.0670: real time      0.0672
  RMM-DIIS:  cpu time      0.3186: real time      0.3193
    ORTHCH:  cpu time      0.0103: real time      0.0103
       DOS:  cpu time      0.0017: real time      0.0017
    --------------------------------------------
      LOOP:  cpu time      0.5469: real time      0.5629

 eigenvalue-minimisations  :  1076
 total energy-change (2. order) :-0.4924277E-06  (-0.6653090E-06)
 number of electron     255.9999996 magnetization 
 augmentation part      -14.6471601 magnetization 

 Free energy of the ion-electron system (eV)
  ---------------------------------------------------
  alpha Z        PSCENC =       107.00508449
  Ewald energy   TEWEN  =     -7299.33766899
  -Hartree energ DENC   =      -470.21391386
  -exchange      EXHF   =         0.00000000
  -V(xc)+E(xc)   XCENC  =      -539.85343208
  PAW double counting   =     27437.90384740   -26338.20283828
  entropy T*S    EENTRO =         0.02516416
  eigenvalues    EBANDS =       170.24929479
  atomic energy  EATOM  =      6564.79586099
  Solvation  Ediel_sol  =         0.00000000
  ---------------------------------------------------
  free energy    TOTEN  =      -367.62860137 eV

  energy without entropy =     -367.65376553  energy(sigma->0) =     -367.63698942


--------------------------------------------------------------------------------------------------------




 average (electrostatic) potential at core
  the test charge radii are     0.9892
  (the norm of the test charge is              1.0000)
       1 -83.0950       2 -83.0950       3 -83.0950       4 -83.0950       5 -83.0950
       6 -83.0950       7 -83.0950       8 -83.0950       9 -83.0950      10 -83.0950
      11 -83.0950      12 -83.0950      13 -83.0950      14 -83.0950      15 -83.0950
      16 -83.0950      17 -83.0950      18 -83.0950      19 -83.0950      20 -83.0950
      21 -83.0950      22 -83.0950      23 -83.0950      24 -83.0950      25 -83.0950
      26 -83.0950      27 -83.0950      28 -83.0950      29 -83.0950      30 -83.0950
      31 -83.0950      32 -83.0950      33 -83.0950      34 -83.0950      35 -83.0950
      36 -83.0950      37 -83.0950      38 -83.0950      39 -83.0950      40 -83.0950
      41 -83.0950      42 -83.0950      43 -83.0950      44 -83.0950      45 -83.0950
      46 -83.0950      47 -83.0950      48 -83.0950      49 -83.0950      50 -83.0950
      51 -83.0950      52 -83.0950      53 -83.0950      54 -83.0950      55 -83.0950
      56 -83.0950      57 -83.0950      58 -83.0950      59 -83.0950      60 -83.0950
      61 -83.0950      62 -83.0950      63 -83.0950      64 -83.0950
 
 
 
 E-fermi :   6.1000     XC(G=0):  -9.5308     alpha+bet :-11.9124

 val. band max:        5.7358680798   @ k =   0.0000   0.0000   0.0000
 cond. band min:       6.2471865572   @ k =   0.5000   0.0000   0.0000
 fundamental gap:      0.5113184774
 Fermi energy:         6.0999798619

 k-point     1 :       0.0000    0.0000    0.0000
  band No.  band energies     occupation 
      1      -6.2168      2.00000
      2      -5.1358      2.00000
      3      -5.1358      2.00000
      4      -5.1358      2.00000
      5      -5.1358      2.00000
      6      -5.1358      2.00000
      7      -5.1358      2.00000
      8      -4.1731      2.00000
      9      -4.1731      2.00000
     10      -4.1731      2.00000
     11      -4.1731      2.00000
     12      -4.1731      2.00000
     13      -4.1731      2.00000
     14      -4.1731      2.00000
     15      -4.1731      2.00000
     16      -4.1731      2.00000
     17      -4.1731      2.00000
     18      -4.1731      2.00000
     19      -4.1731      2.00000
     20      -3.8810      2.00000
     21      -3.8810      2.00000
     22      -3.8810      2.00000
     23      -3.8810      2.00000
     24      -2.0761      2.00000
     25      -2.0761      2.00000
     26      -2.0761      2.00000
     27      -2.0761      2.00000
     28      -2.0761      2.00000
     29      -2.0761      2.00000
     30      -1.9085      2.00000
     31      -1.9085      2.00000
     32      -1.9085      2.00000
     33      -1.9085      2.00000
     34      -1.9085      2.00000
     35      -1.9085      2.00000
     36      -1.9085      2.00000
     37      -1.9085      2.00000
     38      -1.9085      2.00000
     39      -1.9085      2.00000
     40      -1.9085      2.00000
     41      -1.9085      2.00000
     42      -1.2537      2.00000
     43      -1.2537      2.00000
     44      -1.2537      2.00000
     45      -1.2537      2.00000
     46       0.2526      2.00000
     47       0.2526      2.00000
     48       0.2526      2.00000
     49       0.2526      2.00000
     50       0.2526      2.00000
     51       0.2526      2.00000
     52       0.2526      2.00000
     53       0.2526      2.00000
     54       0.2526      2.00000
     55       0.2526      2.00000
     56       0.2526      2.00000
     57       0.2526      2.00000
     58       1.8504      2.00000
     59       1.8504      2.00000
     60       1.8504      2.00000
     61       1.8504      2.00000
     62       1.8504      2.00000
     63       1.8504      2.00000
     64       1.8504      2.00000
     65       1.8504      2.00000
     66       1.8504      2.00000
     67       1.8504      2.00000
     68       1.8504      2.00000
     69       1.8504      2.00000
     70       1.9510      2.00000
     71       1.9510      2.00000
     72       1.9510      2.00000
     73       1.9510      2.00000
     74       1.9510      2.00000
     75       1.9510      2.00000
     76       1.9510      2.00000
     77       1.9510      2.00000
     78       1.9510      2.00000
     79       1.9510      2.00000
     80       1.9510      2.00000
     81       1.9510      2.00000
     82       2.2151      2.00000
     83       2.2151      2.00000
     84       2.2151      2.00000
     85       2.2151      2.00000
     86       2.2151      2.00000
     87       2.2151      2.00000
     88       2.8755      2.00000
     89       2.8755      2.00000
     90       2.8755      2.00000
     91       2.8755      2.00000
     92       2.8755      2.00000
     93       2.8755      2.00000
     94       3.8374      2.00000
     95       3.8374      2.00000
     96       3.8374      2.00000
     97       3.8374      2.00000
     98       3.8374      2.00000
     99       3.8374      2.00000
    100       3.8374      2.00000
    101       3.8374      2.00000
    102       3.8374      2.00000
    103       3.8374      2.00000
    104       3.8374      2.00000
    105       3.8374      2.00000
    106       4.4051      2.00000
    107       4.4051      2.00000
    108       4.4051      2.00000
    109       4.4051      2.00000
    110       4.4051      2.00000
    111       4.4051      2.00000
    112       4.4051      2.00000
    113       4.4051      2.00000
    114       4.4051      2.00000
    115       4.4051      2.00000
    116       4.4051      2.00000
    117       4.4051      2.00000
    118       4.5369      2.00000
    119       4.5369      2.00000
    120       4.5369      2.00000
    121       4.5369      2.00000
    122       4.5369      2.00000
    123       4.5369      2.00000
    124       4.5369      2.00000
    125       4.5369      2.00000
    126       5.7359      2.02731
    127       5.7359      2.02731
    128       5.7359      2.02731
    129       6.3347     -0.07005
    130       6.3347     -0.07005
    131       6.3347     -0.07005
    132       6.3347     -0.07005
    133       6.3347     -0.07005
    134       6.3347     -0.07005
    135       6.7737     -0.00002
    136       6.7737     -0.00002
    137       6.7737     -0.00002
    138       6.7737     -0.00002
    139       6.7737     -0.00002
    140       6.7737     -0.00002
    141       7.1810     -0.00000
    142       7.1810     -0.00000
    143       7.1810     -0.00000
    144       7.1810     -0.00000
    145       8.0968     -0.00000
    146       8.0968     -0.00000
    147       8.0968     -0.00000
    148       8.0968     -0.00000
    149       8.0968     -0.00000
    150       8.0968     -0.00000
    151       8.0969     -0.00000
    152       8.0970     -0.00000
    153       8.0971     -0.00000
    154       8.0972     -0.00000
    155       8.0976     -0.00000
    156       8.0983     -0.00000
    157       8.2501     -0.00000
    158       8.2505     -0.00000
    159       8.2521     -0.00000
    160       8.7714     -0.00000
    161       8.8124     -0.00000
    162       8.9374     -0.00000

 k-point     2 :       0.5000    0.0000    0.0000
  band No.  band energies     occupation 
      1      -5.9441      2.00000
      2      -5.9441      2.00000
      3      -4.8882      2.00000
      4      -4.8882      2.00000
      5      -4.8882      2.00000
      6      -4.8882      2.00000
      7      -4.8882      2.00000
      8      -4.8882      2.00000
      9      -4.8882      2.00000
     10      -4.8882      2.00000
     11      -4.0417      2.00000
     12      -4.0417      2.00000
     13      -4.0417      2.00000
     14      -4.0417      2.00000
     15      -4.0417      2.00000
     16      -4.0417      2.00000
     17      -4.0417      2.00000
     18      -4.0417      2.00000
[...]
  0.000   0.000   0.000   4.172   0.000   0.000   7.773   0.000
  0.000   0.000  -0.000   0.000   4.172  -0.000   0.000   7.773
  0.000   0.000   7.773   0.000  -0.000  14.491   0.000  -0.000
  0.000   0.000   0.000   7.773   0.000   0.000  14.491   0.000
  0.000   0.000  -0.000   0.000   7.773  -0.000   0.000  14.491
 total augmentation occupancy for first ion, spin component:           1
  6.237  -2.450   0.000   0.000   0.000   0.000   0.000   0.000
 -2.450   1.071   0.000   0.000   0.000   0.000   0.000   0.000
  0.000   0.000   3.070   0.000   0.000  -0.696  -0.000  -0.000
  0.000   0.000   0.000   3.070   0.000  -0.000  -0.696   0.000
  0.000   0.000   0.000   0.000   3.070   0.000   0.000  -0.696
  0.000   0.000  -0.696  -0.000   0.000   0.167  -0.000  -0.000
  0.000   0.000  -0.000  -0.696   0.000  -0.000   0.167   0.000
  0.000   0.000  -0.000   0.000  -0.696  -0.000   0.000   0.167


------------------------ aborting loop because EDIFF is reached ----------------------------------------


    CHARGE:  cpu time      0.2522: real time      0.2530
    FORLOC:  cpu time      0.0245: real time      0.0245
    FORNL :  cpu time      0.5985: real time      0.6000
    STRESS:  cpu time      1.8813: real time      1.8858
    FORCOR:  cpu time      0.0935: real time      0.0937
    FORHAR:  cpu time      0.0377: real time      0.0378
    MIXING:  cpu time      0.0065: real time      0.0065
    OFIELD:  cpu time      0.0001: real time      0.0001

  FORCE on cell =-STRESS in cart. coord.  units (eV):
  Direction    XX          YY          ZZ          XY          YZ          ZX
  --------------------------------------------------------------------------------------
  Alpha Z   111.57428   111.57428   111.57428
  Ewald   -2467.27835 -2467.27835 -2467.27835    -0.00000     0.00000     0.00000
  Hartree   151.58924   151.58924   151.58924    -0.00000    -0.00000    -0.00000
  E(xc)    -824.83708  -824.83708  -824.83708    -0.00000     0.00000     0.00000
  Local    -914.29539  -914.29539  -914.29539    -0.00000     0.00000     0.00000
  n-local  2503.74880  2514.79108  2502.68999    -0.00000     0.00001     0.00002
  augment  -368.99601  -368.99601  -368.99601    -0.00000     0.00000     0.00000
  Kinetic  1832.73307  1846.70482  1828.60701    -0.00003    -0.00001     0.00004
  Fock        0.00000     0.00000     0.00000     0.00000     0.00000     0.00000
  -------------------------------------------------------------------------------------
  Total      30.84828    30.84828    30.84828    -0.00000     0.00000    -0.00000
  in kB      39.99366    39.99366    39.99366    -0.00000     0.00000    -0.00000
  external pressure =       -0.01 kB  Pullay stress =       40.00 kB


 VOLUME and BASIS-vectors are now :
 -----------------------------------------------------------------------------
  energy-cutoff  :      400.00
  volume of cell :     1235.81
      direct lattice vectors                 reciprocal lattice vectors
    10.731245355 -0.000000000  0.000000000     0.093185830  0.000000000  0.000000000
    -0.000000000 10.731245355  0.000000000     0.000000000  0.093185830  0.000000000
     0.000000000  0.000000000 10.731245355     0.000000000  0.000000000  0.093185830

  length of vectors
    10.731245355 10.731245355 10.731245355     0.093185830  0.093185830  0.093185830


 FORCES acting on ions
    electron-ion (+dipol)            ewald-force                    non-local-force                 convergence-correction
 -----------------------------------------------------------------------------------------------
   -.596E-14 0.204E-14 0.467E-14   0.351E-13 -.888E-15 -.178E-14   0.233E-22 -.645E-22 -.434E-23   -.391E-12 0.344E-13 -.259E-13
   -.199E-14 -.164E-14 -.359E-13   0.342E-13 -.400E-14 -.311E-14   0.173E-22 0.387E-23 0.121E-22   -.403E-12 0.299E-13 0.121E-13
   -.132E-14 -.288E-13 -.312E-14   0.240E-13 -.355E-14 0.444E-15   -.333E-22 0.213E-22 -.697E-22   -.375E-12 -.274E-14 -.468E-13
   0.463E-14 -.224E-13 -.286E-13   0.240E-13 -.107E-13 0.977E-14   0.173E-22 -.179E-22 0.506E-23   -.409E-12 -.524E-14 0.337E-13
   -.238E-13 0.766E-13 0.373E-12   0.313E-13 -.444E-15 -.755E-14   0.140E-22 0.462E-22 -.265E-22   0.419E-12 0.309E-13 0.271E-14
   -.119E-13 0.470E-14 0.180E-12   0.373E-13 -.355E-14 -.933E-14   0.692E-22 -.169E-22 0.841E-23   0.430E-12 0.174E-13 -.156E-13
   -.166E-13 0.362E-12 -.191E-12   0.400E-13 0.400E-14 -.178E-14   -.782E-22 0.146E-22 0.388E-22   0.402E-12 0.101E-13 -.154E-13
   -.364E-13 -.426E-12 0.145E-12   0.391E-13 0.355E-14 0.355E-14   -.127E-22 -.187E-23 0.559E-24   0.440E-12 0.187E-13 -.141E-14
   -.861E-14 0.318E-13 -.451E-12   0.160E-13 0.666E-14 -.163E-13   0.549E-22 0.698E-22 0.684E-22   -.135E-12 -.224E-14 -.259E-13
   -.225E-13 -.640E-12 -.132E-12   0.195E-13 0.124E-13 -.152E-13   -.184E-22 -.414E-22 0.534E-22   -.125E-12 0.168E-13 -.186E-13
   -.252E-13 -.284E-12 -.468E-12   0.204E-13 -.178E-14 -.208E-13   0.692E-22 0.159E-22 0.122E-21   -.104E-12 0.355E-13 -.212E-13
   -.205E-13 0.485E-12 -.273E-13   0.249E-13 0.355E-14 -.196E-13   -.450E-22 -.263E-22 -.486E-23   -.954E-13 0.255E-13 -.390E-13
   -.556E-13 -.615E-12 -.534E-12   0.102E-13 0.844E-14 -.787E-14   0.580E-22 -.617E-22 -.313E-22   0.147E-12 0.935E-14 -.398E-13
   -.437E-13 -.630E-12 0.597E-12   0.124E-13 0.124E-13 -.677E-14   0.423E-23 -.449E-23 0.220E-23   0.136E-12 0.235E-13 -.456E-14
   -.516E-13 0.405E-12 -.538E-12   0.107E-13 0.533E-14 -.521E-14   -.276E-22 0.107E-22 0.450E-23   0.125E-12 0.385E-13 -.399E-13
   -.371E-13 0.390E-12 0.579E-12   0.888E-14 0.355E-14 -.410E-14   0.439E-22 -.203E-22 0.545E-22   0.115E-12 0.870E-14 -.986E-14
   0.265E-14 -.231E-13 -.216E-13   0.149E-13 0.444E-15 -.115E-13   -.117E-21 -.192E-23 -.364E-22   -.372E-12 0.189E-13 -.179E-13
   -.662E-15 -.175E-13 -.432E-13   0.289E-13 0.444E-15 -.577E-14   0.477E-22 0.211E-23 -.942E-23   -.391E-12 0.419E-13 -.187E-15
   0.795E-14 -.370E-13 -.214E-13   0.151E-13 0.733E-14 -.266E-14   0.677E-22 0.368E-22 -.173E-22   -.408E-12 0.302E-13 -.126E-13
   -.463E-14 -.403E-13 -.443E-13   0.133E-13 0.755E-14 -.355E-14   -.164E-22 -.279E-22 0.641E-22   -.411E-12 0.105E-13 0.308E-14
   -.258E-13 -.151E-12 0.351E-12   0.149E-13 0.355E-14 -.888E-15   -.214E-22 -.236E-22 -.521E-22   0.405E-12 0.123E-13 0.288E-14
   -.258E-13 -.140E-12 -.731E-13   0.164E-13 0.107E-13 -.178E-14   -.735E-22 0.421E-22 -.807E-22   0.412E-12 0.260E-13 -.138E-13
   -.225E-13 0.213E-12 -.407E-12   0.844E-14 0.666E-14 0.444E-14   -.319E-23 -.871E-22 0.362E-22   0.435E-12 0.270E-13 0.998E-14
   -.232E-13 -.583E-12 -.560E-13   0.107E-13 0.142E-13 -.355E-14   0.382E-22 -.694E-23 -.277E-22   0.440E-12 0.873E-14 -.277E-13
   -.126E-13 -.497E-12 0.122E-12   0.142E-13 0.804E-14 -.124E-13   -.268E-22 0.129E-22 -.210E-22   -.108E-12 0.292E-13 -.327E-13
   -.219E-13 -.476E-12 -.263E-12   0.711E-14 0.205E-14 -.888E-14   -.160E-22 -.618E-23 0.166E-22   -.137E-12 0.396E-13 -.194E-13
   -.166E-13 -.162E-12 -.617E-12   0.355E-14 -.729E-14 -.711E-14   0.241E-22 -.190E-22 -.572E-22   -.888E-13 0.992E-14 -.237E-13
   -.185E-13 -.104E-12 0.530E-12   0.711E-14 -.285E-14 -.711E-14   -.301E-22 0.104E-21 -.828E-23   -.131E-12 -.409E-14 -.391E-13
   -.470E-13 -.116E-11 -.481E-13   0.711E-14 0.493E-14 -.888E-14   -.106E-22 0.791E-23 0.460E-22   0.124E-12 0.195E-13 -.178E-13
   -.477E-13 0.178E-12 -.449E-12   0.142E-13 0.138E-14 -.195E-13   -.883E-22 -.336E-22 0.183E-22   0.157E-12 0.235E-13 -.413E-13
   -.424E-13 -.756E-13 0.130E-12   0.000E+00 -.729E-14 -.142E-13   0.111E-22 0.140E-22 0.664E-23   0.103E-12 0.145E-13 0.147E-14
   -.497E-13 -.118E-12 0.125E-11   0.142E-13 -.995E-14 -.178E-13   0.215E-22 -.137E-22 0.146E-22   0.147E-12 0.135E-13 -.659E-13
   -.993E-14 -.246E-14 0.101E-12   -.162E-13 -.799E-14 0.955E-14   -.351E-22 -.880E-22 -.504E-22   -.539E-12 0.476E-13 -.136E-13
   -.245E-13 -.446E-14 -.304E-12   -.164E-13 -.533E-14 0.866E-14   -.681E-22 0.138E-22 -.140E-22   -.564E-12 0.404E-13 0.386E-14
   -.219E-13 -.292E-13 -.314E-12   -.160E-13 -.266E-14 0.262E-13   -.211E-22 0.525E-22 -.491E-22   -.540E-12 -.130E-13 -.115E-13
   -.185E-13 -.228E-13 0.821E-13   -.142E-13 0.000E+00 0.115E-13   0.559E-22 -.363E-22 -.280E-22   -.572E-12 -.562E-14 0.750E-14
   -.338E-13 -.165E-13 0.757E-12   -.888E-14 -.888E-14 0.124E-13   -.396E-22 -.579E-22 0.775E-23   0.592E-12 0.117E-13 -.591E-14
   -.311E-13 -.476E-13 -.105E-11   -.533E-14 -.888E-14 0.115E-13   0.449E-22 -.241E-22 0.223E-23   0.624E-12 0.144E-13 -.118E-13
   -.391E-13 -.471E-12 -.875E-12   0.444E-15 -.977E-14 0.115E-13   -.174E-22 -.141E-22 -.330E-22   0.594E-12 0.158E-13 0.165E-13
   -.285E-13 -.216E-12 0.164E-12   0.355E-14 -.711E-14 0.107E-13   -.288E-22 -.189E-23 -.377E-22   0.629E-12 0.150E-13 -.373E-13
   -.179E-13 -.895E-13 0.845E-13   0.187E-14 -.666E-14 -.133E-14   -.350E-22 -.710E-22 0.280E-23   -.669E-12 0.346E-14 -.205E-13
   -.113E-13 -.120E-12 0.901E-13   -.110E-13 -.666E-14 0.222E-14   0.112E-23 -.433E-22 0.256E-22   -.683E-12 0.752E-14 -.435E-13
   -.132E-14 -.132E-12 0.106E-12   0.537E-15 -.977E-14 0.111E-13   -.644E-22 -.652E-22 0.107E-22   -.678E-12 0.399E-13 -.252E-13
   -.179E-13 -.102E-12 0.105E-12   -.524E-14 -.204E-13 0.111E-13   0.941E-23 0.851E-23 0.992E-22   -.705E-12 0.269E-13 -.295E-13
   0.166E-13 0.814E-12 0.393E-12   -.268E-13 -.355E-14 -.533E-14   0.555E-23 -.359E-22 0.107E-22   0.701E-12 0.199E-13 -.105E-13
   -.463E-13 -.760E-12 -.166E-13   -.248E-13 -.355E-14 0.178E-14   0.269E-22 -.227E-22 -.663E-23   0.715E-12 0.207E-13 -.550E-13
   -.695E-13 -.109E-11 0.375E-12   -.357E-13 -.355E-14 0.355E-14   -.421E-23 -.334E-22 0.164E-22   0.705E-12 0.159E-13 -.160E-13
   0.278E-13 0.323E-12 0.262E-13   -.201E-13 -.711E-14 0.355E-14   -.671E-22 -.251E-22 -.234E-22   0.725E-12 0.239E-13 -.389E-13
   -.179E-13 0.220E-12 -.103E-12   -.275E-13 -.311E-14 0.933E-14   0.230E-22 -.304E-22 -.340E-22   -.568E-12 0.235E-13 -.174E-13
   -.192E-13 -.216E-12 -.118E-12   -.302E-13 -.533E-14 0.107E-13   -.701E-22 -.143E-23 -.376E-22   -.551E-12 0.239E-13 -.434E-14
   -.179E-13 -.149E-12 -.134E-12   -.195E-13 -.844E-14 0.977E-14   -.320E-22 -.628E-22 -.129E-22   -.559E-12 0.150E-13 -.234E-13
   -.146E-13 0.158E-12 -.106E-12   -.195E-13 -.311E-14 0.151E-13   0.239E-22 0.248E-22 -.489E-22   -.534E-12 0.174E-13 0.433E-14
   -.278E-13 0.739E-12 0.286E-13   -.187E-13 0.133E-14 0.155E-13   -.493E-22 0.276E-22 -.608E-22   0.623E-12 0.897E-14 -.217E-13
   -.391E-13 -.942E-12 -.374E-12   -.187E-13 0.533E-14 0.173E-13   -.851E-23 0.310E-22 -.488E-23   0.607E-12 0.375E-13 0.171E-13
   -.199E-13 -.112E-11 0.106E-13   -.400E-14 -.888E-15 0.160E-13   0.440E-22 0.170E-22 0.334E-22   0.616E-12 0.336E-13 -.219E-13
   -.503E-13 0.842E-13 -.112E-12   -.355E-14 -.355E-14 0.142E-13   -.512E-22 -.262E-22 0.464E-22   0.588E-12 0.145E-13 0.137E-13
   -.205E-13 -.110E-12 0.116E-12   -.184E-13 0.106E-13 0.503E-14   -.171E-22 -.686E-22 0.362E-22   -.670E-12 0.350E-13 -.510E-13
   -.225E-13 -.118E-12 0.103E-12   -.194E-13 0.574E-14 0.376E-14   -.197E-22 0.113E-22 0.847E-23   -.690E-12 0.473E-13 -.876E-14
   -.132E-13 -.948E-13 0.107E-12   -.335E-13 -.267E-14 0.437E-14   0.172E-22 -.493E-22 0.178E-22   -.674E-12 -.122E-14 -.533E-13
   -.219E-13 -.106E-12 0.113E-12   -.300E-13 -.442E-14 -.882E-15   -.680E-22 0.286E-22 0.654E-22   -.698E-12 -.805E-14 0.606E-14
   -.265E-14 0.884E-13 -.351E-12   -.242E-13 -.951E-15 -.139E-14   0.149E-22 0.278E-22 0.503E-24   0.697E-12 0.967E-14 -.162E-13
   -.927E-14 0.408E-12 0.984E-12   -.385E-13 -.495E-14 -.307E-14   -.200E-22 0.873E-23 -.837E-23   0.714E-12 0.211E-13 -.357E-13
   -.278E-13 -.141E-12 0.151E-11   -.246E-13 -.665E-14 -.205E-14   -.204E-22 0.268E-22 -.702E-23   0.700E-12 0.281E-13 -.997E-14
   -.530E-14 -.429E-12 -.768E-12   -.393E-13 -.111E-13 -.157E-15   0.595E-22 -.634E-22 0.228E-22   0.729E-12 0.173E-13 -.374E-13
 -----------------------------------------------------------------------------------------------
   -.136E-11 -.777E-11 0.437E-12   0.143E-13 -.691E-13 0.154E-13   -.448E-21 -.615E-21 0.747E-22   0.102E-11 0.122E-11 -.110E-11
 
 
 POSITION                                       TOTAL-FORCE (eV/Angst)
 -----------------------------------------------------------------------------------
      0.00000     -0.00000      0.00000         0.000000      0.000000      0.000000
      0.00000     -0.00000      5.36562         0.000000      0.000000      0.000000
     -0.00000      5.36562      0.00000        -0.000000      0.000000     -0.000000
     -0.00000      5.36562      5.36562        -0.000000      0.000000      0.000000
      5.36562     -0.00000      0.00000         0.000000     -0.000000      0.000000
      5.36562     -0.00000      5.36562         0.000000     -0.000000     -0.000000
      5.36562      5.36562      0.00000        -0.000000     -0.000000      0.000000
      5.36562      5.36562      5.36562         0.000000     -0.000000     -0.000000
      4.02422      4.02422      1.34141        -0.000000     -0.000000     -0.000000
      4.02422      4.02422      6.70703         0.000000      0.000000      0.000000
      4.02422      9.38984      1.34141        -0.000000      0.000000     -0.000000
      4.02422      9.38984      6.70703         0.000000     -0.000000     -0.000000
      9.38984      4.02422      1.34141         0.000000      0.000000     -0.000000
      9.38984      4.02422      6.70703        -0.000000      0.000000      0.000000
      9.38984      9.38984      1.34141         0.000000     -0.000000      0.000000
      9.38984      9.38984      6.70703         0.000000     -0.000000      0.000000
     -0.00000      2.68281      2.68281        -0.000000     -0.000000     -0.000000
     -0.00000      2.68281      8.04843        -0.000000     -0.000000      0.000000
     -0.00000      8.04843      2.68281        -0.000000     -0.000000      0.000000
     -0.00000      8.04843      8.04843        -0.000000     -0.000000      0.000000
      5.36562      2.68281      2.68281         0.000000      0.000000     -0.000000
      5.36562      2.68281      8.04843         0.000000      0.000000      0.000000
      5.36562      8.04843      2.68281        -0.000000      0.000000     -0.000000
      5.36562      8.04843      8.04843         0.000000     -0.000000     -0.000000
      4.02422      1.34141      4.02422        -0.000000      0.000000     -0.000000
      4.02422      1.34141      9.38984        -0.000000      0.000000     -0.000000
      4.02422      6.70703      4.02422        -0.000000      0.000000      0.000000
      4.02422      6.70703      9.38984        -0.000000     -0.000000      0.000000
      9.38984      1.34141      4.02422         0.000000      0.000000     -0.000000
      9.38984      1.34141      9.38984         0.000000     -0.000000      0.000000
      9.38984      6.70703      4.02422        -0.000000     -0.000000     -0.000000
      9.38984      6.70703      9.38984        -0.000000      0.000000      0.000000
      2.68281     -0.00000      2.68281        -0.000000     -0.000000     -0.000000
      2.68281     -0.00000      8.04843         0.000000     -0.000000      0.000000
      2.68281      5.36562      2.68281        -0.000000     -0.000000      0.000000
      2.68281      5.36562      8.04843        -0.000000      0.000000      0.000000
      8.04843     -0.00000      2.68281         0.000000     -0.000000      0.000000
      8.04843     -0.00000      8.04843        -0.000000     -0.000000     -0.000000
      8.04843      5.36562      2.68281         0.000000      0.000000     -0.000000
      8.04843      5.36562      8.04843         0.000000     -0.000000     -0.000000
      1.34141      4.02422      4.02422         0.000000      0.000000     -0.000000
      1.34141      4.02422      9.38984        -0.000000      0.000000      0.000000
      1.34141      9.38984      4.02422        -0.000000      0.000000     -0.000000
      1.34141      9.38984      9.38984        -0.000000     -0.000000     -0.000000
      6.70703      4.02422      4.02422        -0.000000     -0.000000     -0.000000
      6.70703      4.02422      9.38984         0.000000      0.000000     -0.000000
      6.70703      9.38984      4.02422         0.000000      0.000000     -0.000000
      6.70703      9.38984      9.38984         0.000000      0.000000      0.000000
      2.68281      2.68281      0.00000         0.000000     -0.000000     -0.000000
      2.68281      2.68281      5.36562         0.000000     -0.000000      0.000000
      2.68281      8.04843      0.00000         0.000000     -0.000000      0.000000
      2.68281      8.04843      5.36562         0.000000     -0.000000     -0.000000
      8.04843      2.68281      0.00000         0.000000     -0.000000      0.000000
      8.04843      2.68281      5.36562         0.000000      0.000000     -0.000000
      8.04843      8.04843      0.00000         0.000000     -0.000000     -0.000000
      8.04843      8.04843      5.36562        -0.000000      0.000000     -0.000000
      1.34141      1.34141      1.34141        -0.000000     -0.000000     -0.000000
      1.34141      1.34141      6.70703        -0.000000      0.000000      0.000000
      1.34141      6.70703      1.34141        -0.000000      0.000000     -0.000000
      1.34141      6.70703      6.70703        -0.000000     -0.000000     -0.000000
      6.70703      1.34141      1.34141         0.000000      0.000000     -0.000000
      6.70703      1.34141      6.70703         0.000000     -0.000000      0.000000
      6.70703      6.70703      1.34141        -0.000000     -0.000000     -0.000000
      6.70703      6.70703      6.70703        -0.000000      0.000000     -0.000000
 -----------------------------------------------------------------------------------
    total drift:                               -0.000000     -0.000000     -0.000000


--------------------------------------------------------------------------------------------------------



  FREE ENERGIE OF THE ION-ELECTRON SYSTEM (eV)
  ---------------------------------------------------
  free  energy   TOTEN  =      -367.04039736 eV

  energy  without entropy=     -367.07166118  energy(sigma->0) =     -367.05081863
  enthalpy is  TOTEN    =      -336.18722804 eV   P V=       30.85316932

 d Force = 0.1400386E-59[ 0.142E-59, 0.138E-59]  d Energy = 0.5846242E+00-0.585E+00
 d Force =-0.2928810E-43[-0.313E-43,-0.273E-43]  d Ewald  =-0.9122605E+02 0.912E+02


--------------------------------------------------------------------------------------------------------


    POTLOK:  cpu time      0.1560: real time      0.1566


--------------------------------------------------------------------------------------------------------




--------------------------------------------------------------------------------------------------------


  
 reached required accuracy - stopping structural energy minimisation
     LOOP+:  cpu time     19.0580: real time     19.3825
    4ORBIT:  cpu time      0.0000: real time      0.0000

 total amount of memory used by VASP MPI-rank0    71935. kBytes
=======================================================================

   base      :      30000. kBytes
   nonlr-proj:       5058. kBytes
   fftplans  :      19172. kBytes
   grid      :       7278. kBytes
   one-center:         18. kBytes
   wavefun   :      10409. kBytes
 
  
  
 General timing and accounting informations for this job:
 ========================================================
  
                  Total CPU time used (sec):       58.537
                            User time (sec):       55.004
                          System time (sec):        3.533
                         Elapsed time (sec):       62.299
  
                   Maximum memory used (kb):      382728.
                   Average memory used (kb):          N/A
  
                          Minor page faults:        98274
                          Major page faults:            0
                 Voluntary context switches:         8915
