<?xml version="1.0" encoding="ISO-8859-1"?>
<modeling>
 <generator>
  <i name="program" type="string">vasp </i>
  <i name="version" type="string">6.4.3  </i>
  <i name="subversion" type="string">19Mar24 (build Oct 21 2024 22:36:34) complex                          parallel </i>
  <i name="platform" type="string">LinuxIFC </i>
  <i name="date" type="string">2024 11 01 </i>
  <i name="time" type="string">22:37:21 </i>
 </generator>
 <incar>
  <i type="string" name="SYSTEM">Si64</i>
  <i type="int" name="ISTART">     0</i>
  <i type="string" name="PREC">Accurate</i>
  <i type="string" name="ALGO">Fast</i>
  <i type="logical" name="ADDGRID"> T  </i>
  <i type="int" name="ICHARG">     2</i>
  <i type="int" name="NELM">    60</i>
  <i type="int" name="NELMIN">     8</i>
  <i type="int" name="IBRION">     2</i>
  <i name="EDIFF">      0.00000100</i>
  <i name="EDIFFG">     -0.01000000</i>
  <i type="int" name="NSW">    60</i>
  <i type="int" name="ISIF">     3</i>
  <i name="ENCUT">    400.00000000</i>
  <i type="string" name="LREAL">Auto</i>
  <i type="int" name="ISMEAR">     1</i>
  <i name="SIGMA">      0.20000000</i>
  <i name="PSTRESS">     40.00000000</i>
  <i type="logical" name="LWAVE"> F  </i>
  <i type="logical" name="LCHARG"> F  </i>
  <i type="logical" name="GGA_COMPAT"> F  </i>
  <i type="string" name="GGA">PS</i>
 </incar>
 <primitive_cell>
  <structure name="primitive_cell" >
   <crystal>
    <varray name="basis" >
     <v>       2.72046633      -2.72046633       0.00000000 </v>
     <v>       2.72046633       0.00000000       2.72046633 </v>
     <v>       0.00000000      -2.72046633       2.72046633 </v>
    </varray>
    <i name="volume">     40.26800000 </i>
    <varray name="rec_basis" >
     <v>       0.18379202      -0.18379202      -0.18379202 </v>
     <v>       0.18379202       0.18379202       0.18379202 </v>
     <v>      -0.18379202      -0.18379202       0.18379202 </v>
    </varray>
   </crystal>
   <varray name="positions" >
    <v>       0.00000000       0.00000000       0.00000000 </v>
    <v>       0.75000000       0.75000000       0.75000000 </v>
   </varray>
  </structure>
  <varray name="primitive_index" >
   <v type="int" >        1 </v>
   <v type="int" >       30 </v>
  </varray>
 </primitive_cell>
 <kpoints>
  <generation param="Gamma">
   <v type="int" name="divisions">       2        2        2 </v>
   <v name="usershift">      0.00000000       0.00000000       0.00000000 </v>
   <v name="genvec1">      0.50000000       0.00000000       0.00000000 </v>
   <v name="genvec2">      0.00000000       0.50000000       0.00000000 </v>
   <v name="genvec3">      0.00000000       0.00000000       0.50000000 </v>
   <v name="shift">      0.00000000       0.00000000       0.00000000 </v>
  </generation>
  <varray name="kpointlist" >
   <v>       0.00000000       0.00000000       0.00000000 </v>
   <v>       0.50000000       0.00000000       0.00000000 </v>
   <v>       0.50000000       0.50000000       0.00000000 </v>
   <v>       0.50000000       0.50000000       0.50000000 </v>
  </varray>
  <varray name="weights" >
   <v>       0.12500000 </v>
   <v>       0.37500000 </v>
   <v>       0.37500000 </v>
   <v>       0.12500000 </v>
  </varray>
 </kpoints>
 <parameters>
  <separator name="general" >
   <i type="string" name="SYSTEM">Si64</i>
   <i type="logical" name="LCOMPAT"> F  </i>
  </separator>
  <separator name="electronic" >
   <i type="string" name="PREC">accura</i>
   <i name="ENMAX">    400.00000000</i>
   <i name="ENAUG">    322.06900000</i>
   <i name="EDIFF">      0.00000100</i>
   <i type="int" name="IALGO">    68</i>
   <i type="int" name="IWAVPR">    11</i>
   <i type="int" name="NBANDS">   162</i>
   <i type="int" name="NBANDSLOW">    -1</i>
   <i type="int" name="NBANDSHIGH">    -1</i>
   <i name="NELECT">    256.00000000</i>
   <i type="int" name="TURBO">     0</i>
   <i type="int" name="IRESTART">     0</i>
   <i type="int" name="NREBOOT">     0</i>
   <i type="int" name="NMIN">     0</i>
   <i name="EREF">      0.00000000</i>
   <separator name="electronic smearing" >
    <i type="int" name="ISMEAR">     1</i>
    <i name="SIGMA">      0.20000000</i>
    <i name="KSPACING">      0.50000000</i>
    <i type="logical" name="KGAMMA"> T  </i>
    <i type="logical" name="KBLOWUP"> T  </i>
   </separator>
   <separator name="electronic projectors" >
    <i type="logical" name="LREAL"> T  </i>
    <v name="ROPT">     -0.00025000</v>
    <i type="int" name="LMAXPAW">  -100</i>
    <i type="int" name="LMAXMIX">     2</i>
    <i type="logical" name="NLSPLINE"> F  </i>
   </separator>
   <separator name="electronic startup" >
    <i type="int" name="ISTART">     0</i>
    <i type="int" name="ICHARG">     2</i>
    <i type="int" name="INIWAV">     1</i>
   </separator>
   <separator name="electronic spin" >
    <i type="int" name="ISPIN">     1</i>
    <i type="logical" name="LNONCOLLINEAR"> F  </i>
    <v name="MAGMOM">      1.00000000      1.00000000      1.00000000      1.00000000      1.00000000      1.00000000      1.00000000      1.00000000      1.00000000      1.00000000      1.00000000      1.00000000      1.00000000      1.00000000      1.00000000      1.00000000      1.00000000      1.00000000      1.00000000      1.00000000
      1.00000000      1.00000000      1.00000000      1.00000000      1.00000000      1.00000000      1.00000000      1.00000000      1.00000000      1.00000000      1.00000000      1.00000000      1.00000000      1.00000000      1.00000000      1.00000000      1.00000000      1.00000000      1.00000000      1.00000000
      1.00000000      1.00000000      1.00000000      1.00000000      1.00000000      1.00000000      1.00000000      1.00000000      1.00000000      1.00000000      1.00000000      1.00000000      1.00000000      1.00000000      1.00000000      1.00000000      1.00000000      1.00000000      1.00000000      1.00000000
      1.00000000      1.00000000      1.00000000      1.00000000</v>
    <i name="NUPDOWN">     -1.00000000</i>
    <i type="logical" name="LSORBIT"> F  </i>
    <v name="SAXIS">      0.00000000      0.00000000      1.00000000</v>
    <i type="logical" name="LSPIRAL"> F  </i>
    <v name="QSPIRAL">      0.00000000      0.00000000      0.00000000</v>
    <i type="logical" name="LZEROZ"> F  </i>
   </separator>
   <separator name="electronic exchange-correlation" >
    <i type="logical" name="LASPH"> F  </i>
   </separator>
   <separator name="electronic convergence" >
    <i type="int" name="NELM">    60</i>
    <i type="int" name="NELMDL">    -5</i>
    <i type="int" name="NELMIN">     8</i>
    <i name="ENINI">    400.00000000</i>
    <separator name="electronic convergence detail" >
     <i type="logical" name="LDIAG"> T  </i>
     <i type="logical" name="LSUBROT"> F  </i>
     <i name="WEIMIN">      0.00100000</i>
     <i name="EBREAK">      0.00000000</i>
     <i name="DEPER">      0.30000000</i>
     <i type="int" name="NRMM">     4</i>
     <i name="TIME">      0.40000000</i>
    </separator>
   </separator>
   <separator name="electronic mixer" >
    <i name="AMIX">      0.40000000</i>
    <i name="BMIX">      1.00000000</i>
    <i name="AMIN">      0.10000000</i>
    <i name="AMIX_MAG">      1.60000000</i>
    <i name="BMIX_MAG">      1.00000000</i>
    <separator name="electronic mixer details" >
     <i type="int" name="IMIX">     4</i>
     <i type="logical" name="MIXFIRST"> F  </i>
     <i type="int" name="MAXMIX">   -45</i>
     <i name="WC">    100.00000000</i>
     <i type="int" name="INIMIX">     1</i>
     <i type="int" name="MIXPRE">     1</i>
     <i type="int" name="MREMOVE">     5</i>
    </separator>
   </separator>
   <separator name="electronic dipolcorrection" >
    <i type="logical" name="LDIPOL"> F  </i>
    <i type="logical" name="LMONO"> F  </i>
    <i type="int" name="IDIPOL">     0</i>
    <i name="EPSILON">      1.00000000</i>
    <v name="DIPOL">   -100.00000000   -100.00000000   -100.00000000</v>
    <i name="EFIELD">      0.00000000</i>
    <i type="logical" name="LVACPOTAV"> F  </i>
   </separator>
  </separator>
  <separator name="grids" >
   <i type="int" name="NGX">    72</i>
   <i type="int" name="NGY">    72</i>
   <i type="int" name="NGZ">    72</i>
   <i type="int" name="NGXF">   144</i>
   <i type="int" name="NGYF">   144</i>
   <i type="int" name="NGZF">   144</i>
   <i type="logical" name="ADDGRID"> T  </i>
  </separator>
  <separator name="ionic" >
   <i type="int" name="NSW">    60</i>
   <i type="int" name="IBRION">     2</i>
   <i type="int" name="MDALGO">     0</i>
   <i type="int" name="ISIF">     3</i>
   <i name="PSTRESS">     40.00000000</i>
   <i name="EDIFFG">     -0.01000000</i>
   <i type="int" name="NFREE">     1</i>
   <i name="POTIM">      0.50000000</i>
   <i name="SMASS">     -3.00000000</i>
   <i name="SCALEE">      1.00000000</i>
  </separator>
  <separator name="ionic md" >
   <i name="TEBEG">      0.00010000</i>
   <i name="TEEND">      0.00010000</i>
   <i type="int" name="NBLOCK">     1</i>
   <i type="int" name="KBLOCK">    60</i>
   <i type="int" name="NPACO">   256</i>
   <i name="APACO">     10.00000000</i>
  </separator>
  <separator name="symmetry" >
   <i type="int" name="ISYM">     2</i>
   <i name="SYMPREC">      0.00001000</i>
  </separator>
  <separator name="dos" >
   <i type="int" name="LORBIT">     0</i>
   <v name="RWIGS">     -1.00000000</v>
   <i type="int" name="NEDOS">   301</i>
   <i name="EMIN">     10.00000000</i>
   <i name="EMAX">    -10.00000000</i>
   <i name="EFERMI">      0.00000000</i>
  </separator>
  <separator name="writing" >
   <i type="int" name="NWRITE">     2</i>
   <i type="logical" name="LWAVE"> F  </i>
   <i type="logical" name="LDOWNSAMPLE"> F  </i>
   <i type="logical" name="LCHARG"> F  </i>
   <i type="logical" name="LPARD"> F  </i>
   <i type="logical" name="LVTOT"> F  </i>
   <i type="logical" name="LVHAR"> F  </i>
   <i type="logical" name="LELF"> F  </i>
   <i type="logical" name="LOPTICS"> F  </i>
   <v name="STM">      0.00000000      0.00000000      0.00000000      0.00000000      0.00000000      0.00000000      0.00000000</v>
  </separator>
  <separator name="performance" >
   <i type="int" name="NPAR">     2</i>
   <i type="int" name="NSIM">     4</i>
   <i type="int" name="NBLK">    -1</i>
   <i type="logical" name="LPLANE"> T  </i>
   <i type="logical" name="LSCALAPACK"> T  </i>
   <i type="logical" name="LSCAAWARE"> F  </i>
   <i type="logical" name="LSCALU"> F  </i>
   <i type="logical" name="LASYNC"> F  </i>
   <i type="logical" name="LORBITALREAL"> F  </i>
  </separator>
  <separator name="miscellaneous" >
   <i type="int" name="IDIOT">     3</i>
   <i type="int" name="PHON_NSTRUCT">    -1</i>
   <i type="logical" name="LMUSIC"> F  </i>
   <v name="POMASS">     28.08500000</v>
   <v name="DARWINR">      0.00000000</v>
   <v name="DARWINV">      1.00000000</v>
   <i type="logical" name="LCORR"> T  </i>
  </separator>
  <i type="logical" name="GGA_COMPAT"> F  </i>
  <i type="logical" name="LBERRY"> F  </i>
  <i type="int" name="ICORELEVEL">     0</i>
  <i type="logical" name="LDAU"> F  </i>
  <i type="int" name="I_CONSTRAINED_M">     0</i>
  <separator name="electronic exchange-correlation" >
   <i type="string" name="GGA    ">PS</i>
   <i type="string" name="XC_C">1</i>
   <i type="int" name="VOSKOWN">     0</i>
   <i type="logical" name="LHFCALC"> F  </i>
   <i type="string" name="PRECFOCK"></i>
   <i type="logical" name="LSYMGRAD"> F  </i>
   <i type="logical" name="LHFONE"> F  </i>
   <i type="logical" name="LRHFCALC"> F  </i>
   <i type="logical" name="LTHOMAS"> F  </i>
   <i type="logical" name="LMODELHF"> F  </i>
   <i type="logical" name="LFOCKACE"> F  </i>
   <i name="ENCUT4O">     -1.00000000</i>
   <i type="int" name="EXXOEP">     0</i>
   <i type="int" name="FOURORBIT">     0</i>
   <i name="AEXX">      0.00000000</i>
   <i name="HFALPHA">      0.00000000</i>
   <i name="MCALPHA">      0.00000000</i>
   <i name="ALDAX">      1.00000000</i>
   <i name="AGGAX">      1.00000000</i>
   <i name="AMGGAX">      1.00000000</i>
   <i name="ALDAC">      1.00000000</i>
   <i name="AGGAC">      1.00000000</i>
   <i name="AMGGAC">      1.00000000</i>
   <i type="int" name="NKREDX">     1</i>
   <i type="int" name="NKREDY">     1</i>
   <i type="int" name="NKREDZ">     1</i>
   <i type="logical" name="SHIFTRED"> F  </i>
   <i type="logical" name="ODDONLY"> F  </i>
   <i type="logical" name="EVENONLY"> F  </i>
   <i type="int" name="LMAXFOCK">     0</i>
   <i type="int" name="NMAXFOCKAE">     0</i>
   <i type="logical" name="LFOCKAEDFT"> F  </i>
   <i name="HFSCREEN">      0.00000000</i>
   <i name="HFSCREENC">      0.00000000</i>
   <i type="int" name="NBANDSGWLOW">     0</i>
  </separator>
  <separator name="vdW DFT" >
   <i type="logical" name="LUSE_VDW"> F  </i>
   <i type="int" name="IVDW_NL">    -1</i>
   <i type="logical" name="LSPIN_VDW"> F  </i>
   <i name="ZAB_VDW">     -0.84910000</i>
   <i name="GAMMA_VDW">      1.39626340</i>
   <i name="ALPHA_VDW">      0.00000000</i>
   <i name="PARAM1">      0.12340000</i>
   <i name="PARAM2">      1.00000000</i>
   <i name="BPARAM">      6.30000000</i>
   <i name="CPARAM">      0.00930000</i>
  </separator>
  <separator name="model GW" >
   <i type="int" name="MODEL_GW">     0</i>
   <i name="MODEL_EPS0">     12.08040000</i>
   <i name="MODEL_ALPHA">      1.00000000</i>
  </separator>
  <separator name="linear response parameters" >
   <i type="logical" name="LEPSILON"> F  </i>
   <i type="logical" name="LRPA"> F  </i>
   <i type="logical" name="LNABLA"> F  </i>
   <i type="logical" name="LVEL"> F  </i>
   <i name="CSHIFT">      0.10000000</i>
   <i name="OMEGAMAX">     -1.00000000</i>
   <i name="DEG_THRESHOLD">      0.00200000</i>
   <i name="RTIME">     -0.10000000</i>
   <i name="WPLASMAI">      0.00000000</i>
   <v name="DFIELD">      0.00000000      0.00000000      0.00000000</v>
   <v name="WPLASMA">      0.00000000      0.00000000      0.00000000      0.00000000      0.00000000      0.00000000      0.00000000      0.00000000      0.00000000</v>
  </separator>
  <separator name="orbital magnetization" >
   <i type="logical" name="NUCIND"> F  </i>
   <v name="MAGPOS">      0.00000000      0.00000000      0.00000000</v>
   <i type="logical" name="LNICSALL"> T  </i>
   <i type="logical" name="ORBITALMAG"> F  </i>
   <i type="logical" name="LMAGBLOCH"> F  </i>
   <i type="logical" name="LCHIMAG"> F  </i>
   <i type="logical" name="LGAUGE"> T  </i>
   <i type="int" name="MAGATOM">     0</i>
   <v name="MAGDIPOL">      0.00000000      0.00000000      0.00000000</v>
   <v name="AVECCONST">      0.00000000      0.00000000      0.00000000</v>
  </separator>
  <separator name="response functions" >
   <i type="logical" name="LALL_IN_ONE"> F  </i>
   <i type="int" name="IALL_IN_ONE">    -1</i>
   <i type="int" name="NBANDS_WAVE">    -1</i>
   <i type="logical" name="LFINITE_TEMPERATURE"> F  </i>
   <i type="logical" name="LADDER"> F  </i>
   <i type="logical" name="LRPAFORCE"> F  </i>
   <i type="logical" name="LFXC"> F  </i>
   <i type="logical" name="LHARTREE"> T  </i>
   <i type="int" name="IBSE">     0</i>
   <v type="int" name="KPOINT">    -1     0     0     0</v>
   <i type="logical" name="LTCTC"> F  </i>
   <i type="logical" name="LTCTE"> F  </i>
   <i type="logical" name="LTETE"> F  </i>
   <i type="logical" name="LTRIPLET"> F  </i>
   <i type="logical" name="LFXCEPS"> F  </i>
   <i type="logical" name="LFXHEG"> F  </i>
   <i type="int" name="NATURALO">     2</i>
   <i type="logical" name="LHOLEGF"> F  </i>
   <i type="logical" name="L2ORDER"> F  </i>
   <i type="logical" name="LDMP1"> F  </i>
   <i type="logical" name="LMP2LT"> F  </i>
   <i type="logical" name="LSMP2LT"> F  </i>
   <i type="logical" name="LGWLF"> F  </i>
   <i name="ENCUTGW">     -1.60000002</i>
   <i name="ENCUTGWSOFT">     -1.60000002</i>
   <i name="ENCUTLF">     -1.00000000</i>
   <i type="logical" name="ESF_SPLINES"> F  </i>
   <i name="ESF_CONV">      0.01000000</i>
   <i type="int" name="ESF_NINTER">    15</i>
   <i type="int" name="LMAXMP2">    -1</i>
   <i name="SCISSOR">      0.00000000</i>
   <i type="int" name="NOMEGA">     0</i>
   <i type="int" name="NOMEGAR">     0</i>
   <i type="int" name="NBANDSGW">    -1</i>
   <i type="int" name="NBANDSO">    -1</i>
   <i type="int" name="NBANDSV">    -1</i>
   <i type="int" name="NELMGW">     1</i>
   <i type="int" name="NELMHF">     1</i>
   <i type="int" name="DIM">     3</i>
   <i type="int" name="IESPILON">     4</i>
   <i type="int" name="ANTIRES">     0</i>
   <i name="OMEGAMAX">    -30.00000000</i>
   <i name="OMEGAMIN">    -30.00000000</i>
   <i name="OMEGATL">   -200.00000000</i>
   <i type="int" name="OMEGAGRID">     0</i>
   <i name="CSHIFT">     -0.10000000</i>
   <i type="logical" name="LSELFENERGY"> F  </i>
   <i type="logical" name="LSPECTRAL"> F  </i>
   <i type="logical" name="LSPECTRALGW"> F  </i>
   <i type="logical" name="LSINGLES"> F  </i>
   <i type="logical" name="LFERMIGW"> F  </i>
   <i type="logical" name="ODDONLYGW"> F  </i>
   <i type="logical" name="EVENONLYGW"> F  </i>
   <i type="int" name="NKREDLFX">     1</i>
   <i type="int" name="NKREDLFY">     1</i>
   <i type="int" name="NKREDLFZ">     1</i>
   <i type="int" name="MAXMEM">  2800</i>
   <i type="int" name="TELESCOPE">     0</i>
   <i type="int" name="NTAUPAR">    -1</i>
   <i type="int" name="NOMEGAPAR">    -1</i>
   <i name="DAMP_NEWTON">      0.80000001</i>
   <i name="LAMBDA">      1.00000000</i>
  </separator>
  <separator name="External order field" >
   <i name="OFIELD_KAPPA">      0.00000000</i>
   <v name="OFIELD_K">      0.00000000      0.00000000      0.00000000</v>
   <i name="OFIELD_Q6_NEAR">      0.00000000</i>
   <i name="OFIELD_Q6_FAR">      0.00000000</i>
   <i name="OFIELD_A">      0.00000000</i>
  </separator>
  <separator name="optional k-points parameters" >
   <i type="int" name="KPOINTS_OPT_MODE">     1</i>
   <i type="logical" name="LKPOINTS_OPT"> F  </i>
  </separator>
 </parameters>
 <atominfo>
  <atoms>      64 </atoms>
  <types>       1 </types>
  <array name="atoms" >
   <dimension dim="1">ion</dimension>
   <field type="string">element</field>
   <field type="int">atomtype</field>
   <set>
    <rc><c>Si</c><c>   1</c></rc>
    <rc><c>Si</c><c>   1</c></rc>
    <rc><c>Si</c><c>   1</c></rc>
    <rc><c>Si</c><c>   1</c></rc>
    <rc><c>Si</c><c>   1</c></rc>
    <rc><c>Si</c><c>   1</c></rc>
    <rc><c>Si</c><c>   1</c></rc>
    <rc><c>Si</c><c>   1</c></rc>
    <rc><c>Si</c><c>   1</c></rc>
    <rc><c>Si</c><c>   1</c></rc>
    <rc><c>Si</c><c>   1</c></rc>
    <rc><c>Si</c><c>   1</c></rc>
    <rc><c>Si</c><c>   1</c></rc>
    <rc><c>Si</c><c>   1</c></rc>
    <rc><c>Si</c><c>   1</c></rc>
    <rc><c>Si</c><c>   1</c></rc>
    <rc><c>Si</c><c>   1</c></rc>
    <rc><c>Si</c><c>   1</c></rc>
    <rc><c>Si</c><c>   1</c></rc>
    <rc><c>Si</c><c>   1</c></rc>
    <rc><c>Si</c><c>   1</c></rc>
    <rc><c>Si</c><c>   1</c></rc>
    <rc><c>Si</c><c>   1</c></rc>
    <rc><c>Si</c><c>   1</c></rc>
    <rc><c>Si</c><c>   1</c></rc>
    <rc><c>Si</c><c>   1</c></rc>
    <rc><c>Si</c><c>   1</c></rc>
    <rc><c>Si</c><c>   1</c></rc>
    <rc><c>Si</c><c>   1</c></rc>
    <rc><c>Si</c><c>   1</c></rc>
    <rc><c>Si</c><c>   1</c></rc>
    <rc><c>Si</c><c>   1</c></rc>
    <rc><c>Si</c><c>   1</c></rc>
    <rc><c>Si</c><c>   1</c></rc>
    <rc><c>Si</c><c>   1</c></rc>
    <rc><c>Si</c><c>   1</c></rc>
    <rc><c>Si</c><c>   1</c></rc>
    <rc><c>Si</c><c>   1</c></rc>
    <rc><c>Si</c><c>   1</c></rc>
    <rc><c>Si</c><c>   1</c></rc>
    <rc><c>Si</c><c>   1</c></rc>
    <rc><c>Si</c><c>   1</c></rc>
    <rc><c>Si</c><c>   1</c></rc>
    <rc><c>Si</c><c>   1</c></rc>
    <rc><c>Si</c><c>   1</c></rc>
    <rc><c>Si</c><c>   1</c></rc>
    <rc><c>Si</c><c>   1</c></rc>
    <rc><c>Si</c><c>   1</c></rc>
    <rc><c>Si</c><c>   1</c></rc>
    <rc><c>Si</c><c>   1</c></rc>
    <rc><c>Si</c><c>   1</c></rc>
    <rc><c>Si</c><c>   1</c></rc>
    <rc><c>Si</c><c>   1</c></rc>
    <rc><c>Si</c><c>   1</c></rc>
    <rc><c>Si</c><c>   1</c></rc>
    <rc><c>Si</c><c>   1</c></rc>
    <rc><c>Si</c><c>   1</c></rc>
    <rc><c>Si</c><c>   1</c></rc>
    <rc><c>Si</c><c>   1</c></rc>
    <rc><c>Si</c><c>   1</c></rc>
    <rc><c>Si</c><c>   1</c></rc>
    <rc><c>Si</c><c>   1</c></rc>
    <rc><c>Si</c><c>   1</c></rc>
    <rc><c>Si</c><c>   1</c></rc>
   </set>
  </array>
  <array name="atomtypes" >
   <dimension dim="1">type</dimension>
   <field type="int">atomspertype</field>
   <field type="string">element</field>
   <field>mass</field>
   <field>valence</field>
   <field type="string">pseudopotential</field>
   <set>
    <rc><c>  64</c><c>Si</c><c>     28.08500000</c><c>      4.00000000</c><c>  PAW_PBE Si 05Jan2001                  </c></rc>
   </set>
  </array>
 </atominfo>
 <structure name="initialpos" >
  <crystal>
   <varray name="basis" >
    <v>      10.88186531       0.00000000       0.00000000 </v>
    <v>       0.00000000      10.88186531       0.00000000 </v>
    <v>       0.00000000       0.00000000      10.88186531 </v>
   </varray>
   <i name="volume">   1288.57600000 </i>
   <varray name="rec_basis" >
    <v>       0.09189601       0.00000000       0.00000000 </v>
    <v>       0.00000000       0.09189601       0.00000000 </v>
    <v>       0.00000000       0.00000000       0.09189601 </v>
   </varray>
  </crystal>
  <varray name="positions" >
   <v>       0.00000000       0.00000000       0.00000000 </v>
   <v>       0.00000000       0.00000000       0.50000000 </v>
   <v>       0.00000000       0.50000000       0.00000000 </v>
   <v>       0.00000000       0.50000000       0.50000000 </v>
   <v>       0.50000000       0.00000000       0.00000000 </v>
   <v>       0.50000000       0.00000000       0.50000000 </v>
   <v>       0.50000000       0.50000000       0.00000000 </v>
   <v>       0.50000000       0.50000000       0.50000000 </v>
   <v>       0.37500000       0.37500000       0.12500000 </v>
   <v>       0.37500000       0.37500000       0.62500000 </v>
   <v>       0.37500000       0.87500000       0.12500000 </v>
   <v>       0.37500000       0.87500000       0.62500000 </v>
   <v>       0.87500000       0.37500000       0.12500000 </v>
   <v>       0.87500000       0.37500000       0.62500000 </v>
   <v>       0.87500000       0.87500000       0.12500000 </v>
   <v>       0.87500000       0.87500000       0.62500000 </v>
   <v>       0.00000000       0.25000000       0.25000000 </v>
   <v>       0.00000000       0.25000000       0.75000000 </v>
   <v>       0.00000000       0.75000000       0.25000000 </v>
   <v>       0.00000000       0.75000000       0.75000000 </v>
   <v>       0.50000000       0.25000000       0.25000000 </v>
   <v>       0.50000000       0.25000000       0.75000000 </v>
   <v>       0.50000000       0.75000000       0.25000000 </v>
   <v>       0.50000000       0.75000000       0.75000000 </v>
   <v>       0.37500000       0.12500000       0.37500000 </v>
   <v>       0.37500000       0.12500000       0.87500000 </v>
   <v>       0.37500000       0.62500000       0.37500000 </v>
   <v>       0.37500000       0.62500000       0.87500000 </v>
   <v>       0.87500000       0.12500000       0.37500000 </v>
   <v>       0.87500000       0.12500000       0.87500000 </v>
   <v>       0.87500000       0.62500000       0.37500000 </v>
   <v>       0.87500000       0.62500000       0.87500000 </v>
   <v>       0.25000000       0.00000000       0.25000000 </v>
   <v>       0.25000000       0.00000000       0.75000000 </v>
   <v>       0.25000000       0.50000000       0.25000000 </v>
   <v>       0.25000000       0.50000000       0.75000000 </v>
   <v>       0.75000000       0.00000000       0.25000000 </v>
   <v>       0.75000000       0.00000000       0.75000000 </v>
   <v>       0.75000000       0.50000000       0.25000000 </v>
   <v>       0.75000000       0.50000000       0.75000000 </v>
   <v>       0.12500000       0.37500000       0.37500000 </v>
   <v>       0.12500000       0.37500000       0.87500000 </v>
   <v>       0.12500000       0.87500000       0.37500000 </v>
   <v>       0.12500000       0.87500000       0.87500000 </v>
   <v>       0.62500000       0.37500000       0.37500000 </v>
   <v>       0.62500000       0.37500000       0.87500000 </v>
   <v>       0.62500000       0.87500000       0.37500000 </v>
   <v>       0.62500000       0.87500000       0.87500000 </v>
   <v>       0.25000000       0.25000000       0.00000000 </v>
   <v>       0.25000000       0.25000000       0.50000000 </v>
   <v>       0.25000000       0.75000000       0.00000000 </v>
   <v>       0.25000000       0.75000000       0.50000000 </v>
   <v>       0.75000000       0.25000000       0.00000000 </v>
   <v>       0.75000000       0.25000000       0.50000000 </v>
   <v>       0.75000000       0.75000000       0.00000000 </v>
   <v>       0.75000000       0.75000000       0.50000000 </v>
   <v>       0.12500000       0.12500000       0.12500000 </v>
   <v>       0.12500000       0.12500000       0.62500000 </v>
   <v>       0.12500000       0.62500000       0.12500000 </v>
   <v>       0.12500000       0.62500000       0.62500000 </v>
   <v>       0.62500000       0.12500000       0.12500000 </v>
   <v>       0.62500000       0.12500000       0.62500000 </v>
   <v>       0.62500000       0.62500000       0.12500000 </v>
   <v>       0.62500000       0.62500000       0.62500000 </v>
  </varray>
 </structure>
 <calculation>
  <scstep>
   <time name="dav">    0.71    0.78</time>
   <time name="total">    0.90    0.98</time>
   <energy>
    <i name="alphaZ">    107.00508449 </i>
    <i name="ewald">  -7299.33766899 </i>
    <i name="hartreedc">   -354.93841849 </i>
    <i name="XCdc">   -559.26310674 </i>
    <i name="pawpsdc">   5598.62625415 </i>
    <i name="pawaedc">  -4492.17844134 </i>
    <i name="eentropy">     -0.01043342 </i>
    <i name="bandstr">    991.10557716 </i>
    <i name="atom">   6564.79586099 </i>
    <i name="e_fr_energy">    555.80470781 </i>
    <i name="e_wo_entrp">    555.81514123 </i>
    <i name="e_0_energy">    555.80818562 </i>
   </energy>
  </scstep>
  <scstep>
   <time name="dav">    0.70    0.71</time>
   <time name="total">    0.70    0.71</time>
   <energy>
    <i name="e_fr_energy">   -309.90672931 </i>
    <i name="e_wo_entrp">   -309.91137530 </i>
    <i name="e_0_energy">   -309.90827798 </i>
   </energy>
  </scstep>
  <scstep>
   <time name="dav">    0.71    0.72</time>
   <time name="total">    0.71    0.72</time>
   <energy>
    <i name="e_fr_energy">   -372.98222624 </i>
    <i name="e_wo_entrp">   -372.98961977 </i>
    <i name="e_0_energy">   -372.98469075 </i>
   </energy>
  </scstep>
  <scstep>
   <time name="dav">    0.71    0.72</time>
   <time name="total">    0.71    0.72</time>
   <energy>
    <i name="e_fr_energy">   -374.66427779 </i>
    <i name="e_wo_entrp">   -374.67279055 </i>
    <i name="e_0_energy">   -374.66711538 </i>
   </energy>
  </scstep>
  <scstep>
   <time name="dav">    0.67    0.69</time>
   <time name="total">    0.95    0.97</time>
   <energy>
    <i name="e_fr_energy">   -374.71556002 </i>
    <i name="e_wo_entrp">   -374.72408616 </i>
    <i name="e_0_energy">   -374.71840207 </i>
   </energy>
  </scstep>
  <scstep>
   <time name="diag">    0.07    0.08</time>
   <time name="diis">    0.37    0.37</time>
   <time name="orth">    0.01    0.01</time>
   <time name="total">    0.88    0.89</time>
   <energy>
    <i name="e_fr_energy">   -369.82219944 </i>
    <i name="e_wo_entrp">   -369.83081356 </i>
    <i name="e_0_energy">   -369.82507081 </i>
   </energy>
  </scstep>
  <scstep>
   <time name="diag">    0.07    0.07</time>
   <time name="diis">    0.38    0.38</time>
   <time name="orth">    0.01    0.01</time>
   <time name="total">    0.86    0.88</time>
   <energy>
    <i name="e_fr_energy">   -367.57063229 </i>
    <i name="e_wo_entrp">   -367.59894196 </i>
    <i name="e_0_energy">   -367.58006885 </i>
   </energy>
  </scstep>
  <scstep>
   <time name="diag">    0.07    0.07</time>
   <time name="diis">    0.38    0.38</time>
   <time name="orth">    0.01    0.01</time>
   <time name="total">    0.87    0.88</time>
   <energy>
    <i name="e_fr_energy">   -367.60869755 </i>
    <i name="e_wo_entrp">   -367.63424223 </i>
    <i name="e_0_energy">   -367.61721245 </i>
   </energy>
  </scstep>
  <scstep>
   <time name="diag">    0.07    0.07</time>
   <time name="diis">    0.38    0.38</time>
   <time name="orth">    0.01    0.01</time>
   <time name="total">    0.87    0.89</time>
   <energy>
    <i name="e_fr_energy">   -367.62668011 </i>
    <i name="e_wo_entrp">   -367.65278200 </i>
    <i name="e_0_energy">   -367.63538074 </i>
   </energy>
  </scstep>
  <scstep>
   <time name="diag">    0.07    0.07</time>
   <time name="diis">    0.40    0.40</time>
   <time name="orth">    0.01    0.01</time>
   <time name="total">    0.89    0.91</time>
   <energy>
    <i name="e_fr_energy">   -367.62956968 </i>
    <i name="e_wo_entrp">   -367.65566326 </i>
    <i name="e_0_energy">   -367.63826754 </i>
   </energy>
  </scstep>
  <scstep>
   <time name="diag">    0.07    0.07</time>
   <time name="diis">    0.36    0.37</time>
   <time name="orth">    0.01    0.01</time>
   <time name="total">    0.85    0.87</time>
   <energy>
    <i name="e_fr_energy">   -367.62807193 </i>
    <i name="e_wo_entrp">   -367.65337496 </i>
    <i name="e_0_energy">   -367.63650627 </i>
   </energy>
  </scstep>
  <scstep>
   <time name="diag">    0.07    0.07</time>
   <time name="diis">    0.36    0.37</time>
   <time name="orth">    0.01    0.01</time>
   <time name="total">    0.85    0.87</time>
   <energy>
    <i name="e_fr_energy">   -367.62795594 </i>
    <i name="e_wo_entrp">   -367.65321549 </i>
    <i name="e_0_energy">   -367.63637579 </i>
   </energy>
  </scstep>
  <scstep>
   <time name="diag">    0.07    0.07</time>
   <time name="diis">    0.39    0.39</time>
   <time name="orth">    0.01    0.01</time>
   <time name="total">    0.88    0.89</time>
   <energy>
    <i name="e_fr_energy">   -367.62810184 </i>
    <i name="e_wo_entrp">   -367.65336043 </i>
    <i name="e_0_energy">   -367.63652137 </i>
   </energy>
  </scstep>
  <scstep>
   <time name="diag">    0.07    0.07</time>
   <time name="diis">    0.36    0.36</time>
   <time name="orth">    0.01    0.01</time>
   <time name="total">    0.85    0.86</time>
   <energy>
    <i name="e_fr_energy">   -367.62637664 </i>
    <i name="e_wo_entrp">   -367.65167116 </i>
    <i name="e_0_energy">   -367.63480815 </i>
   </energy>
  </scstep>
  <scstep>
   <time name="diag">    0.07    0.07</time>
   <time name="diis">    0.37    0.37</time>
   <time name="orth">    0.01    0.01</time>
   <time name="total">    0.85    0.87</time>
   <energy>
    <i name="e_fr_energy">   -367.62615607 </i>
    <i name="e_wo_entrp">   -367.65140965 </i>
    <i name="e_0_energy">   -367.63457393 </i>
   </energy>
  </scstep>
  <scstep>
   <time name="diag">    0.07    0.07</time>
   <time name="diis">    0.38    0.38</time>
   <time name="orth">    0.01    0.01</time>
   <time name="total">    0.87    0.88</time>
   <energy>
    <i name="e_fr_energy">   -367.62624371 </i>
    <i name="e_wo_entrp">   -367.65149527 </i>
    <i name="e_0_energy">   -367.63466090 </i>
   </energy>
  </scstep>
  <scstep>
   <time name="diag">    0.07    0.07</time>
   <time name="diis">    0.38    0.38</time>
   <time name="orth">    0.01    0.01</time>
   <time name="total">    0.86    0.88</time>
   <energy>
    <i name="e_fr_energy">   -367.62731018 </i>
    <i name="e_wo_entrp">   -367.65248280 </i>
    <i name="e_0_energy">   -367.63570105 </i>
   </energy>
  </scstep>
  <scstep>
   <time name="diag">    0.07    0.07</time>
   <time name="diis">    0.51    0.51</time>
   <time name="orth">    0.01    0.01</time>
   <time name="total">    0.99    1.01</time>
   <energy>
    <i name="e_fr_energy">   -367.62845925 </i>
    <i name="e_wo_entrp">   -367.65357716 </i>
    <i name="e_0_energy">   -367.63683189 </i>
   </energy>
  </scstep>
  <scstep>
   <time name="diag">    0.07    0.07</time>
   <time name="diis">    0.38    0.38</time>
   <time name="orth">    0.01    0.01</time>
   <time name="total">    0.86    0.88</time>
   <energy>
    <i name="e_fr_energy">   -367.62859329 </i>
    <i name="e_wo_entrp">   -367.65373310 </i>
    <i name="e_0_energy">   -367.63697323 </i>
   </energy>
  </scstep>
  <scstep>
   <time name="diag">    0.07    0.07</time>
   <time name="diis">    0.36    0.36</time>
   <time name="orth">    0.01    0.01</time>
   <time name="total">    0.85    0.86</time>
   <energy>
    <i name="e_fr_energy">   -367.62860088 </i>
    <i name="e_wo_entrp">   -367.65376080 </i>
    <i name="e_0_energy">   -367.63698752 </i>
   </energy>
  </scstep>
  <scstep>
   <time name="diag">    0.07    0.07</time>
   <time name="diis">    0.32    0.32</time>
   <time name="orth">    0.01    0.01</time>
   <time name="total">    0.55    0.56</time>
   <energy>
    <i name="alphaZ">    107.00508449 </i>
    <i name="ewald">  -7299.33766899 </i>
    <i name="hartreedc">   -470.21391386 </i>
    <i name="XCdc">   -539.85343208 </i>
    <i name="pawpsdc">  27437.90384740 </i>
    <i name="pawaedc"> -26338.20283828 </i>
    <i name="eentropy">      0.02516416 </i>
    <i name="bandstr">    170.24929479 </i>
    <i name="atom">   6564.79586099 </i>
    <i name="e_fr_energy">   -367.62860137 </i>
    <i name="e_wo_entrp">   -367.65376553 </i>
    <i name="e_0_energy">   -367.63698942 </i>
   </energy>
  </scstep>
  <structure>
   <crystal>
    <varray name="basis" >
     <v>      10.88186531       0.00000000       0.00000000 </v>
     <v>       0.00000000      10.88186531       0.00000000 </v>
     <v>       0.00000000       0.00000000      10.88186531 </v>
    </varray>
    <i name="volume">   1288.57600000 </i>
    <varray name="rec_basis" >
     <v>       0.09189601       0.00000000       0.00000000 </v>
     <v>       0.00000000       0.09189601       0.00000000 </v>
     <v>       0.00000000       0.00000000       0.09189601 </v>
    </varray>
   </crystal>
   <varray name="positions" >
    <v>       0.00000000       0.00000000       0.00000000 </v>
    <v>       0.00000000       0.00000000       0.50000000 </v>
    <v>       0.00000000       0.50000000       0.00000000 </v>
    <v>       0.00000000       0.50000000       0.50000000 </v>
    <v>       0.50000000       0.00000000       0.00000000 </v>
    <v>       0.50000000       0.00000000       0.50000000 </v>
    <v>       0.50000000       0.50000000       0.00000000 </v>
    <v>       0.50000000       0.50000000       0.50000000 </v>
    <v>       0.37500000       0.37500000       0.12500000 </v>
    <v>       0.37500000       0.37500000       0.62500000 </v>
    <v>       0.37500000       0.87500000       0.12500000 </v>
    <v>       0.37500000       0.87500000       0.62500000 </v>
    <v>       0.87500000       0.37500000       0.12500000 </v>
    <v>       0.87500000       0.37500000       0.62500000 </v>
    <v>       0.87500000       0.87500000       0.12500000 </v>
    <v>       0.87500000       0.87500000       0.62500000 </v>
    <v>       0.00000000       0.25000000       0.25000000 </v>
    <v>       0.00000000       0.25000000       0.75000000 </v>
    <v>       0.00000000       0.75000000       0.25000000 </v>
    <v>       0.00000000       0.75000000       0.75000000 </v>
    <v>       0.50000000       0.25000000       0.25000000 </v>
    <v>       0.50000000       0.25000000       0.75000000 </v>
    <v>       0.50000000       0.75000000       0.25000000 </v>
    <v>       0.50000000       0.75000000       0.75000000 </v>
    <v>       0.37500000       0.12500000       0.37500000 </v>
    <v>       0.37500000       0.12500000       0.87500000 </v>
    <v>       0.37500000       0.62500000       0.37500000 </v>
    <v>       0.37500000       0.62500000       0.87500000 </v>
    <v>       0.87500000       0.12500000       0.37500000 </v>
    <v>       0.87500000       0.12500000       0.87500000 </v>
    <v>       0.87500000       0.62500000       0.37500000 </v>
    <v>       0.87500000       0.62500000       0.87500000 </v>
    <v>       0.25000000       0.00000000       0.25000000 </v>
    <v>       0.25000000       0.00000000       0.75000000 </v>
    <v>       0.25000000       0.50000000       0.25000000 </v>
    <v>       0.25000000       0.50000000       0.75000000 </v>
    <v>       0.75000000       0.00000000       0.25000000 </v>
    <v>       0.75000000       0.00000000       0.75000000 </v>
    <v>       0.75000000       0.50000000       0.25000000 </v>
    <v>       0.75000000       0.50000000       0.75000000 </v>
    <v>       0.12500000       0.37500000       0.37500000 </v>
    <v>       0.12500000       0.37500000       0.87500000 </v>
    <v>       0.12500000       0.87500000       0.37500000 </v>
    <v>       0.12500000       0.87500000       0.87500000 </v>
    <v>       0.62500000       0.37500000       0.37500000 </v>
    <v>       0.62500000       0.37500000       0.87500000 </v>
    <v>       0.62500000       0.87500000       0.37500000 </v>
    <v>       0.62500000       0.87500000       0.87500000 </v>
    <v>       0.25000000       0.25000000       0.00000000 </v>
    <v>       0.25000000       0.25000000       0.50000000 </v>
    <v>       0.25000000       0.75000000       0.00000000 </v>
    <v>       0.25000000       0.75000000       0.50000000 </v>
    <v>       0.75000000       0.25000000       0.00000000 </v>
    <v>       0.75000000       0.25000000       0.50000000 </v>
    <v>       0.75000000       0.75000000       0.00000000 </v>
    <v>       0.75000000       0.75000000       0.50000000 </v>
    <v>       0.12500000       0.12500000       0.12500000 </v>
    <v>       0.12500000       0.12500000       0.62500000 </v>
    <v>       0.12500000       0.62500000       0.12500000 </v>
    <v>       0.12500000       0.62500000       0.62500000 </v>
    <v>       0.62500000       0.12500000       0.12500000 </v>
    <v>       0.62500000       0.12500000       0.62500000 </v>
    <v>       0.62500000       0.62500000       0.12500000 </v>
    <v>       0.62500000       0.62500000       0.62500000 </v>
   </varray>
  </structure>
  <varray name="forces" >
   <v>       0.00000000      -0.00000000      -0.00000000 </v>
   <v>       0.00000000      -0.00000000       0.00000000 </v>
   <v>       0.00000000       0.00000000       0.00000000 </v>
   <v>       0.00000000      -0.00000000       0.00000000 </v>
   <v>       0.00000000      -0.00000000      -0.00000000 </v>
   <v>       0.00000000      -0.00000000       0.00000000 </v>
   <v>       0.00000000       0.00000000       0.00000000 </v>
   <v>       0.00000000       0.00000000      -0.00000000 </v>
   <v>      -0.00000000       0.00000000      -0.00000000 </v>
   <v>      -0.00000000       0.00000000       0.00000000 </v>
   <v>      -0.00000000       0.00000000       0.00000000 </v>
   <v>      -0.00000000       0.00000000      -0.00000000 </v>
   <v>      -0.00000000       0.00000000      -0.00000000 </v>
   <v>      -0.00000000       0.00000000       0.00000000 </v>
   <v>      -0.00000000       0.00000000      -0.00000000 </v>
   <v>      -0.00000000       0.00000000       0.00000000 </v>
   <v>       0.00000000      -0.00000000       0.00000000 </v>
   <v>       0.00000000      -0.00000000       0.00000000 </v>
   <v>       0.00000000      -0.00000000       0.00000000 </v>
   <v>       0.00000000      -0.00000000       0.00000000 </v>
   <v>       0.00000000      -0.00000000       0.00000000 </v>
   <v>       0.00000000      -0.00000000      -0.00000000 </v>
   <v>       0.00000000      -0.00000000       0.00000000 </v>
   <v>       0.00000000      -0.00000000       0.00000000 </v>
   <v>      -0.00000000      -0.00000000      -0.00000000 </v>
   <v>      -0.00000000       0.00000000      -0.00000000 </v>
   <v>      -0.00000000       0.00000000      -0.00000000 </v>
   <v>      -0.00000000       0.00000000      -0.00000000 </v>
   <v>      -0.00000000      -0.00000000      -0.00000000 </v>
   <v>      -0.00000000      -0.00000000      -0.00000000 </v>
   <v>      -0.00000000       0.00000000      -0.00000000 </v>
   <v>      -0.00000000       0.00000000      -0.00000000 </v>
   <v>       0.00000000      -0.00000000       0.00000000 </v>
   <v>       0.00000000      -0.00000000       0.00000000 </v>
   <v>       0.00000000      -0.00000000      -0.00000000 </v>
   <v>       0.00000000       0.00000000       0.00000000 </v>
   <v>       0.00000000      -0.00000000       0.00000000 </v>
   <v>       0.00000000      -0.00000000       0.00000000 </v>
   <v>       0.00000000       0.00000000       0.00000000 </v>
   <v>       0.00000000       0.00000000       0.00000000 </v>
   <v>      -0.00000000       0.00000000      -0.00000000 </v>
   <v>      -0.00000000       0.00000000      -0.00000000 </v>
   <v>      -0.00000000       0.00000000      -0.00000000 </v>
   <v>      -0.00000000       0.00000000       0.00000000 </v>
   <v>      -0.00000000       0.00000000       0.00000000 </v>
   <v>      -0.00000000       0.00000000      -0.00000000 </v>
   <v>      -0.00000000       0.00000000       0.00000000 </v>
   <v>      -0.00000000       0.00000000      -0.00000000 </v>
   <v>       0.00000000      -0.00000000       0.00000000 </v>
   <v>       0.00000000      -0.00000000      -0.00000000 </v>
   <v>       0.00000000      -0.00000000       0.00000000 </v>
   <v>       0.00000000      -0.00000000       0.00000000 </v>
   <v>       0.00000000      -0.00000000      -0.00000000 </v>
   <v>       0.00000000       0.00000000       0.00000000 </v>
   <v>       0.00000000      -0.00000000      -0.00000000 </v>
   <v>      -0.00000000      -0.00000000       0.00000000 </v>
   <v>      -0.00000000      -0.00000000      -0.00000000 </v>
   <v>      -0.00000000       0.00000000      -0.00000000 </v>
   <v>      -0.00000000       0.00000000      -0.00000000 </v>
   <v>      -0.00000000       0.00000000       0.00000000 </v>
   <v>      -0.00000000      -0.00000000       0.00000000 </v>
   <v>      -0.00000000      -0.00000000      -0.00000000 </v>
   <v>      -0.00000000       0.00000000      -0.00000000 </v>
   <v>      -0.00000000       0.00000000      -0.00000000 </v>
  </varray>
  <varray name="stress" >
   <v>      -2.63543697      -0.00000000       0.00000000 </v>
   <v>      -0.00000000      -2.63543697       0.00000000 </v>
   <v>       0.00000000       0.00000000      -2.63543697 </v>
  </varray>
  <energy>
   <i name="e_fr_energy">   -335.45798015 </i>
   <i name="e_wo_entrp">   -335.48314431 </i>
   <i name="e_0_energy">   -335.46636821 </i>
  </energy>
  <time name="totalsc">   20.69   21.15</time>
 </calculation>
 <calculation>
  <scstep>
   <time name="dav">    0.68    0.68</time>
   <time name="total">    1.10    1.11</time>
   <energy>
    <i name="alphaZ">    115.75074445 </i>
    <i name="ewald">  -7493.01463537 </i>
    <i name="hartreedc">   -482.68848973 </i>
    <i name="XCdc">   -528.54546953 </i>
    <i name="pawpsdc">  27435.40212001 </i>
    <i name="pawaedc"> -26335.70096334 </i>
    <i name="eentropy">      0.01189096 </i>
    <i name="bandstr">    357.53324729 </i>
    <i name="atom">   6564.79586099 </i>
    <i name="e_fr_energy">   -366.45569426 </i>
    <i name="e_wo_entrp">   -366.46758523 </i>
    <i name="e_0_energy">   -366.45965792 </i>
   </energy>
  </scstep>
  <scstep>
   <time name="diag">    0.07    0.07</time>
   <time name="diis">    0.37    0.37</time>
   <time name="orth">    0.01    0.01</time>
   <time name="total">    0.88    0.92</time>
   <energy>
    <i name="e_fr_energy">   -365.71736228 </i>
    <i name="e_wo_entrp">   -365.74216817 </i>
    <i name="e_0_energy">   -365.72563091 </i>
   </energy>
  </scstep>
  <scstep>
   <time name="diag">    0.07    0.07</time>
   <time name="diis">    0.38    0.38</time>
   <time name="orth">    0.01    0.01</time>
   <time name="total">    0.90    0.90</time>
   <energy>
    <i name="e_fr_energy">   -365.33210226 </i>
    <i name="e_wo_entrp">   -365.36536541 </i>
    <i name="e_0_energy">   -365.34318997 </i>
   </energy>
  </scstep>
  <scstep>
   <time name="diag">    0.07    0.07</time>
   <time name="diis">    0.37    0.37</time>
   <time name="orth">    0.01    0.01</time>
   <time name="total">    0.88    0.90</time>
   <energy>
    <i name="e_fr_energy">   -365.34178230 </i>
    <i name="e_wo_entrp">   -365.37493066 </i>
    <i name="e_0_energy">   -365.35283175 </i>
   </energy>
  </scstep>
  <scstep>
   <time name="diag">    0.07    0.07</time>
   <time name="diis">    0.38    0.39</time>
   <time name="orth">    0.01    0.01</time>
   <time name="total">    0.89    0.91</time>
   <energy>
    <i name="e_fr_energy">   -365.34363941 </i>
    <i name="e_wo_entrp">   -365.37682111 </i>
    <i name="e_0_energy">   -365.35469997 </i>
   </energy>
  </scstep>
  <scstep>
   <time name="diag">    0.07    0.07</time>
   <time name="diis">    0.37    0.37</time>
   <time name="orth">    0.01    0.01</time>
   <time name="total">    0.87    0.89</time>
   <energy>
    <i name="e_fr_energy">   -365.34413527 </i>
    <i name="e_wo_entrp">   -365.37739307 </i>
    <i name="e_0_energy">   -365.35522120 </i>
   </energy>
  </scstep>
  <scstep>
   <time name="diag">    0.07    0.07</time>
   <time name="diis">    0.37    0.37</time>
   <time name="orth">    0.01    0.01</time>
   <time name="total">    0.88    0.89</time>
   <energy>
    <i name="e_fr_energy">   -365.34285330 </i>
    <i name="e_wo_entrp">   -365.37599632 </i>
    <i name="e_0_energy">   -365.35390097 </i>
   </energy>
  </scstep>
  <scstep>
   <time name="diag">    0.07    0.07</time>
   <time name="diis">    0.37    0.37</time>
   <time name="orth">    0.01    0.01</time>
   <time name="total">    0.87    0.89</time>
   <energy>
    <i name="e_fr_energy">   -365.34275637 </i>
    <i name="e_wo_entrp">   -365.37588216 </i>
    <i name="e_0_energy">   -365.35379830 </i>
   </energy>
  </scstep>
  <scstep>
   <time name="diag">    0.07    0.07</time>
   <time name="diis">    0.37    0.37</time>
   <time name="orth">    0.01    0.01</time>
   <time name="total">    0.87    0.89</time>
   <energy>
    <i name="e_fr_energy">   -365.34261892 </i>
    <i name="e_wo_entrp">   -365.37571512 </i>
    <i name="e_0_energy">   -365.35365098 </i>
   </energy>
  </scstep>
  <scstep>
   <time name="diag">    0.07    0.07</time>
   <time name="diis">    0.37    0.37</time>
   <time name="orth">    0.01    0.01</time>
   <time name="total">    0.88    0.89</time>
   <energy>
    <i name="e_fr_energy">   -365.34253932 </i>
    <i name="e_wo_entrp">   -365.37558788 </i>
    <i name="e_0_energy">   -365.35355551 </i>
   </energy>
  </scstep>
  <scstep>
   <time name="diag">    0.07    0.07</time>
   <time name="diis">    0.38    0.38</time>
   <time name="orth">    0.01    0.01</time>
   <time name="total">    0.88    0.90</time>
   <energy>
    <i name="e_fr_energy">   -365.34254212 </i>
    <i name="e_wo_entrp">   -365.37558997 </i>
    <i name="e_0_energy">   -365.35355807 </i>
   </energy>
  </scstep>
  <scstep>
   <time name="diag">    0.07    0.07</time>
   <time name="diis">    0.29    0.29</time>
   <time name="orth">    0.01    0.01</time>
   <time name="total">    0.53    0.55</time>
   <energy>
    <i name="alphaZ">    115.75074445 </i>
    <i name="ewald">  -7493.01463537 </i>
    <i name="hartreedc">   -441.36297316 </i>
    <i name="XCdc">   -528.95620931 </i>
    <i name="pawpsdc">  32530.81396148 </i>
    <i name="pawaedc"> -31433.16860540 </i>
    <i name="eentropy">      0.03304797 </i>
    <i name="bandstr">    319.76626586 </i>
    <i name="atom">   6564.79586099 </i>
    <i name="e_fr_energy">   -365.34254249 </i>
    <i name="e_wo_entrp">   -365.37559046 </i>
    <i name="e_0_energy">   -365.35355848 </i>
   </energy>
  </scstep>
  <structure>
   <crystal>
    <varray name="basis" >
     <v>      10.60059445      -0.00000000       0.00000000 </v>
     <v>      -0.00000000      10.60059445       0.00000000 </v>
     <v>       0.00000000       0.00000000      10.60059445 </v>
    </varray>
    <i name="volume">   1191.21638844 </i>
    <varray name="rec_basis" >
     <v>       0.09433433       0.00000000       0.00000000 </v>
     <v>       0.00000000       0.09433433       0.00000000 </v>
     <v>       0.00000000       0.00000000       0.09433433 </v>
    </varray>
   </crystal>
   <varray name="positions" >
    <v>       0.00000000       1.00000000       1.00000000 </v>
    <v>       0.00000000       1.00000000       0.50000000 </v>
    <v>       0.00000000       0.50000000       0.00000000 </v>
    <v>       0.00000000       0.50000000       0.50000000 </v>
    <v>       0.50000000       1.00000000       1.00000000 </v>
    <v>       0.50000000       1.00000000       0.50000000 </v>
    <v>       0.50000000       0.50000000       0.00000000 </v>
    <v>       0.50000000       0.50000000       0.50000000 </v>
    <v>       0.37500000       0.37500000       0.12500000 </v>
    <v>       0.37500000       0.37500000       0.62500000 </v>
    <v>       0.37500000       0.87500000       0.12500000 </v>
    <v>       0.37500000       0.87500000       0.62500000 </v>
    <v>       0.87500000       0.37500000       0.12500000 </v>
    <v>       0.87500000       0.37500000       0.62500000 </v>
    <v>       0.87500000       0.87500000       0.12500000 </v>
    <v>       0.87500000       0.87500000       0.62500000 </v>
    <v>       0.00000000       0.25000000       0.25000000 </v>
    <v>       0.00000000       0.25000000       0.75000000 </v>
    <v>       0.00000000       0.75000000       0.25000000 </v>
    <v>       0.00000000       0.75000000       0.75000000 </v>
    <v>       0.50000000       0.25000000       0.25000000 </v>
    <v>       0.50000000       0.25000000       0.75000000 </v>
    <v>       0.50000000       0.75000000       0.25000000 </v>
    <v>       0.50000000       0.75000000       0.75000000 </v>
    <v>       0.37500000       0.12500000       0.37500000 </v>
    <v>       0.37500000       0.12500000       0.87500000 </v>
    <v>       0.37500000       0.62500000       0.37500000 </v>
    <v>       0.37500000       0.62500000       0.87500000 </v>
    <v>       0.87500000       0.12500000       0.37500000 </v>
    <v>       0.87500000       0.12500000       0.87500000 </v>
    <v>       0.87500000       0.62500000       0.37500000 </v>
    <v>       0.87500000       0.62500000       0.87500000 </v>
    <v>       0.25000000       1.00000000       0.25000000 </v>
    <v>       0.25000000       1.00000000       0.75000000 </v>
    <v>       0.25000000       0.50000000       0.25000000 </v>
    <v>       0.25000000       0.50000000       0.75000000 </v>
    <v>       0.75000000       1.00000000       0.25000000 </v>
    <v>       0.75000000       1.00000000       0.75000000 </v>
    <v>       0.75000000       0.50000000       0.25000000 </v>
    <v>       0.75000000       0.50000000       0.75000000 </v>
    <v>       0.12500000       0.37500000       0.37500000 </v>
    <v>       0.12500000       0.37500000       0.87500000 </v>
    <v>       0.12500000       0.87500000       0.37500000 </v>
    <v>       0.12500000       0.87500000       0.87500000 </v>
    <v>       0.62500000       0.37500000       0.37500000 </v>
    <v>       0.62500000       0.37500000       0.87500000 </v>
    <v>       0.62500000       0.87500000       0.37500000 </v>
    <v>       0.62500000       0.87500000       0.87500000 </v>
    <v>       0.25000000       0.25000000       0.00000000 </v>
    <v>       0.25000000       0.25000000       0.50000000 </v>
    <v>       0.25000000       0.75000000       0.00000000 </v>
    <v>       0.25000000       0.75000000       0.50000000 </v>
    <v>       0.75000000       0.25000000       1.00000000 </v>
    <v>       0.75000000       0.25000000       0.50000000 </v>
    <v>       0.75000000       0.75000000       1.00000000 </v>
    <v>       0.75000000       0.75000000       0.50000000 </v>
    <v>       0.12500000       0.12500000       0.12500000 </v>
    <v>       0.12500000       0.12500000       0.62500000 </v>
    <v>       0.12500000       0.62500000       0.12500000 </v>
    <v>       0.12500000       0.62500000       0.62500000 </v>
    <v>       0.62500000       0.12500000       0.12500000 </v>
    <v>       0.62500000       0.12500000       0.62500000 </v>
    <v>       0.62500000       0.62500000       0.12500000 </v>
    <v>       0.62500000       0.62500000       0.62500000 </v>
   </varray>
  </structure>
  <varray name="forces" >
   <v>      -0.00000000       0.00000000       0.00000000 </v>
   <v>       0.00000000       0.00000000      -0.00000000 </v>
   <v>      -0.00000000       0.00000000       0.00000000 </v>
   <v>       0.00000000       0.00000000       0.00000000 </v>
   <v>       0.00000000      -0.00000000       0.00000000 </v>
   <v>      -0.00000000       0.00000000       0.00000000 </v>
   <v>      -0.00000000       0.00000000       0.00000000 </v>
   <v>      -0.00000000       0.00000000       0.00000000 </v>
   <v>       0.00000000       0.00000000      -0.00000000 </v>
   <v>       0.00000000      -0.00000000      -0.00000000 </v>
   <v>      -0.00000000      -0.00000000       0.00000000 </v>
   <v>      -0.00000000      -0.00000000      -0.00000000 </v>
   <v>       0.00000000      -0.00000000      -0.00000000 </v>
   <v>       0.00000000      -0.00000000      -0.00000000 </v>
   <v>      -0.00000000       0.00000000      -0.00000000 </v>
   <v>       0.00000000      -0.00000000       0.00000000 </v>
   <v>      -0.00000000       0.00000000       0.00000000 </v>
   <v>      -0.00000000      -0.00000000       0.00000000 </v>
   <v>      -0.00000000       0.00000000      -0.00000000 </v>
   <v>      -0.00000000       0.00000000       0.00000000 </v>
   <v>      -0.00000000       0.00000000       0.00000000 </v>
   <v>      -0.00000000       0.00000000       0.00000000 </v>
   <v>       0.00000000       0.00000000       0.00000000 </v>
   <v>       0.00000000       0.00000000      -0.00000000 </v>
   <v>       0.00000000      -0.00000000      -0.00000000 </v>
   <v>       0.00000000      -0.00000000      -0.00000000 </v>
   <v>      -0.00000000      -0.00000000      -0.00000000 </v>
   <v>      -0.00000000      -0.00000000      -0.00000000 </v>
   <v>       0.00000000      -0.00000000       0.00000000 </v>
   <v>       0.00000000      -0.00000000      -0.00000000 </v>
   <v>      -0.00000000       0.00000000      -0.00000000 </v>
   <v>       0.00000000      -0.00000000      -0.00000000 </v>
   <v>      -0.00000000       0.00000000       0.00000000 </v>
   <v>       0.00000000      -0.00000000       0.00000000 </v>
   <v>      -0.00000000       0.00000000       0.00000000 </v>
   <v>       0.00000000       0.00000000       0.00000000 </v>
   <v>       0.00000000      -0.00000000      -0.00000000 </v>
   <v>      -0.00000000       0.00000000       0.00000000 </v>
   <v>       0.00000000      -0.00000000       0.00000000 </v>
   <v>      -0.00000000       0.00000000       0.00000000 </v>
   <v>       0.00000000      -0.00000000      -0.00000000 </v>
   <v>       0.00000000      -0.00000000      -0.00000000 </v>
   <v>      -0.00000000      -0.00000000      -0.00000000 </v>
   <v>       0.00000000      -0.00000000       0.00000000 </v>
   <v>       0.00000000      -0.00000000      -0.00000000 </v>
   <v>       0.00000000       0.00000000      -0.00000000 </v>
   <v>      -0.00000000      -0.00000000      -0.00000000 </v>
   <v>      -0.00000000      -0.00000000      -0.00000000 </v>
   <v>      -0.00000000      -0.00000000       0.00000000 </v>
   <v>      -0.00000000       0.00000000       0.00000000 </v>
   <v>      -0.00000000       0.00000000       0.00000000 </v>
   <v>      -0.00000000      -0.00000000      -0.00000000 </v>
   <v>      -0.00000000       0.00000000       0.00000000 </v>
   <v>      -0.00000000       0.00000000       0.00000000 </v>
   <v>       0.00000000       0.00000000       0.00000000 </v>
   <v>      -0.00000000       0.00000000       0.00000000 </v>
   <v>       0.00000000      -0.00000000      -0.00000000 </v>
   <v>      -0.00000000      -0.00000000      -0.00000000 </v>
   <v>       0.00000000      -0.00000000      -0.00000000 </v>
   <v>      -0.00000000      -0.00000000       0.00000000 </v>
   <v>       0.00000000      -0.00000000      -0.00000000 </v>
   <v>       0.00000000      -0.00000000      -0.00000000 </v>
   <v>      -0.00000000      -0.00000000      -0.00000000 </v>
   <v>       0.00000000      -0.00000000      -0.00000000 </v>
  </varray>
  <varray name="stress" >
   <v>      83.89215281      -0.00000000       0.00000000 </v>
   <v>      -0.00000000      83.89215281      -0.00000000 </v>
   <v>       0.00000000      -0.00000000      83.89215281 </v>
  </varray>
  <energy>
   <i name="e_fr_energy">   -335.60260382 </i>
   <i name="e_wo_entrp">   -335.63565179 </i>
   <i name="e_0_energy">   -335.61361981 </i>
  </energy>
  <time name="totalsc">   13.84   14.08</time>
 </calculation>
 <calculation>
  <scstep>
   <time name="dav">    0.62    0.62</time>
   <time name="total">    1.05    1.07</time>
   <energy>
    <i name="alphaZ">    111.57427640 </i>
    <i name="ewald">  -7401.78858371 </i>
    <i name="hartreedc">   -436.01995666 </i>
    <i name="XCdc">   -534.35423423 </i>
    <i name="pawpsdc">  32528.33937164 </i>
    <i name="pawaedc"> -31430.69453941 </i>
    <i name="eentropy">      0.02574906 </i>
    <i name="bandstr">    230.83928638 </i>
    <i name="atom">   6564.79586099 </i>
    <i name="e_fr_energy">   -367.28276954 </i>
    <i name="e_wo_entrp">   -367.30851860 </i>
    <i name="e_0_energy">   -367.29135256 </i>
   </energy>
  </scstep>
  <scstep>
   <time name="diag">    0.07    0.07</time>
   <time name="diis">    0.37    0.37</time>
   <time name="orth">    0.01    0.01</time>
   <time name="total">    0.88    0.88</time>
   <energy>
    <i name="e_fr_energy">   -367.12318206 </i>
    <i name="e_wo_entrp">   -367.15145067 </i>
    <i name="e_0_energy">   -367.13260493 </i>
   </energy>
  </scstep>
  <scstep>
   <time name="diag">    0.07    0.07</time>
   <time name="diis">    0.37    0.37</time>
   <time name="orth">    0.01    0.01</time>
   <time name="total">    0.87    0.89</time>
   <energy>
    <i name="e_fr_energy">   -367.03850220 </i>
    <i name="e_wo_entrp">   -367.07008116 </i>
    <i name="e_0_energy">   -367.04902852 </i>
   </energy>
  </scstep>
  <scstep>
   <time name="diag">    0.07    0.07</time>
   <time name="diis">    0.37    0.37</time>
   <time name="orth">    0.01    0.01</time>
   <time name="total">    0.88    0.89</time>
   <energy>
    <i name="e_fr_energy">   -367.04040606 </i>
    <i name="e_wo_entrp">   -367.07181668 </i>
    <i name="e_0_energy">   -367.05087627 </i>
   </energy>
  </scstep>
  <scstep>
   <time name="diag">    0.07    0.07</time>
   <time name="diis">    0.38    0.38</time>
   <time name="orth">    0.01    0.01</time>
   <time name="total">    0.87    0.89</time>
   <energy>
    <i name="e_fr_energy">   -367.04078320 </i>
    <i name="e_wo_entrp">   -367.07218889 </i>
    <i name="e_0_energy">   -367.05125177 </i>
   </energy>
  </scstep>
  <scstep>
   <time name="diag">    0.07    0.07</time>
   <time name="diis">    0.35    0.37</time>
   <time name="orth">    0.01    0.01</time>
   <time name="total">    0.83    0.88</time>
   <energy>
    <i name="e_fr_energy">   -367.04133660 </i>
    <i name="e_wo_entrp">   -367.07298120 </i>
    <i name="e_0_energy">   -367.05188480 </i>
   </energy>
  </scstep>
  <scstep>
   <time name="diag">    0.07    0.07</time>
   <time name="diis">    0.37    0.37</time>
   <time name="orth">    0.01    0.01</time>
   <time name="total">    0.87    0.88</time>
   <energy>
    <i name="e_fr_energy">   -367.04202188 </i>
    <i name="e_wo_entrp">   -367.07372895 </i>
    <i name="e_0_energy">   -367.05259090 </i>
   </energy>
  </scstep>
  <scstep>
   <time name="diag">    0.07    0.07</time>
   <time name="diis">    0.37    0.37</time>
   <time name="orth">    0.01    0.01</time>
   <time name="total">    0.87    0.89</time>
   <energy>
    <i name="e_fr_energy">   -367.04256400 </i>
    <i name="e_wo_entrp">   -367.07433545 </i>
    <i name="e_0_energy">   -367.05315448 </i>
   </energy>
  </scstep>
  <scstep>
   <time name="diag">    0.07    0.07</time>
   <time name="diis">    0.39    0.39</time>
   <time name="orth">    0.01    0.01</time>
   <time name="total">    0.89    0.90</time>
   <energy>
    <i name="e_fr_energy">   -367.04258810 </i>
    <i name="e_wo_entrp">   -367.07436149 </i>
    <i name="e_0_energy">   -367.05317923 </i>
   </energy>
  </scstep>
  <scstep>
   <time name="diag">    0.07    0.07</time>
   <time name="diis">    0.37    0.37</time>
   <time name="orth">    0.01    0.01</time>
   <time name="total">    0.86    0.88</time>
   <energy>
    <i name="e_fr_energy">   -367.04231461 </i>
    <i name="e_wo_entrp">   -367.07405802 </i>
    <i name="e_0_energy">   -367.05289575 </i>
   </energy>
  </scstep>
  <scstep>
   <time name="diag">    0.07    0.07</time>
   <time name="diis">    0.60    0.60</time>
   <time name="orth">    0.01    0.01</time>
   <time name="total">    1.10    1.12</time>
   <energy>
    <i name="e_fr_energy">   -367.04087055 </i>
    <i name="e_wo_entrp">   -367.07239546 </i>
    <i name="e_0_energy">   -367.05137885 </i>
   </energy>
  </scstep>
  <scstep>
   <time name="diag">    0.07    0.07</time>
   <time name="diis">    0.41    0.41</time>
   <time name="orth">    0.01    0.01</time>
   <time name="total">    0.91    0.92</time>
   <energy>
    <i name="e_fr_energy">   -367.04064247 </i>
    <i name="e_wo_entrp">   -367.07210902 </i>
    <i name="e_0_energy">   -367.05113132 </i>
   </energy>
  </scstep>
  <scstep>
   <time name="diag">    0.07    0.07</time>
   <time name="diis">    0.37    0.37</time>
   <time name="orth">    0.01    0.01</time>
   <time name="total">    0.87    0.88</time>
   <energy>
    <i name="e_fr_energy">   -367.04054300 </i>
    <i name="e_wo_entrp">   -367.07197182 </i>
    <i name="e_0_energy">   -367.05101927 </i>
   </energy>
  </scstep>
  <scstep>
   <time name="diag">    0.07    0.07</time>
   <time name="diis">    0.37    0.37</time>
   <time name="orth">    0.01    0.01</time>
   <time name="total">    0.88    0.88</time>
   <energy>
    <i name="e_fr_energy">   -367.04048649 </i>
    <i name="e_wo_entrp">   -367.07188065 </i>
    <i name="e_0_energy">   -367.05095121 </i>
   </energy>
  </scstep>
  <scstep>
   <time name="diag">    0.07    0.07</time>
   <time name="diis">    0.38    0.38</time>
   <time name="orth">    0.01    0.01</time>
   <time name="total">    0.87    0.89</time>
   <energy>
    <i name="e_fr_energy">   -367.04044232 </i>
    <i name="e_wo_entrp">   -367.07179811 </i>
    <i name="e_0_energy">   -367.05089425 </i>
   </energy>
  </scstep>
  <scstep>
   <time name="diag">    0.08    0.08</time>
   <time name="diis">    0.40    0.40</time>
   <time name="orth">    0.01    0.01</time>
   <time name="total">    0.91    0.94</time>
   <energy>
    <i name="e_fr_energy">   -367.04040788 </i>
    <i name="e_wo_entrp">   -367.07171840 </i>
    <i name="e_0_energy">   -367.05084472 </i>
   </energy>
  </scstep>
  <scstep>
   <time name="diag">    0.07    0.07</time>
   <time name="diis">    0.37    0.37</time>
   <time name="orth">    0.01    0.01</time>
   <time name="total">    0.86    0.88</time>
   <energy>
    <i name="e_fr_energy">   -367.04039732 </i>
    <i name="e_wo_entrp">   -367.07167517 </i>
    <i name="e_0_energy">   -367.05082327 </i>
   </energy>
  </scstep>
  <scstep>
   <time name="diag">    0.07    0.07</time>
   <time name="diis">    0.38    0.38</time>
   <time name="orth">    0.01    0.01</time>
   <time name="total">    0.61    0.63</time>
   <energy>
    <i name="alphaZ">    111.57427640 </i>
    <i name="ewald">  -7401.78858371 </i>
    <i name="hartreedc">   -454.78221824 </i>
    <i name="XCdc">   -534.08278338 </i>
    <i name="pawpsdc">  30061.23715913 </i>
    <i name="pawaedc"> -28962.58890197 </i>
    <i name="eentropy">      0.03126382 </i>
    <i name="bandstr">    248.56352960 </i>
    <i name="atom">   6564.79586099 </i>
    <i name="e_fr_energy">   -367.04039736 </i>
    <i name="e_wo_entrp">   -367.07166118 </i>
    <i name="e_0_energy">   -367.05081863 </i>
   </energy>
  </scstep>
  <structure>
   <crystal>
    <varray name="basis" >
     <v>      10.73124535      -0.00000000       0.00000000 </v>
     <v>      -0.00000000      10.73124535       0.00000000 </v>
     <v>       0.00000000       0.00000000      10.73124535 </v>
    </varray>
    <i name="volume">   1235.80621091 </i>
    <varray name="rec_basis" >
     <v>       0.09318583       0.00000000       0.00000000 </v>
     <v>       0.00000000       0.09318583       0.00000000 </v>
     <v>       0.00000000       0.00000000       0.09318583 </v>
    </varray>
   </crystal>
   <varray name="positions" >
    <v>       0.00000000       0.00000000       0.00000000 </v>
    <v>       0.00000000       0.00000000       0.50000000 </v>
    <v>       0.00000000       0.50000000       0.00000000 </v>
    <v>       0.00000000       0.50000000       0.50000000 </v>
    <v>       0.50000000       0.00000000       0.00000000 </v>
    <v>       0.50000000       0.00000000       0.50000000 </v>
    <v>       0.50000000       0.50000000       0.00000000 </v>
    <v>       0.50000000       0.50000000       0.50000000 </v>
    <v>       0.37500000       0.37500000       0.12500000 </v>
    <v>       0.37500000       0.37500000       0.62500000 </v>
    <v>       0.37500000       0.87500000       0.12500000 </v>
    <v>       0.37500000       0.87500000       0.62500000 </v>
    <v>       0.87500000       0.37500000       0.12500000 </v>
    <v>       0.87500000       0.37500000       0.62500000 </v>
    <v>       0.87500000       0.87500000       0.12500000 </v>
    <v>       0.87500000       0.87500000       0.62500000 </v>
    <v>       0.00000000       0.25000000       0.25000000 </v>
    <v>       0.00000000       0.25000000       0.75000000 </v>
    <v>       0.00000000       0.75000000       0.25000000 </v>
    <v>       0.00000000       0.75000000       0.75000000 </v>
    <v>       0.50000000       0.25000000       0.25000000 </v>
    <v>       0.50000000       0.25000000       0.75000000 </v>
    <v>       0.50000000       0.75000000       0.25000000 </v>
    <v>       0.50000000       0.75000000       0.75000000 </v>
    <v>       0.37500000       0.12500000       0.37500000 </v>
    <v>       0.37500000       0.12500000       0.87500000 </v>
    <v>       0.37500000       0.62500000       0.37500000 </v>
    <v>       0.37500000       0.62500000       0.87500000 </v>
    <v>       0.87500000       0.12500000       0.37500000 </v>
    <v>       0.87500000       0.12500000       0.87500000 </v>
    <v>       0.87500000       0.62500000       0.37500000 </v>
    <v>       0.87500000       0.62500000       0.87500000 </v>
    <v>       0.25000000       0.00000000       0.25000000 </v>
    <v>       0.25000000       0.00000000       0.75000000 </v>
    <v>       0.25000000       0.50000000       0.25000000 </v>
    <v>       0.25000000       0.50000000       0.75000000 </v>
    <v>       0.75000000       0.00000000       0.25000000 </v>
    <v>       0.75000000       0.00000000       0.75000000 </v>
    <v>       0.75000000       0.50000000       0.25000000 </v>
    <v>       0.75000000       0.50000000       0.75000000 </v>
    <v>       0.12500000       0.37500000       0.37500000 </v>
    <v>       0.12500000       0.37500000       0.87500000 </v>
    <v>       0.12500000       0.87500000       0.37500000 </v>
    <v>       0.12500000       0.87500000       0.87500000 </v>
    <v>       0.62500000       0.37500000       0.37500000 </v>
    <v>       0.62500000       0.37500000       0.87500000 </v>
    <v>       0.62500000       0.87500000       0.37500000 </v>
    <v>       0.62500000       0.87500000       0.87500000 </v>
    <v>       0.25000000       0.25000000       0.00000000 </v>
    <v>       0.25000000       0.25000000       0.50000000 </v>
    <v>       0.25000000       0.75000000       0.00000000 </v>
    <v>       0.25000000       0.75000000       0.50000000 </v>
    <v>       0.75000000       0.25000000       0.00000000 </v>
    <v>       0.75000000       0.25000000       0.50000000 </v>
    <v>       0.75000000       0.75000000       0.00000000 </v>
    <v>       0.75000000       0.75000000       0.50000000 </v>
    <v>       0.12500000       0.12500000       0.12500000 </v>
    <v>       0.12500000       0.12500000       0.62500000 </v>
    <v>       0.12500000       0.62500000       0.12500000 </v>
    <v>       0.12500000       0.62500000       0.62500000 </v>
    <v>       0.62500000       0.12500000       0.12500000 </v>
    <v>       0.62500000       0.12500000       0.62500000 </v>
    <v>       0.62500000       0.62500000       0.12500000 </v>
    <v>       0.62500000       0.62500000       0.62500000 </v>
   </varray>
  </structure>
  <varray name="forces" >
   <v>       0.00000000       0.00000000       0.00000000 </v>
   <v>       0.00000000       0.00000000       0.00000000 </v>
   <v>      -0.00000000       0.00000000      -0.00000000 </v>
   <v>      -0.00000000       0.00000000       0.00000000 </v>
   <v>       0.00000000      -0.00000000       0.00000000 </v>
   <v>       0.00000000      -0.00000000      -0.00000000 </v>
   <v>      -0.00000000      -0.00000000       0.00000000 </v>
   <v>       0.00000000      -0.00000000      -0.00000000 </v>
   <v>      -0.00000000      -0.00000000      -0.00000000 </v>
   <v>       0.00000000       0.00000000       0.00000000 </v>
   <v>      -0.00000000       0.00000000      -0.00000000 </v>
   <v>       0.00000000      -0.00000000      -0.00000000 </v>
   <v>       0.00000000       0.00000000      -0.00000000 </v>
   <v>      -0.00000000       0.00000000       0.00000000 </v>
   <v>       0.00000000      -0.00000000       0.00000000 </v>
   <v>       0.00000000      -0.00000000       0.00000000 </v>
   <v>      -0.00000000      -0.00000000      -0.00000000 </v>
   <v>      -0.00000000      -0.00000000       0.00000000 </v>
   <v>      -0.00000000      -0.00000000       0.00000000 </v>
   <v>      -0.00000000      -0.00000000       0.00000000 </v>
   <v>       0.00000000       0.00000000      -0.00000000 </v>
   <v>       0.00000000       0.00000000       0.00000000 </v>
   <v>      -0.00000000       0.00000000      -0.00000000 </v>
   <v>       0.00000000      -0.00000000      -0.00000000 </v>
   <v>      -0.00000000       0.00000000      -0.00000000 </v>
   <v>      -0.00000000       0.00000000      -0.00000000 </v>
   <v>      -0.00000000       0.00000000       0.00000000 </v>
   <v>      -0.00000000      -0.00000000       0.00000000 </v>
   <v>       0.00000000       0.00000000      -0.00000000 </v>
   <v>       0.00000000      -0.00000000       0.00000000 </v>
   <v>      -0.00000000      -0.00000000      -0.00000000 </v>
   <v>      -0.00000000       0.00000000       0.00000000 </v>
   <v>      -0.00000000      -0.00000000      -0.00000000 </v>
   <v>       0.00000000      -0.00000000       0.00000000 </v>
   <v>      -0.00000000      -0.00000000       0.00000000 </v>
   <v>      -0.00000000       0.00000000       0.00000000 </v>
   <v>       0.00000000      -0.00000000       0.00000000 </v>
   <v>      -0.00000000      -0.00000000      -0.00000000 </v>
   <v>       0.00000000       0.00000000      -0.00000000 </v>
   <v>       0.00000000      -0.00000000      -0.00000000 </v>
   <v>       0.00000000       0.00000000      -0.00000000 </v>
   <v>      -0.00000000       0.00000000       0.00000000 </v>
   <v>      -0.00000000       0.00000000      -0.00000000 </v>
   <v>      -0.00000000      -0.00000000      -0.00000000 </v>
   <v>      -0.00000000      -0.00000000      -0.00000000 </v>
   <v>       0.00000000       0.00000000      -0.00000000 </v>
   <v>       0.00000000       0.00000000      -0.00000000 </v>
   <v>       0.00000000       0.00000000       0.00000000 </v>
   <v>       0.00000000      -0.00000000      -0.00000000 </v>
   <v>       0.00000000      -0.00000000       0.00000000 </v>
   <v>       0.00000000      -0.00000000       0.00000000 </v>
   <v>       0.00000000      -0.00000000      -0.00000000 </v>
   <v>       0.00000000      -0.00000000       0.00000000 </v>
   <v>       0.00000000       0.00000000      -0.00000000 </v>
   <v>       0.00000000      -0.00000000      -0.00000000 </v>
   <v>      -0.00000000       0.00000000      -0.00000000 </v>
   <v>      -0.00000000      -0.00000000      -0.00000000 </v>
   <v>      -0.00000000       0.00000000       0.00000000 </v>
   <v>      -0.00000000       0.00000000      -0.00000000 </v>
   <v>      -0.00000000      -0.00000000      -0.00000000 </v>
   <v>       0.00000000       0.00000000      -0.00000000 </v>
   <v>       0.00000000      -0.00000000       0.00000000 </v>
   <v>      -0.00000000      -0.00000000      -0.00000000 </v>
   <v>      -0.00000000       0.00000000      -0.00000000 </v>
  </varray>
  <varray name="stress" >
   <v>      39.99365509      -0.00000000      -0.00000000 </v>
   <v>      -0.00000000      39.99365509       0.00000000 </v>
   <v>      -0.00000000       0.00000000      39.99365509 </v>
  </varray>
  <energy>
   <i name="e_fr_energy">   -336.18722804 </i>
   <i name="e_wo_entrp">   -336.21849187 </i>
   <i name="e_0_energy">   -336.19764932 </i>
  </energy>
  <time name="totalsc">   19.06   19.38</time>
  <eigenvalues>
   <array>
    <dimension dim="1">band</dimension>
    <dimension dim="2">kpoint</dimension>
    <dimension dim="3">spin</dimension>
    <field>eigene</field>
    <field>occ</field>
    <set>
     <set comment="spin 1">
      <set comment="kpoint 1">
       <r>   -6.0796    1.0000 </r>
       <r>   -4.9592    1.0000 </r>
       <r>   -4.9592    1.0000 </r>
       <r>   -4.9592    1.0000 </r>
       <r>   -4.9592    1.0000 </r>
       <r>   -4.9592    1.0000 </r>
       <r>   -4.9592    1.0000 </r>
       <r>   -3.9554    1.0000 </r>
       <r>   -3.9554    1.0000 </r>
       <r>   -3.9554    1.0000 </r>
       <r>   -3.9554    1.0000 </r>
       <r>   -3.9554    1.0000 </r>
       <r>   -3.9554    1.0000 </r>
       <r>   -3.9554    1.0000 </r>
       <r>   -3.9554    1.0000 </r>
       <r>   -3.9554    1.0000 </r>
       <r>   -3.9554    1.0000 </r>
       <r>   -3.9554    1.0000 </r>
       <r>   -3.9554    1.0000 </r>
       <r>   -3.6359    1.0000 </r>
       <r>   -3.6359    1.0000 </r>
       <r>   -3.6359    1.0000 </r>
       <r>   -3.6359    1.0000 </r>
       <r>   -1.7850    1.0000 </r>
       <r>   -1.7850    1.0000 </r>
       <r>   -1.7850    1.0000 </r>
       <r>   -1.7850    1.0000 </r>
       <r>   -1.7850    1.0000 </r>
       <r>   -1.7850    1.0000 </r>
       <r>   -1.5974    1.0000 </r>
       <r>   -1.5974    1.0000 </r>
       <r>   -1.5974    1.0000 </r>
       <r>   -1.5974    1.0000 </r>
       <r>   -1.5974    1.0000 </r>
       <r>   -1.5974    1.0000 </r>
       <r>   -1.5974    1.0000 </r>
       <r>   -1.5974    1.0000 </r>
       <r>   -1.5974    1.0000 </r>
       <r>   -1.5974    1.0000 </r>
       <r>   -1.5974    1.0000 </r>
       <r>   -1.5974    1.0000 </r>
       <r>   -1.0265    1.0000 </r>
       <r>   -1.0265    1.0000 </r>
       <r>   -1.0265    1.0000 </r>
       <r>   -1.0265    1.0000 </r>
       <r>    0.6028    1.0000 </r>
       <r>    0.6028    1.0000 </r>
       <r>    0.6028    1.0000 </r>
       <r>    0.6028    1.0000 </r>
       <r>    0.6028    1.0000 </r>
       <r>    0.6028    1.0000 </r>
       <r>    0.6028    1.0000 </r>
       <r>    0.6028    1.0000 </r>
       <r>    0.6028    1.0000 </r>
       <r>    0.6028    1.0000 </r>
       <r>    0.6028    1.0000 </r>
       <r>    0.6028    1.0000 </r>
       <r>    2.0991    1.0000 </r>
       <r>    2.0991    1.0000 </r>
       <r>    2.0991    1.0000 </r>
       <r>    2.0991    1.0000 </r>
       <r>    2.0991    1.0000 </r>
       <r>    2.0991    1.0000 </r>
       <r>    2.0991    1.0000 </r>
       <r>    2.0991    1.0000 </r>
       <r>    2.0991    1.0000 </r>
       <r>    2.0991    1.0000 </r>
       <r>    2.0991    1.0000 </r>
       <r>    2.0991    1.0000 </r>
       <r>    2.2175    1.0000 </r>
       <r>    2.2175    1.0000 </r>
       <r>    2.2175    1.0000 </r>
       <r>    2.2175    1.0000 </r>
       <r>    2.2175    1.0000 </r>
       <r>    2.2175    1.0000 </r>
       <r>    2.2175    1.0000 </r>
       <r>    2.2175    1.0000 </r>
       <r>    2.2175    1.0000 </r>
       <r>    2.2175    1.0000 </r>
       <r>    2.2175    1.0000 </r>
       <r>    2.2175    1.0000 </r>
       <r>    2.6511    1.0000 </r>
       <r>    2.6511    1.0000 </r>
       <r>    2.6511    1.0000 </r>
       <r>    2.6511    1.0000 </r>
       <r>    2.6511    1.0000 </r>
       <r>    2.6511    1.0000 </r>
       <r>    3.1939    1.0000 </r>
       <r>    3.1939    1.0000 </r>
       <r>    3.1939    1.0000 </r>
       <r>    3.1939    1.0000 </r>
       <r>    3.1939    1.0000 </r>
       <r>    3.1939    1.0000 </r>
       <r>    4.1877    1.0000 </r>
       <r>    4.1877    1.0000 </r>
       <r>    4.1877    1.0000 </r>
       <r>    4.1877    1.0000 </r>
       <r>    4.1877    1.0000 </r>
       <r>    4.1877    1.0000 </r>
       <r>    4.1877    1.0000 </r>
       <r>    4.1877    1.0000 </r>
       <r>    4.1877    1.0000 </r>
       <r>    4.1877    1.0000 </r>
       <r>    4.1877    1.0000 </r>
       <r>    4.1877    1.0000 </r>
       <r>    4.7871    1.0000 </r>
       <r>    4.7871    1.0000 </r>
       <r>    4.7871    1.0000 </r>
       <r>    4.7871    1.0000 </r>
       <r>    4.7871    1.0000 </r>
       <r>    4.7871    1.0000 </r>
       <r>    4.7871    1.0000 </r>
       <r>    4.7871    1.0000 </r>
       <r>    4.7871    1.0000 </r>
       <r>    4.7871    1.0000 </r>
       <r>    4.7871    1.0000 </r>
       <r>    4.7871    1.0000 </r>
       <r>    4.9300    1.0000 </r>
       <r>    4.9300    1.0000 </r>
       <r>    4.9300    1.0000 </r>
       <r>    4.9300    1.0000 </r>
       <r>    4.9300    1.0000 </r>
       <r>    4.9300    1.0000 </r>
       <r>    4.9300    1.0000 </r>
       <r>    4.9300    1.0000 </r>
       <r>    6.1657    1.0303 </r>
       <r>    6.1657    1.0303 </r>
       <r>    6.1657    1.0303 </r>
       <r>    6.6795   -0.0339 </r>
       <r>    6.6795   -0.0339 </r>
       <r>    6.6795   -0.0339 </r>
       <r>    6.6795   -0.0339 </r>
       <r>    6.6795   -0.0339 </r>
       <r>    6.6795   -0.0339 </r>
       <r>    7.1626   -0.0000 </r>
       <r>    7.1626   -0.0000 </r>
       <r>    7.1626   -0.0000 </r>
       <r>    7.1626   -0.0000 </r>
       <r>    7.1626   -0.0000 </r>
       <r>    7.1626   -0.0000 </r>
       <r>    7.7587   -0.0000 </r>
       <r>    7.7587   -0.0000 </r>
       <r>    7.7587   -0.0000 </r>
       <r>    7.7587   -0.0000 </r>
       <r>    8.5460   -0.0000 </r>
       <r>    8.5460   -0.0000 </r>
       <r>    8.5460   -0.0000 </r>
       <r>    8.5460   -0.0000 </r>
       <r>    8.5460   -0.0000 </r>
       <r>    8.5460   -0.0000 </r>
       <r>    8.5460   -0.0000 </r>
       <r>    8.5460   -0.0000 </r>
       <r>    8.5460   -0.0000 </r>
       <r>    8.5460   -0.0000 </r>
       <r>    8.5460   -0.0000 </r>
       <r>    8.5460   -0.0000 </r>
       <r>    8.6953   -0.0000 </r>
       <r>    8.6953   -0.0000 </r>
       <r>    8.6954   -0.0000 </r>
       <r>    9.1743   -0.0000 </r>
       <r>    9.1761   -0.0000 </r>
       <r>    9.1803   -0.0000 </r>
      </set>
[...]
      </set>
     </set>
    </set>
   </array>
  </eigenvalues>
  <separator name="orbital magnetization" >
   <v name="MAGDIPOLOUT">      0.00000000      0.00000000      0.00000000</v>
  </separator>
  <dos>
   <i name="efermi">      6.45321619 </i>
   <total>
    <array>
     <dimension dim="1">gridpoints</dimension>
     <dimension dim="2">spin</dimension>
     <field>energy</field>
     <field>total</field>
     <field>integrated</field>
     <set>
      <set comment="spin 1">
       <r>    -8.0796     0.0000     0.0000 </r>
       <r>    -8.0138     0.0000     0.0000 </r>
       <r>    -7.9481     0.0000     0.0000 </r>
       <r>    -7.8823     0.0000     0.0000 </r>
       <r>    -7.8166     0.0000     0.0000 </r>
       <r>    -7.7508     0.0000     0.0000 </r>
       <r>    -7.6850    -0.0000    -0.0000 </r>
       <r>    -7.6193    -0.0000    -0.0000 </r>
       <r>    -7.5535    -0.0000    -0.0000 </r>
       <r>    -7.4877    -0.0000    -0.0000 </r>
       <r>    -7.4220    -0.0000    -0.0000 </r>
       <r>    -7.3562    -0.0000    -0.0000 </r>
       <r>    -7.2904    -0.0000    -0.0000 </r>
       <r>    -7.2247    -0.0000    -0.0000 </r>
       <r>    -7.1589    -0.0000    -0.0000 </r>
       <r>    -7.0931    -0.0000    -0.0000 </r>
       <r>    -7.0274    -0.0000    -0.0000 </r>
       <r>    -6.9616    -0.0000    -0.0000 </r>
       <r>    -6.8958    -0.0000    -0.0000 </r>
       <r>    -6.8301    -0.0000    -0.0000 </r>
       <r>    -6.7643    -0.0000    -0.0000 </r>
       <r>    -6.6985    -0.0002    -0.0000 </r>
       <r>    -6.6328    -0.0010    -0.0001 </r>
       <r>    -6.5670    -0.0046    -0.0004 </r>
       <r>    -6.5012    -0.0154    -0.0014 </r>
       <r>    -6.4355    -0.0374    -0.0039 </r>
       <r>    -6.3697    -0.0591    -0.0077 </r>
       <r>    -6.3039    -0.0325    -0.0099 </r>
       <r>    -6.2382     0.1063    -0.0029 </r>
       <r>    -6.1724     0.3486     0.0200 </r>
       <r>    -6.1066     0.5786     0.0581 </r>
       <r>    -6.0409     0.7867     0.1098 </r>
       <r>    -5.9751     1.3283     0.1972 </r>
       <r>    -5.9093     2.6175     0.3693 </r>
       <r>    -5.8436     4.3513     0.6555 </r>
       <r>    -5.7778     5.5832     1.0227 </r>
       <r>    -5.7120     6.1273     1.4256 </r>
       <r>    -5.6463     7.1846     1.8981 </r>
       <r>    -5.5805     9.5148     2.5239 </r>
       <r>    -5.5147    11.6898     3.2927 </r>
       <r>    -5.4490    11.7281     4.0640 </r>
       <r>    -5.3832     9.9618     4.7191 </r>
       <r>    -5.3174     8.4490     5.2748 </r>
       <r>    -5.2517     7.8933     5.7939 </r>
       <r>    -5.1859     7.1454     6.2638 </r>
       <r>    -5.1201     5.6475     6.6352 </r>
       <r>    -5.0544     4.3735     6.9229 </r>
       <r>    -4.9886     4.2212     7.2005 </r>
       <r>    -4.9228     5.3988     7.5555 </r>
       <r>    -4.8571     8.6148     8.1221 </r>
       <r>    -4.7913    14.5415     9.0784 </r>
       <r>    -4.7256    21.3957    10.4855 </r>
       <r>    -4.6598    25.7519    12.1791 </r>
       <r>    -4.5940    26.8459    13.9447 </r>
       <r>    -4.5283    26.9785    15.7190 </r>
       <r>    -4.4625    26.6132    17.4692 </r>
       <r>    -4.3967    22.9514    18.9786 </r>
       <r>    -4.3310    14.8466    19.9550 </r>
       <r>    -4.2652     5.6050    20.3236 </r>
       <r>    -4.1994    -0.4125    20.2965 </r>
       <r>    -4.1337    -1.3423    20.2082 </r>
       <r>    -4.0679     2.5539    20.3762 </r>
       <r>    -4.0021    10.2989    21.0535 </r>
       <r>    -3.9364    20.0069    22.3693 </r>
       <r>    -3.8706    28.3166    24.2315 </r>
       <r>    -3.8048    31.5080    26.3037 </r>
       <r>    -3.7391    28.2096    28.1589 </r>
       <r>    -3.6733    20.9637    29.5376 </r>
       <r>    -3.6075    14.5422    30.4940 </r>
       <r>    -3.5418    12.9335    31.3446 </r>
       <r>    -3.4760    17.6007    32.5021 </r>
       <r>    -3.4102    26.7650    34.2623 </r>
       <r>    -3.3445    35.9666    36.6277 </r>
       <r>    -3.2787    41.0355    39.3265 </r>
       <r>    -3.2129    41.0633    42.0270 </r>
       <r>    -3.1472    37.7900    44.5123 </r>
       <r>    -3.0814    32.9163    46.6771 </r>
       <r>    -3.0156    27.7548    48.5024 </r>
       <r>    -2.9499    24.5002    50.1137 </r>
       <r>    -2.8841    24.4423    51.7212 </r>
       <r>    -2.8183    24.8560    53.3558 </r>
       <r>    -2.7526    21.2646    54.7543 </r>
       <r>    -2.6868    13.1955    55.6221 </r>
       <r>    -2.6210     4.7462    55.9343 </r>
       <r>    -2.5553    -0.4162    55.9069 </r>
       <r>    -2.4895    -2.0140    55.7745 </r>
       <r>    -2.4237    -1.3399    55.6863 </r>
       <r>    -2.3580     1.1456    55.7617 </r>
       <r>    -2.2922     5.4378    56.1193 </r>
       <r>    -2.2264    10.0844    56.7825 </r>
       <r>    -2.1607    12.1325    57.5804 </r>
       <r>    -2.0949     9.8003    58.2249 </r>
       <r>    -2.0291     4.7006    58.5341 </r>
       <r>    -1.9634     0.9089    58.5939 </r>
       <r>    -1.8976     2.3242    58.7467 </r>
       <r>    -1.8318    10.5518    59.4407 </r>
       <r>    -1.7661    23.3720    60.9777 </r>
       <r>    -1.7003    34.6337    63.2555 </r>
       <r>    -1.6346    37.6736    65.7331 </r>
       <r>    -1.5688    30.5825    67.7444 </r>
       <r>    -1.5030    17.8363    68.9174 </r>
       <r>    -1.4373     6.4632    69.3425 </r>
       <r>    -1.3715     1.1410    69.4175 </r>
       <r>    -1.3057     2.3727    69.5735 </r>
       <r>    -1.2400     7.3415    70.0564 </r>
       <r>    -1.1742    11.7822    70.8312 </r>
       <r>    -1.1084    12.6225    71.6614 </r>
       <r>    -1.0427    10.3708    72.3434 </r>
       <r>    -0.9769     8.8568    72.9259 </r>
       <r>    -0.9111    11.6454    73.6918 </r>
       <r>    -0.8454    17.8635    74.8666 </r>
       <r>    -0.7796    22.2009    76.3266 </r>
       <r>    -0.7138    20.8796    77.6998 </r>
       <r>    -0.6481    17.4341    78.8464 </r>
       <r>    -0.5823    20.1141    80.1692 </r>
       <r>    -0.5165    32.9015    82.3330 </r>
       <r>    -0.4508    50.3451    85.6440 </r>
       <r>    -0.3850    61.2574    89.6726 </r>
       <r>    -0.3192    57.3777    93.4461 </r>
       <r>    -0.2535    39.9049    96.0705 </r>
       <r>    -0.1877    18.4283    97.2825 </r>
       <r>    -0.1219     3.3030    97.4997 </r>
       <r>    -0.0562    -0.7018    97.4535 </r>
       <r>     0.0096     5.1329    97.7911 </r>
       <r>     0.0754    15.5664    98.8148 </r>
       <r>     0.1411    23.5624   100.3644 </r>
       <r>     0.2069    24.2083   101.9565 </r>
       <r>     0.2727    18.3529   103.1635 </r>
       <r>     0.3384    10.9980   103.8868 </r>
       <r>     0.4042     6.3408   104.3038 </r>
       <r>     0.4700     5.8280   104.6871 </r>
       <r>     0.5357     9.5492   105.3151 </r>
       <r>     0.6015    16.8043   106.4203 </r>
       <r>     0.6673    25.1196   108.0723 </r>
       <r>     0.7330    30.2079   110.0589 </r>
       <r>     0.7988    28.3887   111.9259 </r>
       <r>     0.8646    19.9491   113.2379 </r>
       <r>     0.9303     9.4822   113.8615 </r>
       <r>     0.9961     1.9401   113.9891 </r>
       <r>     1.0619    -1.1582   113.9129 </r>
       <r>     1.1276    -1.4204   113.8195 </r>
       <r>     1.1934    -0.9579   113.7565 </r>
       <r>     1.2591    -0.8935   113.6978 </r>
       <r>     1.3249    -1.4039   113.6054 </r>
       <r>     1.3907    -1.8286   113.4852 </r>
       <r>     1.4564    -0.3568   113.4617 </r>
       <r>     1.5222     5.5935   113.8296 </r>
       <r>     1.5880    17.3038   114.9676 </r>
       <r>     1.6537    32.3120   117.0926 </r>
       <r>     1.7195    44.5708   120.0238 </r>
       <r>     1.7853    48.0525   123.1841 </r>
       <r>     1.8510    41.1807   125.8924 </r>
       <r>     1.9168    28.7201   127.7812 </r>
       <r>     1.9826    19.0751   129.0356 </r>
       <r>     2.0483    17.7474   130.2028 </r>
       <r>     2.1141    22.3697   131.6740 </r>
       <r>     2.1799    25.3055   133.3382 </r>
       <r>     2.2456    22.1570   134.7954 </r>
       <r>     2.3114    17.3986   135.9396 </r>
       <r>     2.3772    21.1092   137.3279 </r>
       <r>     2.4429    39.4599   139.9230 </r>
       <r>     2.5087    67.0002   144.3293 </r>
       <r>     2.5745    87.9413   150.1129 </r>
       <r>     2.6402    87.5303   155.8694 </r>
       <r>     2.7060    64.7486   160.1277 </r>
       <r>     2.7718    33.1546   162.3081 </r>
       <r>     2.8375     8.3187   162.8552 </r>
       <r>     2.9033    -3.9031   162.5985 </r>
       <r>     2.9691    -6.7383   162.1553 </r>
       <r>     3.0348    -4.1381   161.8832 </r>
       <r>     3.1006     4.1360   162.1552 </r>
       <r>     3.1664    19.8801   163.4626 </r>
       <r>     3.2321    41.0807   166.1643 </r>
       <r>     3.2979    61.1282   170.1845 </r>
       <r>     3.3637    73.7478   175.0346 </r>
       <r>     3.4294    77.1244   180.1067 </r>
       <r>     3.4952    72.9333   184.9033 </r>
       <r>     3.5610    63.5349   189.0817 </r>
       <r>     3.6267    51.3804   192.4608 </r>
       <r>     3.6925    40.5766   195.1293 </r>
       <r>     3.7583    36.6762   197.5414 </r>
       <r>     3.8240    41.0926   200.2439 </r>
       <r>     3.8898    46.3042   203.2891 </r>
       <r>     3.9556    42.4617   206.0817 </r>
       <r>     4.0213    29.7813   208.0403 </r>
       <r>     4.0871    19.0907   209.2958 </r>
       <r>     4.1529    18.9831   210.5442 </r>
       <r>     4.2186    26.8700   212.3113 </r>
       <r>     4.2844    34.1999   214.5605 </r>
       <r>     4.3501    36.8839   216.9862 </r>
       <r>     4.4159    37.3988   219.4458 </r>
       <r>     4.4817    38.4956   221.9775 </r>
       <r>     4.5474    39.6823   224.5873 </r>
       <r>     4.6132    40.5751   227.2557 </r>
       <r>     4.6790    43.2679   230.1013 </r>
       <r>     4.7447    49.0182   233.3250 </r>
       <r>     4.8105    54.5040   236.9095 </r>
       <r>     4.8763    53.3614   240.4189 </r>
       <r>     4.9420    42.1101   243.1883 </r>
       <r>     5.0078    24.3700   244.7910 </r>
       <r>     5.0736     8.5221   245.3515 </r>
       <r>     5.1393     1.5037   245.4504 </r>
       <r>     5.2051     4.9852   245.7782 </r>
       <r>     5.2709    15.2345   246.7801 </r>
       <r>     5.3366    24.9201   248.4190 </r>
       <r>     5.4024    27.1896   250.2072 </r>
       <r>     5.4682    20.6717   251.5667 </r>
       <r>     5.5339    10.2096   252.2381 </r>
       <r>     5.5997     2.0751   252.3746 </r>
       <r>     5.6655    -0.6036   252.3349 </r>
       <r>     5.7312     1.7981   252.4531 </r>
       <r>     5.7970     6.8926   252.9064 </r>
       <r>     5.8628    11.2407   253.6457 </r>
       <r>     5.9285    11.9919   254.4343 </r>
       <r>     5.9943     9.1518   255.0362 </r>
       <r>     6.0601     5.4273   255.3932 </r>
       <r>     6.1258     3.1957   255.6033 </r>
       <r>     6.1916     2.4287   255.7630 </r>
       <r>     6.2574     1.7943   255.8810 </r>
       <r>     6.3231     0.7444   255.9300 </r>
       <r>     6.3889     0.0690   255.9345 </r>
       <r>     6.4547     1.0449   256.0033 </r>
       <r>     6.5204     4.2430   256.2823 </r>
       <r>     6.5862     8.5799   256.8466 </r>
       <r>     6.6520    11.5180   257.6041 </r>
       <r>     6.7177    10.9660   258.3253 </r>
       <r>     6.7835     7.2070   258.7992 </r>
       <r>     6.8493     2.5920   258.9697 </r>
       <r>     6.9150    -0.3706   258.9453 </r>
       <r>     6.9808    -0.0871   258.9396 </r>
       <r>     7.0466     4.0148   259.2036 </r>
       <r>     7.1123    10.6444   259.9037 </r>
       <r>     7.1781    16.0129   260.9568 </r>
       <r>     7.2439    16.4467   262.0384 </r>
       <r>     7.3096    12.9966   262.8931 </r>
       <r>     7.3754    11.6991   263.6625 </r>
       <r>     7.4411    17.0745   264.7855 </r>
       <r>     7.5069    25.9316   266.4909 </r>
       <r>     7.5727    29.9059   268.4577 </r>
       <r>     7.6384    24.4786   270.0675 </r>
       <r>     7.7042    13.6354   270.9643 </r>
       <r>     7.7700     5.8921   271.3518 </r>
       <r>     7.8357     8.1600   271.8884 </r>
       <r>     7.9015    21.9176   273.3299 </r>
       <r>     7.9673    40.7041   276.0068 </r>
       <r>     8.0330    52.3208   279.4477 </r>
       <r>     8.0988    48.9793   282.6689 </r>
       <r>     8.1646    35.5736   285.0084 </r>
       <r>     8.2303    24.4642   286.6173 </r>
       <r>     8.2961    23.4926   288.1624 </r>
       <r>     8.3619    32.4187   290.2944 </r>
       <r>     8.4276    47.8652   293.4423 </r>
       <r>     8.4934    65.3946   297.7430 </r>
       <r>     8.5592    77.4373   302.8358 </r>
       <r>     8.6249    76.0344   307.8363 </r>
       <r>     8.6907    60.2843   311.8009 </r>
       <r>     8.7565    38.2311   314.3152 </r>
       <r>     8.8222    20.2137   315.6446 </r>
       <r>     8.8880    11.2237   316.3827 </r>
       <r>     8.9538     9.3222   316.9958 </r>
       <r>     9.0195    10.3646   317.6774 </r>
       <r>     9.0853    12.8295   318.5212 </r>
       <r>     9.1511    16.8510   319.6294 </r>
       <r>     9.2168    20.3444   320.9674 </r>
       <r>     9.2826    19.5820   322.2552 </r>
       <r>     9.3484    13.7602   323.1602 </r>
       <r>     9.4141     6.3538   323.5780 </r>
       <r>     9.4799     1.3960   323.6698 </r>
       <r>     9.5457     0.0200   323.6712 </r>
       <r>     9.6114     0.7292   323.7191 </r>
       <r>     9.6772     1.5760   323.8228 </r>
       <r>     9.7430     1.6141   323.9289 </r>
       <r>     9.8087     1.0034   323.9949 </r>
       <r>     9.8745     0.3348   324.0169 </r>
       <r>     9.9403    -0.0305   324.0149 </r>
       <r>    10.0060    -0.1109   324.0076 </r>
       <r>    10.0718    -0.0737   324.0028 </r>
       <r>    10.1376    -0.0306   324.0008 </r>
       <r>    10.2033    -0.0091   324.0002 </r>
       <r>    10.2691    -0.0021   324.0000 </r>
       <r>    10.3349    -0.0004   324.0000 </r>
       <r>    10.4006    -0.0000   324.0000 </r>
       <r>    10.4664    -0.0000   324.0000 </r>
       <r>    10.5321    -0.0000   324.0000 </r>
       <r>    10.5979    -0.0000   324.0000 </r>
       <r>    10.6637    -0.0000   324.0000 </r>
       <r>    10.7294    -0.0000   324.0000 </r>
       <r>    10.7952    -0.0000   324.0000 </r>
       <r>    10.8610    -0.0000   324.0000 </r>
       <r>    10.9267    -0.0000   324.0000 </r>
       <r>    10.9925     0.0000   324.0000 </r>
       <r>    11.0583     0.0000   324.0000 </r>
       <r>    11.1240     0.0000   324.0000 </r>
       <r>    11.1898     0.0000   324.0000 </r>
       <r>    11.2556     0.0000   324.0000 </r>
       <r>    11.3213     0.0000   324.0000 </r>
       <r>    11.3871     0.0000   324.0000 </r>
       <r>    11.4529     0.0000   324.0000 </r>
       <r>    11.5186     0.0000   324.0000 </r>
       <r>    11.5844     0.0000   324.0000 </r>
       <r>    11.6502     0.0000   324.0000 </r>
      </set>
     </set>
    </array>
   </total>
  </dos>
 </calculation>
 <structure name="finalpos" >
  <crystal>
   <varray name="basis" >
    <v>      10.73124535      -0.00000000       0.00000000 </v>
    <v>      -0.00000000      10.73124535       0.00000000 </v>
    <v>       0.00000000       0.00000000      10.73124535 </v>
   </varray>
   <i name="volume">   1235.80621091 </i>
   <varray name="rec_basis" >
    <v>       0.09318583       0.00000000       0.00000000 </v>
    <v>       0.00000000       0.09318583       0.00000000 </v>
    <v>       0.00000000       0.00000000       0.09318583 </v>
   </varray>
  </crystal>
  <varray name="positions" >
   <v>       0.00000000       0.00000000       0.00000000 </v>
   <v>       0.00000000       0.00000000       0.50000000 </v>
   <v>       0.00000000       0.50000000       0.00000000 </v>
   <v>       0.00000000       0.50000000       0.50000000 </v>
   <v>       0.50000000       0.00000000       0.00000000 </v>
   <v>       0.50000000       0.00000000       0.50000000 </v>
   <v>       0.50000000       0.50000000       0.00000000 </v>
   <v>       0.50000000       0.50000000       0.50000000 </v>
   <v>       0.37500000       0.37500000       0.12500000 </v>
   <v>       0.37500000       0.37500000       0.62500000 </v>
   <v>       0.37500000       0.87500000       0.12500000 </v>
   <v>       0.37500000       0.87500000       0.62500000 </v>
   <v>       0.87500000       0.37500000       0.12500000 </v>
   <v>       0.87500000       0.37500000       0.62500000 </v>
   <v>       0.87500000       0.87500000       0.12500000 </v>
   <v>       0.87500000       0.87500000       0.62500000 </v>
   <v>       0.00000000       0.25000000       0.25000000 </v>
   <v>       0.00000000       0.25000000       0.75000000 </v>
   <v>       0.00000000       0.75000000       0.25000000 </v>
   <v>       0.00000000       0.75000000       0.75000000 </v>
   <v>       0.50000000       0.25000000       0.25000000 </v>
   <v>       0.50000000       0.25000000       0.75000000 </v>
   <v>       0.50000000       0.75000000       0.25000000 </v>
   <v>       0.50000000       0.75000000       0.75000000 </v>
   <v>       0.37500000       0.12500000       0.37500000 </v>
   <v>       0.37500000       0.12500000       0.87500000 </v>
   <v>       0.37500000       0.62500000       0.37500000 </v>
   <v>       0.37500000       0.62500000       0.87500000 </v>
   <v>       0.87500000       0.12500000       0.37500000 </v>
   <v>       0.87500000       0.12500000       0.87500000 </v>
   <v>       0.87500000       0.62500000       0.37500000 </v>
   <v>       0.87500000       0.62500000       0.87500000 </v>
   <v>       0.25000000       0.00000000       0.25000000 </v>
   <v>       0.25000000       0.00000000       0.75000000 </v>
   <v>       0.25000000       0.50000000       0.25000000 </v>
   <v>       0.25000000       0.50000000       0.75000000 </v>
   <v>       0.75000000       0.00000000       0.25000000 </v>
   <v>       0.75000000       0.00000000       0.75000000 </v>
   <v>       0.75000000       0.50000000       0.25000000 </v>
   <v>       0.75000000       0.50000000       0.75000000 </v>
   <v>       0.12500000       0.37500000       0.37500000 </v>
   <v>       0.12500000       0.37500000       0.87500000 </v>
   <v>       0.12500000       0.87500000       0.37500000 </v>
   <v>       0.12500000       0.87500000       0.87500000 </v>
   <v>       0.62500000       0.37500000       0.37500000 </v>
   <v>       0.62500000       0.37500000       0.87500000 </v>
   <v>       0.62500000       0.87500000       0.37500000 </v>
   <v>       0.62500000       0.87500000       0.87500000 </v>
   <v>       0.25000000       0.25000000       0.00000000 </v>
   <v>       0.25000000       0.25000000       0.50000000 </v>
   <v>       0.25000000       0.75000000       0.00000000 </v>
   <v>       0.25000000       0.75000000       0.50000000 </v>
   <v>       0.75000000       0.25000000       0.00000000 </v>
   <v>       0.75000000       0.25000000       0.50000000 </v>
   <v>       0.75000000       0.75000000       0.00000000 </v>
   <v>       0.75000000       0.75000000       0.50000000 </v>
   <v>       0.12500000       0.12500000       0.12500000 </v>
   <v>       0.12500000       0.12500000       0.62500000 </v>
   <v>       0.12500000       0.62500000       0.12500000 </v>
   <v>       0.12500000       0.62500000       0.62500000 </v>
   <v>       0.62500000       0.12500000       0.12500000 </v>
   <v>       0.62500000       0.12500000       0.62500000 </v>
   <v>       0.62500000       0.62500000       0.12500000 </v>
   <v>       0.62500000       0.62500000       0.62500000 </v>
  </varray>
 </structure>
</modeling>
