Si64                                    
           1
    10.397873   -0.106101    0.000000
    -0.106101   10.610074    0.000000
     0.000000    0.000000   10.610074
   Si
    64
Direct configuration=     1
   0.00000000  0.00000000  0.00000000
   0.00000000  0.00000000  0.50000000
   0.00000000  0.50000000  0.00000000
   0.00000000  0.50000000  0.50000000
   0.50000000  0.00000000  0.00000000
   0.50000000  0.00000000  0.50000000
   0.50000000  0.50000000  0.00000000
   0.50000000  0.50000000  0.50000000
   0.37500000  0.37500000  0.12500000
   0.37500000  0.37500000  0.62500000
   0.37500000  0.87500000  0.12500000
   0.37500000  0.87500000  0.62500000
   0.87500000  0.37500000  0.12500000
   0.87500000  0.37500000  0.62500000
   0.87500000  0.87500000  0.12500000
   0.87500000  0.87500000  0.62500000
   0.00000000  0.25000000  0.25000000
   0.00000000  0.25000000  0.75000000
   0.00000000  0.75000000  0.25000000
   0.00000000  0.75000000  0.75000000
   0.50000000  0.25000000  0.25000000
   0.50000000  0.25000000  0.75000000
   0.50000000  0.75000000  0.25000000
   0.50000000  0.75000000  0.75000000
   0.37500000  0.12500000  0.37500000
   0.37500000  0.12500000  0.87500000
   0.37500000  0.62500000  0.37500000
   0.37500000  0.62500000  0.87500000
   0.87500000  0.12500000  0.37500000
   0.87500000  0.12500000  0.87500000
   0.87500000  0.62500000  0.37500000
   0.87500000  0.62500000  0.87500000
   0.25000000  0.00000000  0.25000000
   0.25000000  0.00000000  0.75000000
   0.25000000  0.50000000  0.25000000
   0.25000000  0.50000000  0.75000000
   0.75000000  0.00000000  0.25000000
   0.75000000  0.00000000  0.75000000
   0.75000000  0.50000000  0.25000000
   0.75000000  0.50000000  0.75000000
   0.12500000  0.37500000  0.37500000
   0.12500000  0.37500000  0.87500000
   0.12500000  0.87500000  0.37500000
   0.12500000  0.87500000  0.87500000
   0.62500000  0.37500000  0.37500000
   0.62500000  0.37500000  0.87500000
   0.62500000  0.87500000  0.37500000
   0.62500000  0.87500000  0.87500000
   0.25000000  0.25000000  0.00000000
   0.25000000  0.25000000  0.50000000
   0.25000000  0.75000000  0.00000000
   0.25000000  0.75000000  0.50000000
   0.75000000  0.25000000  0.00000000
   0.75000000  0.25000000  0.50000000
   0.75000000  0.75000000  0.00000000
   0.75000000  0.75000000  0.50000000
   0.12500000  0.12500000  0.12500000
   0.12500000  0.12500000  0.62500000
   0.12500000  0.62500000  0.12500000
   0.12500000  0.62500000  0.62500000
   0.62500000  0.12500000  0.12500000
   0.62500000  0.12500000  0.62500000
   0.62500000  0.62500000  0.12500000
   0.62500000  0.62500000  0.62500000
Direct configuration=     2
   0.00000000  0.00000000  0.99866072
   0.00000000  0.00000000  0.49866072
   0.00000000  0.50000000  0.99866072
   0.00000000  0.50000000  0.49866072
   0.50000000  1.00000000  0.99866072
   0.50000000  0.00000000  0.49866072
   0.50000000  0.50000000  0.99866072
   0.50000000  0.50000000  0.49866072
   0.37500000  0.37500000  0.12633928
   0.37500000  0.37500000  0.62633928
   0.37500000  0.87500000  0.12633928
   0.37500000  0.87500000  0.62633928
   0.87500000  0.37500000  0.12633928
   0.87500000  0.37500000  0.62633928
   0.87500000  0.87500000  0.12633928
   0.87500000  0.87500000  0.62633928
   1.00000000  0.25000000  0.24866072
   1.00000000  0.25000000  0.74866072
   1.00000000  0.75000000  0.24866072
   0.00000000  0.75000000  0.74866072
   0.50000000  0.25000000  0.24866072
   0.50000000  0.25000000  0.74866072
   0.50000000  0.75000000  0.24866072
   0.50000000  0.75000000  0.74866072
   0.37500000  0.12500000  0.37633928
   0.37500000  0.12500000  0.87633928
   0.37500000  0.62500000  0.37633928
   0.37500000  0.62500000  0.87633928
   0.87500000  0.12500000  0.37633928
   0.87500000  0.12500000  0.87633928
   0.87500000  0.62500000  0.37633928
   0.87500000  0.62500000  0.87633928
   0.25000000  0.00000000  0.24866072
   0.25000000  0.00000000  0.74866072
   0.25000000  0.50000000  0.24866072
   0.25000000  0.50000000  0.74866072
   0.75000000  0.00000000  0.24866072
   0.75000000  0.00000000  0.74866072
   0.75000000  0.50000000  0.24866072
   0.75000000  0.50000000  0.74866072
   0.12500000  0.37500000  0.37633928
   0.12500000  0.37500000  0.87633928
   0.12500000  0.87500000  0.37633928
   0.12500000  0.87500000  0.87633928
   0.62500000  0.37500000  0.37633928
   0.62500000  0.37500000  0.87633928
   0.62500000  0.87500000  0.37633928
   0.62500000  0.87500000  0.87633928
   0.25000000  0.25000000  0.99866072
   0.25000000  0.25000000  0.49866072
   0.25000000  0.75000000  0.99866072
   0.25000000  0.75000000  0.49866072
   0.75000000  0.25000000  0.99866072
   0.75000000  0.25000000  0.49866072
   0.75000000  0.75000000  0.99866072
   0.75000000  0.75000000  0.49866072
   0.12500000  0.12500000  0.12633928
   0.12500000  0.12500000  0.62633928
   0.12500000  0.62500000  0.12633928
   0.12500000  0.62500000  0.62633928
   0.62500000  0.12500000  0.12633928
   0.62500000  0.12500000  0.62633928
   0.62500000  0.62500000  0.12633928
   0.62500000  0.62500000  0.62633928
Direct configuration=     3
   0.00000000  0.00000000  0.99910113
   0.00000000  0.00000000  0.49910113
   0.00000000  0.50000000  0.99910113
   0.00000000  0.50000000  0.49910113
   0.50000000  0.00000000  0.99910113
   0.50000000  0.00000000  0.49910113
   0.50000000  0.50000000  0.99910113
   0.50000000  0.50000000  0.49910113
   0.37500000  0.37500000  0.12589887
   0.37500000  0.37500000  0.62589887
   0.37500000  0.87500000  0.12589887
   0.37500000  0.87500000  0.62589887
   0.87500000  0.37500000  0.12589887
   0.87500000  0.37500000  0.62589887
   0.87500000  0.87500000  0.12589887
   0.87500000  0.87500000  0.62589887
   0.00000000  0.25000000  0.24910113
   0.00000000  0.25000000  0.74910113
   0.00000000  0.75000000  0.24910113
   0.00000000  0.75000000  0.74910113
   0.50000000  0.25000000  0.24910113
   0.50000000  0.25000000  0.74910113
   0.50000000  0.75000000  0.24910113
   0.50000000  0.75000000  0.74910113
   0.37500000  0.12500000  0.37589887
   0.37500000  0.12500000  0.87589887
   0.37500000  0.62500000  0.37589887
   0.37500000  0.62500000  0.87589887
   0.87500000  0.12500000  0.37589887
   0.87500000  0.12500000  0.87589887
   0.87500000  0.62500000  0.37589887
   0.87500000  0.62500000  0.87589887
   0.25000000  0.00000000  0.24910113
   0.25000000  0.00000000  0.74910113
   0.25000000  0.50000000  0.24910113
   0.25000000  0.50000000  0.74910113
   0.75000000  0.00000000  0.24910113
   0.75000000  0.00000000  0.74910113
   0.75000000  0.50000000  0.24910113
   0.75000000  0.50000000  0.74910113
   0.12500000  0.37500000  0.37589887
   0.12500000  0.37500000  0.87589887
   0.12500000  0.87500000  0.37589887
   0.12500000  0.87500000  0.87589887
   0.62500000  0.37500000  0.37589887
   0.62500000  0.37500000  0.87589887
   0.62500000  0.87500000  0.37589887
   0.62500000  0.87500000  0.87589887
   0.25000000  0.25000000  0.99910113
   0.25000000  0.25000000  0.49910113
   0.25000000  0.75000000  0.99910113
   0.25000000  0.75000000  0.49910113
   0.75000000  0.25000000  0.99910113
   0.75000000  0.25000000  0.49910113
   0.75000000  0.75000000  0.99910113
   0.75000000  0.75000000  0.49910113
   0.12500000  0.12500000  0.12589887
   0.12500000  0.12500000  0.62589887
   0.12500000  0.62500000  0.12589887
   0.12500000  0.62500000  0.62589887
   0.62500000  0.12500000  0.12589887
   0.62500000  0.12500000  0.62589887
   0.62500000  0.62500000  0.12589887
   0.62500000  0.62500000  0.62589887
