  64  64   0   0
  0.2006502E+02  0.1101476E-08  0.1079880E-08  0.1079826E-08  0.5000000E-15
  1.000000000000000E-004
  CAR 
 Si64                                    
     11.16518769     -8.20495153  301      6.03913836      1.00000000
     -8.205  0.0000E+00  0.0000E+00
     -8.140  0.0000E+00  0.0000E+00
     -8.076  0.0000E+00  0.0000E+00
     -8.011  0.0000E+00  0.0000E+00
     -7.947  0.0000E+00  0.0000E+00
     -7.882  0.0000E+00  0.0000E+00
     -7.818 -0.8559E-29 -0.5526E-30
     -7.753 -0.1342E-26 -0.8717E-28
     -7.688 -0.1712E-24 -0.1114E-25
     -7.624 -0.1771E-22 -0.1154E-23
     -7.559 -0.1483E-20 -0.9688E-22
     -7.495 -0.1005E-18 -0.6586E-20
     -7.430 -0.5513E-17 -0.3625E-18
     -7.366 -0.2375E-15 -0.1569E-16
     -7.301 -0.8486E-14 -0.5636E-15
     -7.236 -0.2449E-12 -0.1638E-13
     -7.172 -0.5701E-11 -0.3845E-12
     -7.107 -0.1069E-09 -0.7287E-11
     -7.043 -0.1612E-08 -0.1114E-09
     -6.978 -0.1951E-07 -0.1371E-08
     -6.914 -0.1889E-06 -0.1356E-07
     -6.849 -0.1457E-05 -0.1076E-06
     -6.784 -0.8900E-05 -0.6823E-06
     -6.720 -0.4266E-04 -0.3437E-05
     -6.655 -0.1580E-03 -0.1364E-04
     -6.591 -0.4394E-03 -0.4201E-04
     -6.526 -0.8612E-03 -0.9762E-04
     -6.462 -0.9681E-03 -0.1601E-03
     -6.397  0.2180E-03 -0.1461E-03
     -6.333  0.3321E-02  0.6840E-04
     -6.268  0.7374E-02  0.5445E-03
     -6.203  0.1110E-01  0.1261E-02
     -6.139  0.1721E-01  0.2372E-02
     -6.074  0.3263E-01  0.4478E-02
     -6.010  0.5893E-01  0.8283E-02
     -5.945  0.8520E-01  0.1378E-01
     -5.881  0.1010E+00  0.2031E-01
     -5.816  0.1153E+00  0.2775E-01
     -5.751  0.1454E+00  0.3714E-01
     -5.687  0.1849E+00  0.4908E-01
     -5.622  0.2028E+00  0.6217E-01
     -5.558  0.1861E+00  0.7418E-01
     -5.493  0.1574E+00  0.8435E-01
     -5.429  0.1397E+00  0.9336E-01
     -5.364  0.1270E+00  0.1016E+00
     -5.299  0.1056E+00  0.1084E+00
     -5.235  0.8172E-01  0.1137E+00
     -5.170  0.7217E-01  0.1183E+00
     -5.106  0.8658E-01  0.1239E+00
     -5.041  0.1339E+00  0.1326E+00
     -4.977  0.2229E+00  0.1469E+00
     -4.912  0.3359E+00  0.1686E+00
     -4.847  0.4258E+00  0.1961E+00
     -4.783  0.4652E+00  0.2262E+00
     -4.718  0.4712E+00  0.2566E+00
     -4.654  0.4570E+00  0.2861E+00
     -4.589  0.3968E+00  0.3117E+00
     -4.525  0.2726E+00  0.3293E+00
     -4.460  0.1226E+00  0.3372E+00
     -4.395  0.1417E-01  0.3381E+00
     -4.331 -0.1046E-01  0.3375E+00
     -4.266  0.5381E-01  0.3409E+00
     -4.202  0.1879E+00  0.3531E+00
     -4.137  0.3506E+00  0.3757E+00
     -4.073  0.4803E+00  0.4067E+00
     -4.008  0.5210E+00  0.4404E+00
     -3.944  0.4613E+00  0.4702E+00
     -3.879  0.3467E+00  0.4925E+00
     -3.814  0.2523E+00  0.5088E+00
     -3.750  0.2396E+00  0.5243E+00
     -3.685  0.3269E+00  0.5454E+00
     -3.621  0.4811E+00  0.5765E+00
     -3.556  0.6335E+00  0.6174E+00
     -3.492  0.7208E+00  0.6639E+00
     -3.427  0.7205E+00  0.7104E+00
     -3.362  0.6503E+00  0.7524E+00
     -3.298  0.5481E+00  0.7878E+00
     -3.233  0.4591E+00  0.8174E+00
     -3.169  0.4175E+00  0.8444E+00
     -3.104  0.4140E+00  0.8711E+00
     -3.040  0.3931E+00  0.8965E+00
     -2.975  0.3089E+00  0.9165E+00
     -2.910  0.1774E+00  0.9279E+00
     -2.846  0.5693E-01  0.9316E+00
     -2.781 -0.1150E-01  0.9309E+00
     -2.717 -0.2532E-01  0.9292E+00
     -2.652  0.3082E-02  0.9294E+00
     -2.588  0.6318E-01  0.9335E+00
     -2.523  0.1353E+00  0.9422E+00
     -2.458  0.1828E+00  0.9540E+00
     -2.394  0.1742E+00  0.9653E+00
     -2.329  0.1157E+00  0.9727E+00
     -2.265  0.5389E-01  0.9762E+00
     -2.200  0.4685E-01  0.9793E+00
     -2.136  0.1302E+00  0.9877E+00
     -2.071  0.2940E+00  0.1007E+01
     -2.007  0.4754E+00  0.1037E+01
     -1.942  0.5830E+00  0.1075E+01
     -1.877  0.5544E+00  0.1111E+01
     -1.813  0.4052E+00  0.1137E+01
     -1.748  0.2186E+00  0.1151E+01
     -1.684  0.8429E-01  0.1156E+01
     -1.619  0.4375E-01  0.1159E+01
     -1.555  0.7957E-01  0.1164E+01
     -1.490  0.1397E+00  0.1173E+01
     -1.425  0.1732E+00  0.1185E+01
     -1.361  0.1611E+00  0.1195E+01
     -1.296  0.1272E+00  0.1203E+01
     -1.232  0.1215E+00  0.1211E+01
     -1.167  0.1811E+00  0.1223E+01
     -1.103  0.2922E+00  0.1242E+01
     -1.038  0.3911E+00  0.1267E+01
     -0.973  0.4258E+00  0.1294E+01
     -0.909  0.4211E+00  0.1322E+01
     -0.844  0.4598E+00  0.1351E+01
     -0.780  0.5953E+00  0.1390E+01
     -0.715  0.7892E+00  0.1441E+01
     -0.651  0.9221E+00  0.1500E+01
     -0.586  0.8746E+00  0.1557E+01
     -0.521  0.6341E+00  0.1598E+01
     -0.457  0.3269E+00  0.1619E+01
     -0.392  0.1228E+00  0.1627E+01
     -0.328  0.1042E+00  0.1633E+01
     -0.263  0.2218E+00  0.1648E+01
     -0.199  0.3516E+00  0.1670E+01
     -0.134  0.3901E+00  0.1696E+01
     -0.069  0.3206E+00  0.1716E+01
     -0.005  0.2048E+00  0.1730E+01
      0.060  0.1168E+00  0.1737E+01
      0.124  0.9166E-01  0.1743E+01
      0.189  0.1268E+00  0.1751E+01
      0.253  0.2049E+00  0.1764E+01
      0.318  0.3041E+00  0.1784E+01
      0.382  0.3956E+00  0.1810E+01
      0.447  0.4424E+00  0.1838E+01
      0.512  0.4123E+00  0.1865E+01
      0.576  0.3058E+00  0.1885E+01
      0.641  0.1670E+00  0.1895E+01
      0.705  0.5394E-01  0.1899E+01
      0.770 -0.4629E-02  0.1898E+01
      0.834 -0.1892E-01  0.1897E+01
      0.899 -0.1451E-01  0.1896E+01
      0.964 -0.1032E-01  0.1896E+01
      1.028 -0.1504E-01  0.1895E+01
      1.093 -0.3060E-01  0.1893E+01
      1.157 -0.4570E-01  0.1890E+01
      1.222 -0.1961E-01  0.1888E+01
      1.286  0.1143E+00  0.1896E+01
      1.351  0.3904E+00  0.1921E+01
      1.416  0.7296E+00  0.1968E+01
      1.480  0.9469E+00  0.2029E+01
      1.545  0.8983E+00  0.2087E+01
      1.609  0.6274E+00  0.2128E+01
      1.674  0.3332E+00  0.2149E+01
      1.738  0.1911E+00  0.2162E+01
      1.803  0.2228E+00  0.2176E+01
      1.868  0.3219E+00  0.2197E+01
      1.932  0.3755E+00  0.2221E+01
      1.997  0.3689E+00  0.2245E+01
      2.061  0.3964E+00  0.2271E+01
      2.126  0.5688E+00  0.2307E+01
      2.190  0.8915E+00  0.2365E+01
      2.255  0.1225E+01  0.2444E+01
      2.319  0.1375E+01  0.2533E+01
      2.384  0.1240E+01  0.2613E+01
      2.449  0.8825E+00  0.2670E+01
      2.513  0.4691E+00  0.2700E+01
      2.578  0.1488E+00  0.2710E+01
      2.642 -0.2619E-01  0.2708E+01
      2.707 -0.7918E-01  0.2703E+01
      2.771 -0.3157E-01  0.2701E+01
      2.836  0.1421E+00  0.2710E+01
      2.901  0.4687E+00  0.2740E+01
      2.965  0.8873E+00  0.2798E+01
      3.030  0.1240E+01  0.2878E+01
      3.094  0.1384E+01  0.2967E+01
      3.159  0.1309E+01  0.3051E+01
      3.223  0.1117E+01  0.3124E+01
      3.288  0.9123E+00  0.3182E+01
      3.353  0.7476E+00  0.3231E+01
      3.417  0.6483E+00  0.3273E+01
      3.482  0.6294E+00  0.3313E+01
      3.546  0.6686E+00  0.3356E+01
      3.611  0.6974E+00  0.3401E+01
      3.675  0.6561E+00  0.3444E+01
      3.740  0.5597E+00  0.3480E+01
      3.805  0.4834E+00  0.3511E+01
      3.869  0.4756E+00  0.3542E+01
      3.934  0.5111E+00  0.3575E+01
      3.998  0.5380E+00  0.3610E+01
      4.063  0.5460E+00  0.3645E+01
      4.127  0.5730E+00  0.3682E+01
      4.192  0.6554E+00  0.3724E+01
      4.257  0.7844E+00  0.3775E+01
      4.321  0.9035E+00  0.3833E+01
      4.386  0.9489E+00  0.3894E+01
      4.450  0.8939E+00  0.3952E+01
      4.515  0.7587E+00  0.4001E+01
      4.579  0.5833E+00  0.4039E+01
      4.644  0.4048E+00  0.4065E+01
      4.708  0.2579E+00  0.4082E+01
      4.773  0.1751E+00  0.4093E+01
      4.838  0.1704E+00  0.4104E+01
      4.902  0.2271E+00  0.4119E+01
      4.967  0.3020E+00  0.4138E+01
      5.031  0.3430E+00  0.4160E+01
      5.096  0.3150E+00  0.4181E+01
      5.160  0.2260E+00  0.4195E+01
      5.225  0.1252E+00  0.4203E+01
      5.290  0.6673E-01  0.4208E+01
      5.354  0.7067E-01  0.4212E+01
      5.419  0.1154E+00  0.4220E+01
      5.483  0.1599E+00  0.4230E+01
      5.548  0.1717E+00  0.4241E+01
      5.612  0.1444E+00  0.4250E+01
      5.677  0.9690E-01  0.4257E+01
      5.742  0.5564E-01  0.4260E+01
      5.806  0.3342E-01  0.4262E+01
      5.871  0.2419E-01  0.4264E+01
      5.935  0.1755E-01  0.4265E+01
      6.000  0.1422E-01  0.4266E+01
      6.064  0.2437E-01  0.4267E+01
      6.129  0.5267E-01  0.4271E+01
      6.194  0.8908E-01  0.4277E+01
      6.258  0.1168E+00  0.4284E+01
      6.323  0.1269E+00  0.4292E+01
      6.387  0.1205E+00  0.4300E+01
      6.452  0.1025E+00  0.4307E+01
      6.516  0.7988E-01  0.4312E+01
      6.581  0.6653E-01  0.4316E+01
      6.645  0.7745E-01  0.4321E+01
      6.710  0.1128E+00  0.4328E+01
      6.775  0.1556E+00  0.4339E+01
      6.839  0.1900E+00  0.4351E+01
      6.904  0.2165E+00  0.4365E+01
      6.968  0.2466E+00  0.4381E+01
      7.033  0.2890E+00  0.4399E+01
      7.097  0.3432E+00  0.4422E+01
      7.162  0.3966E+00  0.4447E+01
      7.227  0.4250E+00  0.4475E+01
      7.291  0.4101E+00  0.4501E+01
      7.356  0.3664E+00  0.4525E+01
      7.420  0.3419E+00  0.4547E+01
      7.485  0.3744E+00  0.4571E+01
      7.549  0.4534E+00  0.4600E+01
      7.614  0.5417E+00  0.4635E+01
      7.679  0.6226E+00  0.4675E+01
      7.743  0.6975E+00  0.4720E+01
      7.808  0.7543E+00  0.4769E+01
      7.872  0.7785E+00  0.4819E+01
      7.937  0.7896E+00  0.4870E+01
      8.001  0.8214E+00  0.4923E+01
      8.066  0.8696E+00  0.4980E+01
      8.131  0.8970E+00  0.5037E+01
      8.195  0.8848E+00  0.5095E+01
      8.260  0.8428E+00  0.5149E+01
      8.324  0.7760E+00  0.5199E+01
      8.389  0.6762E+00  0.5243E+01
      8.453  0.5498E+00  0.5278E+01
      8.518  0.4276E+00  0.5306E+01
      8.583  0.3397E+00  0.5328E+01
      8.647  0.2891E+00  0.5347E+01
      8.712  0.2535E+00  0.5363E+01
      8.776  0.2085E+00  0.5376E+01
      8.841  0.1467E+00  0.5386E+01
      8.905  0.8028E-01  0.5391E+01
      8.970  0.3065E-01  0.5393E+01
      9.034  0.1066E-01  0.5394E+01
      9.099  0.1510E-01  0.5395E+01
      9.164  0.2634E-01  0.5396E+01
      9.228  0.2926E-01  0.5398E+01
      9.293  0.2124E-01  0.5400E+01
      9.357  0.9486E-02  0.5400E+01
      9.422  0.1278E-02  0.5400E+01
      9.486 -0.1675E-02  0.5400E+01
      9.551 -0.1587E-02  0.5400E+01
      9.616 -0.8029E-03  0.5400E+01
      9.680 -0.2836E-03  0.5400E+01
      9.745 -0.7514E-04  0.5400E+01
      9.809 -0.1539E-04  0.5400E+01
      9.874 -0.2474E-05  0.5400E+01
      9.938 -0.3153E-06  0.5400E+01
     10.003 -0.3204E-07  0.5400E+01
     10.068 -0.2607E-08  0.5400E+01
     10.132 -0.1703E-09  0.5400E+01
     10.197 -0.8949E-11  0.5400E+01
     10.261 -0.3791E-12  0.5400E+01
     10.326 -0.1294E-13  0.5400E+01
     10.390 -0.3726E-15  0.5400E+01
     10.455  0.0000E+00  0.5400E+01
     10.520  0.0000E+00  0.5400E+01
     10.584  0.0000E+00  0.5400E+01
     10.649  0.0000E+00  0.5400E+01
     10.713  0.0000E+00  0.5400E+01
     10.778  0.0000E+00  0.5400E+01
     10.842  0.0000E+00  0.5400E+01
     10.907  0.0000E+00  0.5400E+01
     10.971  0.0000E+00  0.5400E+01
     11.036  0.0000E+00  0.5400E+01
     11.101  0.0000E+00  0.5400E+01
     11.165  0.0000E+00  0.5400E+01
