       N       E                     dE             d eps       ncg     rms          rms(c)
DAV:   1     0.558247963411E+03    0.55825E+03   -0.83894E+04  2592   0.106E+03
DAV:   2    -0.309631818110E+03   -0.86788E+03   -0.82209E+03  3080   0.171E+02
DAV:   3    -0.372851655001E+03   -0.63220E+02   -0.62023E+02  3136   0.410E+01
DAV:   4    -0.374504026516E+03   -0.16524E+01   -0.16415E+01  3136   0.803E+00
DAV:   5    -0.374555261913E+03   -0.51235E-01   -0.51124E-01  3094   0.132E+00    0.280E+01
RMM:   6    -0.369584792047E+03    0.49705E+01   -0.24771E+00  2592   0.245E+00    0.169E+01
RMM:   7    -0.367304761308E+03    0.22800E+01   -0.63600E+00  2627   0.396E+00    0.931E-01
RMM:   8    -0.367350834657E+03   -0.46073E-01   -0.64160E-01  2634   0.152E+00    0.494E-01
RMM:   9    -0.367370177546E+03   -0.19343E-01   -0.17976E-01  2670   0.749E-01    0.573E-01
RMM:  10    -0.367373663637E+03   -0.34861E-02   -0.31302E-02  2748   0.350E-01    0.785E-01
RMM:  11    -0.367371368897E+03    0.22947E-02   -0.11214E-02  2592   0.212E-01    0.602E-01
RMM:  12    -0.367371516582E+03   -0.14768E-03   -0.17549E-03  2603   0.985E-02    0.575E-01
RMM:  13    -0.367371565156E+03   -0.48575E-04   -0.32848E-04  2794   0.399E-02    0.678E-01
RMM:  14    -0.367371612551E+03   -0.47394E-04   -0.87894E-05  2600   0.232E-02    0.289E-01
RMM:  15    -0.367371658475E+03   -0.45925E-04   -0.27229E-05  2648   0.116E-02    0.225E-01
RMM:  16    -0.367371686554E+03   -0.28079E-04   -0.18868E-05  2592   0.989E-03    0.118E-01
RMM:  17    -0.367371694955E+03   -0.84011E-05   -0.91677E-06  2592   0.692E-03    0.309E-02
RMM:  18    -0.367371695880E+03   -0.92553E-06   -0.29419E-06  1766   0.367E-03
   1 F= -.36737170E+03 E0= -.36738042E+03  d E =-.367372E+03
       N       E                     dE             d eps       ncg     rms          rms(c)
DAV:   1    -0.367405304168E+03   -0.33609E-01   -0.15180E+00  2944   0.235E+00    0.523E-01
RMM:   2    -0.367412978146E+03   -0.76740E-02   -0.80600E-02  2592   0.590E-01    0.213E-01
RMM:   3    -0.367414269230E+03   -0.12911E-02   -0.13231E-02  2642   0.268E-01    0.921E-02
RMM:   4    -0.367414295745E+03   -0.26515E-04   -0.18432E-03  2687   0.113E-01    0.333E-02
RMM:   5    -0.367414308328E+03   -0.12583E-04   -0.30649E-04  2665   0.443E-02    0.695E-03
RMM:   6    -0.367414315996E+03   -0.76681E-05   -0.76438E-05  2796   0.198E-02    0.200E-03
RMM:   7    -0.367414316896E+03   -0.90016E-06   -0.93320E-06  2182   0.697E-03    0.139E-03
RMM:   8    -0.367414317066E+03   -0.16950E-06   -0.20097E-06  1719   0.311E-03
   2 F= -.36741432E+03 E0= -.36742135E+03  d E =-.426212E-01
       N       E                     dE             d eps       ncg     rms          rms(c)
DAV:   1    -0.367417515980E+03   -0.31991E-02   -0.73668E-02  2950   0.517E-01    0.115E-01
RMM:   2    -0.367417882862E+03   -0.36688E-03   -0.38153E-03  2592   0.129E-01    0.475E-02
RMM:   3    -0.367417942062E+03   -0.59200E-04   -0.60731E-04  2641   0.585E-02    0.199E-02
RMM:   4    -0.367417943574E+03   -0.15128E-05   -0.84686E-05  2678   0.245E-02    0.718E-03
RMM:   5    -0.367417944275E+03   -0.70019E-06   -0.14109E-05  2556   0.957E-03    0.154E-03
RMM:   6    -0.367417944571E+03   -0.29657E-06   -0.32897E-06  1788   0.429E-03    0.343E-04
RMM:   7    -0.367417944619E+03   -0.48381E-07   -0.53846E-07  1525   0.171E-03    0.263E-04
RMM:   8    -0.367417944642E+03   -0.22615E-07   -0.14058E-07  1164   0.866E-04
   3 F= -.36741794E+03 E0= -.36742556E+03  d E =-.462488E-01
