   8   8   0   0
  0.5642563E+01  0.3536889E-09  0.3572615E-09  0.3572570E-09  0.5000000E-15
  1.000000000000000E-004
  CAR 
 C8                                      
     23.88414829    -13.74250278  301      9.97012628      1.00000000
    -13.743  0.0000E+00  0.0000E+00
    -13.617  0.0000E+00  0.0000E+00
    -13.492  0.0000E+00  0.0000E+00
    -13.366  0.0000E+00  0.0000E+00
    -13.241  0.0000E+00  0.0000E+00
    -13.115  0.0000E+00  0.0000E+00
    -12.990  0.0000E+00  0.0000E+00
    -12.865  0.0000E+00  0.0000E+00
    -12.739  0.0000E+00  0.0000E+00
    -12.614  0.0000E+00  0.0000E+00
    -12.488  0.0000E+00  0.0000E+00
    -12.363  0.0000E+00  0.0000E+00
    -12.237  0.0000E+00  0.0000E+00
    -12.112  0.0000E+00  0.0000E+00
    -11.987  0.0000E+00  0.0000E+00
    -11.861  0.0000E+00  0.0000E+00
    -11.736  0.2257E-02  0.5082E-05
    -11.610  0.1779E+00  0.1167E-01
    -11.485  0.2227E+00  0.3518E-01
    -11.359  0.2693E+00  0.6620E-01
    -11.234  0.3176E+00  0.1028E+00
    -11.109  0.3506E+00  0.1448E+00
    -10.983  0.3882E+00  0.1911E+00
    -10.858  0.4196E+00  0.2419E+00
    -10.732  0.4481E+00  0.2963E+00
    -10.607  0.4799E+00  0.3544E+00
    -10.482  0.5049E+00  0.4163E+00
    -10.356  0.5294E+00  0.4811E+00
    -10.231  0.5565E+00  0.5492E+00
    -10.105  0.5805E+00  0.6206E+00
     -9.980  0.6020E+00  0.6947E+00
     -9.854  0.6249E+00  0.7716E+00
     -9.729  0.6494E+00  0.8515E+00
     -9.604  0.7930E+00  0.9436E+00
     -9.478  0.7127E+00  0.1035E+01
     -9.353  0.6711E+00  0.1122E+01
     -9.227  0.6421E+00  0.1204E+01
     -9.102  0.7836E+00  0.1291E+01
     -8.976  0.7773E+00  0.1386E+01
     -8.851  0.7887E+00  0.1485E+01
     -8.726  0.8131E+00  0.1585E+01
     -8.600  0.8327E+00  0.1688E+01
     -8.475  0.8504E+00  0.1794E+01
     -8.349  0.8690E+00  0.1902E+01
     -8.224  0.8895E+00  0.2012E+01
     -8.099  0.9097E+00  0.2125E+01
     -7.973  0.9283E+00  0.2240E+01
     -7.848  0.9496E+00  0.2358E+01
     -7.722  0.1015E+01  0.2480E+01
     -7.597  0.1004E+01  0.2605E+01
     -7.471  0.1028E+01  0.2731E+01
     -7.346  0.1047E+01  0.2862E+01
     -7.221  0.1146E+01  0.2996E+01
     -7.095  0.1090E+01  0.3134E+01
     -6.970  0.1057E+01  0.3268E+01
     -6.844  0.1051E+01  0.3399E+01
     -6.719  0.1190E+01  0.3537E+01
     -6.593  0.1197E+01  0.3685E+01
     -6.468  0.1194E+01  0.3835E+01
     -6.343  0.1233E+01  0.3987E+01
     -6.217  0.1304E+01  0.4145E+01
     -6.092  0.1371E+01  0.4313E+01
     -5.966  0.1524E+01  0.4494E+01
     -5.841  0.1562E+01  0.4687E+01
     -5.715  0.1513E+01  0.4880E+01
     -5.590  0.1453E+01  0.5065E+01
     -5.465  0.1459E+01  0.5248E+01
     -5.339  0.1376E+01  0.5425E+01
     -5.214  0.1365E+01  0.5597E+01
     -5.088  0.1305E+01  0.5765E+01
     -4.963  0.1282E+01  0.5928E+01
     -4.838  0.1222E+01  0.6084E+01
     -4.712  0.1206E+01  0.6238E+01
     -4.587  0.1232E+01  0.6388E+01
     -4.461  0.1141E+01  0.6535E+01
     -4.336  0.1080E+01  0.6674E+01
     -4.210  0.1040E+01  0.6807E+01
     -4.085  0.1009E+01  0.6935E+01
     -3.960  0.1011E+01  0.7060E+01
     -3.834  0.9702E+00  0.7184E+01
     -3.709  0.9078E+00  0.7301E+01
     -3.583  0.8638E+00  0.7412E+01
     -3.458  0.1044E+01  0.7535E+01
     -3.332  0.1134E+01  0.7668E+01
     -3.207  0.1081E+01  0.7808E+01
     -3.082  0.1097E+01  0.7945E+01
     -2.956  0.1078E+01  0.8085E+01
     -2.831  0.9926E+00  0.8213E+01
     -2.705  0.9806E+00  0.8334E+01
     -2.580  0.9754E+00  0.8457E+01
     -2.455  0.1039E+01  0.8581E+01
     -2.329  0.1162E+01  0.8716E+01
     -2.204  0.1324E+01  0.8871E+01
     -2.078  0.1515E+01  0.9047E+01
     -1.953  0.1903E+01  0.9261E+01
     -1.827  0.2412E+01  0.9528E+01
     -1.702  0.2790E+01  0.9856E+01
     -1.577  0.2502E+01  0.1019E+02
     -1.451  0.2045E+01  0.1047E+02
     -1.326  0.1835E+01  0.1071E+02
     -1.200  0.1713E+01  0.1093E+02
     -1.075  0.1674E+01  0.1114E+02
     -0.949  0.1572E+01  0.1135E+02
     -0.824  0.1402E+01  0.1153E+02
     -0.699  0.1342E+01  0.1170E+02
     -0.573  0.1298E+01  0.1187E+02
     -0.448  0.1252E+01  0.1203E+02
     -0.322  0.1198E+01  0.1218E+02
     -0.197  0.1160E+01  0.1233E+02
     -0.071  0.1138E+01  0.1247E+02
      0.054  0.1079E+01  0.1261E+02
      0.179  0.1051E+01  0.1275E+02
      0.305  0.1101E+01  0.1288E+02
      0.430  0.1114E+01  0.1302E+02
      0.556  0.1363E+01  0.1317E+02
      0.681  0.1688E+01  0.1336E+02
      0.806  0.1706E+01  0.1358E+02
      0.932  0.1797E+01  0.1380E+02
      1.057  0.2128E+01  0.1404E+02
      1.183  0.2179E+01  0.1430E+02
      1.308  0.2197E+01  0.1458E+02
      1.434  0.2211E+01  0.1485E+02
      1.559  0.2393E+01  0.1514E+02
      1.684  0.2034E+01  0.1542E+02
      1.810  0.1463E+01  0.1564E+02
      1.935  0.1555E+01  0.1582E+02
      2.061  0.1959E+01  0.1603E+02
      2.186  0.2368E+01  0.1631E+02
      2.312  0.2253E+01  0.1660E+02
      2.437  0.2190E+01  0.1688E+02
      2.562  0.2285E+01  0.1716E+02
      2.688  0.2347E+01  0.1745E+02
      2.813  0.2334E+01  0.1774E+02
      2.939  0.2454E+01  0.1804E+02
      3.064  0.2654E+01  0.1836E+02
      3.189  0.2846E+01  0.1871E+02
      3.315  0.2626E+01  0.1905E+02
      3.440  0.2991E+01  0.1939E+02
      3.566  0.2951E+01  0.1976E+02
      3.691  0.3071E+01  0.2014E+02
      3.817  0.3297E+01  0.2053E+02
      3.942  0.3238E+01  0.2094E+02
      4.067  0.3084E+01  0.2133E+02
      4.193  0.3147E+01  0.2173E+02
      4.318  0.2889E+01  0.2210E+02
      4.444  0.3167E+01  0.2248E+02
      4.569  0.3030E+01  0.2287E+02
      4.695  0.2727E+01  0.2322E+02
      4.820  0.2713E+01  0.2357E+02
      4.945  0.2771E+01  0.2390E+02
      5.071  0.3035E+01  0.2427E+02
      5.196  0.2959E+01  0.2465E+02
      5.322  0.2926E+01  0.2501E+02
      5.447  0.2872E+01  0.2538E+02
      5.573  0.2668E+01  0.2573E+02
      5.698  0.2634E+01  0.2606E+02
      5.823  0.2561E+01  0.2639E+02
      5.949  0.2665E+01  0.2672E+02
      6.074  0.2694E+01  0.2705E+02
      6.200  0.2748E+01  0.2739E+02
      6.325  0.2682E+01  0.2773E+02
      6.450  0.2607E+01  0.2806E+02
      6.576  0.2573E+01  0.2838E+02
      6.701  0.3011E+01  0.2871E+02
      6.827  0.2726E+01  0.2904E+02
      6.952  0.1834E+01  0.2931E+02
      7.078  0.1751E+01  0.2952E+02
      7.203  0.2243E+01  0.2977E+02
      7.328  0.1996E+01  0.3003E+02
      7.454  0.1759E+01  0.3026E+02
      7.579  0.1399E+01  0.3044E+02
      7.705  0.1286E+01  0.3061E+02
      7.830  0.1193E+01  0.3077E+02
      7.956  0.1105E+01  0.3091E+02
      8.081  0.1029E+01  0.3105E+02
      8.206  0.9441E+00  0.3117E+02
      8.332  0.8731E+00  0.3128E+02
      8.457  0.8028E+00  0.3139E+02
      8.583  0.7421E+00  0.3148E+02
      8.708  0.6756E+00  0.3157E+02
      8.833  0.6125E+00  0.3165E+02
      8.959  0.5406E+00  0.3173E+02
      9.084  0.4952E+00  0.3179E+02
      9.210  0.4327E+00  0.3185E+02
      9.335  0.3632E+00  0.3190E+02
      9.461  0.2948E+00  0.3194E+02
      9.586  0.2258E+00  0.3197E+02
      9.711  0.9391E-01  0.3199E+02
      9.837  0.1876E-01  0.3200E+02
      9.962  0.0000E+00  0.3200E+02
     10.088  0.0000E+00  0.3200E+02
     10.213  0.0000E+00  0.3200E+02
     10.339  0.0000E+00  0.3200E+02
     10.464  0.0000E+00  0.3200E+02
     10.589  0.0000E+00  0.3200E+02
     10.715  0.0000E+00  0.3200E+02
     10.840  0.0000E+00  0.3200E+02
     10.966  0.0000E+00  0.3200E+02
     11.091  0.0000E+00  0.3200E+02
     11.217  0.0000E+00  0.3200E+02
     11.342  0.0000E+00  0.3200E+02
     11.467  0.0000E+00  0.3200E+02
     11.593  0.0000E+00  0.3200E+02
     11.718  0.0000E+00  0.3200E+02
     11.844  0.0000E+00  0.3200E+02
     11.969  0.0000E+00  0.3200E+02
     12.094  0.0000E+00  0.3200E+02
     12.220  0.0000E+00  0.3200E+02
     12.345  0.0000E+00  0.3200E+02
     12.471  0.0000E+00  0.3200E+02
     12.596  0.0000E+00  0.3200E+02
     12.722  0.0000E+00  0.3200E+02
     12.847  0.0000E+00  0.3200E+02
     12.972  0.0000E+00  0.3200E+02
     13.098  0.0000E+00  0.3200E+02
     13.223  0.0000E+00  0.3200E+02
     13.349  0.0000E+00  0.3200E+02
     13.474  0.0000E+00  0.3200E+02
     13.600  0.0000E+00  0.3200E+02
     13.725  0.0000E+00  0.3200E+02
     13.850  0.2156E-01  0.3200E+02
     13.976  0.1010E+00  0.3201E+02
     14.101  0.1914E+00  0.3202E+02
     14.227  0.3915E+00  0.3206E+02
     14.352  0.5565E+00  0.3212E+02
     14.477  0.5978E+00  0.3219E+02
     14.603  0.7689E+00  0.3228E+02
     14.728  0.8584E+00  0.3238E+02
     14.854  0.1011E+01  0.3250E+02
     14.979  0.1140E+01  0.3263E+02
     15.105  0.1350E+01  0.3278E+02
     15.230  0.1491E+01  0.3296E+02
     15.355  0.1530E+01  0.3315E+02
     15.481  0.1614E+01  0.3335E+02
     15.606  0.1652E+01  0.3355E+02
     15.732  0.1810E+01  0.3376E+02
     15.857  0.1938E+01  0.3400E+02
     15.983  0.2010E+01  0.3425E+02
     16.108  0.2005E+01  0.3450E+02
     16.233  0.1958E+01  0.3475E+02
     16.359  0.2103E+01  0.3500E+02
     16.484  0.2279E+01  0.3528E+02
     16.610  0.2350E+01  0.3557E+02
     16.735  0.2413E+01  0.3586E+02
     16.861  0.2462E+01  0.3617E+02
     16.986  0.2565E+01  0.3648E+02
     17.111  0.2735E+01  0.3682E+02
     17.237  0.2821E+01  0.3717E+02
     17.362  0.2921E+01  0.3752E+02
     17.488  0.3144E+01  0.3790E+02
     17.613  0.3157E+01  0.3829E+02
     17.738  0.3773E+01  0.3872E+02
     17.864  0.3872E+01  0.3919E+02
     17.989  0.4539E+01  0.3971E+02
     18.115  0.4964E+01  0.4029E+02
     18.240  0.3466E+01  0.4080E+02
     18.366  0.3490E+01  0.4120E+02
     18.491  0.3524E+01  0.4163E+02
     18.616  0.3896E+01  0.4209E+02
     18.742  0.3590E+01  0.4255E+02
     18.867  0.3709E+01  0.4300E+02
     18.993  0.3382E+01  0.4344E+02
     19.118  0.3174E+01  0.4385E+02
     19.244  0.3018E+01  0.4424E+02
     19.369  0.2834E+01  0.4461E+02
     19.494  0.2669E+01  0.4495E+02
     19.620  0.2683E+01  0.4529E+02
     19.745  0.2826E+01  0.4563E+02
     19.871  0.2686E+01  0.4598E+02
     19.996  0.2636E+01  0.4630E+02
     20.121  0.2341E+01  0.4662E+02
     20.247  0.2027E+01  0.4689E+02
     20.372  0.1858E+01  0.4714E+02
     20.498  0.1697E+01  0.4736E+02
     20.623  0.1379E+01  0.4755E+02
     20.749  0.1119E+01  0.4770E+02
     20.874  0.7752E+00  0.4782E+02
     20.999  0.5002E+00  0.4791E+02
     21.125  0.2054E+00  0.4795E+02
     21.250  0.1445E+00  0.4797E+02
     21.376  0.9928E-01  0.4798E+02
     21.501  0.6196E-01  0.4799E+02
     21.627  0.2611E-01  0.4800E+02
     21.752  0.8239E-02  0.4800E+02
     21.877  0.1867E-04  0.4800E+02
     22.003  0.0000E+00  0.4800E+02
     22.128  0.0000E+00  0.4800E+02
     22.254  0.0000E+00  0.4800E+02
     22.379  0.0000E+00  0.4800E+02
     22.505  0.0000E+00  0.4800E+02
     22.630  0.0000E+00  0.4800E+02
     22.755  0.0000E+00  0.4800E+02
     22.881  0.0000E+00  0.4800E+02
     23.006  0.0000E+00  0.4800E+02
     23.132  0.0000E+00  0.4800E+02
     23.257  0.0000E+00  0.4800E+02
     23.382  0.0000E+00  0.4800E+02
     23.508  0.0000E+00  0.4800E+02
     23.633  0.0000E+00  0.4800E+02
     23.759  0.0000E+00  0.4800E+02
     23.884  0.0000E+00  0.4800E+02
