       N       E                     dE             d eps       ncg     rms          rms(c)
DAV:   1     0.674904914333E+02    0.67490E+02   -0.17894E+04 62640   0.131E+03
DAV:   2    -0.724084324878E+02   -0.13990E+03   -0.13710E+03 83328   0.231E+02
DAV:   3    -0.753028898869E+02   -0.28945E+01   -0.28909E+01 88140   0.362E+01
DAV:   4    -0.753213053140E+02   -0.18415E-01   -0.18410E-01 81000   0.293E+00
DAV:   5    -0.753215684153E+02   -0.26310E-03   -0.26305E-03 87528   0.326E-01    0.112E+01
RMM:   6    -0.733651592863E+02    0.19564E+01   -0.12128E+00 62762   0.640E+00    0.664E+00
RMM:   7    -0.727092946279E+02    0.65586E+00   -0.19293E+00 68900   0.857E+00    0.144E+00
RMM:   8    -0.727237850057E+02   -0.14490E-01   -0.10972E-01 67348   0.248E+00    0.244E-01
RMM:   9    -0.727248723940E+02   -0.10874E-02   -0.20546E-02 73381   0.964E-01    0.126E-01
RMM:  10    -0.727250234120E+02   -0.15102E-03   -0.29680E-03 73044   0.363E-01    0.398E-02
RMM:  11    -0.727250868051E+02   -0.63393E-04   -0.67544E-04 77121   0.153E-01    0.934E-03
RMM:  12    -0.727250977684E+02   -0.10963E-04   -0.10240E-04 78235   0.629E-02    0.145E-02
RMM:  13    -0.727251027539E+02   -0.49855E-05   -0.25366E-05 75938   0.250E-02    0.410E-03
RMM:  14    -0.727251023282E+02    0.42567E-06   -0.37288E-06 62655   0.108E-02
   1 F= -.72725102E+02 E0= -.72725102E+02  d E =0.000000E+00
