<?xml version="1.0" encoding="ISO-8859-1"?>
<modeling>
 <generator>
  <i name="program" type="string">vasp </i>
  <i name="version" type="string">6.4.3  </i>
  <i name="subversion" type="string">19Mar24 (build Oct 21 2024 22:36:34) complex                          parallel </i>
  <i name="platform" type="string">LinuxIFC </i>
  <i name="date" type="string">2024 12 26 </i>
  <i name="time" type="string">00:34:20 </i>
 </generator>
 <incar>
  <i type="string" name="SYSTEM">C8</i>
  <i type="int" name="ISTART">     0</i>
  <i type="string" name="PREC">Normal</i>
  <i type="string" name="ALGO">Fast</i>
  <i type="logical" name="ADDGRID"> T  </i>
  <i type="int" name="ICHARG">     2</i>
  <i type="int" name="NELM">    60</i>
  <i type="int" name="NELMIN">     8</i>
  <i type="int" name="IBRION">    -1</i>
  <i name="EDIFF">      0.00000100</i>
  <i type="int" name="NSW">     0</i>
  <i type="int" name="ISIF">     2</i>
  <i name="ENCUT">    520.00000000</i>
  <i type="string" name="LREAL">Auto</i>
  <i type="int" name="ISMEAR">    -5</i>
  <i type="logical" name="LWAVE"> F  </i>
  <i type="logical" name="LCHARG"> F  </i>
 </incar>
 <primitive_cell>
  <structure name="primitive_cell" >
   <crystal>
    <varray name="basis" >
     <v>      -1.76842201       0.00893150      -1.78628501 </v>
     <v>      -1.76842201       0.00893150       1.78628501 </v>
     <v>       1.75949051       1.77735351       0.00000000 </v>
    </varray>
    <i name="volume">     11.28512683 </i>
    <varray name="rec_basis" >
     <v>      -0.28133135       0.27850387      -0.27991054 </v>
     <v>      -0.28133135       0.27850387       0.27991054 </v>
     <v>       0.00282747       0.55983522      -0.00000000 </v>
    </varray>
   </crystal>
   <varray name="positions" >
    <v>       0.50000000       0.50000000       1.00000000 </v>
    <v>       0.25000000       0.75000000       0.50000000 </v>
   </varray>
  </structure>
  <varray name="primitive_index" >
   <v type="int" >        1 </v>
   <v type="int" >        2 </v>
  </varray>
 </primitive_cell>
 <kpoints>
  <generation param="Gamma">
   <v type="int" name="divisions">      17       17       17 </v>
   <v name="usershift">      0.00000000       0.00000000       0.00000000 </v>
   <v name="genvec1">      0.05882353      -0.00000000       0.00000000 </v>
   <v name="genvec2">      0.00000000       0.05882353       0.00000000 </v>
   <v name="genvec3">      0.00000000       0.00000000       0.05882353 </v>
   <v name="shift">      0.00000000       0.00000000       0.00000000 </v>
  </generation>
  <varray name="kpointlist" >
   <v>       0.00000000       0.00000000       0.00000000 </v>
   <v>       0.05882353       0.00000000       0.00000000 </v>
   <v>       0.11764706       0.00000000       0.00000000 </v>
   <v>       0.17647059       0.00000000       0.00000000 </v>
   <v>       0.23529412       0.00000000       0.00000000 </v>
   <v>       0.29411765       0.00000000       0.00000000 </v>
   <v>       0.35294118       0.00000000       0.00000000 </v>
   <v>       0.41176471      -0.00000000       0.00000000 </v>
   <v>       0.47058824       0.00000000       0.00000000 </v>
   <v>       0.00000000       0.05882353       0.00000000 </v>
   <v>       0.05882353       0.05882353       0.00000000 </v>
   <v>       0.11764706       0.05882353       0.00000000 </v>
   <v>       0.17647059       0.05882353       0.00000000 </v>
   <v>       0.23529412       0.05882353       0.00000000 </v>
   <v>       0.29411765       0.05882353       0.00000000 </v>
   <v>       0.35294118       0.05882353       0.00000000 </v>
   <v>       0.41176471       0.05882353       0.00000000 </v>
   <v>       0.47058824       0.05882353       0.00000000 </v>
   <v>      -0.47058824       0.05882353       0.00000000 </v>
   <v>      -0.41176471       0.05882353       0.00000000 </v>
   <v>      -0.35294118       0.05882353       0.00000000 </v>
   <v>      -0.29411765       0.05882353       0.00000000 </v>
   <v>      -0.23529412       0.05882353       0.00000000 </v>
   <v>      -0.17647059       0.05882353       0.00000000 </v>
   <v>      -0.11764706       0.05882353       0.00000000 </v>
   <v>      -0.05882353       0.05882353       0.00000000 </v>
   <v>       0.00000000       0.11764706       0.00000000 </v>
   <v>       0.05882353       0.11764706       0.00000000 </v>
   <v>       0.11764706       0.11764706       0.00000000 </v>
   <v>       0.17647059       0.11764706       0.00000000 </v>
   <v>       0.23529412       0.11764706       0.00000000 </v>
   <v>       0.29411765       0.11764706       0.00000000 </v>
   <v>       0.35294118       0.11764706       0.00000000 </v>
   <v>       0.41176471       0.11764706       0.00000000 </v>
   <v>       0.47058824       0.11764706       0.00000000 </v>
   <v>      -0.47058824       0.11764706       0.00000000 </v>
   <v>      -0.41176471       0.11764706       0.00000000 </v>
   <v>      -0.35294118       0.11764706       0.00000000 </v>
   <v>      -0.29411765       0.11764706       0.00000000 </v>
   <v>      -0.23529412       0.11764706       0.00000000 </v>
   <v>      -0.17647059       0.11764706       0.00000000 </v>
   <v>      -0.11764706       0.11764706       0.00000000 </v>
   <v>      -0.05882353       0.11764706       0.00000000 </v>
   <v>       0.00000000       0.17647059       0.00000000 </v>
   <v>       0.05882353       0.17647059       0.00000000 </v>
   <v>       0.11764706       0.17647059       0.00000000 </v>
   <v>       0.17647059       0.17647059       0.00000000 </v>
   <v>       0.23529412       0.17647059       0.00000000 </v>
   <v>       0.29411765       0.17647059       0.00000000 </v>
   <v>       0.35294118       0.17647059       0.00000000 </v>
   <v>       0.41176471       0.17647059       0.00000000 </v>
   <v>       0.47058824       0.17647059       0.00000000 </v>
   <v>      -0.47058824       0.17647059       0.00000000 </v>
   <v>      -0.41176471       0.17647059       0.00000000 </v>
   <v>      -0.35294118       0.17647059       0.00000000 </v>
   <v>      -0.29411765       0.17647059       0.00000000 </v>
   <v>      -0.23529412       0.17647059       0.00000000 </v>
   <v>      -0.17647059       0.17647059       0.00000000 </v>
   <v>      -0.11764706       0.17647059       0.00000000 </v>
   <v>      -0.05882353       0.17647059       0.00000000 </v>
   <v>       0.00000000       0.23529412       0.00000000 </v>
   <v>       0.05882353       0.23529412       0.00000000 </v>
   <v>       0.11764706       0.23529412       0.00000000 </v>
   <v>       0.17647059       0.23529412       0.00000000 </v>
   <v>       0.23529412       0.23529412       0.00000000 </v>
   <v>       0.29411765       0.23529412       0.00000000 </v>
   <v>       0.35294118       0.23529412       0.00000000 </v>
   <v>       0.41176471       0.23529412       0.00000000 </v>
   <v>       0.47058824       0.23529412       0.00000000 </v>
   <v>      -0.47058824       0.23529412       0.00000000 </v>
   <v>      -0.41176471       0.23529412       0.00000000 </v>
   <v>      -0.35294118       0.23529412       0.00000000 </v>
   <v>      -0.29411765       0.23529412       0.00000000 </v>
   <v>      -0.23529412       0.23529412       0.00000000 </v>
   <v>      -0.17647059       0.23529412       0.00000000 </v>
   <v>      -0.11764706       0.23529412       0.00000000 </v>
   <v>      -0.05882353       0.23529412       0.00000000 </v>
   <v>       0.00000000       0.29411765       0.00000000 </v>
   <v>       0.05882353       0.29411765       0.00000000 </v>
   <v>       0.11764706       0.29411765       0.00000000 </v>
   <v>       0.17647059       0.29411765       0.00000000 </v>
   <v>       0.23529412       0.29411765       0.00000000 </v>
   <v>       0.29411765       0.29411765       0.00000000 </v>
   <v>       0.35294118       0.29411765       0.00000000 </v>
   <v>       0.41176471       0.29411765       0.00000000 </v>
   <v>       0.47058824       0.29411765       0.00000000 </v>
   <v>      -0.47058824       0.29411765       0.00000000 </v>
   <v>      -0.41176471       0.29411765       0.00000000 </v>
   <v>      -0.35294118       0.29411765       0.00000000 </v>
   <v>      -0.29411765       0.29411765       0.00000000 </v>
   <v>      -0.23529412       0.29411765       0.00000000 </v>
   <v>      -0.17647059       0.29411765       0.00000000 </v>
   <v>      -0.11764706       0.29411765       0.00000000 </v>
   <v>      -0.05882353       0.29411765       0.00000000 </v>
   <v>       0.00000000       0.35294118       0.00000000 </v>
   <v>       0.05882353       0.35294118       0.00000000 </v>
   <v>       0.11764706       0.35294118       0.00000000 </v>
   <v>       0.17647059       0.35294118       0.00000000 </v>
   <v>       0.23529412       0.35294118       0.00000000 </v>
   <v>       0.29411765       0.35294118       0.00000000 </v>
   <v>       0.35294118       0.35294118       0.00000000 </v>
   <v>       0.41176471       0.35294118       0.00000000 </v>
   <v>       0.47058824       0.35294118       0.00000000 </v>
   <v>      -0.47058824       0.35294118       0.00000000 </v>
   <v>      -0.41176471       0.35294118       0.00000000 </v>
   <v>      -0.35294118       0.35294118       0.00000000 </v>
   <v>      -0.29411765       0.35294118       0.00000000 </v>
   <v>      -0.23529412       0.35294118       0.00000000 </v>
   <v>      -0.17647059       0.35294118       0.00000000 </v>
   <v>      -0.11764706       0.35294118       0.00000000 </v>
   <v>      -0.05882353       0.35294118       0.00000000 </v>
   <v>       0.00000000       0.41176471       0.00000000 </v>
   <v>       0.05882353       0.41176471       0.00000000 </v>
   <v>       0.11764706       0.41176471       0.00000000 </v>
   <v>       0.17647059       0.41176471       0.00000000 </v>
   <v>       0.23529412       0.41176471       0.00000000 </v>
   <v>       0.29411765       0.41176471       0.00000000 </v>
   <v>       0.35294118       0.41176471       0.00000000 </v>
   <v>       0.41176471       0.41176471       0.00000000 </v>
   <v>       0.47058824       0.41176471       0.00000000 </v>
   <v>      -0.47058824       0.41176471       0.00000000 </v>
   <v>      -0.41176471       0.41176471       0.00000000 </v>
   <v>      -0.35294118       0.41176471       0.00000000 </v>
   <v>      -0.29411765       0.41176471       0.00000000 </v>
   <v>      -0.23529412       0.41176471       0.00000000 </v>
   <v>      -0.17647059       0.41176471       0.00000000 </v>
   <v>      -0.11764706       0.41176471       0.00000000 </v>
   <v>      -0.05882353       0.41176471       0.00000000 </v>
   <v>       0.00000000       0.47058824       0.00000000 </v>
   <v>       0.05882353       0.47058824       0.00000000 </v>
   <v>       0.11764706       0.47058824       0.00000000 </v>
   <v>       0.17647059       0.47058824       0.00000000 </v>
   <v>       0.23529412       0.47058824       0.00000000 </v>
   <v>       0.29411765       0.47058824       0.00000000 </v>
   <v>       0.35294118       0.47058824       0.00000000 </v>
   <v>       0.41176471       0.47058824       0.00000000 </v>
   <v>       0.47058824       0.47058824       0.00000000 </v>
   <v>      -0.47058824       0.47058824       0.00000000 </v>
   <v>      -0.41176471       0.47058824       0.00000000 </v>
   <v>      -0.35294118       0.47058824       0.00000000 </v>
   <v>      -0.29411765       0.47058824       0.00000000 </v>
   <v>      -0.23529412       0.47058824       0.00000000 </v>
   <v>      -0.17647059       0.47058824       0.00000000 </v>
   <v>      -0.11764706       0.47058824       0.00000000 </v>
   <v>      -0.05882353       0.47058824       0.00000000 </v>
   <v>       0.00000000       0.00000000       0.05882353 </v>
   <v>       0.05882353       0.00000000       0.05882353 </v>
   <v>       0.11764706       0.00000000       0.05882353 </v>
   <v>       0.17647059       0.00000000       0.05882353 </v>
   <v>       0.23529412       0.00000000       0.05882353 </v>
   <v>       0.29411765       0.00000000       0.05882353 </v>
   <v>       0.35294118       0.00000000       0.05882353 </v>
   <v>       0.41176471      -0.00000000       0.05882353 </v>
   <v>       0.47058824       0.00000000       0.05882353 </v>
   <v>       0.00000000       0.05882353       0.05882353 </v>
   <v>       0.05882353       0.05882353       0.05882353 </v>
   <v>       0.11764706       0.05882353       0.05882353 </v>
   <v>       0.17647059       0.05882353       0.05882353 </v>
   <v>       0.23529412       0.05882353       0.05882353 </v>
   <v>       0.29411765       0.05882353       0.05882353 </v>
   <v>       0.35294118       0.05882353       0.05882353 </v>
   <v>       0.41176471       0.05882353       0.05882353 </v>
   <v>       0.47058824       0.05882353       0.05882353 </v>
   <v>      -0.47058824       0.05882353       0.05882353 </v>
   <v>      -0.41176471       0.05882353       0.05882353 </v>
   <v>      -0.35294118       0.05882353       0.05882353 </v>
   <v>      -0.29411765       0.05882353       0.05882353 </v>
   <v>      -0.23529412       0.05882353       0.05882353 </v>
   <v>      -0.17647059       0.05882353       0.05882353 </v>
   <v>      -0.11764706       0.05882353       0.05882353 </v>
   <v>      -0.05882353       0.05882353       0.05882353 </v>
   <v>       0.00000000       0.11764706       0.05882353 </v>
   <v>       0.05882353       0.11764706       0.05882353 </v>
   <v>       0.11764706       0.11764706       0.05882353 </v>
   <v>       0.17647059       0.11764706       0.05882353 </v>
   <v>       0.23529412       0.11764706       0.05882353 </v>
   <v>       0.29411765       0.11764706       0.05882353 </v>
   <v>       0.35294118       0.11764706       0.05882353 </v>
   <v>       0.41176471       0.11764706       0.05882353 </v>
   <v>       0.47058824       0.11764706       0.05882353 </v>
   <v>      -0.47058824       0.11764706       0.05882353 </v>
   <v>      -0.41176471       0.11764706       0.05882353 </v>
   <v>      -0.35294118       0.11764706       0.05882353 </v>
   <v>      -0.29411765       0.11764706       0.05882353 </v>
   <v>      -0.23529412       0.11764706       0.05882353 </v>
   <v>      -0.17647059       0.11764706       0.05882353 </v>
   <v>      -0.11764706       0.11764706       0.05882353 </v>
   <v>      -0.05882353       0.11764706       0.05882353 </v>
   <v>       0.00000000       0.17647059       0.05882353 </v>
   <v>       0.05882353       0.17647059       0.05882353 </v>
   <v>       0.11764706       0.17647059       0.05882353 </v>
   <v>       0.17647059       0.17647059       0.05882353 </v>
   <v>       0.23529412       0.17647059       0.05882353 </v>
   <v>       0.29411765       0.17647059       0.05882353 </v>
   <v>       0.35294118       0.17647059       0.05882353 </v>
   <v>       0.41176471       0.17647059       0.05882353 </v>
   <v>       0.47058824       0.17647059       0.05882353 </v>
   <v>      -0.47058824       0.17647059       0.05882353 </v>
   <v>      -0.41176471       0.17647059       0.05882353 </v>
   <v>      -0.35294118       0.17647059       0.05882353 </v>
   <v>      -0.29411765       0.17647059       0.05882353 </v>
   <v>      -0.23529412       0.17647059       0.05882353 </v>
   <v>      -0.17647059       0.17647059       0.05882353 </v>
   <v>      -0.11764706       0.17647059       0.05882353 </v>
   <v>      -0.05882353       0.17647059       0.05882353 </v>
   <v>       0.00000000       0.23529412       0.05882353 </v>
   <v>       0.05882353       0.23529412       0.05882353 </v>
   <v>       0.11764706       0.23529412       0.05882353 </v>
   <v>       0.17647059       0.23529412       0.05882353 </v>
   <v>       0.23529412       0.23529412       0.05882353 </v>
   <v>       0.29411765       0.23529412       0.05882353 </v>
   <v>       0.35294118       0.23529412       0.05882353 </v>
   <v>       0.41176471       0.23529412       0.05882353 </v>
   <v>       0.47058824       0.23529412       0.05882353 </v>
   <v>      -0.47058824       0.23529412       0.05882353 </v>
   <v>      -0.41176471       0.23529412       0.05882353 </v>
   <v>      -0.35294118       0.23529412       0.05882353 </v>
   <v>      -0.29411765       0.23529412       0.05882353 </v>
   <v>      -0.23529412       0.23529412       0.05882353 </v>
   <v>      -0.17647059       0.23529412       0.05882353 </v>
   <v>      -0.11764706       0.23529412       0.05882353 </v>
   <v>      -0.05882353       0.23529412       0.05882353 </v>
   <v>       0.00000000       0.29411765       0.05882353 </v>
   <v>       0.05882353       0.29411765       0.05882353 </v>
   <v>       0.11764706       0.29411765       0.05882353 </v>
   <v>       0.17647059       0.29411765       0.05882353 </v>
   <v>       0.23529412       0.29411765       0.05882353 </v>
   <v>       0.29411765       0.29411765       0.05882353 </v>
   <v>       0.35294118       0.29411765       0.05882353 </v>
   <v>       0.41176471       0.29411765       0.05882353 </v>
   <v>       0.47058824       0.29411765       0.05882353 </v>
   <v>      -0.47058824       0.29411765       0.05882353 </v>
   <v>      -0.41176471       0.29411765       0.05882353 </v>
   <v>      -0.35294118       0.29411765       0.05882353 </v>
   <v>      -0.29411765       0.29411765       0.05882353 </v>
   <v>      -0.23529412       0.29411765       0.05882353 </v>
   <v>      -0.17647059       0.29411765       0.05882353 </v>
   <v>      -0.11764706       0.29411765       0.05882353 </v>
   <v>      -0.05882353       0.29411765       0.05882353 </v>
   <v>       0.00000000       0.35294118       0.05882353 </v>
   <v>       0.05882353       0.35294118       0.05882353 </v>
   <v>       0.11764706       0.35294118       0.05882353 </v>
   <v>       0.17647059       0.35294118       0.05882353 </v>
   <v>       0.23529412       0.35294118       0.05882353 </v>
   <v>       0.29411765       0.35294118       0.05882353 </v>
   <v>       0.35294118       0.35294118       0.05882353 </v>
   <v>       0.41176471       0.35294118       0.05882353 </v>
   <v>       0.47058824       0.35294118       0.05882353 </v>
   <v>      -0.47058824       0.35294118       0.05882353 </v>
   <v>      -0.41176471       0.35294118       0.05882353 </v>
   <v>      -0.35294118       0.35294118       0.05882353 </v>
   <v>      -0.29411765       0.35294118       0.05882353 </v>
   <v>      -0.23529412       0.35294118       0.05882353 </v>
   <v>      -0.17647059       0.35294118       0.05882353 </v>
   <v>      -0.11764706       0.35294118       0.05882353 </v>
   <v>      -0.05882353       0.35294118       0.05882353 </v>
   <v>       0.00000000       0.41176471       0.05882353 </v>
   <v>       0.05882353       0.41176471       0.05882353 </v>
   <v>       0.11764706       0.41176471       0.05882353 </v>
   <v>       0.17647059       0.41176471       0.05882353 </v>
   <v>       0.23529412       0.41176471       0.05882353 </v>
   <v>       0.29411765       0.41176471       0.05882353 </v>
   <v>       0.35294118       0.41176471       0.05882353 </v>
   <v>       0.41176471       0.41176471       0.05882353 </v>
   <v>       0.47058824       0.41176471       0.05882353 </v>
   <v>      -0.47058824       0.41176471       0.05882353 </v>
   <v>      -0.41176471       0.41176471       0.05882353 </v>
   <v>      -0.35294118       0.41176471       0.05882353 </v>
   <v>      -0.29411765       0.41176471       0.05882353 </v>
   <v>      -0.23529412       0.41176471       0.05882353 </v>
   <v>      -0.17647059       0.41176471       0.05882353 </v>
   <v>      -0.11764706       0.41176471       0.05882353 </v>
   <v>      -0.05882353       0.41176471       0.05882353 </v>
   <v>       0.00000000       0.47058824       0.05882353 </v>
   <v>       0.05882353       0.47058824       0.05882353 </v>
   <v>       0.11764706       0.47058824       0.05882353 </v>
   <v>       0.17647059       0.47058824       0.05882353 </v>
   <v>       0.23529412       0.47058824       0.05882353 </v>
   <v>       0.29411765       0.47058824       0.05882353 </v>
   <v>       0.35294118       0.47058824       0.05882353 </v>
   <v>       0.41176471       0.47058824       0.05882353 </v>
   <v>       0.47058824       0.47058824       0.05882353 </v>
   <v>      -0.47058824       0.47058824       0.05882353 </v>
   <v>      -0.41176471       0.47058824       0.05882353 </v>
   <v>      -0.35294118       0.47058824       0.05882353 </v>
   <v>      -0.29411765       0.47058824       0.05882353 </v>
   <v>      -0.23529412       0.47058824       0.05882353 </v>
   <v>      -0.17647059       0.47058824       0.05882353 </v>
   <v>      -0.11764706       0.47058824       0.05882353 </v>
   <v>      -0.05882353       0.47058824       0.05882353 </v>
   <v>       0.00000000       0.00000000       0.11764706 </v>
   <v>       0.05882353       0.00000000       0.11764706 </v>
   <v>       0.11764706       0.00000000       0.11764706 </v>
   <v>       0.17647059       0.00000000       0.11764706 </v>
   <v>       0.23529412       0.00000000       0.11764706 </v>
   <v>       0.29411765       0.00000000       0.11764706 </v>
   <v>       0.35294118       0.00000000       0.11764706 </v>
   <v>       0.41176471      -0.00000000       0.11764706 </v>
   <v>       0.47058824       0.00000000       0.11764706 </v>
   <v>       0.00000000       0.05882353       0.11764706 </v>
   <v>       0.05882353       0.05882353       0.11764706 </v>
   <v>       0.11764706       0.05882353       0.11764706 </v>
   <v>       0.17647059       0.05882353       0.11764706 </v>
   <v>       0.23529412       0.05882353       0.11764706 </v>
   <v>       0.29411765       0.05882353       0.11764706 </v>
   <v>       0.35294118       0.05882353       0.11764706 </v>
   <v>       0.41176471       0.05882353       0.11764706 </v>
   <v>       0.47058824       0.05882353       0.11764706 </v>
   <v>      -0.47058824       0.05882353       0.11764706 </v>
   <v>      -0.41176471       0.05882353       0.11764706 </v>
   <v>      -0.35294118       0.05882353       0.11764706 </v>
   <v>      -0.29411765       0.05882353       0.11764706 </v>
   <v>      -0.23529412       0.05882353       0.11764706 </v>
   <v>      -0.17647059       0.05882353       0.11764706 </v>
   <v>      -0.11764706       0.05882353       0.11764706 </v>
   <v>      -0.05882353       0.05882353       0.11764706 </v>
   <v>       0.00000000       0.11764706       0.11764706 </v>
   <v>       0.05882353       0.11764706       0.11764706 </v>
   <v>       0.11764706       0.11764706       0.11764706 </v>
   <v>       0.17647059       0.11764706       0.11764706 </v>
   <v>       0.23529412       0.11764706       0.11764706 </v>
   <v>       0.29411765       0.11764706       0.11764706 </v>
   <v>       0.35294118       0.11764706       0.11764706 </v>
   <v>       0.41176471       0.11764706       0.11764706 </v>
   <v>       0.47058824       0.11764706       0.11764706 </v>
   <v>      -0.47058824       0.11764706       0.11764706 </v>
   <v>      -0.41176471       0.11764706       0.11764706 </v>
   <v>      -0.35294118       0.11764706       0.11764706 </v>
   <v>      -0.29411765       0.11764706       0.11764706 </v>
   <v>      -0.23529412       0.11764706       0.11764706 </v>
   <v>      -0.17647059       0.11764706       0.11764706 </v>
   <v>      -0.11764706       0.11764706       0.11764706 </v>
   <v>      -0.05882353       0.11764706       0.11764706 </v>
   <v>       0.00000000       0.17647059       0.11764706 </v>
   <v>       0.05882353       0.17647059       0.11764706 </v>
   <v>       0.11764706       0.17647059       0.11764706 </v>
   <v>       0.17647059       0.17647059       0.11764706 </v>
   <v>       0.23529412       0.17647059       0.11764706 </v>
   <v>       0.29411765       0.17647059       0.11764706 </v>
   <v>       0.35294118       0.17647059       0.11764706 </v>
   <v>       0.41176471       0.17647059       0.11764706 </v>
   <v>       0.47058824       0.17647059       0.11764706 </v>
   <v>      -0.47058824       0.17647059       0.11764706 </v>
   <v>      -0.41176471       0.17647059       0.11764706 </v>
   <v>      -0.35294118       0.17647059       0.11764706 </v>
   <v>      -0.29411765       0.17647059       0.11764706 </v>
   <v>      -0.23529412       0.17647059       0.11764706 </v>
   <v>      -0.17647059       0.17647059       0.11764706 </v>
   <v>      -0.11764706       0.17647059       0.11764706 </v>
   <v>      -0.05882353       0.17647059       0.11764706 </v>
   <v>       0.00000000       0.23529412       0.11764706 </v>
   <v>       0.05882353       0.23529412       0.11764706 </v>
   <v>       0.11764706       0.23529412       0.11764706 </v>
   <v>       0.17647059       0.23529412       0.11764706 </v>
   <v>       0.23529412       0.23529412       0.11764706 </v>
   <v>       0.29411765       0.23529412       0.11764706 </v>
   <v>       0.35294118       0.23529412       0.11764706 </v>
   <v>       0.41176471       0.23529412       0.11764706 </v>
   <v>       0.47058824       0.23529412       0.11764706 </v>
   <v>      -0.47058824       0.23529412       0.11764706 </v>
   <v>      -0.41176471       0.23529412       0.11764706 </v>
   <v>      -0.35294118       0.23529412       0.11764706 </v>
   <v>      -0.29411765       0.23529412       0.11764706 </v>
   <v>      -0.23529412       0.23529412       0.11764706 </v>
   <v>      -0.17647059       0.23529412       0.11764706 </v>
   <v>      -0.11764706       0.23529412       0.11764706 </v>
   <v>      -0.05882353       0.23529412       0.11764706 </v>
   <v>       0.00000000       0.29411765       0.11764706 </v>
   <v>       0.05882353       0.29411765       0.11764706 </v>
   <v>       0.11764706       0.29411765       0.11764706 </v>
   <v>       0.17647059       0.29411765       0.11764706 </v>
   <v>       0.23529412       0.29411765       0.11764706 </v>
   <v>       0.29411765       0.29411765       0.11764706 </v>
   <v>       0.35294118       0.29411765       0.11764706 </v>
   <v>       0.41176471       0.29411765       0.11764706 </v>
   <v>       0.47058824       0.29411765       0.11764706 </v>
   <v>      -0.47058824       0.29411765       0.11764706 </v>
   <v>      -0.41176471       0.29411765       0.11764706 </v>
   <v>      -0.35294118       0.29411765       0.11764706 </v>
   <v>      -0.29411765       0.29411765       0.11764706 </v>
   <v>      -0.23529412       0.29411765       0.11764706 </v>
   <v>      -0.17647059       0.29411765       0.11764706 </v>
   <v>      -0.11764706       0.29411765       0.11764706 </v>
   <v>      -0.05882353       0.29411765       0.11764706 </v>
   <v>       0.00000000       0.35294118       0.11764706 </v>
   <v>       0.05882353       0.35294118       0.11764706 </v>
   <v>       0.11764706       0.35294118       0.11764706 </v>
   <v>       0.17647059       0.35294118       0.11764706 </v>
   <v>       0.23529412       0.35294118       0.11764706 </v>
   <v>       0.29411765       0.35294118       0.11764706 </v>
   <v>       0.35294118       0.35294118       0.11764706 </v>
   <v>       0.41176471       0.35294118       0.11764706 </v>
   <v>       0.47058824       0.35294118       0.11764706 </v>
   <v>      -0.47058824       0.35294118       0.11764706 </v>
   <v>      -0.41176471       0.35294118       0.11764706 </v>
   <v>      -0.35294118       0.35294118       0.11764706 </v>
   <v>      -0.29411765       0.35294118       0.11764706 </v>
   <v>      -0.23529412       0.35294118       0.11764706 </v>
   <v>      -0.17647059       0.35294118       0.11764706 </v>
   <v>      -0.11764706       0.35294118       0.11764706 </v>
   <v>      -0.05882353       0.35294118       0.11764706 </v>
   <v>       0.00000000       0.41176471       0.11764706 </v>
   <v>       0.05882353       0.41176471       0.11764706 </v>
   <v>       0.11764706       0.41176471       0.11764706 </v>
   <v>       0.17647059       0.41176471       0.11764706 </v>
   <v>       0.23529412       0.41176471       0.11764706 </v>
   <v>       0.29411765       0.41176471       0.11764706 </v>
   <v>       0.35294118       0.41176471       0.11764706 </v>
   <v>       0.41176471       0.41176471       0.11764706 </v>
   <v>       0.47058824       0.41176471       0.11764706 </v>
   <v>      -0.47058824       0.41176471       0.11764706 </v>
   <v>      -0.41176471       0.41176471       0.11764706 </v>
   <v>      -0.35294118       0.41176471       0.11764706 </v>
   <v>      -0.29411765       0.41176471       0.11764706 </v>
   <v>      -0.23529412       0.41176471       0.11764706 </v>
   <v>      -0.17647059       0.41176471       0.11764706 </v>
   <v>      -0.11764706       0.41176471       0.11764706 </v>
   <v>      -0.05882353       0.41176471       0.11764706 </v>
   <v>       0.00000000       0.47058824       0.11764706 </v>
   <v>       0.05882353       0.47058824       0.11764706 </v>
   <v>       0.11764706       0.47058824       0.11764706 </v>
   <v>       0.17647059       0.47058824       0.11764706 </v>
   <v>       0.23529412       0.47058824       0.11764706 </v>
   <v>       0.29411765       0.47058824       0.11764706 </v>
   <v>       0.35294118       0.47058824       0.11764706 </v>
   <v>       0.41176471       0.47058824       0.11764706 </v>
   <v>       0.47058824       0.47058824       0.11764706 </v>
   <v>      -0.47058824       0.47058824       0.11764706 </v>
   <v>      -0.41176471       0.47058824       0.11764706 </v>
   <v>      -0.35294118       0.47058824       0.11764706 </v>
   <v>      -0.29411765       0.47058824       0.11764706 </v>
   <v>      -0.23529412       0.47058824       0.11764706 </v>
   <v>      -0.17647059       0.47058824       0.11764706 </v>
   <v>      -0.11764706       0.47058824       0.11764706 </v>
   <v>      -0.05882353       0.47058824       0.11764706 </v>
   <v>       0.00000000       0.00000000       0.17647059 </v>
   <v>       0.05882353       0.00000000       0.17647059 </v>
   <v>       0.11764706       0.00000000       0.17647059 </v>
   <v>       0.17647059       0.00000000       0.17647059 </v>
   <v>       0.23529412       0.00000000       0.17647059 </v>
   <v>       0.29411765       0.00000000       0.17647059 </v>
   <v>       0.35294118       0.00000000       0.17647059 </v>
   <v>       0.41176471      -0.00000000       0.17647059 </v>
   <v>       0.47058824       0.00000000       0.17647059 </v>
   <v>       0.00000000       0.05882353       0.17647059 </v>
   <v>       0.05882353       0.05882353       0.17647059 </v>
   <v>       0.11764706       0.05882353       0.17647059 </v>
   <v>       0.17647059       0.05882353       0.17647059 </v>
   <v>       0.23529412       0.05882353       0.17647059 </v>
   <v>       0.29411765       0.05882353       0.17647059 </v>
   <v>       0.35294118       0.05882353       0.17647059 </v>
   <v>       0.41176471       0.05882353       0.17647059 </v>
   <v>       0.47058824       0.05882353       0.17647059 </v>
   <v>      -0.47058824       0.05882353       0.17647059 </v>
   <v>      -0.41176471       0.05882353       0.17647059 </v>
   <v>      -0.35294118       0.05882353       0.17647059 </v>
   <v>      -0.29411765       0.05882353       0.17647059 </v>
   <v>      -0.23529412       0.05882353       0.17647059 </v>
   <v>      -0.17647059       0.05882353       0.17647059 </v>
   <v>      -0.11764706       0.05882353       0.17647059 </v>
   <v>      -0.05882353       0.05882353       0.17647059 </v>
   <v>       0.00000000       0.11764706       0.17647059 </v>
   <v>       0.05882353       0.11764706       0.17647059 </v>
   <v>       0.11764706       0.11764706       0.17647059 </v>
   <v>       0.17647059       0.11764706       0.17647059 </v>
   <v>       0.23529412       0.11764706       0.17647059 </v>
   <v>       0.29411765       0.11764706       0.17647059 </v>
   <v>       0.35294118       0.11764706       0.17647059 </v>
   <v>       0.41176471       0.11764706       0.17647059 </v>
   <v>       0.47058824       0.11764706       0.17647059 </v>
   <v>      -0.47058824       0.11764706       0.17647059 </v>
   <v>      -0.41176471       0.11764706       0.17647059 </v>
   <v>      -0.35294118       0.11764706       0.17647059 </v>
   <v>      -0.29411765       0.11764706       0.17647059 </v>
   <v>      -0.23529412       0.11764706       0.17647059 </v>
   <v>      -0.17647059       0.11764706       0.17647059 </v>
   <v>      -0.11764706       0.11764706       0.17647059 </v>
   <v>      -0.05882353       0.11764706       0.17647059 </v>
   <v>       0.00000000       0.17647059       0.17647059 </v>
   <v>       0.05882353       0.17647059       0.17647059 </v>
   <v>       0.11764706       0.17647059       0.17647059 </v>
   <v>       0.17647059       0.17647059       0.17647059 </v>
   <v>       0.23529412       0.17647059       0.17647059 </v>
   <v>       0.29411765       0.17647059       0.17647059 </v>
   <v>       0.35294118       0.17647059       0.17647059 </v>
   <v>       0.41176471       0.17647059       0.17647059 </v>
   <v>       0.47058824       0.17647059       0.17647059 </v>
   <v>      -0.47058824       0.17647059       0.17647059 </v>
   <v>      -0.41176471       0.17647059       0.17647059 </v>
   <v>      -0.35294118       0.17647059       0.17647059 </v>
   <v>      -0.29411765       0.17647059       0.17647059 </v>
   <v>      -0.23529412       0.17647059       0.17647059 </v>
   <v>      -0.17647059       0.17647059       0.17647059 </v>
   <v>      -0.11764706       0.17647059       0.17647059 </v>
   <v>      -0.05882353       0.17647059       0.17647059 </v>
   <v>       0.00000000       0.23529412       0.17647059 </v>
   <v>       0.05882353       0.23529412       0.17647059 </v>
   <v>       0.11764706       0.23529412       0.17647059 </v>
   <v>       0.17647059       0.23529412       0.17647059 </v>
   <v>       0.23529412       0.23529412       0.17647059 </v>
   <v>       0.29411765       0.23529412       0.17647059 </v>
   <v>       0.35294118       0.23529412       0.17647059 </v>
   <v>       0.41176471       0.23529412       0.17647059 </v>
   <v>       0.47058824       0.23529412       0.17647059 </v>
   <v>      -0.47058824       0.23529412       0.17647059 </v>
   <v>      -0.41176471       0.23529412       0.17647059 </v>
   <v>      -0.35294118       0.23529412       0.17647059 </v>
   <v>      -0.29411765       0.23529412       0.17647059 </v>
   <v>      -0.23529412       0.23529412       0.17647059 </v>
   <v>      -0.17647059       0.23529412       0.17647059 </v>
   <v>      -0.11764706       0.23529412       0.17647059 </v>
   <v>      -0.05882353       0.23529412       0.17647059 </v>
   <v>       0.00000000       0.29411765       0.17647059 </v>
   <v>       0.05882353       0.29411765       0.17647059 </v>
   <v>       0.11764706       0.29411765       0.17647059 </v>
   <v>       0.17647059       0.29411765       0.17647059 </v>
   <v>       0.23529412       0.29411765       0.17647059 </v>
   <v>       0.29411765       0.29411765       0.17647059 </v>
   <v>       0.35294118       0.29411765       0.17647059 </v>
   <v>       0.41176471       0.29411765       0.17647059 </v>
   <v>       0.47058824       0.29411765       0.17647059 </v>
   <v>      -0.47058824       0.29411765       0.17647059 </v>
   <v>      -0.41176471       0.29411765       0.17647059 </v>
   <v>      -0.35294118       0.29411765       0.17647059 </v>
   <v>      -0.29411765       0.29411765       0.17647059 </v>
   <v>      -0.23529412       0.29411765       0.17647059 </v>
   <v>      -0.17647059       0.29411765       0.17647059 </v>
   <v>      -0.11764706       0.29411765       0.17647059 </v>
   <v>      -0.05882353       0.29411765       0.17647059 </v>
   <v>       0.00000000       0.35294118       0.17647059 </v>
   <v>       0.05882353       0.35294118       0.17647059 </v>
   <v>       0.11764706       0.35294118       0.17647059 </v>
   <v>       0.17647059       0.35294118       0.17647059 </v>
   <v>       0.23529412       0.35294118       0.17647059 </v>
   <v>       0.29411765       0.35294118       0.17647059 </v>
   <v>       0.35294118       0.35294118       0.17647059 </v>
   <v>       0.41176471       0.35294118       0.17647059 </v>
   <v>       0.47058824       0.35294118       0.17647059 </v>
   <v>      -0.47058824       0.35294118       0.17647059 </v>
   <v>      -0.41176471       0.35294118       0.17647059 </v>
   <v>      -0.35294118       0.35294118       0.17647059 </v>
   <v>      -0.29411765       0.35294118       0.17647059 </v>
   <v>      -0.23529412       0.35294118       0.17647059 </v>
   <v>      -0.17647059       0.35294118       0.17647059 </v>
   <v>      -0.11764706       0.35294118       0.17647059 </v>
   <v>      -0.05882353       0.35294118       0.17647059 </v>
   <v>       0.00000000       0.41176471       0.17647059 </v>
   <v>       0.05882353       0.41176471       0.17647059 </v>
   <v>       0.11764706       0.41176471       0.17647059 </v>
   <v>       0.17647059       0.41176471       0.17647059 </v>
   <v>       0.23529412       0.41176471       0.17647059 </v>
   <v>       0.29411765       0.41176471       0.17647059 </v>
   <v>       0.35294118       0.41176471       0.17647059 </v>
   <v>       0.41176471       0.41176471       0.17647059 </v>
   <v>       0.47058824       0.41176471       0.17647059 </v>
   <v>      -0.47058824       0.41176471       0.17647059 </v>
   <v>      -0.41176471       0.41176471       0.17647059 </v>
   <v>      -0.35294118       0.41176471       0.17647059 </v>
   <v>      -0.29411765       0.41176471       0.17647059 </v>
   <v>      -0.23529412       0.41176471       0.17647059 </v>
   <v>      -0.17647059       0.41176471       0.17647059 </v>
   <v>      -0.11764706       0.41176471       0.17647059 </v>
   <v>      -0.05882353       0.41176471       0.17647059 </v>
   <v>       0.00000000       0.47058824       0.17647059 </v>
   <v>       0.05882353       0.47058824       0.17647059 </v>
   <v>       0.11764706       0.47058824       0.17647059 </v>
   <v>       0.17647059       0.47058824       0.17647059 </v>
   <v>       0.23529412       0.47058824       0.17647059 </v>
   <v>       0.29411765       0.47058824       0.17647059 </v>
   <v>       0.35294118       0.47058824       0.17647059 </v>
   <v>       0.41176471       0.47058824       0.17647059 </v>
   <v>       0.47058824       0.47058824       0.17647059 </v>
   <v>      -0.47058824       0.47058824       0.17647059 </v>
   <v>      -0.41176471       0.47058824       0.17647059 </v>
   <v>      -0.35294118       0.47058824       0.17647059 </v>
   <v>      -0.29411765       0.47058824       0.17647059 </v>
   <v>      -0.23529412       0.47058824       0.17647059 </v>
   <v>      -0.17647059       0.47058824       0.17647059 </v>
   <v>      -0.11764706       0.47058824       0.17647059 </v>
   <v>      -0.05882353       0.47058824       0.17647059 </v>
   <v>       0.00000000       0.00000000       0.23529412 </v>
   <v>       0.05882353       0.00000000       0.23529412 </v>
   <v>       0.11764706       0.00000000       0.23529412 </v>
   <v>       0.17647059       0.00000000       0.23529412 </v>
   <v>       0.23529412       0.00000000       0.23529412 </v>
   <v>       0.29411765       0.00000000       0.23529412 </v>
   <v>       0.35294118       0.00000000       0.23529412 </v>
   <v>       0.41176471      -0.00000000       0.23529412 </v>
   <v>       0.47058824       0.00000000       0.23529412 </v>
   <v>       0.00000000       0.05882353       0.23529412 </v>
   <v>       0.05882353       0.05882353       0.23529412 </v>
   <v>       0.11764706       0.05882353       0.23529412 </v>
   <v>       0.17647059       0.05882353       0.23529412 </v>
   <v>       0.23529412       0.05882353       0.23529412 </v>
   <v>       0.29411765       0.05882353       0.23529412 </v>
   <v>       0.35294118       0.05882353       0.23529412 </v>
   <v>       0.41176471       0.05882353       0.23529412 </v>
   <v>       0.47058824       0.05882353       0.23529412 </v>
   <v>      -0.47058824       0.05882353       0.23529412 </v>
   <v>      -0.41176471       0.05882353       0.23529412 </v>
   <v>      -0.35294118       0.05882353       0.23529412 </v>
   <v>      -0.29411765       0.05882353       0.23529412 </v>
   <v>      -0.23529412       0.05882353       0.23529412 </v>
   <v>      -0.17647059       0.05882353       0.23529412 </v>
   <v>      -0.11764706       0.05882353       0.23529412 </v>
   <v>      -0.05882353       0.05882353       0.23529412 </v>
   <v>       0.00000000       0.11764706       0.23529412 </v>
   <v>       0.05882353       0.11764706       0.23529412 </v>
   <v>       0.11764706       0.11764706       0.23529412 </v>
   <v>       0.17647059       0.11764706       0.23529412 </v>
   <v>       0.23529412       0.11764706       0.23529412 </v>
   <v>       0.29411765       0.11764706       0.23529412 </v>
   <v>       0.35294118       0.11764706       0.23529412 </v>
   <v>       0.41176471       0.11764706       0.23529412 </v>
   <v>       0.47058824       0.11764706       0.23529412 </v>
   <v>      -0.47058824       0.11764706       0.23529412 </v>
   <v>      -0.41176471       0.11764706       0.23529412 </v>
   <v>      -0.35294118       0.11764706       0.23529412 </v>
   <v>      -0.29411765       0.11764706       0.23529412 </v>
   <v>      -0.23529412       0.11764706       0.23529412 </v>
   <v>      -0.17647059       0.11764706       0.23529412 </v>
   <v>      -0.11764706       0.11764706       0.23529412 </v>
   <v>      -0.05882353       0.11764706       0.23529412 </v>
   <v>       0.00000000       0.17647059       0.23529412 </v>
   <v>       0.05882353       0.17647059       0.23529412 </v>
   <v>       0.11764706       0.17647059       0.23529412 </v>
   <v>       0.17647059       0.17647059       0.23529412 </v>
   <v>       0.23529412       0.17647059       0.23529412 </v>
   <v>       0.29411765       0.17647059       0.23529412 </v>
   <v>       0.35294118       0.17647059       0.23529412 </v>
   <v>       0.41176471       0.17647059       0.23529412 </v>
   <v>       0.47058824       0.17647059       0.23529412 </v>
   <v>      -0.47058824       0.17647059       0.23529412 </v>
   <v>      -0.41176471       0.17647059       0.23529412 </v>
   <v>      -0.35294118       0.17647059       0.23529412 </v>
   <v>      -0.29411765       0.17647059       0.23529412 </v>
   <v>      -0.23529412       0.17647059       0.23529412 </v>
   <v>      -0.17647059       0.17647059       0.23529412 </v>
   <v>      -0.11764706       0.17647059       0.23529412 </v>
   <v>      -0.05882353       0.17647059       0.23529412 </v>
   <v>       0.00000000       0.23529412       0.23529412 </v>
   <v>       0.05882353       0.23529412       0.23529412 </v>
   <v>       0.11764706       0.23529412       0.23529412 </v>
   <v>       0.17647059       0.23529412       0.23529412 </v>
   <v>       0.23529412       0.23529412       0.23529412 </v>
   <v>       0.29411765       0.23529412       0.23529412 </v>
   <v>       0.35294118       0.23529412       0.23529412 </v>
   <v>       0.41176471       0.23529412       0.23529412 </v>
   <v>       0.47058824       0.23529412       0.23529412 </v>
   <v>      -0.47058824       0.23529412       0.23529412 </v>
   <v>      -0.41176471       0.23529412       0.23529412 </v>
   <v>      -0.35294118       0.23529412       0.23529412 </v>
   <v>      -0.29411765       0.23529412       0.23529412 </v>
   <v>      -0.23529412       0.23529412       0.23529412 </v>
   <v>      -0.17647059       0.23529412       0.23529412 </v>
   <v>      -0.11764706       0.23529412       0.23529412 </v>
   <v>      -0.05882353       0.23529412       0.23529412 </v>
   <v>       0.00000000       0.29411765       0.23529412 </v>
   <v>       0.05882353       0.29411765       0.23529412 </v>
   <v>       0.11764706       0.29411765       0.23529412 </v>
   <v>       0.17647059       0.29411765       0.23529412 </v>
   <v>       0.23529412       0.29411765       0.23529412 </v>
   <v>       0.29411765       0.29411765       0.23529412 </v>
   <v>       0.35294118       0.29411765       0.23529412 </v>
   <v>       0.41176471       0.29411765       0.23529412 </v>
   <v>       0.47058824       0.29411765       0.23529412 </v>
   <v>      -0.47058824       0.29411765       0.23529412 </v>
   <v>      -0.41176471       0.29411765       0.23529412 </v>
   <v>      -0.35294118       0.29411765       0.23529412 </v>
   <v>      -0.29411765       0.29411765       0.23529412 </v>
   <v>      -0.23529412       0.29411765       0.23529412 </v>
   <v>      -0.17647059       0.29411765       0.23529412 </v>
   <v>      -0.11764706       0.29411765       0.23529412 </v>
   <v>      -0.05882353       0.29411765       0.23529412 </v>
   <v>       0.00000000       0.35294118       0.23529412 </v>
   <v>       0.05882353       0.35294118       0.23529412 </v>
   <v>       0.11764706       0.35294118       0.23529412 </v>
   <v>       0.17647059       0.35294118       0.23529412 </v>
   <v>       0.23529412       0.35294118       0.23529412 </v>
   <v>       0.29411765       0.35294118       0.23529412 </v>
   <v>       0.35294118       0.35294118       0.23529412 </v>
   <v>       0.41176471       0.35294118       0.23529412 </v>
   <v>       0.47058824       0.35294118       0.23529412 </v>
   <v>      -0.47058824       0.35294118       0.23529412 </v>
   <v>      -0.41176471       0.35294118       0.23529412 </v>
   <v>      -0.35294118       0.35294118       0.23529412 </v>
   <v>      -0.29411765       0.35294118       0.23529412 </v>
   <v>      -0.23529412       0.35294118       0.23529412 </v>
   <v>      -0.17647059       0.35294118       0.23529412 </v>
   <v>      -0.11764706       0.35294118       0.23529412 </v>
   <v>      -0.05882353       0.35294118       0.23529412 </v>
   <v>       0.00000000       0.41176471       0.23529412 </v>
   <v>       0.05882353       0.41176471       0.23529412 </v>
   <v>       0.11764706       0.41176471       0.23529412 </v>
   <v>       0.17647059       0.41176471       0.23529412 </v>
   <v>       0.23529412       0.41176471       0.23529412 </v>
   <v>       0.29411765       0.41176471       0.23529412 </v>
   <v>       0.35294118       0.41176471       0.23529412 </v>
   <v>       0.41176471       0.41176471       0.23529412 </v>
   <v>       0.47058824       0.41176471       0.23529412 </v>
   <v>      -0.47058824       0.41176471       0.23529412 </v>
   <v>      -0.41176471       0.41176471       0.23529412 </v>
   <v>      -0.35294118       0.41176471       0.23529412 </v>
   <v>      -0.29411765       0.41176471       0.23529412 </v>
   <v>      -0.23529412       0.41176471       0.23529412 </v>
   <v>      -0.17647059       0.41176471       0.23529412 </v>
   <v>      -0.11764706       0.41176471       0.23529412 </v>
   <v>      -0.05882353       0.41176471       0.23529412 </v>
   <v>       0.00000000       0.47058824       0.23529412 </v>
   <v>       0.05882353       0.47058824       0.23529412 </v>
   <v>       0.11764706       0.47058824       0.23529412 </v>
   <v>       0.17647059       0.47058824       0.23529412 </v>
   <v>       0.23529412       0.47058824       0.23529412 </v>
   <v>       0.29411765       0.47058824       0.23529412 </v>
   <v>       0.35294118       0.47058824       0.23529412 </v>
   <v>       0.41176471       0.47058824       0.23529412 </v>
   <v>       0.47058824       0.47058824       0.23529412 </v>
   <v>      -0.47058824       0.47058824       0.23529412 </v>
   <v>      -0.41176471       0.47058824       0.23529412 </v>
   <v>      -0.35294118       0.47058824       0.23529412 </v>
   <v>      -0.29411765       0.47058824       0.23529412 </v>
   <v>      -0.23529412       0.47058824       0.23529412 </v>
   <v>      -0.17647059       0.47058824       0.23529412 </v>
   <v>      -0.11764706       0.47058824       0.23529412 </v>
   <v>      -0.05882353       0.47058824       0.23529412 </v>
   <v>       0.00000000       0.00000000       0.29411765 </v>
   <v>       0.05882353       0.00000000       0.29411765 </v>
   <v>       0.11764706       0.00000000       0.29411765 </v>
   <v>       0.17647059       0.00000000       0.29411765 </v>
   <v>       0.23529412       0.00000000       0.29411765 </v>
   <v>       0.29411765       0.00000000       0.29411765 </v>
   <v>       0.35294118       0.00000000       0.29411765 </v>
   <v>       0.41176471      -0.00000000       0.29411765 </v>
   <v>       0.47058824       0.00000000       0.29411765 </v>
   <v>       0.00000000       0.05882353       0.29411765 </v>
   <v>       0.05882353       0.05882353       0.29411765 </v>
   <v>       0.11764706       0.05882353       0.29411765 </v>
   <v>       0.17647059       0.05882353       0.29411765 </v>
   <v>       0.23529412       0.05882353       0.29411765 </v>
   <v>       0.29411765       0.05882353       0.29411765 </v>
   <v>       0.35294118       0.05882353       0.29411765 </v>
   <v>       0.41176471       0.05882353       0.29411765 </v>
   <v>       0.47058824       0.05882353       0.29411765 </v>
   <v>      -0.47058824       0.05882353       0.29411765 </v>
   <v>      -0.41176471       0.05882353       0.29411765 </v>
   <v>      -0.35294118       0.05882353       0.29411765 </v>
   <v>      -0.29411765       0.05882353       0.29411765 </v>
   <v>      -0.23529412       0.05882353       0.29411765 </v>
   <v>      -0.17647059       0.05882353       0.29411765 </v>
   <v>      -0.11764706       0.05882353       0.29411765 </v>
   <v>      -0.05882353       0.05882353       0.29411765 </v>
   <v>       0.00000000       0.11764706       0.29411765 </v>
   <v>       0.05882353       0.11764706       0.29411765 </v>
   <v>       0.11764706       0.11764706       0.29411765 </v>
   <v>       0.17647059       0.11764706       0.29411765 </v>
   <v>       0.23529412       0.11764706       0.29411765 </v>
   <v>       0.29411765       0.11764706       0.29411765 </v>
   <v>       0.35294118       0.11764706       0.29411765 </v>
   <v>       0.41176471       0.11764706       0.29411765 </v>
   <v>       0.47058824       0.11764706       0.29411765 </v>
   <v>      -0.47058824       0.11764706       0.29411765 </v>
   <v>      -0.41176471       0.11764706       0.29411765 </v>
   <v>      -0.35294118       0.11764706       0.29411765 </v>
   <v>      -0.29411765       0.11764706       0.29411765 </v>
   <v>      -0.23529412       0.11764706       0.29411765 </v>
   <v>      -0.17647059       0.11764706       0.29411765 </v>
   <v>      -0.11764706       0.11764706       0.29411765 </v>
   <v>      -0.05882353       0.11764706       0.29411765 </v>
   <v>       0.00000000       0.17647059       0.29411765 </v>
   <v>       0.05882353       0.17647059       0.29411765 </v>
   <v>       0.11764706       0.17647059       0.29411765 </v>
   <v>       0.17647059       0.17647059       0.29411765 </v>
   <v>       0.23529412       0.17647059       0.29411765 </v>
   <v>       0.29411765       0.17647059       0.29411765 </v>
   <v>       0.35294118       0.17647059       0.29411765 </v>
   <v>       0.41176471       0.17647059       0.29411765 </v>
   <v>       0.47058824       0.17647059       0.29411765 </v>
   <v>      -0.47058824       0.17647059       0.29411765 </v>
   <v>      -0.41176471       0.17647059       0.29411765 </v>
   <v>      -0.35294118       0.17647059       0.29411765 </v>
   <v>      -0.29411765       0.17647059       0.29411765 </v>
   <v>      -0.23529412       0.17647059       0.29411765 </v>
   <v>      -0.17647059       0.17647059       0.29411765 </v>
   <v>      -0.11764706       0.17647059       0.29411765 </v>
   <v>      -0.05882353       0.17647059       0.29411765 </v>
   <v>       0.00000000       0.23529412       0.29411765 </v>
   <v>       0.05882353       0.23529412       0.29411765 </v>
   <v>       0.11764706       0.23529412       0.29411765 </v>
   <v>       0.17647059       0.23529412       0.29411765 </v>
   <v>       0.23529412       0.23529412       0.29411765 </v>
   <v>       0.29411765       0.23529412       0.29411765 </v>
   <v>       0.35294118       0.23529412       0.29411765 </v>
   <v>       0.41176471       0.23529412       0.29411765 </v>
   <v>       0.47058824       0.23529412       0.29411765 </v>
   <v>      -0.47058824       0.23529412       0.29411765 </v>
   <v>      -0.41176471       0.23529412       0.29411765 </v>
   <v>      -0.35294118       0.23529412       0.29411765 </v>
   <v>      -0.29411765       0.23529412       0.29411765 </v>
   <v>      -0.23529412       0.23529412       0.29411765 </v>
   <v>      -0.17647059       0.23529412       0.29411765 </v>
   <v>      -0.11764706       0.23529412       0.29411765 </v>
   <v>      -0.05882353       0.23529412       0.29411765 </v>
   <v>       0.00000000       0.29411765       0.29411765 </v>
   <v>       0.05882353       0.29411765       0.29411765 </v>
   <v>       0.11764706       0.29411765       0.29411765 </v>
   <v>       0.17647059       0.29411765       0.29411765 </v>
   <v>       0.23529412       0.29411765       0.29411765 </v>
   <v>       0.29411765       0.29411765       0.29411765 </v>
   <v>       0.35294118       0.29411765       0.29411765 </v>
   <v>       0.41176471       0.29411765       0.29411765 </v>
   <v>       0.47058824       0.29411765       0.29411765 </v>
   <v>      -0.47058824       0.29411765       0.29411765 </v>
   <v>      -0.41176471       0.29411765       0.29411765 </v>
   <v>      -0.35294118       0.29411765       0.29411765 </v>
   <v>      -0.29411765       0.29411765       0.29411765 </v>
   <v>      -0.23529412       0.29411765       0.29411765 </v>
   <v>      -0.17647059       0.29411765       0.29411765 </v>
   <v>      -0.11764706       0.29411765       0.29411765 </v>
   <v>      -0.05882353       0.29411765       0.29411765 </v>
   <v>       0.00000000       0.35294118       0.29411765 </v>
   <v>       0.05882353       0.35294118       0.29411765 </v>
   <v>       0.11764706       0.35294118       0.29411765 </v>
   <v>       0.17647059       0.35294118       0.29411765 </v>
   <v>       0.23529412       0.35294118       0.29411765 </v>
   <v>       0.29411765       0.35294118       0.29411765 </v>
   <v>       0.35294118       0.35294118       0.29411765 </v>
   <v>       0.41176471       0.35294118       0.29411765 </v>
   <v>       0.47058824       0.35294118       0.29411765 </v>
   <v>      -0.47058824       0.35294118       0.29411765 </v>
   <v>      -0.41176471       0.35294118       0.29411765 </v>
   <v>      -0.35294118       0.35294118       0.29411765 </v>
   <v>      -0.29411765       0.35294118       0.29411765 </v>
   <v>      -0.23529412       0.35294118       0.29411765 </v>
   <v>      -0.17647059       0.35294118       0.29411765 </v>
   <v>      -0.11764706       0.35294118       0.29411765 </v>
   <v>      -0.05882353       0.35294118       0.29411765 </v>
   <v>       0.00000000       0.41176471       0.29411765 </v>
   <v>       0.05882353       0.41176471       0.29411765 </v>
   <v>       0.11764706       0.41176471       0.29411765 </v>
   <v>       0.17647059       0.41176471       0.29411765 </v>
   <v>       0.23529412       0.41176471       0.29411765 </v>
   <v>       0.29411765       0.41176471       0.29411765 </v>
   <v>       0.35294118       0.41176471       0.29411765 </v>
   <v>       0.41176471       0.41176471       0.29411765 </v>
   <v>       0.47058824       0.41176471       0.29411765 </v>
   <v>      -0.47058824       0.41176471       0.29411765 </v>
   <v>      -0.41176471       0.41176471       0.29411765 </v>
   <v>      -0.35294118       0.41176471       0.29411765 </v>
   <v>      -0.29411765       0.41176471       0.29411765 </v>
   <v>      -0.23529412       0.41176471       0.29411765 </v>
   <v>      -0.17647059       0.41176471       0.29411765 </v>
   <v>      -0.11764706       0.41176471       0.29411765 </v>
   <v>      -0.05882353       0.41176471       0.29411765 </v>
   <v>       0.00000000       0.47058824       0.29411765 </v>
   <v>       0.05882353       0.47058824       0.29411765 </v>
   <v>       0.11764706       0.47058824       0.29411765 </v>
   <v>       0.17647059       0.47058824       0.29411765 </v>
   <v>       0.23529412       0.47058824       0.29411765 </v>
   <v>       0.29411765       0.47058824       0.29411765 </v>
   <v>       0.35294118       0.47058824       0.29411765 </v>
   <v>       0.41176471       0.47058824       0.29411765 </v>
   <v>       0.47058824       0.47058824       0.29411765 </v>
   <v>      -0.47058824       0.47058824       0.29411765 </v>
   <v>      -0.41176471       0.47058824       0.29411765 </v>
   <v>      -0.35294118       0.47058824       0.29411765 </v>
   <v>      -0.29411765       0.47058824       0.29411765 </v>
   <v>      -0.23529412       0.47058824       0.29411765 </v>
   <v>      -0.17647059       0.47058824       0.29411765 </v>
   <v>      -0.11764706       0.47058824       0.29411765 </v>
   <v>      -0.05882353       0.47058824       0.29411765 </v>
   <v>       0.00000000       0.00000000       0.35294118 </v>
   <v>       0.05882353       0.00000000       0.35294118 </v>
   <v>       0.11764706       0.00000000       0.35294118 </v>
   <v>       0.17647059       0.00000000       0.35294118 </v>
   <v>       0.23529412       0.00000000       0.35294118 </v>
   <v>       0.29411765       0.00000000       0.35294118 </v>
   <v>       0.35294118       0.00000000       0.35294118 </v>
   <v>       0.41176471      -0.00000000       0.35294118 </v>
   <v>       0.47058824       0.00000000       0.35294118 </v>
   <v>       0.00000000       0.05882353       0.35294118 </v>
   <v>       0.05882353       0.05882353       0.35294118 </v>
   <v>       0.11764706       0.05882353       0.35294118 </v>
   <v>       0.17647059       0.05882353       0.35294118 </v>
   <v>       0.23529412       0.05882353       0.35294118 </v>
   <v>       0.29411765       0.05882353       0.35294118 </v>
   <v>       0.35294118       0.05882353       0.35294118 </v>
   <v>       0.41176471       0.05882353       0.35294118 </v>
   <v>       0.47058824       0.05882353       0.35294118 </v>
   <v>      -0.47058824       0.05882353       0.35294118 </v>
   <v>      -0.41176471       0.05882353       0.35294118 </v>
   <v>      -0.35294118       0.05882353       0.35294118 </v>
   <v>      -0.29411765       0.05882353       0.35294118 </v>
   <v>      -0.23529412       0.05882353       0.35294118 </v>
   <v>      -0.17647059       0.05882353       0.35294118 </v>
   <v>      -0.11764706       0.05882353       0.35294118 </v>
   <v>      -0.05882353       0.05882353       0.35294118 </v>
   <v>       0.00000000       0.11764706       0.35294118 </v>
   <v>       0.05882353       0.11764706       0.35294118 </v>
   <v>       0.11764706       0.11764706       0.35294118 </v>
   <v>       0.17647059       0.11764706       0.35294118 </v>
   <v>       0.23529412       0.11764706       0.35294118 </v>
   <v>       0.29411765       0.11764706       0.35294118 </v>
   <v>       0.35294118       0.11764706       0.35294118 </v>
   <v>       0.41176471       0.11764706       0.35294118 </v>
   <v>       0.47058824       0.11764706       0.35294118 </v>
   <v>      -0.47058824       0.11764706       0.35294118 </v>
   <v>      -0.41176471       0.11764706       0.35294118 </v>
   <v>      -0.35294118       0.11764706       0.35294118 </v>
   <v>      -0.29411765       0.11764706       0.35294118 </v>
   <v>      -0.23529412       0.11764706       0.35294118 </v>
   <v>      -0.17647059       0.11764706       0.35294118 </v>
   <v>      -0.11764706       0.11764706       0.35294118 </v>
   <v>      -0.05882353       0.11764706       0.35294118 </v>
   <v>       0.00000000       0.17647059       0.35294118 </v>
   <v>       0.05882353       0.17647059       0.35294118 </v>
   <v>       0.11764706       0.17647059       0.35294118 </v>
   <v>       0.17647059       0.17647059       0.35294118 </v>
   <v>       0.23529412       0.17647059       0.35294118 </v>
   <v>       0.29411765       0.17647059       0.35294118 </v>
   <v>       0.35294118       0.17647059       0.35294118 </v>
   <v>       0.41176471       0.17647059       0.35294118 </v>
   <v>       0.47058824       0.17647059       0.35294118 </v>
   <v>      -0.47058824       0.17647059       0.35294118 </v>
   <v>      -0.41176471       0.17647059       0.35294118 </v>
   <v>      -0.35294118       0.17647059       0.35294118 </v>
   <v>      -0.29411765       0.17647059       0.35294118 </v>
   <v>      -0.23529412       0.17647059       0.35294118 </v>
   <v>      -0.17647059       0.17647059       0.35294118 </v>
   <v>      -0.11764706       0.17647059       0.35294118 </v>
   <v>      -0.05882353       0.17647059       0.35294118 </v>
   <v>       0.00000000       0.23529412       0.35294118 </v>
   <v>       0.05882353       0.23529412       0.35294118 </v>
   <v>       0.11764706       0.23529412       0.35294118 </v>
   <v>       0.17647059       0.23529412       0.35294118 </v>
   <v>       0.23529412       0.23529412       0.35294118 </v>
   <v>       0.29411765       0.23529412       0.35294118 </v>
   <v>       0.35294118       0.23529412       0.35294118 </v>
   <v>       0.41176471       0.23529412       0.35294118 </v>
   <v>       0.47058824       0.23529412       0.35294118 </v>
   <v>      -0.47058824       0.23529412       0.35294118 </v>
   <v>      -0.41176471       0.23529412       0.35294118 </v>
   <v>      -0.35294118       0.23529412       0.35294118 </v>
   <v>      -0.29411765       0.23529412       0.35294118 </v>
   <v>      -0.23529412       0.23529412       0.35294118 </v>
   <v>      -0.17647059       0.23529412       0.35294118 </v>
   <v>      -0.11764706       0.23529412       0.35294118 </v>
   <v>      -0.05882353       0.23529412       0.35294118 </v>
   <v>       0.00000000       0.29411765       0.35294118 </v>
   <v>       0.05882353       0.29411765       0.35294118 </v>
   <v>       0.11764706       0.29411765       0.35294118 </v>
   <v>       0.17647059       0.29411765       0.35294118 </v>
   <v>       0.23529412       0.29411765       0.35294118 </v>
   <v>       0.29411765       0.29411765       0.35294118 </v>
   <v>       0.35294118       0.29411765       0.35294118 </v>
   <v>       0.41176471       0.29411765       0.35294118 </v>
   <v>       0.47058824       0.29411765       0.35294118 </v>
   <v>      -0.47058824       0.29411765       0.35294118 </v>
   <v>      -0.41176471       0.29411765       0.35294118 </v>
   <v>      -0.35294118       0.29411765       0.35294118 </v>
   <v>      -0.29411765       0.29411765       0.35294118 </v>
   <v>      -0.23529412       0.29411765       0.35294118 </v>
   <v>      -0.17647059       0.29411765       0.35294118 </v>
   <v>      -0.11764706       0.29411765       0.35294118 </v>
   <v>      -0.05882353       0.29411765       0.35294118 </v>
   <v>       0.00000000       0.35294118       0.35294118 </v>
   <v>       0.05882353       0.35294118       0.35294118 </v>
   <v>       0.11764706       0.35294118       0.35294118 </v>
   <v>       0.17647059       0.35294118       0.35294118 </v>
   <v>       0.23529412       0.35294118       0.35294118 </v>
   <v>       0.29411765       0.35294118       0.35294118 </v>
   <v>       0.35294118       0.35294118       0.35294118 </v>
   <v>       0.41176471       0.35294118       0.35294118 </v>
   <v>       0.47058824       0.35294118       0.35294118 </v>
   <v>      -0.47058824       0.35294118       0.35294118 </v>
   <v>      -0.41176471       0.35294118       0.35294118 </v>
   <v>      -0.35294118       0.35294118       0.35294118 </v>
   <v>      -0.29411765       0.35294118       0.35294118 </v>
   <v>      -0.23529412       0.35294118       0.35294118 </v>
   <v>      -0.17647059       0.35294118       0.35294118 </v>
   <v>      -0.11764706       0.35294118       0.35294118 </v>
   <v>      -0.05882353       0.35294118       0.35294118 </v>
   <v>       0.00000000       0.41176471       0.35294118 </v>
   <v>       0.05882353       0.41176471       0.35294118 </v>
   <v>       0.11764706       0.41176471       0.35294118 </v>
   <v>       0.17647059       0.41176471       0.35294118 </v>
   <v>       0.23529412       0.41176471       0.35294118 </v>
   <v>       0.29411765       0.41176471       0.35294118 </v>
   <v>       0.35294118       0.41176471       0.35294118 </v>
   <v>       0.41176471       0.41176471       0.35294118 </v>
   <v>       0.47058824       0.41176471       0.35294118 </v>
   <v>      -0.47058824       0.41176471       0.35294118 </v>
   <v>      -0.41176471       0.41176471       0.35294118 </v>
   <v>      -0.35294118       0.41176471       0.35294118 </v>
   <v>      -0.29411765       0.41176471       0.35294118 </v>
   <v>      -0.23529412       0.41176471       0.35294118 </v>
   <v>      -0.17647059       0.41176471       0.35294118 </v>
   <v>      -0.11764706       0.41176471       0.35294118 </v>
   <v>      -0.05882353       0.41176471       0.35294118 </v>
   <v>       0.00000000       0.47058824       0.35294118 </v>
   <v>       0.05882353       0.47058824       0.35294118 </v>
   <v>       0.11764706       0.47058824       0.35294118 </v>
   <v>       0.17647059       0.47058824       0.35294118 </v>
   <v>       0.23529412       0.47058824       0.35294118 </v>
   <v>       0.29411765       0.47058824       0.35294118 </v>
   <v>       0.35294118       0.47058824       0.35294118 </v>
   <v>       0.41176471       0.47058824       0.35294118 </v>
   <v>       0.47058824       0.47058824       0.35294118 </v>
   <v>      -0.47058824       0.47058824       0.35294118 </v>
   <v>      -0.41176471       0.47058824       0.35294118 </v>
   <v>      -0.35294118       0.47058824       0.35294118 </v>
   <v>      -0.29411765       0.47058824       0.35294118 </v>
   <v>      -0.23529412       0.47058824       0.35294118 </v>
   <v>      -0.17647059       0.47058824       0.35294118 </v>
   <v>      -0.11764706       0.47058824       0.35294118 </v>
   <v>      -0.05882353       0.47058824       0.35294118 </v>
   <v>       0.00000000       0.00000000       0.41176471 </v>
   <v>       0.05882353       0.00000000       0.41176471 </v>
   <v>       0.11764706       0.00000000       0.41176471 </v>
   <v>       0.17647059       0.00000000       0.41176471 </v>
   <v>       0.23529412       0.00000000       0.41176471 </v>
   <v>       0.29411765       0.00000000       0.41176471 </v>
   <v>       0.35294118       0.00000000       0.41176471 </v>
   <v>       0.41176471      -0.00000000       0.41176471 </v>
   <v>       0.47058824       0.00000000       0.41176471 </v>
   <v>       0.00000000       0.05882353       0.41176471 </v>
   <v>       0.05882353       0.05882353       0.41176471 </v>
   <v>       0.11764706       0.05882353       0.41176471 </v>
   <v>       0.17647059       0.05882353       0.41176471 </v>
   <v>       0.23529412       0.05882353       0.41176471 </v>
   <v>       0.29411765       0.05882353       0.41176471 </v>
   <v>       0.35294118       0.05882353       0.41176471 </v>
   <v>       0.41176471       0.05882353       0.41176471 </v>
   <v>       0.47058824       0.05882353       0.41176471 </v>
   <v>      -0.47058824       0.05882353       0.41176471 </v>
   <v>      -0.41176471       0.05882353       0.41176471 </v>
   <v>      -0.35294118       0.05882353       0.41176471 </v>
   <v>      -0.29411765       0.05882353       0.41176471 </v>
   <v>      -0.23529412       0.05882353       0.41176471 </v>
   <v>      -0.17647059       0.05882353       0.41176471 </v>
   <v>      -0.11764706       0.05882353       0.41176471 </v>
   <v>      -0.05882353       0.05882353       0.41176471 </v>
   <v>       0.00000000       0.11764706       0.41176471 </v>
   <v>       0.05882353       0.11764706       0.41176471 </v>
   <v>       0.11764706       0.11764706       0.41176471 </v>
   <v>       0.17647059       0.11764706       0.41176471 </v>
   <v>       0.23529412       0.11764706       0.41176471 </v>
   <v>       0.29411765       0.11764706       0.41176471 </v>
   <v>       0.35294118       0.11764706       0.41176471 </v>
   <v>       0.41176471       0.11764706       0.41176471 </v>
   <v>       0.47058824       0.11764706       0.41176471 </v>
   <v>      -0.47058824       0.11764706       0.41176471 </v>
   <v>      -0.41176471       0.11764706       0.41176471 </v>
   <v>      -0.35294118       0.11764706       0.41176471 </v>
   <v>      -0.29411765       0.11764706       0.41176471 </v>
   <v>      -0.23529412       0.11764706       0.41176471 </v>
   <v>      -0.17647059       0.11764706       0.41176471 </v>
   <v>      -0.11764706       0.11764706       0.41176471 </v>
   <v>      -0.05882353       0.11764706       0.41176471 </v>
   <v>       0.00000000       0.17647059       0.41176471 </v>
   <v>       0.05882353       0.17647059       0.41176471 </v>
   <v>       0.11764706       0.17647059       0.41176471 </v>
   <v>       0.17647059       0.17647059       0.41176471 </v>
   <v>       0.23529412       0.17647059       0.41176471 </v>
   <v>       0.29411765       0.17647059       0.41176471 </v>
   <v>       0.35294118       0.17647059       0.41176471 </v>
   <v>       0.41176471       0.17647059       0.41176471 </v>
   <v>       0.47058824       0.17647059       0.41176471 </v>
   <v>      -0.47058824       0.17647059       0.41176471 </v>
   <v>      -0.41176471       0.17647059       0.41176471 </v>
   <v>      -0.35294118       0.17647059       0.41176471 </v>
   <v>      -0.29411765       0.17647059       0.41176471 </v>
   <v>      -0.23529412       0.17647059       0.41176471 </v>
   <v>      -0.17647059       0.17647059       0.41176471 </v>
   <v>      -0.11764706       0.17647059       0.41176471 </v>
   <v>      -0.05882353       0.17647059       0.41176471 </v>
   <v>       0.00000000       0.23529412       0.41176471 </v>
   <v>       0.05882353       0.23529412       0.41176471 </v>
   <v>       0.11764706       0.23529412       0.41176471 </v>
   <v>       0.17647059       0.23529412       0.41176471 </v>
   <v>       0.23529412       0.23529412       0.41176471 </v>
   <v>       0.29411765       0.23529412       0.41176471 </v>
   <v>       0.35294118       0.23529412       0.41176471 </v>
   <v>       0.41176471       0.23529412       0.41176471 </v>
   <v>       0.47058824       0.23529412       0.41176471 </v>
   <v>      -0.47058824       0.23529412       0.41176471 </v>
   <v>      -0.41176471       0.23529412       0.41176471 </v>
   <v>      -0.35294118       0.23529412       0.41176471 </v>
   <v>      -0.29411765       0.23529412       0.41176471 </v>
   <v>      -0.23529412       0.23529412       0.41176471 </v>
   <v>      -0.17647059       0.23529412       0.41176471 </v>
   <v>      -0.11764706       0.23529412       0.41176471 </v>
   <v>      -0.05882353       0.23529412       0.41176471 </v>
   <v>       0.00000000       0.29411765       0.41176471 </v>
   <v>       0.05882353       0.29411765       0.41176471 </v>
   <v>       0.11764706       0.29411765       0.41176471 </v>
   <v>       0.17647059       0.29411765       0.41176471 </v>
   <v>       0.23529412       0.29411765       0.41176471 </v>
   <v>       0.29411765       0.29411765       0.41176471 </v>
   <v>       0.35294118       0.29411765       0.41176471 </v>
   <v>       0.41176471       0.29411765       0.41176471 </v>
   <v>       0.47058824       0.29411765       0.41176471 </v>
   <v>      -0.47058824       0.29411765       0.41176471 </v>
   <v>      -0.41176471       0.29411765       0.41176471 </v>
   <v>      -0.35294118       0.29411765       0.41176471 </v>
   <v>      -0.29411765       0.29411765       0.41176471 </v>
   <v>      -0.23529412       0.29411765       0.41176471 </v>
   <v>      -0.17647059       0.29411765       0.41176471 </v>
   <v>      -0.11764706       0.29411765       0.41176471 </v>
   <v>      -0.05882353       0.29411765       0.41176471 </v>
   <v>       0.00000000       0.35294118       0.41176471 </v>
   <v>       0.05882353       0.35294118       0.41176471 </v>
   <v>       0.11764706       0.35294118       0.41176471 </v>
   <v>       0.17647059       0.35294118       0.41176471 </v>
   <v>       0.23529412       0.35294118       0.41176471 </v>
   <v>       0.29411765       0.35294118       0.41176471 </v>
   <v>       0.35294118       0.35294118       0.41176471 </v>
   <v>       0.41176471       0.35294118       0.41176471 </v>
   <v>       0.47058824       0.35294118       0.41176471 </v>
   <v>      -0.47058824       0.35294118       0.41176471 </v>
   <v>      -0.41176471       0.35294118       0.41176471 </v>
   <v>      -0.35294118       0.35294118       0.41176471 </v>
   <v>      -0.29411765       0.35294118       0.41176471 </v>
   <v>      -0.23529412       0.35294118       0.41176471 </v>
   <v>      -0.17647059       0.35294118       0.41176471 </v>
   <v>      -0.11764706       0.35294118       0.41176471 </v>
   <v>      -0.05882353       0.35294118       0.41176471 </v>
   <v>       0.00000000       0.41176471       0.41176471 </v>
   <v>       0.05882353       0.41176471       0.41176471 </v>
   <v>       0.11764706       0.41176471       0.41176471 </v>
   <v>       0.17647059       0.41176471       0.41176471 </v>
   <v>       0.23529412       0.41176471       0.41176471 </v>
   <v>       0.29411765       0.41176471       0.41176471 </v>
   <v>       0.35294118       0.41176471       0.41176471 </v>
   <v>       0.41176471       0.41176471       0.41176471 </v>
   <v>       0.47058824       0.41176471       0.41176471 </v>
   <v>      -0.47058824       0.41176471       0.41176471 </v>
   <v>      -0.41176471       0.41176471       0.41176471 </v>
   <v>      -0.35294118       0.41176471       0.41176471 </v>
   <v>      -0.29411765       0.41176471       0.41176471 </v>
   <v>      -0.23529412       0.41176471       0.41176471 </v>
   <v>      -0.17647059       0.41176471       0.41176471 </v>
   <v>      -0.11764706       0.41176471       0.41176471 </v>
   <v>      -0.05882353       0.41176471       0.41176471 </v>
   <v>       0.00000000       0.47058824       0.41176471 </v>
   <v>       0.05882353       0.47058824       0.41176471 </v>
   <v>       0.11764706       0.47058824       0.41176471 </v>
   <v>       0.17647059       0.47058824       0.41176471 </v>
   <v>       0.23529412       0.47058824       0.41176471 </v>
   <v>       0.29411765       0.47058824       0.41176471 </v>
   <v>       0.35294118       0.47058824       0.41176471 </v>
   <v>       0.41176471       0.47058824       0.41176471 </v>
   <v>       0.47058824       0.47058824       0.41176471 </v>
   <v>      -0.47058824       0.47058824       0.41176471 </v>
   <v>      -0.41176471       0.47058824       0.41176471 </v>
   <v>      -0.35294118       0.47058824       0.41176471 </v>
   <v>      -0.29411765       0.47058824       0.41176471 </v>
   <v>      -0.23529412       0.47058824       0.41176471 </v>
   <v>      -0.17647059       0.47058824       0.41176471 </v>
   <v>      -0.11764706       0.47058824       0.41176471 </v>
   <v>      -0.05882353       0.47058824       0.41176471 </v>
   <v>       0.00000000       0.00000000       0.47058824 </v>
   <v>       0.05882353       0.00000000       0.47058824 </v>
   <v>       0.11764706       0.00000000       0.47058824 </v>
   <v>       0.17647059       0.00000000       0.47058824 </v>
   <v>       0.23529412       0.00000000       0.47058824 </v>
   <v>       0.29411765       0.00000000       0.47058824 </v>
   <v>       0.35294118       0.00000000       0.47058824 </v>
   <v>       0.41176471      -0.00000000       0.47058824 </v>
   <v>       0.47058824       0.00000000       0.47058824 </v>
   <v>       0.00000000       0.05882353       0.47058824 </v>
   <v>       0.05882353       0.05882353       0.47058824 </v>
   <v>       0.11764706       0.05882353       0.47058824 </v>
   <v>       0.17647059       0.05882353       0.47058824 </v>
   <v>       0.23529412       0.05882353       0.47058824 </v>
   <v>       0.29411765       0.05882353       0.47058824 </v>
   <v>       0.35294118       0.05882353       0.47058824 </v>
   <v>       0.41176471       0.05882353       0.47058824 </v>
   <v>       0.47058824       0.05882353       0.47058824 </v>
   <v>      -0.47058824       0.05882353       0.47058824 </v>
   <v>      -0.41176471       0.05882353       0.47058824 </v>
   <v>      -0.35294118       0.05882353       0.47058824 </v>
   <v>      -0.29411765       0.05882353       0.47058824 </v>
   <v>      -0.23529412       0.05882353       0.47058824 </v>
   <v>      -0.17647059       0.05882353       0.47058824 </v>
   <v>      -0.11764706       0.05882353       0.47058824 </v>
   <v>      -0.05882353       0.05882353       0.47058824 </v>
   <v>       0.00000000       0.11764706       0.47058824 </v>
   <v>       0.05882353       0.11764706       0.47058824 </v>
   <v>       0.11764706       0.11764706       0.47058824 </v>
   <v>       0.17647059       0.11764706       0.47058824 </v>
   <v>       0.23529412       0.11764706       0.47058824 </v>
   <v>       0.29411765       0.11764706       0.47058824 </v>
   <v>       0.35294118       0.11764706       0.47058824 </v>
   <v>       0.41176471       0.11764706       0.47058824 </v>
   <v>       0.47058824       0.11764706       0.47058824 </v>
   <v>      -0.47058824       0.11764706       0.47058824 </v>
   <v>      -0.41176471       0.11764706       0.47058824 </v>
   <v>      -0.35294118       0.11764706       0.47058824 </v>
   <v>      -0.29411765       0.11764706       0.47058824 </v>
   <v>      -0.23529412       0.11764706       0.47058824 </v>
   <v>      -0.17647059       0.11764706       0.47058824 </v>
   <v>      -0.11764706       0.11764706       0.47058824 </v>
   <v>      -0.05882353       0.11764706       0.47058824 </v>
   <v>       0.00000000       0.17647059       0.47058824 </v>
   <v>       0.05882353       0.17647059       0.47058824 </v>
   <v>       0.11764706       0.17647059       0.47058824 </v>
   <v>       0.17647059       0.17647059       0.47058824 </v>
   <v>       0.23529412       0.17647059       0.47058824 </v>
   <v>       0.29411765       0.17647059       0.47058824 </v>
   <v>       0.35294118       0.17647059       0.47058824 </v>
   <v>       0.41176471       0.17647059       0.47058824 </v>
   <v>       0.47058824       0.17647059       0.47058824 </v>
   <v>      -0.47058824       0.17647059       0.47058824 </v>
   <v>      -0.41176471       0.17647059       0.47058824 </v>
   <v>      -0.35294118       0.17647059       0.47058824 </v>
   <v>      -0.29411765       0.17647059       0.47058824 </v>
   <v>      -0.23529412       0.17647059       0.47058824 </v>
   <v>      -0.17647059       0.17647059       0.47058824 </v>
   <v>      -0.11764706       0.17647059       0.47058824 </v>
   <v>      -0.05882353       0.17647059       0.47058824 </v>
   <v>       0.00000000       0.23529412       0.47058824 </v>
   <v>       0.05882353       0.23529412       0.47058824 </v>
   <v>       0.11764706       0.23529412       0.47058824 </v>
   <v>       0.17647059       0.23529412       0.47058824 </v>
   <v>       0.23529412       0.23529412       0.47058824 </v>
   <v>       0.29411765       0.23529412       0.47058824 </v>
   <v>       0.35294118       0.23529412       0.47058824 </v>
   <v>       0.41176471       0.23529412       0.47058824 </v>
[...]
       <r>   -6.7987    1.0000 </r>
       <r>   -6.3389    1.0000 </r>
       <r>   -1.9839    1.0000 </r>
       <r>   -1.6074    1.0000 </r>
       <r>   -1.5428    1.0000 </r>
       <r>   -1.1469    1.0000 </r>
       <r>    4.7329    1.0000 </r>
       <r>    5.0622    1.0000 </r>
       <r>    5.1605    1.0000 </r>
       <r>    5.5157    1.0000 </r>
       <r>    6.5019    1.0000 </r>
       <r>    6.6727    1.0000 </r>
       <r>    6.7402    1.0000 </r>
       <r>    7.0461    1.0000 </r>
       <r>   17.6199    0.0000 </r>
       <r>   17.8997    0.0000 </r>
       <r>   17.9464    0.0000 </r>
       <r>   18.0718    0.0000 </r>
       <r>   18.7358    0.0000 </r>
       <r>   18.9650    0.0000 </r>
       <r>   18.9832    0.0000 </r>
       <r>   19.4143    0.0000 </r>
      </set>
      <set comment="kpoint 1303">
       <r>   -7.5298    1.0000 </r>
       <r>   -7.0394    1.0000 </r>
       <r>   -6.9951    1.0000 </r>
       <r>   -6.5175    1.0000 </r>
       <r>   -1.2614    1.0000 </r>
       <r>   -0.8844    1.0000 </r>
       <r>   -0.8086    1.0000 </r>
       <r>   -0.4157    1.0000 </r>
       <r>    3.9173    1.0000 </r>
       <r>    4.2878    1.0000 </r>
       <r>    4.3891    1.0000 </r>
       <r>    4.7779    1.0000 </r>
       <r>    6.4401    1.0000 </r>
       <r>    6.6398    1.0000 </r>
       <r>    6.6917    1.0000 </r>
       <r>    7.0341    1.0000 </r>
       <r>   17.4949    0.0000 </r>
       <r>   17.8132    0.0000 </r>
       <r>   17.8490    0.0000 </r>
       <r>   17.9860    0.0000 </r>
       <r>   18.9714    0.0000 </r>
       <r>   19.2453    0.0000 </r>
       <r>   19.2617    0.0000 </r>
       <r>   19.7614    0.0000 </r>
      </set>
      <set comment="kpoint 1304">
       <r>   -7.6682    1.0000 </r>
       <r>   -7.1705    1.0000 </r>
       <r>   -7.1415    1.0000 </r>
       <r>   -6.6543    1.0000 </r>
       <r>   -0.4959    1.0000 </r>
       <r>   -0.1234    1.0000 </r>
       <r>   -0.0406    1.0000 </r>
       <r>    0.3480    1.0000 </r>
       <r>    3.0773    1.0000 </r>
       <r>    3.4775    1.0000 </r>
       <r>    3.5776    1.0000 </r>
       <r>    3.9905    1.0000 </r>
       <r>    6.3948    1.0000 </r>
       <r>    6.6155    1.0000 </r>
       <r>    6.6505    1.0000 </r>
       <r>    7.0185    1.0000 </r>
       <r>   17.3996    0.0000 </r>
       <r>   17.7434    0.0000 </r>
       <r>   17.7677    0.0000 </r>
       <r>   17.9124    0.0000 </r>
       <r>   19.1882    0.0000 </r>
       <r>   19.5040    0.0000 </r>
       <r>   19.5163    0.0000 </r>
       <r>   20.0658    0.0000 </r>
      </set>
      <set comment="kpoint 1305">
       <r>   -7.7497    1.0000 </r>
       <r>   -7.2480    1.0000 </r>
       <r>   -7.2337    1.0000 </r>
       <r>   -6.7418    1.0000 </r>
       <r>    0.2591    1.0000 </r>
       <r>    0.6329    1.0000 </r>
       <r>    0.7121    1.0000 </r>
       <r>    1.1043    1.0000 </r>
       <r>    2.2755    1.0000 </r>
       <r>    2.6948    1.0000 </r>
       <r>    2.7829    1.0000 </r>
       <r>    3.2113    1.0000 </r>
       <r>    6.3694    1.0000 </r>
       <r>    6.6035    1.0000 </r>
       <r>    6.6209    1.0000 </r>
       <r>    7.0035    1.0000 </r>
       <r>   17.3419    0.0000 </r>
       <r>   17.7005    0.0000 </r>
       <r>   17.7130    0.0000 </r>
       <r>   17.8617    0.0000 </r>
       <r>   19.3420    0.0000 </r>
       <r>   19.6839    0.0000 </r>
       <r>   19.6888    0.0000 </r>
       <r>   20.2786    0.0000 </r>
      </set>
     </set>
    </set>
   </array>
  </eigenvalues>
  <separator name="orbital magnetization" >
   <v name="MAGDIPOLOUT">      0.00000000      0.00000000      0.00000000</v>
  </separator>
  <dos>
   <i name="efermi">      9.97012628 </i>
   <total>
    <array>
     <dimension dim="1">gridpoints</dimension>
     <dimension dim="2">spin</dimension>
     <field>energy</field>
     <field>total</field>
     <field>integrated</field>
     <set>
      <set comment="spin 1">
       <r>   -13.7425     0.0000     0.0000 </r>
       <r>   -13.6171     0.0000     0.0000 </r>
       <r>   -13.4917     0.0000     0.0000 </r>
       <r>   -13.3662     0.0000     0.0000 </r>
       <r>   -13.2408     0.0000     0.0000 </r>
       <r>   -13.1154     0.0000     0.0000 </r>
       <r>   -12.9900     0.0000     0.0000 </r>
       <r>   -12.8645     0.0000     0.0000 </r>
       <r>   -12.7391     0.0000     0.0000 </r>
       <r>   -12.6137     0.0000     0.0000 </r>
       <r>   -12.4883     0.0000     0.0000 </r>
       <r>   -12.3629     0.0000     0.0000 </r>
       <r>   -12.2374     0.0000     0.0000 </r>
       <r>   -12.1120     0.0000     0.0000 </r>
       <r>   -11.9866     0.0000     0.0000 </r>
       <r>   -11.8612     0.0000     0.0000 </r>
       <r>   -11.7357     0.0023     0.0000 </r>
       <r>   -11.6103     0.1779     0.0117 </r>
       <r>   -11.4849     0.2227     0.0352 </r>
       <r>   -11.3595     0.2693     0.0662 </r>
       <r>   -11.2341     0.3176     0.1028 </r>
       <r>   -11.1086     0.3506     0.1448 </r>
       <r>   -10.9832     0.3882     0.1911 </r>
       <r>   -10.8578     0.4196     0.2419 </r>
       <r>   -10.7324     0.4481     0.2963 </r>
       <r>   -10.6069     0.4799     0.3544 </r>
       <r>   -10.4815     0.5049     0.4163 </r>
       <r>   -10.3561     0.5294     0.4811 </r>
       <r>   -10.2307     0.5565     0.5492 </r>
       <r>   -10.1053     0.5805     0.6206 </r>
       <r>    -9.9798     0.6020     0.6947 </r>
       <r>    -9.8544     0.6249     0.7716 </r>
       <r>    -9.7290     0.6494     0.8515 </r>
       <r>    -9.6036     0.7930     0.9436 </r>
       <r>    -9.4781     0.7127     1.0351 </r>
       <r>    -9.3527     0.6711     1.1221 </r>
       <r>    -9.2273     0.6421     1.2044 </r>
       <r>    -9.1019     0.7836     1.2909 </r>
       <r>    -8.9765     0.7773     1.3865 </r>
       <r>    -8.8510     0.7887     1.4847 </r>
       <r>    -8.7256     0.8131     1.5849 </r>
       <r>    -8.6002     0.8327     1.6882 </r>
       <r>    -8.4748     0.8504     1.7936 </r>
       <r>    -8.3493     0.8690     1.9016 </r>
       <r>    -8.2239     0.8895     2.0118 </r>
       <r>    -8.0985     0.9097     2.1246 </r>
       <r>    -7.9731     0.9283     2.2398 </r>
       <r>    -7.8477     0.9496     2.3575 </r>
       <r>    -7.7222     1.0151     2.4797 </r>
       <r>    -7.5968     1.0042     2.6047 </r>
       <r>    -7.4714     1.0284     2.7313 </r>
       <r>    -7.3460     1.0472     2.8619 </r>
       <r>    -7.2205     1.1457     2.9956 </r>
       <r>    -7.0951     1.0902     3.1338 </r>
       <r>    -6.9697     1.0574     3.2675 </r>
       <r>    -6.8443     1.0510     3.3993 </r>
       <r>    -6.7189     1.1899     3.5371 </r>
       <r>    -6.5934     1.1974     3.6855 </r>
       <r>    -6.4680     1.1944     3.8354 </r>
       <r>    -6.3426     1.2328     3.9871 </r>
       <r>    -6.2172     1.3037     4.1454 </r>
       <r>    -6.0918     1.3707     4.3133 </r>
       <r>    -5.9663     1.5245     4.4944 </r>
       <r>    -5.8409     1.5622     4.6873 </r>
       <r>    -5.7155     1.5133     4.8800 </r>
       <r>    -5.5901     1.4527     5.0651 </r>
       <r>    -5.4646     1.4587     5.2483 </r>
       <r>    -5.3392     1.3758     5.4252 </r>
       <r>    -5.2138     1.3648     5.5973 </r>
       <r>    -5.0884     1.3047     5.7652 </r>
       <r>    -4.9630     1.2815     5.9279 </r>
       <r>    -4.8375     1.2216     6.0842 </r>
       <r>    -4.7121     1.2059     6.2378 </r>
       <r>    -4.5867     1.2317     6.3885 </r>
       <r>    -4.4613     1.1410     6.5350 </r>
       <r>    -4.3358     1.0805     6.6742 </r>
       <r>    -4.2104     1.0403     6.8072 </r>
       <r>    -4.0850     1.0090     6.9354 </r>
       <r>    -3.9596     1.0113     7.0597 </r>
       <r>    -3.8342     0.9702     7.1839 </r>
       <r>    -3.7087     0.9078     7.3010 </r>
       <r>    -3.5833     0.8638     7.4119 </r>
       <r>    -3.4579     1.0436     7.5353 </r>
       <r>    -3.3325     1.1339     7.6685 </r>
       <r>    -3.2070     1.0808     7.8080 </r>
       <r>    -3.0816     1.0972     7.9448 </r>
       <r>    -2.9562     1.0781     8.0847 </r>
       <r>    -2.8308     0.9926     8.2130 </r>
       <r>    -2.7054     0.9806     8.3335 </r>
       <r>    -2.5799     0.9754     8.4570 </r>
       <r>    -2.4545     1.0387     8.5808 </r>
       <r>    -2.3291     1.1624     8.7165 </r>
       <r>    -2.2037     1.3240     8.8712 </r>
       <r>    -2.0782     1.5154     9.0472 </r>
       <r>    -1.9528     1.9034     9.2610 </r>
       <r>    -1.8274     2.4122     9.5276 </r>
       <r>    -1.7020     2.7901     9.8558 </r>
       <r>    -1.5766     2.5017    10.1903 </r>
       <r>    -1.4511     2.0452    10.4704 </r>
       <r>    -1.3257     1.8345    10.7122 </r>
       <r>    -1.2003     1.7133    10.9345 </r>
       <r>    -1.0749     1.6743    11.1439 </r>
       <r>    -0.9494     1.5715    11.3471 </r>
       <r>    -0.8240     1.4024    11.5314 </r>
       <r>    -0.6986     1.3421    11.7032 </r>
       <r>    -0.5732     1.2979    11.8687 </r>
       <r>    -0.4478     1.2521    12.0286 </r>
       <r>    -0.3223     1.1983    12.1824 </r>
       <r>    -0.1969     1.1597    12.3297 </r>
       <r>    -0.0715     1.1383    12.4747 </r>
       <r>     0.0539     1.0788    12.6129 </r>
       <r>     0.1794     1.0510    12.7461 </r>
       <r>     0.3048     1.1008    12.8791 </r>
       <r>     0.4302     1.1139    13.0172 </r>
       <r>     0.5556     1.3633    13.1695 </r>
       <r>     0.6810     1.6882    13.3646 </r>
       <r>     0.8065     1.7057    13.5782 </r>
       <r>     0.9319     1.7966    13.7957 </r>
       <r>     1.0573     2.1280    14.0373 </r>
       <r>     1.1827     2.1790    14.3022 </r>
       <r>     1.3082     2.1975    14.5774 </r>
       <r>     1.4336     2.2111    14.8507 </r>
       <r>     1.5590     2.3927    15.1411 </r>
       <r>     1.6844     2.0340    15.4235 </r>
       <r>     1.8098     1.4634    15.6384 </r>
       <r>     1.9353     1.5545    15.8174 </r>
       <r>     2.0607     1.9589    16.0332 </r>
       <r>     2.1861     2.3679    16.3078 </r>
       <r>     2.3115     2.2526    16.5997 </r>
       <r>     2.4370     2.1895    16.8763 </r>
       <r>     2.5624     2.2851    17.1575 </r>
       <r>     2.6878     2.3474    17.4503 </r>
       <r>     2.8132     2.3340    17.7408 </r>
       <r>     2.9386     2.4542    18.0389 </r>
       <r>     3.0641     2.6540    18.3582 </r>
       <r>     3.1895     2.8457    18.7070 </r>
       <r>     3.3149     2.6257    19.0516 </r>
       <r>     3.4403     2.9906    19.3906 </r>
       <r>     3.5658     2.9513    19.7639 </r>
       <r>     3.6912     3.0706    20.1363 </r>
       <r>     3.8166     3.2965    20.5344 </r>
       <r>     3.9420     3.2378    20.9419 </r>
       <r>     4.0674     3.0840    21.3350 </r>
       <r>     4.1929     3.1471    21.7270 </r>
       <r>     4.3183     2.8889    22.1038 </r>
       <r>     4.4437     3.1669    22.4762 </r>
       <r>     4.5691     3.0299    22.8721 </r>
       <r>     4.6946     2.7271    23.2247 </r>
       <r>     4.8200     2.7133    23.5658 </r>
       <r>     4.9454     2.7712    23.9039 </r>
       <r>     5.0708     3.0350    24.2675 </r>
       <r>     5.1962     2.9588    24.6452 </r>
       <r>     5.3217     2.9260    25.0145 </r>
       <r>     5.4471     2.8719    25.3796 </r>
       <r>     5.5725     2.6683    25.7275 </r>
       <r>     5.6979     2.6340    26.0626 </r>
       <r>     5.8234     2.5606    26.3863 </r>
       <r>     5.9488     2.6654    26.7158 </r>
       <r>     6.0742     2.6941    27.0450 </r>
       <r>     6.1996     2.7484    27.3858 </r>
       <r>     6.3250     2.6822    27.7264 </r>
       <r>     6.4505     2.6071    28.0561 </r>
       <r>     6.5759     2.5733    28.3819 </r>
       <r>     6.7013     3.0112    28.7116 </r>
       <r>     6.8267     2.7265    29.0389 </r>
       <r>     6.9522     1.8338    29.3120 </r>
       <r>     7.0776     1.7510    29.5192 </r>
       <r>     7.2030     2.2425    29.7706 </r>
       <r>     7.3284     1.9957    30.0273 </r>
       <r>     7.4538     1.7587    30.2589 </r>
       <r>     7.5793     1.3987    30.4435 </r>
       <r>     7.7047     1.2862    30.6117 </r>
       <r>     7.8301     1.1928    30.7671 </r>
       <r>     7.9555     1.1049    30.9112 </r>
       <r>     8.0810     1.0292    31.0454 </r>
       <r>     8.2064     0.9441    31.1691 </r>
       <r>     8.3318     0.8731    31.2829 </r>
       <r>     8.4572     0.8028    31.3881 </r>
       <r>     8.5826     0.7421    31.4850 </r>
       <r>     8.7081     0.6756    31.5738 </r>
       <r>     8.8335     0.6125    31.6546 </r>
       <r>     8.9589     0.5406    31.7268 </r>
       <r>     9.0843     0.4952    31.7916 </r>
       <r>     9.2098     0.4327    31.8500 </r>
       <r>     9.3352     0.3632    31.8991 </r>
       <r>     9.4606     0.2948    31.9405 </r>
       <r>     9.5860     0.2258    31.9723 </r>
       <r>     9.7114     0.0939    31.9930 </r>
       <r>     9.8369     0.0188    31.9997 </r>
       <r>     9.9623     0.0000    32.0000 </r>
       <r>    10.0877     0.0000    32.0000 </r>
       <r>    10.2131     0.0000    32.0000 </r>
       <r>    10.3386     0.0000    32.0000 </r>
       <r>    10.4640     0.0000    32.0000 </r>
       <r>    10.5894     0.0000    32.0000 </r>
       <r>    10.7148     0.0000    32.0000 </r>
       <r>    10.8402     0.0000    32.0000 </r>
       <r>    10.9657     0.0000    32.0000 </r>
       <r>    11.0911     0.0000    32.0000 </r>
       <r>    11.2165     0.0000    32.0000 </r>
       <r>    11.3419     0.0000    32.0000 </r>
       <r>    11.4674     0.0000    32.0000 </r>
       <r>    11.5928     0.0000    32.0000 </r>
       <r>    11.7182     0.0000    32.0000 </r>
       <r>    11.8436     0.0000    32.0000 </r>
       <r>    11.9690     0.0000    32.0000 </r>
       <r>    12.0945     0.0000    32.0000 </r>
       <r>    12.2199     0.0000    32.0000 </r>
       <r>    12.3453     0.0000    32.0000 </r>
       <r>    12.4707     0.0000    32.0000 </r>
       <r>    12.5962     0.0000    32.0000 </r>
       <r>    12.7216     0.0000    32.0000 </r>
       <r>    12.8470     0.0000    32.0000 </r>
       <r>    12.9724     0.0000    32.0000 </r>
       <r>    13.0978     0.0000    32.0000 </r>
       <r>    13.2233     0.0000    32.0000 </r>
       <r>    13.3487     0.0000    32.0000 </r>
       <r>    13.4741     0.0000    32.0000 </r>
       <r>    13.5995     0.0000    32.0000 </r>
       <r>    13.7250     0.0000    32.0000 </r>
       <r>    13.8504     0.0216    32.0005 </r>
       <r>    13.9758     0.1010    32.0084 </r>
       <r>    14.1012     0.1914    32.0247 </r>
       <r>    14.2266     0.3915    32.0621 </r>
       <r>    14.3521     0.5565    32.1207 </r>
       <r>    14.4775     0.5978    32.1914 </r>
       <r>    14.6029     0.7689    32.2772 </r>
       <r>    14.7283     0.8584    32.3792 </r>
       <r>    14.8538     1.0106    32.4955 </r>
       <r>    14.9792     1.1396    32.6295 </r>
       <r>    15.1046     1.3500    32.7822 </r>
       <r>    15.2300     1.4915    32.9603 </r>
       <r>    15.3554     1.5297    33.1499 </r>
       <r>    15.4809     1.6144    33.3463 </r>
       <r>    15.6063     1.6518    33.5502 </r>
       <r>    15.7317     1.8100    33.7643 </r>
       <r>    15.8571     1.9380    34.0010 </r>
       <r>    15.9826     2.0104    34.2499 </r>
       <r>    16.1080     2.0045    34.5019 </r>
       <r>    16.2334     1.9584    34.7473 </r>
       <r>    16.3588     2.1026    35.0007 </r>
       <r>    16.4842     2.2788    35.2761 </r>
       <r>    16.6097     2.3503    35.5663 </r>
       <r>    16.7351     2.4128    35.8647 </r>
       <r>    16.8605     2.4622    36.1707 </r>
       <r>    16.9859     2.5654    36.4842 </r>
       <r>    17.1114     2.7345    36.8151 </r>
       <r>    17.2368     2.8213    37.1657 </r>
       <r>    17.3622     2.9212    37.5201 </r>
       <r>    17.4876     3.1441    37.8989 </r>
       <r>    17.6130     3.1573    38.2897 </r>
       <r>    17.7385     3.7727    38.7187 </r>
       <r>    17.8639     3.8716    39.1893 </r>
       <r>    17.9893     4.5394    39.7061 </r>
       <r>    18.1147     4.9645    40.2866 </r>
       <r>    18.2402     3.4659    40.8027 </r>
       <r>    18.3656     3.4899    41.1999 </r>
       <r>    18.4910     3.5238    41.6299 </r>
       <r>    18.6164     3.8963    42.0898 </r>
       <r>    18.7418     3.5899    42.5523 </r>
       <r>    18.8673     3.7088    43.0045 </r>
       <r>    18.9927     3.3820    43.4420 </r>
       <r>    19.1181     3.1741    43.8524 </r>
       <r>    19.2435     3.0182    44.2397 </r>
       <r>    19.3690     2.8336    44.6067 </r>
       <r>    19.4944     2.6688    44.9489 </r>
       <r>    19.6198     2.6835    45.2872 </r>
       <r>    19.7452     2.8255    45.6311 </r>
       <r>    19.8706     2.6864    45.9763 </r>
       <r>    19.9961     2.6364    46.3039 </r>
       <r>    20.1215     2.3414    46.6227 </r>
       <r>    20.2469     2.0273    46.8917 </r>
       <r>    20.3723     1.8583    47.1362 </r>
       <r>    20.4977     1.6968    47.3572 </r>
       <r>    20.6232     1.3793    47.5487 </r>
       <r>    20.7486     1.1187    47.7029 </r>
       <r>    20.8740     0.7752    47.8231 </r>
       <r>    20.9994     0.5002    47.9078 </r>
       <r>    21.1249     0.2054    47.9454 </r>
       <r>    21.2503     0.1445    47.9670 </r>
       <r>    21.3757     0.0993    47.9822 </r>
       <r>    21.5011     0.0620    47.9922 </r>
       <r>    21.6265     0.0261    47.9975 </r>
       <r>    21.7520     0.0082    47.9996 </r>
       <r>    21.8774     0.0000    48.0000 </r>
       <r>    22.0028     0.0000    48.0000 </r>
       <r>    22.1282     0.0000    48.0000 </r>
       <r>    22.2537     0.0000    48.0000 </r>
       <r>    22.3791     0.0000    48.0000 </r>
       <r>    22.5045     0.0000    48.0000 </r>
       <r>    22.6299     0.0000    48.0000 </r>
       <r>    22.7553     0.0000    48.0000 </r>
       <r>    22.8808     0.0000    48.0000 </r>
       <r>    23.0062     0.0000    48.0000 </r>
       <r>    23.1316     0.0000    48.0000 </r>
       <r>    23.2570     0.0000    48.0000 </r>
       <r>    23.3825     0.0000    48.0000 </r>
       <r>    23.5079     0.0000    48.0000 </r>
       <r>    23.6333     0.0000    48.0000 </r>
       <r>    23.7587     0.0000    48.0000 </r>
       <r>    23.8841     0.0000    48.0000 </r>
      </set>
     </set>
    </array>
   </total>
  </dos>
 </calculation>
 <structure name="finalpos" >
  <crystal>
   <varray name="basis" >
    <v>       3.53684401      -0.01786300       0.00000000 </v>
    <v>      -0.01786300       3.57257001       0.00000000 </v>
    <v>       0.00000000       0.00000000       3.57257001 </v>
   </varray>
   <i name="volume">     45.14050730 </i>
   <varray name="rec_basis" >
    <v>       0.28274508       0.00141374       0.00000000 </v>
    <v>       0.00141374       0.27991761       0.00000000 </v>
    <v>       0.00000000       0.00000000       0.27991054 </v>
   </varray>
  </crystal>
  <varray name="positions" >
   <v>       0.00000000       0.00000000       0.50000000 </v>
   <v>       0.25000000       0.25000000       0.75000000 </v>
   <v>       0.00000000       0.50000000       0.00000000 </v>
   <v>       0.25000000       0.75000000       0.25000000 </v>
   <v>       0.50000000       0.00000000       0.00000000 </v>
   <v>       0.75000000       0.25000000       0.25000000 </v>
   <v>       0.50000000       0.50000000       0.50000000 </v>
   <v>       0.75000000       0.75000000       0.75000000 </v>
  </varray>
 </structure>
</modeling>
