  64  64   0   0
  0.1889314E+02  0.1079601E-08  0.1058434E-08  0.1058381E-08  0.5000000E-15
  1.000000000000000E-004
  CAR 
 Si64                                    
     11.83951680     -8.00591745  301      6.58076623      1.00000000
     -8.006  0.0000E+00  0.0000E+00
     -7.940  0.0000E+00  0.0000E+00
     -7.874  0.0000E+00  0.0000E+00
     -7.807  0.0000E+00  0.0000E+00
     -7.741  0.0000E+00  0.0000E+00
     -7.675  0.0000E+00  0.0000E+00
     -7.609 -0.1783E-28 -0.1180E-29
     -7.543 -0.3060E-26 -0.2036E-27
     -7.477 -0.4228E-24 -0.2817E-25
     -7.411 -0.4684E-22 -0.3127E-23
     -7.344 -0.4158E-20 -0.2782E-21
     -7.278 -0.2957E-18 -0.1984E-19
     -7.212 -0.1684E-16 -0.1134E-17
     -7.146 -0.7428E-15 -0.5027E-16
     -7.080 -0.2701E-13 -0.1837E-14
     -7.014 -0.7832E-12 -0.5365E-13
     -6.947 -0.1812E-10 -0.1252E-11
     -6.881 -0.3338E-09 -0.2333E-10
     -6.815 -0.4888E-08 -0.3467E-09
     -6.749 -0.5676E-07 -0.4101E-08
     -6.683 -0.5206E-06 -0.3854E-07
     -6.617 -0.3752E-05 -0.2867E-06
     -6.551 -0.2107E-04 -0.1681E-05
     -6.484 -0.9104E-04 -0.7703E-05
     -6.418 -0.2955E-03 -0.2725E-04
     -6.352 -0.6857E-03 -0.7261E-04
     -6.286 -0.9876E-03 -0.1379E-03
     -6.220 -0.2850E-03 -0.1568E-03
     -6.154  0.2454E-02  0.5568E-05
     -6.088  0.6725E-02  0.4505E-03
     -6.021  0.1031E-01  0.1132E-02
     -5.955  0.1358E-01  0.2031E-02
     -5.889  0.2346E-01  0.3583E-02
     -5.823  0.4653E-01  0.6660E-02
     -5.757  0.7560E-01  0.1166E-01
     -5.691  0.9387E-01  0.1787E-01
     -5.624  0.1006E+00  0.2452E-01
     -5.558  0.1184E+00  0.3236E-01
     -5.492  0.1589E+00  0.4287E-01
     -5.426  0.1946E+00  0.5574E-01
     -5.360  0.1922E+00  0.6846E-01
     -5.294  0.1605E+00  0.7907E-01
     -5.228  0.1359E+00  0.8806E-01
     -5.161  0.1289E+00  0.9659E-01
     -5.095  0.1181E+00  0.1044E+00
     -5.029  0.9342E-01  0.1106E+00
     -4.963  0.7207E-01  0.1153E+00
     -4.897  0.6942E-01  0.1199E+00
     -4.831  0.8734E-01  0.1257E+00
     -4.764  0.1356E+00  0.1347E+00
     -4.698  0.2277E+00  0.1497E+00
     -4.632  0.3403E+00  0.1723E+00
     -4.566  0.4168E+00  0.1998E+00
     -4.500  0.4365E+00  0.2287E+00
     -4.434  0.4354E+00  0.2575E+00
     -4.368  0.4326E+00  0.2861E+00
     -4.301  0.3882E+00  0.3118E+00
     -4.235  0.2716E+00  0.3298E+00
     -4.169  0.1223E+00  0.3379E+00
     -4.103  0.1169E-01  0.3386E+00
     -4.037 -0.2124E-01  0.3372E+00
     -3.971  0.2380E-01  0.3388E+00
     -3.905  0.1322E+00  0.3475E+00
     -3.838  0.2782E+00  0.3659E+00
     -3.772  0.4170E+00  0.3935E+00
     -3.706  0.4945E+00  0.4262E+00
     -3.640  0.4787E+00  0.4579E+00
     -3.574  0.3871E+00  0.4835E+00
     -3.508  0.2809E+00  0.5021E+00
     -3.441  0.2273E+00  0.5171E+00
     -3.375  0.2636E+00  0.5346E+00
     -3.309  0.3804E+00  0.5597E+00
     -3.243  0.5243E+00  0.5944E+00
     -3.177  0.6285E+00  0.6360E+00
     -3.111  0.6584E+00  0.6796E+00
     -3.045  0.6259E+00  0.7210E+00
     -2.978  0.5608E+00  0.7581E+00
     -2.912  0.4869E+00  0.7903E+00
     -2.846  0.4281E+00  0.8186E+00
     -2.780  0.4070E+00  0.8455E+00
     -2.714  0.4122E+00  0.8728E+00
     -2.648  0.3892E+00  0.8985E+00
     -2.581  0.2974E+00  0.9182E+00
     -2.515  0.1619E+00  0.9289E+00
     -2.449  0.4570E-01  0.9319E+00
     -2.383 -0.1553E-01  0.9309E+00
     -2.317 -0.2829E-01  0.9290E+00
     -2.251 -0.8411E-02  0.9285E+00
     -2.185  0.4034E-01  0.9311E+00
     -2.118  0.1108E+00  0.9385E+00
     -2.052  0.1724E+00  0.9499E+00
     -1.986  0.1849E+00  0.9621E+00
     -1.920  0.1388E+00  0.9713E+00
     -1.854  0.7151E-01  0.9760E+00
     -1.788  0.4228E-01  0.9788E+00
     -1.722  0.9423E-01  0.9851E+00
     -1.655  0.2309E+00  0.1000E+01
     -1.589  0.4074E+00  0.1027E+01
     -1.523  0.5418E+00  0.1063E+01
     -1.457  0.5592E+00  0.1100E+01
     -1.391  0.4467E+00  0.1130E+01
     -1.325  0.2675E+00  0.1147E+01
     -1.258  0.1143E+00  0.1155E+01
     -1.192  0.4735E-01  0.1158E+01
     -1.126  0.6928E-01  0.1163E+01
     -1.060  0.1377E+00  0.1172E+01
     -0.994  0.1948E+00  0.1185E+01
     -0.928  0.2037E+00  0.1198E+01
     -0.862  0.1813E+00  0.1210E+01
     -0.795  0.1887E+00  0.1223E+01
     -0.729  0.2619E+00  0.1240E+01
     -0.663  0.3494E+00  0.1263E+01
     -0.597  0.3601E+00  0.1287E+01
     -0.531  0.2868E+00  0.1306E+01
     -0.465  0.2474E+00  0.1322E+01
     -0.399  0.3699E+00  0.1347E+01
     -0.332  0.6489E+00  0.1390E+01
     -0.266  0.9282E+00  0.1451E+01
     -0.200  0.1020E+01  0.1518E+01
     -0.134  0.8553E+00  0.1575E+01
     -0.068  0.5262E+00  0.1610E+01
     -0.002  0.2050E+00  0.1623E+01
      0.065  0.1722E-01  0.1625E+01
      0.131 -0.7473E-02  0.1624E+01
      0.197  0.9440E-01  0.1630E+01
      0.263  0.2519E+00  0.1647E+01
      0.329  0.3741E+00  0.1672E+01
      0.395  0.3897E+00  0.1698E+01
      0.461  0.3008E+00  0.1717E+01
      0.528  0.1806E+00  0.1729E+01
      0.594  0.1093E+00  0.1737E+01
      0.660  0.1231E+00  0.1745E+01
      0.726  0.2140E+00  0.1759E+01
      0.792  0.3442E+00  0.1782E+01
      0.858  0.4541E+00  0.1812E+01
      0.925  0.4842E+00  0.1844E+01
      0.991  0.4120E+00  0.1871E+01
      1.057  0.2706E+00  0.1889E+01
      1.123  0.1252E+00  0.1897E+01
      1.189  0.2691E-01  0.1899E+01
      1.255 -0.1460E-01  0.1898E+01
      1.321 -0.2183E-01  0.1897E+01
      1.388 -0.2150E-01  0.1895E+01
      1.454 -0.2528E-01  0.1893E+01
      1.520 -0.2275E-01  0.1892E+01
      1.586  0.1690E-01  0.1893E+01
      1.652  0.1247E+00  0.1901E+01
      1.718  0.2944E+00  0.1921E+01
      1.784  0.4675E+00  0.1952E+01
      1.851  0.5764E+00  0.1990E+01
      1.917  0.6024E+00  0.2030E+01
      1.983  0.5743E+00  0.2068E+01
      2.049  0.5238E+00  0.2102E+01
      2.115  0.4696E+00  0.2133E+01
      2.181  0.4313E+00  0.2162E+01
      2.248  0.4146E+00  0.2189E+01
      2.314  0.3951E+00  0.2215E+01
      2.380  0.3513E+00  0.2239E+01
      2.446  0.3175E+00  0.2260E+01
      2.512  0.3813E+00  0.2285E+01
      2.578  0.6080E+00  0.2325E+01
      2.644  0.9519E+00  0.2388E+01
      2.711  0.1247E+01  0.2471E+01
      2.777  0.1317E+01  0.2558E+01
      2.843  0.1108E+01  0.2631E+01
      2.909  0.7290E+00  0.2679E+01
      2.975  0.3519E+00  0.2703E+01
      3.041  0.9131E-01  0.2709E+01
      3.108 -0.3599E-01  0.2706E+01
      3.174 -0.5938E-01  0.2702E+01
      3.240  0.1635E-01  0.2703E+01
      3.306  0.2190E+00  0.2718E+01
      3.372  0.5405E+00  0.2754E+01
      3.438  0.8827E+00  0.2812E+01
      3.504  0.1114E+01  0.2886E+01
      3.571  0.1182E+01  0.2964E+01
      3.637  0.1131E+01  0.3039E+01
      3.703  0.1025E+01  0.3106E+01
      3.769  0.8965E+00  0.3166E+01
      3.835  0.7700E+00  0.3217E+01
      3.901  0.6829E+00  0.3262E+01
      3.967  0.6627E+00  0.3306E+01
      4.034  0.6912E+00  0.3351E+01
      4.100  0.7023E+00  0.3398E+01
      4.166  0.6348E+00  0.3440E+01
      4.232  0.4999E+00  0.3473E+01
      4.298  0.3848E+00  0.3498E+01
      4.364  0.3671E+00  0.3523E+01
      4.431  0.4388E+00  0.3552E+01
      4.497  0.5271E+00  0.3587E+01
      4.563  0.5751E+00  0.3625E+01
      4.629  0.5857E+00  0.3663E+01
      4.695  0.6020E+00  0.3703E+01
      4.761  0.6580E+00  0.3747E+01
      4.827  0.7443E+00  0.3796E+01
      4.894  0.8141E+00  0.3850E+01
      4.960  0.8243E+00  0.3904E+01
      5.026  0.7711E+00  0.3955E+01
      5.092  0.6770E+00  0.4000E+01
      5.158  0.5562E+00  0.4037E+01
      5.224  0.4145E+00  0.4064E+01
      5.291  0.2778E+00  0.4083E+01
      5.357  0.1898E+00  0.4095E+01
      5.423  0.1763E+00  0.4107E+01
      5.489  0.2241E+00  0.4122E+01
      5.555  0.2907E+00  0.4141E+01
      5.621  0.3254E+00  0.4163E+01
      5.687  0.2951E+00  0.4182E+01
      5.754  0.2084E+00  0.4196E+01
      5.820  0.1117E+00  0.4203E+01
      5.886  0.5458E-01  0.4207E+01
      5.952  0.5542E-01  0.4211E+01
      6.018  0.9712E-01  0.4217E+01
      6.084  0.1454E+00  0.4227E+01
      6.150  0.1689E+00  0.4238E+01
      6.217  0.1533E+00  0.4248E+01
      6.283  0.1084E+00  0.4255E+01
      6.349  0.6034E-01  0.4259E+01
      6.415  0.3121E-01  0.4261E+01
      6.481  0.2480E-01  0.4263E+01
      6.547  0.3437E-01  0.4265E+01
      6.614  0.5527E-01  0.4269E+01
      6.680  0.8362E-01  0.4274E+01
      6.746  0.1100E+00  0.4282E+01
      6.812  0.1242E+00  0.4290E+01
      6.878  0.1236E+00  0.4298E+01
      6.944  0.1100E+00  0.4305E+01
      7.010  0.8617E-01  0.4311E+01
      7.077  0.6125E-01  0.4315E+01
      7.143  0.5341E-01  0.4318E+01
      7.209  0.7551E-01  0.4323E+01
      7.275  0.1203E+00  0.4331E+01
      7.341  0.1668E+00  0.4342E+01
      7.407  0.2017E+00  0.4356E+01
      7.474  0.2280E+00  0.4371E+01
      7.540  0.2556E+00  0.4388E+01
      7.606  0.2906E+00  0.4407E+01
      7.672  0.3317E+00  0.4429E+01
      7.738  0.3664E+00  0.4453E+01
      7.804  0.3742E+00  0.4478E+01
      7.870  0.3458E+00  0.4501E+01
      7.937  0.3041E+00  0.4521E+01
      8.003  0.2957E+00  0.4540E+01
      8.069  0.3447E+00  0.4563E+01
      8.135  0.4228E+00  0.4591E+01
      8.201  0.4840E+00  0.4623E+01
      8.267  0.5186E+00  0.4658E+01
      8.333  0.5430E+00  0.4693E+01
      8.400  0.5573E+00  0.4730E+01
      8.466  0.5605E+00  0.4767E+01
      8.532  0.5900E+00  0.4806E+01
      8.598  0.6879E+00  0.4852E+01
      8.664  0.8356E+00  0.4907E+01
      8.730  0.9693E+00  0.4971E+01
      8.797  0.1048E+01  0.5041E+01
      8.863  0.1060E+01  0.5111E+01
      8.929  0.9870E+00  0.5176E+01
      8.995  0.8179E+00  0.5230E+01
      9.061  0.5929E+00  0.5269E+01
      9.127  0.3934E+00  0.5295E+01
      9.193  0.2789E+00  0.5314E+01
      9.260  0.2498E+00  0.5330E+01
      9.326  0.2622E+00  0.5348E+01
      9.392  0.2632E+00  0.5365E+01
      9.458  0.2205E+00  0.5380E+01
      9.524  0.1400E+00  0.5389E+01
      9.590  0.5871E-01  0.5393E+01
      9.657  0.1118E-01  0.5394E+01
      9.723  0.3695E-02  0.5394E+01
      9.789  0.1740E-01  0.5395E+01
      9.855  0.2915E-01  0.5397E+01
      9.921  0.2782E-01  0.5399E+01
      9.987  0.1683E-01  0.5400E+01
     10.053  0.5537E-02  0.5400E+01
     10.120 -0.5069E-03  0.5400E+01
     10.186 -0.1811E-02  0.5400E+01
     10.252 -0.1194E-02  0.5400E+01
     10.318 -0.4916E-03  0.5400E+01
     10.384 -0.1456E-03  0.5400E+01
     10.450 -0.3253E-04  0.5400E+01
     10.516 -0.5612E-05  0.5400E+01
     10.583 -0.7566E-06  0.5400E+01
     10.649 -0.8033E-07  0.5400E+01
     10.715 -0.6751E-08  0.5400E+01
     10.781 -0.4506E-09  0.5400E+01
     10.847 -0.2395E-10  0.5400E+01
     10.913 -0.1015E-11  0.5400E+01
     10.980 -0.3438E-13  0.5400E+01
     11.046 -0.9371E-15  0.5400E+01
     11.112 -0.1399E-16  0.5400E+01
     11.178  0.0000E+00  0.5400E+01
     11.244  0.0000E+00  0.5400E+01
     11.310  0.0000E+00  0.5400E+01
     11.376  0.0000E+00  0.5400E+01
     11.443  0.0000E+00  0.5400E+01
     11.509  0.0000E+00  0.5400E+01
     11.575  0.0000E+00  0.5400E+01
     11.641  0.0000E+00  0.5400E+01
     11.707  0.0000E+00  0.5400E+01
     11.773  0.0000E+00  0.5400E+01
     11.840  0.0000E+00  0.5400E+01
