 vasp.6.4.3 19Mar24 (build Oct 21 2024 22:36:34) complex                        
  
 executed on             LinuxIFC date 2024.11.01  22:57:51
 running   96 mpi-ranks, on    1 nodes
 distrk:  each k-point on   24 cores,    4 groups
 distr:  one band on NCORE=  12 cores,    2 groups


--------------------------------------------------------------------------------------------------------


 INCAR:
   SYSTEM = Si64
   ISTART = 0
   ICHARG = 2
   LREAL = Auto
   PREC = Accurate
   LWAVE = .False.
   LCHARG = .False.
   ADDGRID = .True.
   ENCUT = 400
   GGA = PS
   GGA_COMPAT = .FALSE.
   ISMEAR = 1
   SIGMA = 0.2
   NELM = 60
   NELMIN = 8
   EDIFF = 1e-06
   EDIFFG = -0.01
   NSW = 60
   IBRION = 2
   ISIF = 2
   KPAR = 4
   NPAR = 2
   ALGO = Fast

 POTCAR:    PAW_PBE Si 05Jan2001                  
 POTCAR:    PAW_PBE Si 05Jan2001                  
   VRHFIN =Si: s2p2                                                                                 
   LEXCH  = PE                                                                                      
   EATOM  =   103.0669 eV,    7.5752 Ry                                                             
                                                                                                    
   TITEL  = PAW_PBE Si 05Jan2001                                                                    
   LULTRA =        F    use ultrasoft PP ?                                                          
   IUNSCR =        1    unscreen: 0-lin 1-nonlin 2-no                                               
   RPACOR =    1.500    partial core radius                                                         
   POMASS =   28.085; ZVAL   =    4.000    mass and valenz                                          
   RCORE  =    1.900    outmost cutoff radius                                                       
   RWIGS  =    2.480; RWIGS  =    1.312    wigner-seitz radius (au A)                               
   ENMAX  =  245.345; ENMIN  =  184.009 eV                                                          
   ICORE  =        2    local potential                                                             
   LCOR   =        T    correct aug charges                                                         
   LPAW   =        T    paw PP                                                                      
   EAUG   =  322.069                                                                                
   DEXC   =    0.000                                                                                
   RMAX   =    1.950    core radius for proj-oper                                                   
   RAUG   =    1.300    factor for augmentation sphere                                              
   RDEP   =    1.993    radius for radial grids                                                     
   RDEPT  =    1.837    core radius for aug-charge                                                  
                                                                                                    
   Atomic configuration                                                                             
    6 entries                                                                                       
     n  l   j            E        occ.                                                              
     1  0  0.50     -1785.8828   2.0000                                                             
     2  0  0.50      -139.4969   2.0000                                                             
     2  1  1.50       -95.5546   6.0000                                                             
     3  0  0.50       -10.8127   2.0000                                                             
     3  1  0.50        -4.0811   2.0000                                                             
     3  2  1.50        -4.0817   0.0000                                                             
   Description                                                                                      
     l       E           TYP  RCUT    TYP  RCUT                                                     
     0    -10.8127223     23  1.900                                                                 
     0     -7.6451159     23  1.900                                                                 
     1     -4.0811372     23  1.900                                                                 
     1      2.4879257     23  1.900                                                                 
     2     -4.0817478      7  1.900                                                                 
  local pseudopotential read in
  partial core-charges read in
  partial kinetic energy density read in
  atomic valenz-charges read in
  non local Contribution for L=           0  read in
    real space projection operators read in
  non local Contribution for L=           0  read in
    real space projection operators read in
  non local Contribution for L=           1  read in
    real space projection operators read in
  non local Contribution for L=           1  read in
    real space projection operators read in
    PAW grid and wavefunctions read in
 
   number of l-projection  operators is LMAX  =           4
   number of lm-projection operators is LMMAX =           8
 
 Optimization of the real space projectors (new method)

 maximal supplied QI-value         = 19.84
 optimisation between [QCUT,QGAM] = [ 10.12, 20.44] = [ 28.68,116.96] Ry 
 Optimized for a Real-space Cutoff    1.38 Angstroem

   l    n(q)    QCUT    max X(q) W(low)/X(q) W(high)/X(q)  e(spline) 
   0      8    10.119   159.560    0.58E-04    0.11E-03    0.54E-07
   0      8    10.119   115.863    0.56E-04    0.11E-03    0.54E-07
   1      8    10.119    88.339    0.22E-03    0.17E-03    0.19E-06
   1      8    10.119    48.592    0.22E-03    0.17E-03    0.18E-06
 -----------------------------------------------------------------------------
|                                                                             |
|               ----> ADVICE to this user running VASP <----                  |
|                                                                             |
|     You enforced a specific xc type in the INCAR file but a different       |
|     type was found in the POTCAR file.                                      |
|     I HOPE YOU KNOW WHAT YOU ARE DOING!                                     |
|                                                                             |
 -----------------------------------------------------------------------------

  PAW_PBE Si 05Jan2001                  :
 energy of atom  1       EATOM= -103.0669
 kinetic energy error for atom=    0.0012 (will be added to EATOM!!)
 
 
 POSCAR: Si8
  positions in direct lattice
  velocities in cartesian coordinates


 exchange-correlation table for PS
   RHO(1)=    0.500       N(1)  =     2000
   RHO(2)=  100.500       N(2)  =     4000
 


--------------------------------------------------------------------------------------------------------


 ion  position               nearest neighbor table
   1  0.000  0.000  0.000-  30 2.29  44 2.29  15 2.32  57 2.32
   2  0.000  0.000  0.500-  29 2.29  43 2.29  16 2.32  58 2.32
   3  0.000  0.500  0.000-  32 2.29  42 2.29  13 2.32  59 2.32
   4  0.000  0.500  0.500-  31 2.29  41 2.29  14 2.32  60 2.32
   5  0.500  0.000  0.000-  26 2.29  48 2.29  11 2.32  61 2.32
   6  0.500  0.000  0.500-  25 2.29  47 2.29  12 2.32  62 2.32
   7  0.500  0.500  0.000-  28 2.29  46 2.29   9 2.32  63 2.32
   8  0.500  0.500  0.500-  27 2.29  45 2.29  10 2.32  64 2.32
   9  0.375  0.375  0.125-  21 2.29  35 2.29   7 2.32  49 2.32
  10  0.375  0.375  0.625-  22 2.29  36 2.29   8 2.32  50 2.32
  11  0.375  0.875  0.125-  23 2.29  33 2.29   5 2.32  51 2.32
  12  0.375  0.875  0.625-  24 2.29  34 2.29   6 2.32  52 2.32
  13  0.875  0.375  0.125-  17 2.29  39 2.29   3 2.32  53 2.32
  14  0.875  0.375  0.625-  18 2.29  40 2.29   4 2.32  54 2.32
  15  0.875  0.875  0.125-  19 2.29  37 2.29   1 2.32  55 2.32
  16  0.875  0.875  0.625-  20 2.29  38 2.29   2 2.32  56 2.32
  17  0.000  0.250  0.250-  13 2.29  57 2.29  41 2.32  29 2.32
  18  0.000  0.250  0.750-  14 2.29  58 2.29  42 2.32  30 2.32
  19  0.000  0.750  0.250-  15 2.29  59 2.29  43 2.32  31 2.32
  20  0.000  0.750  0.750-  16 2.29  60 2.29  44 2.32  32 2.32
  21  0.500  0.250  0.250-   9 2.29  61 2.29  45 2.32  25 2.32
  22  0.500  0.250  0.750-  10 2.29  62 2.29  46 2.32  26 2.32
  23  0.500  0.750  0.250-  11 2.29  63 2.29  47 2.32  27 2.32
  24  0.500  0.750  0.750-  12 2.29  64 2.29  48 2.32  28 2.32
  25  0.375  0.125  0.375-   6 2.29  50 2.29  33 2.32  21 2.32
  26  0.375  0.125  0.875-   5 2.29  49 2.29  34 2.32  22 2.32
  27  0.375  0.625  0.375-   8 2.29  52 2.29  35 2.32  23 2.32
  28  0.375  0.625  0.875-   7 2.29  51 2.29  36 2.32  24 2.32
  29  0.875  0.125  0.375-   2 2.29  54 2.29  37 2.32  17 2.32
  30  0.875  0.125  0.875-   1 2.29  53 2.29  38 2.32  18 2.32
  31  0.875  0.625  0.375-   4 2.29  56 2.29  39 2.32  19 2.32
  32  0.875  0.625  0.875-   3 2.29  55 2.29  40 2.32  20 2.32
  33  0.250  0.000  0.250-  11 2.29  57 2.29  43 2.32  25 2.32
  34  0.250  0.000  0.750-  12 2.29  58 2.29  44 2.32  26 2.32
  35  0.250  0.500  0.250-   9 2.29  59 2.29  41 2.32  27 2.32
  36  0.250  0.500  0.750-  10 2.29  60 2.29  42 2.32  28 2.32
  37  0.750  0.000  0.250-  15 2.29  61 2.29  47 2.32  29 2.32
  38  0.750  0.000  0.750-  16 2.29  62 2.29  48 2.32  30 2.32
  39  0.750  0.500  0.250-  13 2.29  63 2.29  45 2.32  31 2.32
  40  0.750  0.500  0.750-  14 2.29  64 2.29  46 2.32  32 2.32
  41  0.125  0.375  0.375-   4 2.29  50 2.29  35 2.32  17 2.32
  42  0.125  0.375  0.875-   3 2.29  49 2.29  36 2.32  18 2.32
  43  0.125  0.875  0.375-   2 2.29  52 2.29  33 2.32  19 2.32
  44  0.125  0.875  0.875-   1 2.29  51 2.29  34 2.32  20 2.32
  45  0.625  0.375  0.375-   8 2.29  54 2.29  39 2.32  21 2.32
  46  0.625  0.375  0.875-   7 2.29  53 2.29  40 2.32  22 2.32
  47  0.625  0.875  0.375-   6 2.29  56 2.29  37 2.32  23 2.32
  48  0.625  0.875  0.875-   5 2.29  55 2.29  38 2.32  24 2.32
  49  0.250  0.250  0.000-  26 2.29  42 2.29   9 2.32  57 2.32
  50  0.250  0.250  0.500-  25 2.29  41 2.29  10 2.32  58 2.32
  51  0.250  0.750  0.000-  28 2.29  44 2.29  11 2.32  59 2.32
  52  0.250  0.750  0.500-  27 2.29  43 2.29  12 2.32  60 2.32
  53  0.750  0.250  0.000-  30 2.29  46 2.29  13 2.32  61 2.32
  54  0.750  0.250  0.500-  29 2.29  45 2.29  14 2.32  62 2.32
  55  0.750  0.750  0.000-  32 2.29  48 2.29  15 2.32  63 2.32
  56  0.750  0.750  0.500-  31 2.29  47 2.29  16 2.32  64 2.32
  57  0.125  0.125  0.125-  17 2.29  33 2.29   1 2.32  49 2.32
  58  0.125  0.125  0.625-  18 2.29  34 2.29   2 2.32  50 2.32
  59  0.125  0.625  0.125-  19 2.29  35 2.29   3 2.32  51 2.32
  60  0.125  0.625  0.625-  20 2.29  36 2.29   4 2.32  52 2.32
  61  0.625  0.125  0.125-  21 2.29  37 2.29   5 2.32  53 2.32
  62  0.625  0.125  0.625-  22 2.29  38 2.29   6 2.32  54 2.32
  63  0.625  0.625  0.125-  23 2.29  39 2.29   7 2.32  55 2.32
  64  0.625  0.625  0.625-  24 2.29  40 2.29   8 2.32  56 2.32
 
  LATTYP: Found a simple monoclinic cell.
 ALAT       =    10.5843427393
 B/A-ratio  =     0.9999500039
 C/A-ratio  =     1.0199979971
 COS(beta)  =    -0.0198019576
  
  Lattice vectors:
  
 A1 = (   0.1058380156,  10.5838135630,   0.0000000000)
 A2 = (   0.0000000000,   0.0000000000, -10.5838135630)
 A3 = ( -10.7954895943,  -0.1058380156,   0.0000000000)


Analysis of symmetry for initial positions (statically):
=====================================================================
 Subroutine PRICEL returns following result:
 
  LATTYP: Found a base centered monoclinic cell.
 ALAT       =     5.2921713696
 B/A-ratio  =     0.9999500039
 C/A-ratio  =     0.7071067812
 COS(beta)  =    -0.6928246688
  
  Lattice vectors:
  
 A1 = (   0.0264595039,   2.6459533908,  -2.6459533908)
 A2 = (   0.0264595039,   2.6459533908,   2.6459533908)
 A3 = (   2.6724128947,  -2.6194938868,   0.0000000000)
 
  32 primitive cells build up your supercell.
 

 Routine SETGRP: Setting up the symmetry group for a 
 simple monoclinic supercell.


 Subroutine GETGRP returns: Found  4 space group operations
 (whereof  2 operations were pure point group operations)
 out of a pool of  4 trial point group operations.


The static configuration has the point symmetry C_2 .
 The point group associated with its full space group is C_2h.


Analysis of symmetry for dynamics (positions and initial velocities):
=====================================================================
 Subroutine PRICEL returns following result:
 
  LATTYP: Found a base centered monoclinic cell.
 ALAT       =     5.2921713696
 B/A-ratio  =     0.9999500039
 C/A-ratio  =     0.7071067812
 COS(beta)  =    -0.6928246688
  
  Lattice vectors:
  
 A1 = (   0.0264595039,   2.6459533908,  -2.6459533908)
 A2 = (   0.0264595039,   2.6459533908,   2.6459533908)
 A3 = (   2.6724128947,  -2.6194938868,   0.0000000000)
 
  32 primitive cells build up your supercell.
 

 Routine SETGRP: Setting up the symmetry group for a 
 simple monoclinic supercell.


 Subroutine GETGRP returns: Found  4 space group operations
 (whereof  2 operations were pure point group operations)
 out of a pool of  4 trial point group operations.


The dynamic configuration has the point symmetry C_2 .
 The point group associated with its full space group is C_2h.


 Subroutine INISYM returns: Found  4 space group operations
 (whereof  2 operations are pure point group operations),
 and found    32 'primitive' translations


----------------------------------------------------------------------------------------

                                     Primitive cell                                     

  volume of cell :      37.7863

  direct lattice vectors                    reciprocal lattice vectors
     0.026459504  2.645953391 -2.645953391     0.183427916  0.187133526 -0.188967803
     0.026459504  2.645953391  2.645953391     0.183427916  0.187133526  0.188967803
     2.672412895 -2.619493887  0.000000000     0.370561442 -0.003705610 -0.000000000

  length of vectors
     3.742036718  3.742036718  3.742130263     0.323069014  0.323069014  0.370579970

  position of ions in fractional coordinates (direct lattice)
     0.000000000  0.000000000  0.000000000
     0.250000000  0.750000000  0.500000000

  ion indices of the primitive-cell ions
   primitive index   ion index
                 1           1
                 2          15

----------------------------------------------------------------------------------------

 
 
 KPOINTS: Automatic mesh                          

Automatic generation of k-mesh.
 Grid dimensions read from file:
 generate k-points for:    2    2    2

 Generating k-lattice:

  Cartesian coordinates                     Fractional coordinates (reciprocal lattice)
     0.046320180 -0.000463201  0.000000000     0.500000000 -0.000000000  0.000000000
    -0.000463201  0.047246583  0.000000000     0.000000000  0.500000000  0.000000000
     0.000000000  0.000000000  0.047241951     0.000000000  0.000000000  0.500000000

  Length of vectors
     0.046322496  0.047248853  0.047241951

  Shift w.r.t. Gamma in fractional coordinates (k-lattice)
     0.000000000  0.000000000  0.000000000

 
 Subroutine IBZKPT returns following result:
 ===========================================
 
 Found      8 irreducible k-points:
 
 Following reciprocal coordinates:
            Coordinates               Weight
  0.000000  0.000000  0.000000      1.000000
  0.500000  0.000000  0.000000      1.000000
 -0.000000  0.500000  0.000000      1.000000
  0.500000  0.500000  0.000000      1.000000
  0.000000  0.000000  0.500000      1.000000
  0.500000  0.000000  0.500000      1.000000
 -0.000000  0.500000  0.500000      1.000000
  0.500000  0.500000  0.500000      1.000000
 
 Following cartesian coordinates:
            Coordinates               Weight
  0.000000  0.000000  0.000000      1.000000
  0.046320 -0.000463  0.000000      1.000000
 -0.000463  0.047247  0.000000      1.000000
  0.045857  0.046783  0.000000      1.000000
  0.000000  0.000000  0.047242      1.000000
  0.046320 -0.000463  0.047242      1.000000
 -0.000463  0.047247  0.047242      1.000000
  0.045857  0.046783  0.047242      1.000000
 


--------------------------------------------------------------------------------------------------------




 Dimension of arrays:
   k-points           NKPTS =      8   k-points in BZ     NKDIM =      8   number of bands    NBANDS=    162
   number of dos      NEDOS =    301   number of ions     NIONS =     64
   non local maximal  LDIM  =      4   non local SUM 2l+1 LMDIM =      8
   total plane-waves  NPLWV = 343000
   max r-space proj   IRMAX =   3176   max aug-charges    IRDMAX=  76066
   dimension x,y,z NGX =    70 NGY =   70 NGZ =   70
   dimension x,y,z NGXF=   140 NGYF=  140 NGZF=  140
   support grid    NGXF=   280 NGYF=  280 NGZF=  280
   ions per type =              64
   NGX,Y,Z   is equivalent  to a cutoff of  10.78, 10.99, 11.00 a.u.
   NGXF,Y,Z  is equivalent  to a cutoff of  21.56, 21.99, 21.99 a.u.

 SYSTEM =  Si64                                    
 POSCAR =  Si8                                     

 Startparameter for this run:
   NWRITE =      2    write-flag & timer
   PREC   = accura    normal or accurate (medium, high low for compatibility)
   ISTART =      0    job   : 0-new  1-cont  2-samecut
   ICHARG =      2    charge: 1-file 2-atom 10-const
   ISPIN  =      1    spin polarized calculation?
   LNONCOLLINEAR =      F non collinear calculations
   LSORBIT =      F    spin-orbit coupling
   INIWAV =      1    electr: 0-lowe 1-rand  2-diag
   LASPH  =      F    aspherical Exc in radial PAW
 Electronic Relaxation 1
   ENCUT  =  400.0 eV  29.40 Ry    5.42 a.u.  17.61 17.26 17.26*2*pi/ulx,y,z
   ENINI  =  400.0     initial cutoff
   ENAUG  =  322.1 eV  augmentation charge cutoff
   NELM   =     60;   NELMIN=  8; NELMDL= -5     # of ELM steps 
   EDIFF  = 0.1E-05   stopping-criterion for ELM
   LREAL  =      T    real-space projection
   NLSPLINE    = F    spline interpolate recip. space projectors
   LCOMPAT=      F    compatible to vasp.4.4
   GGA_COMPAT  = F    GGA compatible to vasp.4.4-vasp.4.6
   LMAXPAW     = -100 max onsite density
   LMAXMIX     =    2 max onsite mixed and CHGCAR
   VOSKOWN=      0    Vosko Wilk Nusair interpolation
   ROPT   =   -0.00025
 Ionic relaxation
   EDIFFG = -.1E-01   stopping-criterion for IOM
   NSW    =     60    number of steps for IOM
   NBLOCK =      1;   KBLOCK =     60    inner block; outer block 
   IBRION =      2    ionic relax: 0-MD 1-quasi-New 2-CG
   NFREE  =      1    steps in history (QN), initial steepest desc. (CG)
   ISIF   =      2    stress and relaxation
   IWAVPR =     11    prediction:  0-non 1-charg 2-wave 3-comb
   ISYM   =      2    0-nonsym 1-usesym 2-fastsym
   LCORR  =      T    Harris-Foulkes like correction to forces

   POTIM  = 0.5000    time-step for ionic-motion
   TEIN   =    0.0    initial temperature
   TEBEG  =    0.0;   TEEND  =   0.0 temperature during run
   SMASS  =  -3.00    Nose mass-parameter (am)
   estimated Nose-frequenzy (Omega)   =  0.10E-29 period in steps = 0.13E+47 mass=  -0.266E-26a.u.
   SCALEE = 1.0000    scale energy and forces
   NPACO  =    256;   APACO  = 10.0  distance and # of slots for P.C.
   PSTRESS=    0.0 pullay stress

  Mass of Ions in am
   POMASS =  28.09
  Ionic Valenz
   ZVAL   =   4.00
  Atomic Wigner-Seitz radii
   RWIGS  =  -1.00
  virtual crystal weights 
   VCA    =   1.00
   NELECT =     256.0000    total number of electrons
   NUPDOWN=      -1.0000    fix difference up-down

 DOS related values:
   EMIN   =  10.00;   EMAX   =-10.00  energy-range for DOS
   EFERMI =   0.00;   METHOD = LEGACY      
   ISMEAR =     1;   SIGMA  =   0.20  broadening in eV -4-tet -1-fermi 0-gaus

 Electronic relaxation 2 (details)
   IALGO  =     68    algorithm
   LDIAG  =      T    sub-space diagonalisation (order eigenvalues)
   LSUBROT=      F    optimize rotation matrix (better conditioning)
   TURBO    =      0    0=normal 1=particle mesh
   IRESTART =      0    0=no restart 2=restart with 2 vectors
   NREBOOT  =      0    no. of reboots
   NMIN     =      0    reboot dimension
   EREF     =   0.00    reference energy to select bands
   IMIX   =      4    mixing-type and parameters
     AMIX     =   0.40;   BMIX     =  1.00
     AMIX_MAG =   1.60;   BMIX_MAG =  1.00
     AMIN     =   0.10
     WC   =   100.;   INIMIX=   1;  MIXPRE=   1;  MAXMIX= -45

 Intra band minimization:
   WEIMIN = 0.0010     energy-eigenvalue tresh-hold
   EBREAK =  0.15E-08  absolut break condition
   DEPER  =   0.30     relativ break condition  

   TIME   =   0.40     timestep for ELM

  volume/ion in A,a.u.               =      18.89       127.50
  Fermi-wavevector in a.u.,A,eV,Ry     =   0.975724  1.843850 12.953242  0.952036
  Thomas-Fermi vector in A             =   2.106286
 
 Write flags
   LWAVE        =      F    write WAVECAR
   LDOWNSAMPLE  =      F    k-point downsampling of WAVECAR
   LCHARG       =      F    write CHGCAR
   LVTOT        =      F    write LOCPOT, total local potential
   LVHAR        =      F    write LOCPOT, Hartree potential only
   WRT_POTENTIAL= false  ! write potential to hdf5 file
   LELF         =      F    write electronic localiz. function (ELF)
   LORBIT       =      0    0 simple, 1 ext, 2 COOP (PROOUT), +10 PAW based schemes


 Dipole corrections
   LMONO      =      F    monopole corrections only (constant potential shift)
   LDIPOL     =      F    correct potential (dipole corrections)
   IDIPOL     =      0    1-x, 2-y, 3-z, 4-all directions 
   EPSILON    =  1.0000000 bulk dielectric constant
   LVACPOTAV  =      F  vacuum potentials using an averaging scheme for the charge density
   VACPOTFLAT =  0.1000000 required flatness to determine vacuum potential
 Exchange correlation treatment:
   GGA     = PS    functional components
   XC_C    = 1    coefficients multiplying the functional components
   LIBXC   =     F    Libxc                    
   VOSKOWN =     0    Vosko Wilk Nusair interpolation
   LHFCALC =     F    Hartree Fock is set to
   LHFONE  =     F    Hartree Fock one center treatment
   AEXX    =    0.0000 exact exchange contribution

 Parameters of functionals:
   PS:
     No parameter
 
 Van der Waals corrections
   IVDW    =     0    specifies the selected vdW correction

 Linear response parameters
   LEPSILON=     F    determine dielectric tensor
   LRPA    =     F    only Hartree local field effects (RPA)
   LNABLA  =     F    use nabla operator in PAW spheres
   LVEL    =     F    velocity operator in full k-point grid
   CSHIFT  =0.1000    complex shift for real part using Kramers Kronig
   OMEGAMAX=  -1.0    maximum frequency
   DEG_THRESHOLD= 0.2000000E-02 threshold for treating states as degnerate
   RTIME   =   -0.100 relaxation time in fs
  (WPLASMAI=    0.000 imaginary part of plasma frequency in eV, 0.658/RTIME)
   DFIELD  = 0.0000000 0.0000000 0.0000000 field for delta impulse in time
 
  Optional k-point grid parameters
   LKPOINTS_OPT  =     F    use optional k-point grid
   KPOINTS_OPT_MODE=     1    mode for optional k-point grid
 
 Orbital magnetization related:
   ORBITALMAG=     F  switch on orbital magnetization
   LCHIMAG   =     F  perturbation theory with respect to B field
   DQ        =  0.001000  dq finite difference perturbation B field
   LLRAUG    =     F  two centre corrections for induced B field
   LBONE     =     F  B-component reconstruction in AE one-centre
   LVGVCALC  =     T  calculate vGv susceptibility
   LVGVAPPL  =     F  apply vGv susceptibility instead of pGv for G=0

 Random number generation:
   RANDOM_GENERATOR = DEFAULT
   PCG_SEED         = not used


--------------------------------------------------------------------------------------------------------


 conjugate gradient relaxation of ions
 charge density and potential will be updated during run
 non-spin polarized calculation
 RMM-DIIS sequential band-by-band and
  variant of blocked Davidson during initial phase
 perform sub-space diagonalisation
    before iterative eigenvector-optimisation
 modified Broyden-mixing scheme, WC =      100.0
 initial mixing is a Kerker type mixing with AMIX =  0.4000 and BMIX =      1.0000
 Hartree-type preconditioning will be used
 using additional bands           34
 real space projection scheme for non local part
 use partial core corrections
 calculate Harris-corrections to forces 
   (improved forces if not selfconsistent)
 use gradient corrections 
 use of overlap-Matrix (Vanderbilt PP)
 Methfessel and Paxton  Order N= 1 SIGMA  =   0.20


--------------------------------------------------------------------------------------------------------


  energy-cutoff  :      400.00
  volume of cell :     1209.16
      direct lattice vectors                 reciprocal lattice vectors
    10.795489594  0.105838016  0.000000000     0.092640361 -0.000926403  0.000000000
     0.105838016 10.583813563  0.000000000    -0.000926403  0.094493166  0.000000000
     0.000000000  0.000000000 10.583813563     0.000000000  0.000000000  0.094483902

  length of vectors
    10.796008395 10.584342739 10.583813563     0.092644992  0.094497707  0.094483902


 
 k-points in units of 2pi/SCALE and weight: Automatic mesh                          
   0.00000000  0.00000000  0.00000000       0.125
   0.04632019 -0.00046320  0.00000000       0.125
  -0.00046320  0.04724659  0.00000000       0.125
   0.04585699  0.04678339  0.00000000       0.125
   0.00000000  0.00000000  0.04724196       0.125
   0.04632019 -0.00046320  0.04724196       0.125
  -0.00046320  0.04724659  0.04724196       0.125
   0.04585699  0.04678339  0.04724196       0.125
 
 k-points in reciprocal lattice and weights: Automatic mesh                          
   0.00000000  0.00000000  0.00000000       0.125
   0.50000000  0.00000000  0.00000000       0.125
  -0.00000000  0.50000000  0.00000000       0.125
   0.50000000  0.50000000  0.00000000       0.125
   0.00000000  0.00000000  0.50000000       0.125
   0.50000000  0.00000000  0.50000000       0.125
  -0.00000000  0.50000000  0.50000000       0.125
   0.50000000  0.50000000  0.50000000       0.125
 
 position of ions in fractional coordinates (direct lattice) 
   0.00000000  0.00000000  0.00000000
   0.00000000  0.00000000  0.50000000
   0.00000000  0.50000000  0.00000000
   0.00000000  0.50000000  0.50000000
   0.50000000  0.00000000  0.00000000
   0.50000000  0.00000000  0.50000000
   0.50000000  0.50000000  0.00000000
   0.50000000  0.50000000  0.50000000
   0.37500000  0.37500000  0.12500000
   0.37500000  0.37500000  0.62500000
   0.37500000  0.87500000  0.12500000
   0.37500000  0.87500000  0.62500000
   0.87500000  0.37500000  0.12500000
   0.87500000  0.37500000  0.62500000
   0.87500000  0.87500000  0.12500000
   0.87500000  0.87500000  0.62500000
   0.00000000  0.25000000  0.25000000
   0.00000000  0.25000000  0.75000000
   0.00000000  0.75000000  0.25000000
   0.00000000  0.75000000  0.75000000
   0.50000000  0.25000000  0.25000000
   0.50000000  0.25000000  0.75000000
   0.50000000  0.75000000  0.25000000
   0.50000000  0.75000000  0.75000000
   0.37500000  0.12500000  0.37500000
   0.37500000  0.12500000  0.87500000
   0.37500000  0.62500000  0.37500000
   0.37500000  0.62500000  0.87500000
   0.87500000  0.12500000  0.37500000
   0.87500000  0.12500000  0.87500000
   0.87500000  0.62500000  0.37500000
   0.87500000  0.62500000  0.87500000
   0.25000000  0.00000000  0.25000000
   0.25000000  0.00000000  0.75000000
   0.25000000  0.50000000  0.25000000
   0.25000000  0.50000000  0.75000000
   0.75000000  0.00000000  0.25000000
   0.75000000  0.00000000  0.75000000
   0.75000000  0.50000000  0.25000000
   0.75000000  0.50000000  0.75000000
   0.12500000  0.37500000  0.37500000
   0.12500000  0.37500000  0.87500000
   0.12500000  0.87500000  0.37500000
   0.12500000  0.87500000  0.87500000
   0.62500000  0.37500000  0.37500000
   0.62500000  0.37500000  0.87500000
   0.62500000  0.87500000  0.37500000
   0.62500000  0.87500000  0.87500000
   0.25000000  0.25000000  0.00000000
   0.25000000  0.25000000  0.50000000
   0.25000000  0.75000000  0.00000000
   0.25000000  0.75000000  0.50000000
   0.75000000  0.25000000  0.00000000
   0.75000000  0.25000000  0.50000000
   0.75000000  0.75000000  0.00000000
   0.75000000  0.75000000  0.50000000
   0.12500000  0.12500000  0.12500000
   0.12500000  0.12500000  0.62500000
   0.12500000  0.62500000  0.12500000
   0.12500000  0.62500000  0.62500000
   0.62500000  0.12500000  0.12500000
   0.62500000  0.12500000  0.62500000
   0.62500000  0.62500000  0.12500000
   0.62500000  0.62500000  0.62500000
 
 position of ions in cartesian coordinates  (Angst):
   0.00000000  0.00000000  0.00000000
   0.00000000  0.00000000  5.29190678
   0.05291901  5.29190678  0.00000000
   0.05291901  5.29190678  5.29190678
   5.39774480  0.05291901  0.00000000
   5.39774480  0.05291901  5.29190678
   5.45066380  5.34482579  0.00000000
   5.45066380  5.34482579  5.29190678
   4.08799785  4.00861934  1.32297670
   4.08799785  4.00861934  6.61488348
   4.14091686  9.30052612  1.32297670
   4.14091686  9.30052612  6.61488348
   9.48574265  4.06153835  1.32297670
   9.48574265  4.06153835  6.61488348
   9.53866166  9.35344513  1.32297670
   9.53866166  9.35344513  6.61488348
   0.02645950  2.64595339  2.64595339
   0.02645950  2.64595339  7.93786017
   0.07937851  7.93786017  2.64595339
   0.07937851  7.93786017  7.93786017
   5.42420430  2.69887240  2.64595339
   5.42420430  2.69887240  7.93786017
   5.47712331  7.99077918  2.64595339
   5.47712331  7.99077918  7.93786017
   4.06153835  1.36266595  3.96893009
   4.06153835  1.36266595  9.26083687
   4.11445736  6.65457273  3.96893009
   4.11445736  6.65457273  9.26083687
   9.45928315  1.41558496  3.96893009
   9.45928315  1.41558496  9.26083687
   9.51220215  6.70749174  3.96893009
   9.51220215  6.70749174  9.26083687
   2.69887240  0.02645950  2.64595339
   2.69887240  0.02645950  7.93786017
   2.75179141  5.31836629  2.64595339
   2.75179141  5.31836629  7.93786017
   8.09661720  0.07937851  2.64595339
   8.09661720  0.07937851  7.93786017
   8.14953620  5.37128529  2.64595339
   8.14953620  5.37128529  7.93786017
   1.38912546  3.98215984  3.96893009
   1.38912546  3.98215984  9.26083687
   1.44204446  9.27406662  3.96893009
   1.44204446  9.27406662  9.26083687
   6.78687025  4.03507885  3.96893009
   6.78687025  4.03507885  9.26083687
   6.83978926  9.32698563  3.96893009
   6.83978926  9.32698563  9.26083687
   2.72533190  2.67241289  0.00000000
   2.72533190  2.67241289  5.29190678
   2.77825091  7.96431968  0.00000000
   2.77825091  7.96431968  5.29190678
   8.12307670  2.72533190  0.00000000
   8.12307670  2.72533190  5.29190678
   8.17599571  8.01723868  0.00000000
   8.17599571  8.01723868  5.29190678
   1.36266595  1.33620645  1.32297670
   1.36266595  1.33620645  6.61488348
   1.41558496  6.62811323  1.32297670
   1.41558496  6.62811323  6.61488348
   6.76041075  1.38912546  1.32297670
   6.76041075  1.38912546  6.61488348
   6.81332976  6.68103224  1.32297670
   6.81332976  6.68103224  6.61488348
 


--------------------------------------------------------------------------------------------------------


 k-point     1 :   0.0000 0.0000 0.0000  plane waves:   21995
 k-point     2 :   0.5000 0.0000 0.0000  plane waves:   21988
 k-point     3 :  -0.0000 0.5000 0.0000  plane waves:   21978
 k-point     4 :   0.5000 0.5000 0.0000  plane waves:   21974
 k-point     5 :   0.0000 0.0000 0.5000  plane waves:   21950
 k-point     6 :   0.5000 0.0000 0.5000  plane waves:   21948
 k-point     7 :  -0.0000 0.5000 0.5000  plane waves:   21976
 k-point     8 :   0.5000 0.5000 0.5000  plane waves:   21988

 maximum and minimum number of plane-waves per node :      1855     1808

 maximum number of plane-waves:     21995
 maximum index in each direction: 
   IXMAX=   17   IYMAX=   17   IZMAX=   17
   IXMIN=  -18   IYMIN=  -17   IZMIN=  -17


 real space projection operators:
  total allocation   :      12154.50 KBytes
  max/ min on nodes  :       1058.75        872.25


 parallel 3D FFT for wavefunctions:
    minimum data exchange during FFTs selected (reduces bandwidth)
 parallel 3D FFT for charge:
    minimum data exchange during FFTs selected (reduces bandwidth)


 total amount of memory used by VASP MPI-rank0    79098. kBytes
=======================================================================

   base      :      30000. kBytes
   nonlr-proj:       4696. kBytes
   fftplans  :      17991. kBytes
   grid      :       6881. kBytes
   one-center:         18. kBytes
   wavefun   :      19512. kBytes
 
     INWAV:  cpu time      0.0000: real time      0.0000
 Broyden mixing: mesh for mixing (old mesh)
   NGX = 35   NGY = 35   NGZ = 35
  (NGX  =140   NGY  =140   NGZ  =140)
  gives a total of  42875 points

 initial charge density was supplied:
 charge density of overlapping atoms calculated
 number of electron     256.0000000 magnetization 
 keeping initial charge density in first step


--------------------------------------------------------------------------------------------------------


 Maximum index for non-local projection operator          278
 Maximum index for augmentation-charges         3734 (set IRDMAX)


--------------------------------------------------------------------------------------------------------


 First call to EWALD:  gamma=   0.166
 Maximum number of real-space cells 3x 3x 3
 Maximum number of reciprocal cells 3x 3x 3

    FEWALD:  cpu time      0.0053: real time      0.0053


--------------------------------------- Ionic step        1  -------------------------------------------




--------------------------------------- Iteration      1(   1)  ---------------------------------------


    POTLOK:  cpu time      0.0813: real time      0.0845
    SETDIJ:  cpu time      0.0803: real time      0.0805
     EDDAV:  cpu time      1.2322: real time      1.2770
       DOS:  cpu time      0.0037: real time      0.0037
    --------------------------------------------
      LOOP:  cpu time      1.3974: real time      1.4457

 eigenvalue-minimisations  :  2592
 total energy-change (2. order) : 0.5736937E+03  (-0.8495526E+04)
 number of electron     256.0000000 magnetization 
 augmentation part      256.0000000 magnetization 

 Free energy of the ion-electron system (eV)
  ---------------------------------------------------
  alpha Z        PSCENC =       114.03294152
  Ewald energy   TEWEN  =     -7455.66129761
  -Hartree energ DENC   =      -324.98801609
  -exchange      EXHF   =         0.00000000
  -V(xc)+E(xc)   XCENC  =      -551.71633176
  PAW double counting   =      5598.62625415    -4492.17844134
  entropy T*S    EENTRO =         0.01036010
  eigenvalues    EBANDS =      1120.77241469
  atomic energy  EATOM  =      6564.79586099
  Solvation  Ediel_sol  =         0.00000000
  ---------------------------------------------------
  free energy    TOTEN  =       573.69374466 eV

  energy without entropy =      573.68338455  energy(sigma->0) =      573.69029129


--------------------------------------------------------------------------------------------------------




--------------------------------------- Iteration      1(   2)  ---------------------------------------


     EDDAV:  cpu time      1.3276: real time      1.3371
       DOS:  cpu time      0.0014: real time      0.0014
    --------------------------------------------
      LOOP:  cpu time      1.3290: real time      1.3385

 eigenvalue-minimisations  :  3104
 total energy-change (2. order) :-0.8838171E+03  (-0.8387374E+03)
 number of electron     256.0000000 magnetization 
 augmentation part      256.0000000 magnetization 

 Free energy of the ion-electron system (eV)
  ---------------------------------------------------
  alpha Z        PSCENC =       114.03294152
  Ewald energy   TEWEN  =     -7455.66129761
  -Hartree energ DENC   =      -324.98801609
  -exchange      EXHF   =         0.00000000
  -V(xc)+E(xc)   XCENC  =      -551.71633176
  PAW double counting   =      5598.62625415    -4492.17844134
  entropy T*S    EENTRO =         0.01053867
  eigenvalues    EBANDS =       236.95517287
  atomic energy  EATOM  =      6564.79586099
  Solvation  Ediel_sol  =         0.00000000
  ---------------------------------------------------
  free energy    TOTEN  =      -310.12331860 eV

  energy without entropy =     -310.13385727  energy(sigma->0) =     -310.12683149


--------------------------------------------------------------------------------------------------------




--------------------------------------- Iteration      1(   3)  ---------------------------------------


     EDDAV:  cpu time      1.3422: real time      1.3560
       DOS:  cpu time      0.0015: real time      0.0015
    --------------------------------------------
      LOOP:  cpu time      1.3438: real time      1.3576

 eigenvalue-minimisations  :  3128
 total energy-change (2. order) :-0.6254406E+02  (-0.6133102E+02)
 number of electron     256.0000000 magnetization 
 augmentation part      256.0000000 magnetization 

 Free energy of the ion-electron system (eV)
  ---------------------------------------------------
  alpha Z        PSCENC =       114.03294152
  Ewald energy   TEWEN  =     -7455.66129761
  -Hartree energ DENC   =      -324.98801609
  -exchange      EXHF   =         0.00000000
  -V(xc)+E(xc)   XCENC  =      -551.71633176
  PAW double counting   =      5598.62625415    -4492.17844134
  entropy T*S    EENTRO =         0.00719345
  eigenvalues    EBANDS =       174.41446111
  atomic energy  EATOM  =      6564.79586099
  Solvation  Ediel_sol  =         0.00000000
  ---------------------------------------------------
  free energy    TOTEN  =      -372.66737558 eV

  energy without entropy =     -372.67456902  energy(sigma->0) =     -372.66977339


--------------------------------------------------------------------------------------------------------




--------------------------------------- Iteration      1(   4)  ---------------------------------------


     EDDAV:  cpu time      1.3349: real time      1.3503
       DOS:  cpu time      0.0014: real time      0.0014
    --------------------------------------------
      LOOP:  cpu time      1.3362: real time      1.3517

 eigenvalue-minimisations  :  3168
 total energy-change (2. order) :-0.1617902E+01  (-0.1606434E+01)
 number of electron     256.0000000 magnetization 
 augmentation part      256.0000000 magnetization 

 Free energy of the ion-electron system (eV)
  ---------------------------------------------------
  alpha Z        PSCENC =       114.03294152
  Ewald energy   TEWEN  =     -7455.66129761
  -Hartree energ DENC   =      -324.98801609
  -exchange      EXHF   =         0.00000000
  -V(xc)+E(xc)   XCENC  =      -551.71633176
  PAW double counting   =      5598.62625415    -4492.17844134
  entropy T*S    EENTRO =         0.00738348
  eigenvalues    EBANDS =       172.79636932
  atomic energy  EATOM  =      6564.79586099
  Solvation  Ediel_sol  =         0.00000000
  ---------------------------------------------------
  free energy    TOTEN  =      -374.28527734 eV

  energy without entropy =     -374.29266081  energy(sigma->0) =     -374.28773849


--------------------------------------------------------------------------------------------------------




--------------------------------------- Iteration      1(   5)  ---------------------------------------


     EDDAV:  cpu time      1.3371: real time      1.3897
       DOS:  cpu time      0.0012: real time      0.0012
    CHARGE:  cpu time      0.2434: real time      0.2449
    MIXING:  cpu time      0.0065: real time      0.0065
    --------------------------------------------
      LOOP:  cpu time      1.5883: real time      1.6425

 eigenvalue-minimisations  :  3136
 total energy-change (2. order) :-0.4846985E-01  (-0.4834491E-01)
 number of electron     255.9999998 magnetization 
 augmentation part      -15.1021354 magnetization 

 Broyden mixing:
  rms(total) = 0.30330E+01    rms(broyden)= 0.30330E+01
  rms(prec ) = 0.33345E+01
  weight for this iteration     100.00

 Free energy of the ion-electron system (eV)
  ---------------------------------------------------
  alpha Z        PSCENC =       114.03294152
  Ewald energy   TEWEN  =     -7455.66129761
  -Hartree energ DENC   =      -324.98801609
  -exchange      EXHF   =         0.00000000
  -V(xc)+E(xc)   XCENC  =      -551.71633176
  PAW double counting   =      5598.62625415    -4492.17844134
  entropy T*S    EENTRO =         0.00744309
  eigenvalues    EBANDS =       172.74783987
  atomic energy  EATOM  =      6564.79586099
  Solvation  Ediel_sol  =         0.00000000
  ---------------------------------------------------
  free energy    TOTEN  =      -374.33374718 eV

  energy without entropy =     -374.34119027  energy(sigma->0) =     -374.33622821


--------------------------------------------------------------------------------------------------------




--------------------------------------- Iteration      1(   6)  ---------------------------------------


    POTLOK:  cpu time      0.0786: real time      0.0961
    SETDIJ:  cpu time      0.0726: real time      0.0729
    EDDIAG:  cpu time      0.1545: real time      0.1550
  RMM-DIIS:  cpu time      0.7065: real time      0.7102
    ORTHCH:  cpu time      0.0206: real time      0.0206
       DOS:  cpu time      0.0013: real time      0.0013
    CHARGE:  cpu time      0.2354: real time      0.2360
    MIXING:  cpu time      0.0058: real time      0.0059
    --------------------------------------------
      LOOP:  cpu time      1.2753: real time      1.2981

 eigenvalue-minimisations  :  2592
 total energy-change (2. order) : 0.5918815E+01  (-0.3105686E+00)
 number of electron     255.9999998 magnetization 
 augmentation part      -14.9188005 magnetization 

 Broyden mixing:
  rms(total) = 0.18293E+01    rms(broyden)= 0.18293E+01
  rms(prec ) = 0.19986E+01
  weight for this iteration     100.00

 eigenvalues of (default mixing * dielectric matrix)
  average eigenvalue GAMMA=   2.5136
  2.5136

 Free energy of the ion-electron system (eV)
  ---------------------------------------------------
  alpha Z        PSCENC =       114.03294152
  Ewald energy   TEWEN  =     -7455.66129761
  -Hartree energ DENC   =      -374.15615279
  -exchange      EXHF   =         0.00000000
  -V(xc)+E(xc)   XCENC  =      -543.93454094
  PAW double counting   =     13167.81003807   -12065.26785394
  entropy T*S    EENTRO =         0.02033866
  eigenvalues    EBANDS =       223.94573426
  atomic energy  EATOM  =      6564.79586099
  Solvation  Ediel_sol  =         0.00000000
  ---------------------------------------------------
  free energy    TOTEN  =      -368.41493177 eV

  energy without entropy =     -368.43527043  energy(sigma->0) =     -368.42171132


--------------------------------------------------------------------------------------------------------




--------------------------------------- Iteration      1(   7)  ---------------------------------------


    POTLOK:  cpu time      0.0720: real time      0.0875
    SETDIJ:  cpu time      0.0737: real time      0.0740
    EDDIAG:  cpu time      0.1358: real time      0.1367
  RMM-DIIS:  cpu time      0.7041: real time      0.7075
    ORTHCH:  cpu time      0.0203: real time      0.0204
       DOS:  cpu time      0.0019: real time      0.0019
    CHARGE:  cpu time      0.2339: real time      0.2351
    MIXING:  cpu time      0.0055: real time      0.0055
    --------------------------------------------
      LOOP:  cpu time      1.2473: real time      1.2688

 eigenvalue-minimisations  :  2634
 total energy-change (2. order) : 0.2583328E+01  (-0.7812735E+00)
 number of electron     255.9999998 magnetization 
 augmentation part      -14.6612066 magnetization 

 Broyden mixing:
  rms(total) = 0.11444E+00    rms(broyden)= 0.11444E+00
  rms(prec ) = 0.14380E+00
  weight for this iteration     100.00

 eigenvalues of (default mixing * dielectric matrix)
  average eigenvalue GAMMA=   2.3176
  2.3176  2.3176

 Free energy of the ion-electron system (eV)
  ---------------------------------------------------
  alpha Z        PSCENC =       114.03294152
  Ewald energy   TEWEN  =     -7455.66129761
  -Hartree energ DENC   =      -455.09583420
  -exchange      EXHF   =         0.00000000
  -V(xc)+E(xc)   XCENC  =      -530.53778922
  PAW double counting   =     31829.64251497   -30732.57215092
  entropy T*S    EENTRO =         0.01545390
  eigenvalues    EBANDS =       299.54869693
  atomic energy  EATOM  =      6564.79586099
  Solvation  Ediel_sol  =         0.00000000
  ---------------------------------------------------
  free energy    TOTEN  =      -365.83160364 eV

  energy without entropy =     -365.84705754  energy(sigma->0) =     -365.83675494


--------------------------------------------------------------------------------------------------------




--------------------------------------- Iteration      1(   8)  ---------------------------------------


    POTLOK:  cpu time      0.0742: real time      0.0872
    SETDIJ:  cpu time      0.0787: real time      0.0791
    EDDIAG:  cpu time      0.1326: real time      0.1336
  RMM-DIIS:  cpu time      0.7002: real time      0.7035
    ORTHCH:  cpu time      0.0211: real time      0.0212
       DOS:  cpu time      0.0017: real time      0.0017
    CHARGE:  cpu time      0.2382: real time      0.2394
    MIXING:  cpu time      0.0048: real time      0.0048
    --------------------------------------------
      LOOP:  cpu time      1.2515: real time      1.2706

 eigenvalue-minimisations  :  2632
 total energy-change (2. order) :-0.3840684E-01  (-0.7734322E-01)
 number of electron     255.9999998 magnetization 
 augmentation part      -14.7197045 magnetization 

 Broyden mixing:
  rms(total) = 0.54788E-01    rms(broyden)= 0.54788E-01
  rms(prec ) = 0.58707E-01
  weight for this iteration     100.00

 eigenvalues of (default mixing * dielectric matrix)
  average eigenvalue GAMMA=   2.1195
  2.5672  1.8957  1.8957

 Free energy of the ion-electron system (eV)
  ---------------------------------------------------
  alpha Z        PSCENC =       114.03294152
  Ewald energy   TEWEN  =     -7455.66129761
  -Hartree energ DENC   =      -445.85388676
  -exchange      EXHF   =         0.00000000
  -V(xc)+E(xc)   XCENC  =      -531.32052608
  PAW double counting   =     31540.36889347   -30442.21708039
  entropy T*S    EENTRO =         0.02044868
  eigenvalues    EBANDS =       289.96463569
  atomic energy  EATOM  =      6564.79586099
  Solvation  Ediel_sol  =         0.00000000
  ---------------------------------------------------
  free energy    TOTEN  =      -365.87001049 eV

  energy without entropy =     -365.89045917  energy(sigma->0) =     -365.87682671


--------------------------------------------------------------------------------------------------------




--------------------------------------- Iteration      1(   9)  ---------------------------------------


    POTLOK:  cpu time      0.0750: real time      0.0889
    SETDIJ:  cpu time      0.0752: real time      0.0755
    EDDIAG:  cpu time      0.1322: real time      0.1327
  RMM-DIIS:  cpu time      0.7020: real time      0.7066
    ORTHCH:  cpu time      0.0204: real time      0.0205
       DOS:  cpu time      0.0021: real time      0.0021
    CHARGE:  cpu time      0.2334: real time      0.2340
    MIXING:  cpu time      0.0058: real time      0.0058
    --------------------------------------------
      LOOP:  cpu time      1.2461: real time      1.2661

 eigenvalue-minimisations  :  2662
 total energy-change (2. order) :-0.2260000E-01  (-0.2189894E-01)
 number of electron     255.9999998 magnetization 
 augmentation part      -14.7046848 magnetization 

 Broyden mixing:
  rms(total) = 0.61303E-01    rms(broyden)= 0.61302E-01
  rms(prec ) = 0.69521E-01
  weight for this iteration     100.00

 eigenvalues of (default mixing * dielectric matrix)
  average eigenvalue GAMMA=   1.8475
  2.5616  2.2490  2.2490  0.3303

 Free energy of the ion-electron system (eV)
  ---------------------------------------------------
  alpha Z        PSCENC =       114.03294152
  Ewald energy   TEWEN  =     -7455.66129761
  -Hartree energ DENC   =      -449.42613169
  -exchange      EXHF   =         0.00000000
  -V(xc)+E(xc)   XCENC  =      -530.84353764
  PAW double counting   =     32001.53962646   -30903.69832493
  entropy T*S    EENTRO =         0.01918156
  eigenvalues    EBANDS =       293.34907086
  atomic energy  EATOM  =      6564.79586099
  Solvation  Ediel_sol  =         0.00000000
  ---------------------------------------------------
  free energy    TOTEN  =      -365.89261049 eV

  energy without entropy =     -365.91179205  energy(sigma->0) =     -365.89900434


--------------------------------------------------------------------------------------------------------




--------------------------------------- Iteration      1(  10)  ---------------------------------------


    POTLOK:  cpu time      0.0803: real time      0.0959
    SETDIJ:  cpu time      0.0689: real time      0.0691
    EDDIAG:  cpu time      0.1305: real time      0.1308
  RMM-DIIS:  cpu time      0.7154: real time      0.7174
    ORTHCH:  cpu time      0.0204: real time      0.0205
       DOS:  cpu time      0.0013: real time      0.0013
    CHARGE:  cpu time      0.2334: real time      0.2341
    MIXING:  cpu time      0.0058: real time      0.0058
    --------------------------------------------
      LOOP:  cpu time      1.2560: real time      1.2749

 eigenvalue-minimisations  :  2723
 total energy-change (2. order) :-0.4865799E-02  (-0.4047099E-02)
 number of electron     255.9999998 magnetization 
 augmentation part      -14.7104605 magnetization 

 Broyden mixing:
  rms(total) = 0.90445E-01    rms(broyden)= 0.90445E-01
  rms(prec ) = 0.98107E-01
  weight for this iteration     100.00

 eigenvalues of (default mixing * dielectric matrix)
  average eigenvalue GAMMA=   1.6585
  2.6826  2.0977  2.0977  0.7074  0.7074

 Free energy of the ion-electron system (eV)
  ---------------------------------------------------
  alpha Z        PSCENC =       114.03294152
  Ewald energy   TEWEN  =     -7455.66129761
  -Hartree energ DENC   =      -449.70624135
  -exchange      EXHF   =         0.00000000
  -V(xc)+E(xc)   XCENC  =      -530.81306416
  PAW double counting   =     32069.44981695   -30971.61876401
  entropy T*S    EENTRO =         0.01901787
  eigenvalues    EBANDS =       293.60425352
  atomic energy  EATOM  =      6564.79586099
  Solvation  Ediel_sol  =         0.00000000
  ---------------------------------------------------
  free energy    TOTEN  =      -365.89747629 eV

  energy without entropy =     -365.91649416  energy(sigma->0) =     -365.90381558


--------------------------------------------------------------------------------------------------------




--------------------------------------- Iteration      1(  11)  ---------------------------------------


    POTLOK:  cpu time      0.0755: real time      0.0881
    SETDIJ:  cpu time      0.0722: real time      0.0724
    EDDIAG:  cpu time      0.1320: real time      0.1324
  RMM-DIIS:  cpu time      0.6937: real time      0.6957
    ORTHCH:  cpu time      0.0201: real time      0.0201
       DOS:  cpu time      0.0016: real time      0.0016
    CHARGE:  cpu time      0.2338: real time      0.2347
    MIXING:  cpu time      0.0054: real time      0.0054
    --------------------------------------------
      LOOP:  cpu time      1.2342: real time      1.2506

 eigenvalue-minimisations  :  2592
 total energy-change (2. order) : 0.4867456E-02  (-0.1521457E-02)
 number of electron     255.9999998 magnetization 
 augmentation part      -14.7255475 magnetization 

 Broyden mixing:
  rms(total) = 0.54854E-01    rms(broyden)= 0.54854E-01
  rms(prec ) = 0.55322E-01
  weight for this iteration     100.00

 eigenvalues of (default mixing * dielectric matrix)
  average eigenvalue GAMMA=   1.5110
  2.6070  2.6070  1.3724  1.3724  0.7823  0.3249

 Free energy of the ion-electron system (eV)
  ---------------------------------------------------
  alpha Z        PSCENC =       114.03294152
  Ewald energy   TEWEN  =     -7455.66129761
  -Hartree energ DENC   =      -446.85127765
  -exchange      EXHF   =         0.00000000
  -V(xc)+E(xc)   XCENC  =      -531.03669377
  PAW double counting   =     31917.98644919   -30819.89160861
  entropy T*S    EENTRO =         0.02060326
  eigenvalues    EBANDS =       290.71241386
  atomic energy  EATOM  =      6564.79586099
  Solvation  Ediel_sol  =         0.00000000
  ---------------------------------------------------
  free energy    TOTEN  =      -365.89260883 eV

  energy without entropy =     -365.91321209  energy(sigma->0) =     -365.89947658


--------------------------------------------------------------------------------------------------------




--------------------------------------- Iteration      1(  12)  ---------------------------------------


    POTLOK:  cpu time      0.0783: real time      0.0929
    SETDIJ:  cpu time      0.0679: real time      0.0681
    EDDIAG:  cpu time      0.1317: real time      0.1321
  RMM-DIIS:  cpu time      0.6862: real time      0.6882
    ORTHCH:  cpu time      0.0202: real time      0.0203
       DOS:  cpu time      0.0015: real time      0.0015
    CHARGE:  cpu time      0.2337: real time      0.2344
    MIXING:  cpu time      0.0059: real time      0.0059
    --------------------------------------------
      LOOP:  cpu time      1.2254: real time      1.2434

 eigenvalue-minimisations  :  2619
 total energy-change (2. order) :-0.1987080E-03  (-0.1920262E-03)
 number of electron     255.9999998 magnetization 
 augmentation part      -14.7284594 magnetization 

 Broyden mixing:
  rms(total) = 0.51765E-01    rms(broyden)= 0.51765E-01
  rms(prec ) = 0.52035E-01
  weight for this iteration     100.00

 eigenvalues of (default mixing * dielectric matrix)
  average eigenvalue GAMMA=   1.4577
  2.6024  2.6024  1.8500  1.0802  0.8652  0.4607  0.7431

 Free energy of the ion-electron system (eV)
  ---------------------------------------------------
  alpha Z        PSCENC =       114.03294152
  Ewald energy   TEWEN  =     -7455.66129761
  -Hartree energ DENC   =      -446.74110567
  -exchange      EXHF   =         0.00000000
  -V(xc)+E(xc)   XCENC  =      -531.05856396
  PAW double counting   =     31838.58681347   -30740.50242853
  entropy T*S    EENTRO =         0.02063499
  eigenvalues    EBANDS =       290.63433727
  atomic energy  EATOM  =      6564.79586099
  Solvation  Ediel_sol  =         0.00000000
  ---------------------------------------------------
  free energy    TOTEN  =      -365.89280754 eV

  energy without entropy =     -365.91344253  energy(sigma->0) =     -365.89968587


--------------------------------------------------------------------------------------------------------




--------------------------------------- Iteration      1(  13)  ---------------------------------------


    POTLOK:  cpu time      0.0744: real time      0.0879
    SETDIJ:  cpu time      0.0769: real time      0.0771
    EDDIAG:  cpu time      0.1325: real time      0.1329
  RMM-DIIS:  cpu time      0.7077: real time      0.7102
    ORTHCH:  cpu time      0.0205: real time      0.0206
       DOS:  cpu time      0.0013: real time      0.0013
    CHARGE:  cpu time      0.2344: real time      0.2359
    MIXING:  cpu time      0.0059: real time      0.0059
    --------------------------------------------
      LOOP:  cpu time      1.2536: real time      1.2718

 eigenvalue-minimisations  :  2712
 total energy-change (2. order) :-0.6747310E-04  (-0.3584802E-04)
 number of electron     255.9999998 magnetization 
 augmentation part      -14.7290986 magnetization 

 Broyden mixing:
  rms(total) = 0.60096E-01    rms(broyden)= 0.60096E-01
  rms(prec ) = 0.60339E-01
  weight for this iteration     100.00

 eigenvalues of (default mixing * dielectric matrix)
  average eigenvalue GAMMA=   1.7141
  2.9174  2.9174  2.3172  2.3172  0.9429  0.8957  0.8957  0.5096

 Free energy of the ion-electron system (eV)
  ---------------------------------------------------
  alpha Z        PSCENC =       114.03294152
  Ewald energy   TEWEN  =     -7455.66129761
  -Hartree energ DENC   =      -446.78991561
  -exchange      EXHF   =         0.00000000
  -V(xc)+E(xc)   XCENC  =      -531.04401933
  PAW double counting   =     31908.41883327   -30810.33651994
  entropy T*S    EENTRO =         0.02064168
  eigenvalues    EBANDS =       290.67060002
  atomic energy  EATOM  =      6564.79586099
  Solvation  Ediel_sol  =         0.00000000
  ---------------------------------------------------
  free energy    TOTEN  =      -365.89287501 eV

  energy without entropy =     -365.91351669  energy(sigma->0) =     -365.89975557


--------------------------------------------------------------------------------------------------------




--------------------------------------- Iteration      1(  14)  ---------------------------------------


    POTLOK:  cpu time      0.0769: real time      0.0916
    SETDIJ:  cpu time      0.0703: real time      0.0707
    EDDIAG:  cpu time      0.1322: real time      0.1328
  RMM-DIIS:  cpu time      0.6839: real time      0.6875
    ORTHCH:  cpu time      0.0203: real time      0.0204
       DOS:  cpu time      0.0015: real time      0.0015
    CHARGE:  cpu time      0.2342: real time      0.2354
    MIXING:  cpu time      0.0055: real time      0.0055
    --------------------------------------------
      LOOP:  cpu time      1.2249: real time      1.2455

 eigenvalue-minimisations  :  2602
 total energy-change (2. order) : 0.1187444E-05  (-0.9773273E-05)
 number of electron     255.9999998 magnetization 
 augmentation part      -14.7291057 magnetization 

 Broyden mixing:
  rms(total) = 0.21543E-01    rms(broyden)= 0.21543E-01
  rms(prec ) = 0.21795E-01
  weight for this iteration     100.00

 eigenvalues of (default mixing * dielectric matrix)
  average eigenvalue GAMMA=   1.5217
  2.6037  2.6037  2.3685  2.2311  0.9657  0.9657  0.9038  0.5263  0.5263

 Free energy of the ion-electron system (eV)
  ---------------------------------------------------
  alpha Z        PSCENC =       114.03294152
  Ewald energy   TEWEN  =     -7455.66129761
  -Hartree energ DENC   =      -446.63183873
  -exchange      EXHF   =         0.00000000
  -V(xc)+E(xc)   XCENC  =      -531.08933174
  PAW double counting   =     31576.84281431   -30478.77923109
  entropy T*S    EENTRO =         0.02065085
  eigenvalues    EBANDS =       290.57655767
  atomic energy  EATOM  =      6564.79586099
  Solvation  Ediel_sol  =         0.00000000
  ---------------------------------------------------
  free energy    TOTEN  =      -365.89287382 eV

  energy without entropy =     -365.91352468  energy(sigma->0) =     -365.89975744


--------------------------------------------------------------------------------------------------------




--------------------------------------- Iteration      1(  15)  ---------------------------------------


    POTLOK:  cpu time      0.0768: real time      0.0963
    SETDIJ:  cpu time      0.0684: real time      0.0688
    EDDIAG:  cpu time      0.1315: real time      0.1320
  RMM-DIIS:  cpu time      0.6996: real time      0.7033
    ORTHCH:  cpu time      0.0202: real time      0.0203
       DOS:  cpu time      0.0017: real time      0.0017
    CHARGE:  cpu time      0.2342: real time      0.2354
    MIXING:  cpu time      0.0060: real time      0.0060
    --------------------------------------------
      LOOP:  cpu time      1.2383: real time      1.2638

 eigenvalue-minimisations  :  2644
 total energy-change (2. order) :-0.3942869E-04  (-0.3963260E-05)
 number of electron     255.9999998 magnetization 
 augmentation part      -14.7293696 magnetization 

 Broyden mixing:
  rms(total) = 0.15067E-01    rms(broyden)= 0.15067E-01
  rms(prec ) = 0.15231E-01
  weight for this iteration     100.00

 eigenvalues of (default mixing * dielectric matrix)
  average eigenvalue GAMMA=   1.4870
  2.7328  2.7328  2.1390  2.1390  0.8644  0.8644  1.0156  1.0156  0.8513  0.5154

 Free energy of the ion-electron system (eV)
  ---------------------------------------------------
  alpha Z        PSCENC =       114.03294152
  Ewald energy   TEWEN  =     -7455.66129761
  -Hartree energ DENC   =      -446.60867308
  -exchange      EXHF   =         0.00000000
  -V(xc)+E(xc)   XCENC  =      -531.08750021
  PAW double counting   =     31559.04815520   -30460.98290418
  entropy T*S    EENTRO =         0.02069773
  eigenvalues    EBANDS =       290.54980639
  atomic energy  EATOM  =      6564.79586099
  Solvation  Ediel_sol  =         0.00000000
  ---------------------------------------------------
  free energy    TOTEN  =      -365.89291325 eV

  energy without entropy =     -365.91361098  energy(sigma->0) =     -365.89981250


--------------------------------------------------------------------------------------------------------




--------------------------------------- Iteration      1(  16)  ---------------------------------------


    POTLOK:  cpu time      0.0783: real time      0.0887
    SETDIJ:  cpu time      0.0777: real time      0.0782
    EDDIAG:  cpu time      0.1314: real time      0.1319
  RMM-DIIS:  cpu time      0.6835: real time      0.6873
    ORTHCH:  cpu time      0.0202: real time      0.0204
       DOS:  cpu time      0.0029: real time      0.0029
    CHARGE:  cpu time      0.2376: real time      0.2387
    MIXING:  cpu time      0.0067: real time      0.0067
    --------------------------------------------
      LOOP:  cpu time      1.2383: real time      1.2548

 eigenvalue-minimisations  :  2592
 total energy-change (2. order) :-0.2428577E-04  (-0.1977803E-05)
 number of electron     255.9999998 magnetization 
 augmentation part      -14.7292265 magnetization 

 Broyden mixing:
  rms(total) = 0.89222E-02    rms(broyden)= 0.89222E-02
  rms(prec ) = 0.89858E-02
  weight for this iteration     100.00

 eigenvalues of (default mixing * dielectric matrix)
  average eigenvalue GAMMA=   1.4989
  2.7828  2.7828  2.2256  2.2256  1.2219  1.2219  0.9769  0.9769  0.5294  0.7840
  0.7597

 Free energy of the ion-electron system (eV)
  ---------------------------------------------------
  alpha Z        PSCENC =       114.03294152
  Ewald energy   TEWEN  =     -7455.66129761
  -Hartree energ DENC   =      -446.67402233
  -exchange      EXHF   =         0.00000000
  -V(xc)+E(xc)   XCENC  =      -531.08020289
  PAW double counting   =     31548.20643909   -30450.14195102
  entropy T*S    EENTRO =         0.02071721
  eigenvalues    EBANDS =       290.60857749
  atomic energy  EATOM  =      6564.79586099
  Solvation  Ediel_sol  =         0.00000000
  ---------------------------------------------------
  free energy    TOTEN  =      -365.89293754 eV

  energy without entropy =     -365.91365475  energy(sigma->0) =     -365.89984328


--------------------------------------------------------------------------------------------------------




--------------------------------------- Iteration      1(  17)  ---------------------------------------


    POTLOK:  cpu time      0.0765: real time      0.0892
    SETDIJ:  cpu time      0.0740: real time      0.0746
    EDDIAG:  cpu time      0.1324: real time      0.1329
  RMM-DIIS:  cpu time      0.6590: real time      0.6624
    ORTHCH:  cpu time      0.0201: real time      0.0206
       DOS:  cpu time      0.0017: real time      0.0017
    CHARGE:  cpu time      0.2341: real time      0.2352
    MIXING:  cpu time      0.0068: real time      0.0069
    --------------------------------------------
      LOOP:  cpu time      1.2046: real time      1.2234

 eigenvalue-minimisations  :  2481
 total energy-change (2. order) :-0.4308229E-05  (-0.7118423E-06)
 number of electron     255.9999998 magnetization 
 augmentation part      -14.7290156 magnetization 

 Broyden mixing:
  rms(total) = 0.23180E-02    rms(broyden)= 0.23180E-02
  rms(prec ) = 0.23459E-02
  weight for this iteration     100.00

 eigenvalues of (default mixing * dielectric matrix)
  average eigenvalue GAMMA=   1.6841
  3.0254  3.0254  2.1359  2.1359  2.4202  2.2621  0.9646  0.9646  0.8894  0.9311
  0.9311  0.5232

 Free energy of the ion-electron system (eV)
  ---------------------------------------------------
  alpha Z        PSCENC =       114.03294152
  Ewald energy   TEWEN  =     -7455.66129761
  -Hartree energ DENC   =      -446.70463025
  -exchange      EXHF   =         0.00000000
  -V(xc)+E(xc)   XCENC  =      -531.08072401
  PAW double counting   =     31510.75570822   -30412.69142770
  entropy T*S    EENTRO =         0.02072415
  eigenvalues    EBANDS =       290.63990286
  atomic energy  EATOM  =      6564.79586099
  Solvation  Ediel_sol  =         0.00000000
  ---------------------------------------------------
  free energy    TOTEN  =      -365.89294185 eV

  energy without entropy =     -365.91366600  energy(sigma->0) =     -365.89984990


--------------------------------------------------------------------------------------------------------




--------------------------------------- Iteration      1(  18)  ---------------------------------------


    POTLOK:  cpu time      0.0802: real time      0.0944
    SETDIJ:  cpu time      0.0779: real time      0.0782
    EDDIAG:  cpu time      0.1663: real time      0.1671
  RMM-DIIS:  cpu time      0.4529: real time      0.4552
    ORTHCH:  cpu time      0.0208: real time      0.0209
       DOS:  cpu time      0.0015: real time      0.0015
    --------------------------------------------
      LOOP:  cpu time      0.7995: real time      0.8173

 eigenvalue-minimisations  :  1571
 total energy-change (2. order) : 0.4272351E-07  (-0.1090740E-06)
 number of electron     255.9999998 magnetization 
 augmentation part      -14.7290156 magnetization 

 Free energy of the ion-electron system (eV)
  ---------------------------------------------------
  alpha Z        PSCENC =       114.03294152
  Ewald energy   TEWEN  =     -7455.66129761
  -Hartree energ DENC   =      -446.70878272
  -exchange      EXHF   =         0.00000000
  -V(xc)+E(xc)   XCENC  =      -531.08200557
  PAW double counting   =     31494.69107829   -30396.62665379
  entropy T*S    EENTRO =         0.02072626
  eigenvalues    EBANDS =       290.64519083
  atomic energy  EATOM  =      6564.79586099
  Solvation  Ediel_sol  =         0.00000000
  ---------------------------------------------------
  free energy    TOTEN  =      -365.89294180 eV

  energy without entropy =     -365.91366806  energy(sigma->0) =     -365.89985056


--------------------------------------------------------------------------------------------------------




 average (electrostatic) potential at core
  the test charge radii are     0.9892
  (the norm of the test charge is              1.0000)
       1 -82.3721       2 -82.3721       3 -82.3721       4 -82.3721       5 -82.3721
       6 -82.3721       7 -82.3721       8 -82.3721       9 -82.3721      10 -82.3721
      11 -82.3721      12 -82.3721      13 -82.3721      14 -82.3721      15 -82.3721
      16 -82.3721      17 -82.3721      18 -82.3721      19 -82.3721      20 -82.3721
      21 -82.3721      22 -82.3721      23 -82.3721      24 -82.3721      25 -82.3721
      26 -82.3721      27 -82.3721      28 -82.3721      29 -82.3721      30 -82.3721
      31 -82.3721      32 -82.3721      33 -82.3721      34 -82.3721      35 -82.3721
      36 -82.3721      37 -82.3721      38 -82.3721      39 -82.3721      40 -82.3721
      41 -82.3721      42 -82.3721      43 -82.3721      44 -82.3721      45 -82.3721
      46 -82.3721      47 -82.3721      48 -82.3721      49 -82.3721      50 -82.3721
      51 -82.3721      52 -82.3721      53 -82.3721      54 -82.3721      55 -82.3721
      56 -82.3721      57 -82.3721      58 -82.3721      59 -82.3721      60 -82.3721
      61 -82.3721      62 -82.3721      63 -82.3721      64 -82.3721
 
 
 
 E-fermi :   6.5815     XC(G=0):  -9.7769     alpha+bet :-12.6948

 val. band max:        6.4511306074   @ k =   0.0000   0.0000   0.0000
 cond. band min:       6.6938884107   @ k =   0.0000   0.0000   0.0000
 fundamental gap:      0.2427578032
 Fermi energy:         6.5815144627

 k-point     1 :       0.0000    0.0000    0.0000
  band No.  band energies     occupation 
      1      -6.0068      2.00000
      2      -4.8909      2.00000
      3      -4.8909      2.00000
      4      -4.8528      2.00000
      5      -4.8528      2.00000
      6      -4.8520      2.00000
      7      -4.8520      2.00000
      8      -3.9077      2.00000
      9      -3.9077      2.00000
     10      -3.8490      2.00000
     11      -3.8490      2.00000
     12      -3.8490      2.00000
     13      -3.8490      2.00000
     14      -3.8211      2.00000
     15      -3.8211      2.00000
     16      -3.8211      2.00000
     17      -3.8211      2.00000
     18      -3.7882      2.00000
     19      -3.7882      2.00000
     20      -3.5729      2.00000
     21      -3.5729      2.00000
     22      -3.4348      2.00000
     23      -3.4348      2.00000
     24      -1.7144      2.00000
     25      -1.7144      2.00000
     26      -1.6705      2.00000
     27      -1.5862      2.00000
     28      -1.5862      2.00000
     29      -1.5400      2.00000
     30      -1.5400      2.00000
     31      -1.5056      2.00000
     32      -1.4937      2.00000
     33      -1.4937      2.00000
     34      -1.4461      2.00000
     35      -1.4461      2.00000
     36      -1.4461      2.00000
     37      -1.4461      2.00000
     38      -1.3519      2.00000
     39      -1.3519      2.00000
     40      -1.3077      2.00000
     41      -1.3077      2.00000
     42      -0.9197      2.00000
     43      -0.9197      2.00000
     44      -0.8929      2.00000
     45      -0.8929      2.00000
     46       0.7388      2.00000
     47       0.7388      2.00000
     48       0.7388      2.00000
     49       0.7388      2.00000
     50       0.7760      2.00000
     51       0.7760      2.00000
     52       0.8152      2.00000
     53       0.8152      2.00000
     54       0.8152      2.00000
     55       0.8152      2.00000
     56       0.8511      2.00000
     57       0.8511      2.00000
     58       2.2295      2.00000
     59       2.2295      2.00000
     60       2.2319      2.00000
     61       2.2319      2.00000
     62       2.2319      2.00000
     63       2.2319      2.00000
     64       2.2319      2.00000
     65       2.2319      2.00000
     66       2.2384      2.00000
     67       2.2384      2.00000
     68       2.2427      2.00000
     69       2.2427      2.00000
     70       2.2859      2.00000
     71       2.2860      2.00000
     72       2.2860      2.00000
     73       2.2860      2.00000
     74       2.3762      2.00000
     75       2.3762      2.00000
     76       2.4013      2.00000
     77       2.4014      2.00000
     78       2.4014      2.00000
     79       2.4014      2.00000
     80       2.4244      2.00000
     81       2.4244      2.00000
     82       2.7808      2.00000
     83       2.7808      2.00000
     84       2.9294      2.00000
     85       2.9294      2.00000
     86       2.9356      2.00000
     87       2.9356      2.00000
     88       3.2021      2.00000
     89       3.3140      2.00000
     90       3.3140      2.00000
     91       3.4275      2.00000
     92       3.4739      2.00000
     93       3.4739      2.00000
     94       4.2359      2.00000
     95       4.2359      2.00000
     96       4.3119      2.00000
     97       4.3119      2.00000
     98       4.3570      2.00000
     99       4.3570      2.00000
    100       4.4377      2.00000
    101       4.4377      2.00000
    102       4.4590      2.00000
    103       4.4590      2.00000
    104       4.4591      2.00000
    105       4.4591      2.00000
    106       4.8837      2.00000
    107       4.8837      2.00000
    108       4.9353      2.00000
    109       4.9353      2.00000
    110       4.9353      2.00000
    111       4.9353      2.00000
    112       4.9902      2.00000
    113       4.9902      2.00000
    114       4.9906      2.00000
    115       4.9906      2.00000
    116       5.0924      2.00000
    117       5.0924      2.00000
    118       5.1054      2.00000
    119       5.1054      2.00000
    120       5.1054      2.00000
    121       5.1054      2.00000
    122       5.1919      2.00000
    123       5.1919      2.00000
    124       5.2946      2.00000
    125       5.2946      2.00000
    126       6.2957      2.06131
    127       6.4417      1.91896
    128       6.4511      1.88391
    129       6.6939      0.19566
    130       6.8101     -0.06861
    131       6.8101     -0.06861
    132       6.9303     -0.03334
    133       6.9735     -0.01816
    134       6.9735     -0.01816
    135       7.3204     -0.00000
    136       7.3205     -0.00000
    137       7.3206     -0.00000
    138       7.3206     -0.00000
    139       7.4804     -0.00000
    140       7.4804     -0.00000
    141       7.9416     -0.00000
    142       7.9416     -0.00000
    143       8.1513     -0.00000
    144       8.1513     -0.00000
    145       8.6545     -0.00000
    146       8.6548     -0.00000
    147       8.7174     -0.00000
    148       8.7176     -0.00000
    149       8.7177     -0.00000
    150       8.7200     -0.00000
    151       8.7859     -0.00000
    152       8.7899     -0.00000
    153       8.7909     -0.00000
    154       8.8861     -0.00000
    155       8.9093     -0.00000
    156       8.9100     -0.00000
    157       8.9125     -0.00000
    158       8.9162     -0.00000
    159       9.1224     -0.00000
    160       9.3996     -0.00000
    161       9.4265     -0.00000
    162       9.4423     -0.00000

 k-point     2 :       0.5000    0.0000    0.0000
  band No.  band energies     occupation 
      1      -5.7256      2.00000
      2      -5.7256      2.00000
      3      -4.6244      2.00000
      4      -4.6244      2.00000
      5      -4.5954      2.00000
      6      -4.5954      2.00000
      7      -4.5953      2.00000
      8      -4.5953      2.00000
      9      -4.5646      2.00000
     10      -4.5646      2.00000
     11      -3.7213      2.00000
     12      -3.7213      2.00000
     13      -3.7213      2.00000
     14      -3.7213      2.00000
     15      -3.6382      2.00000
     16      -3.6382      2.00000
     17      -3.6382      2.00000
     18      -3.6382      2.00000
     19      -3.5331      2.00000
     20      -3.5331      2.00000
     21      -2.8015      2.00000
     22      -2.8015      2.00000
     23      -2.7163      2.00000
     24      -2.7163      2.00000
     25      -2.7163      2.00000
     26      -2.7163      2.00000
     27      -2.6288      2.00000
     28      -2.6288      2.00000
     29      -1.5888      2.00000
     30      -1.5888      2.00000
     31      -1.5569      2.00000
     32      -1.5569      2.00000
     33      -1.4397      2.00000
     34      -1.4397      2.00000
     35      -1.4110      2.00000
     36      -1.4110      2.00000
     37      -0.3764      2.00000
     38      -0.3764      2.00000
     39      -0.3061      2.00000
     40      -0.3061      2.00000
     41      -0.3061      2.00000
     42      -0.3061      2.00000
     43      -0.2763      2.00000
     44      -0.2763      2.00000
     45      -0.2763      2.00000
     46      -0.2763      2.00000
     47      -0.2584      2.00000
     48      -0.2584      2.00000
     49      -0.2584      2.00000
     50      -0.2584      2.00000
     51      -0.2411      2.00000
     52      -0.2411      2.00000
     53       0.4509      2.00000
     54       0.4509      2.00000
     55       1.8795      2.00000
     56       1.8795      2.00000
     57       1.8830      2.00000
     58       1.8830      2.00000
     59       1.8830      2.00000
     60       1.8830      2.00000
     61       1.8870      2.00000
     62       1.8870      2.00000
     63       2.0407      2.00000
     64       2.0407      2.00000
     65       2.0593      2.00000
     66       2.0593      2.00000
     67       2.0593      2.00000
     68       2.0593      2.00000
     69       2.0855      2.00000
     70       2.0855      2.00000
     71       2.6429      2.00000
     72       2.6429      2.00000
     73       2.6886      2.00000
     74       2.6886      2.00000
     75       2.7237      2.00000
     76       2.7237      2.00000
     77       2.7713      2.00000
     78       2.7713      2.00000
     79       3.4484      2.00000
     80       3.4484      2.00000
     81       3.4931      2.00000
     82       3.4931      2.00000
     83       3.4931      2.00000
     84       3.4931      2.00000
     85       3.5127      2.00000
     86       3.5127      2.00000
     87       3.5277      2.00000
     88       3.5277      2.00000
     89       3.5472      2.00000
     90       3.5472      2.00000
     91       3.5472      2.00000
     92       3.5472      2.00000
     93       3.5799      2.00000
     94       3.5799      2.00000
     95       3.6499      2.00000
     96       3.6499      2.00000
     97       3.6499      2.00000
     98       3.6499      2.00000
     99       3.7244      2.00000
    100       3.7244      2.00000
    101       3.7250      2.00000
    102       3.7250      2.00000
    103       3.7579      2.00000
    104       3.7579      2.00000
    105       3.7579      2.00000
    106       3.7579      2.00000
    107       4.8604      2.00000
    108       4.8604      2.00000
    109       4.8604      2.00000
    110       4.8604      2.00000
    111       4.8610      2.00000
    112       4.8610      2.00000
    113       4.8685      2.00000
    114       4.8685      2.00000
    115       5.0166      2.00000
    116       5.0166      2.00000
    117       5.1372      2.00000
    118       5.1372      2.00000
    119       5.1372      2.00000
    120       5.1372      2.00000
    121       5.2059      2.00000
    122       5.2059      2.00000
    123       5.2059      2.00000
    124       5.2059      2.00000
    125       5.5800      2.00000
    126       5.5800      2.00000
    127       5.5834      2.00000
    128       5.5834      2.00000
    129       6.9225     -0.03667
    130       6.9225     -0.03667
    131       7.7631     -0.00000
    132       7.7631     -0.00000
    133       7.9654     -0.00000
    134       7.9654     -0.00000
    135       8.1077     -0.00000
    136       8.1077     -0.00000
    137       8.1297     -0.00000
    138       8.1298     -0.00000
    139       8.2751     -0.00000
    140       8.2752     -0.00000
    141       8.4007     -0.00000
    142       8.4010     -0.00000
    143       8.6176     -0.00000
    144       8.6182     -0.00000
    145       8.6885     -0.00000
    146       8.6893     -0.00000
    147       8.6899     -0.00000
    148       8.6954     -0.00000
    149       8.7769     -0.00000
    150       8.7809     -0.00000
    151       8.8586     -0.00000
    152       8.8610     -0.00000
    153       8.8630     -0.00000
    154       8.8865     -0.00000
    155       8.9718     -0.00000
    156       8.9794     -0.00000
    157       8.9877     -0.00000
    158       9.0205     -0.00000
    159       9.0741     -0.00000
    160       9.1177     -0.00000
    161       9.1898     -0.00000
    162       9.2229     -0.00000

 k-point     3 :      -0.0000    0.5000    0.0000
  band No.  band energies     occupation 
[...]
 -0.000  -0.000   4.170   0.000  -0.000   7.768   0.000  -0.000
  0.001   0.002   0.000   4.170   0.000   0.000   7.768   0.000
 -0.000  -0.000  -0.000   0.000   4.170  -0.000   0.000   7.768
 -0.000  -0.000   7.768   0.000  -0.000  14.481   0.000  -0.000
  0.002   0.003   0.000   7.768   0.000   0.000  14.481   0.000
 -0.000  -0.000  -0.000   0.000   7.768  -0.000   0.000  14.481
 total augmentation occupancy for first ion, spin component:           1
  6.426  -2.556  -0.000  -0.053  -0.000  -0.000   0.020   0.000
 -2.556   1.125   0.000   0.027   0.000   0.000  -0.010   0.000
 -0.000   0.000   3.139   0.000  -0.004  -0.716   0.000  -0.002
 -0.053   0.027   0.000   3.141   0.000   0.000  -0.716   0.000
 -0.000   0.000  -0.004   0.000   3.180  -0.002   0.000  -0.731
 -0.000   0.000  -0.716   0.000  -0.002   0.173   0.000   0.001
  0.020  -0.010   0.000  -0.716   0.000   0.000   0.173   0.000
  0.000   0.000  -0.002   0.000  -0.731   0.001   0.000   0.178


------------------------ aborting loop because EDIFF is reached ----------------------------------------


    CHARGE:  cpu time      0.2433: real time      0.2443
    FORLOC:  cpu time      0.0222: real time      0.0223
    FORNL :  cpu time      0.6657: real time      0.6691
    STRESS:  cpu time      2.0643: real time      2.0853
    FORCOR:  cpu time      0.0865: real time      0.0867
    FORHAR:  cpu time      0.0355: real time      0.0357
    MIXING:  cpu time      0.0509: real time      0.0512
    OFIELD:  cpu time      0.0000: real time      0.0000

  FORCE on cell =-STRESS in cart. coord.  units (eV):
  Direction    XX          YY          ZZ          XY          YZ          ZX
  --------------------------------------------------------------------------------------
  Alpha Z   114.03294   114.03294   114.03294
  Ewald   -2440.49592 -2508.09713 -2507.89802    -9.48048     0.00000     0.00000
  Hartree   155.80909   145.27405   145.05011    -7.83682    -0.00000    -0.00000
  E(xc)    -829.55229  -828.88342  -828.93496     0.05210    -0.00000    -0.00000
  Local    -958.50590  -877.19074  -877.88169    19.21756     0.00000    -0.00000
  n-local  2529.12561  2517.90855  2518.79000    -0.10264    -0.00000     0.00001
  augment  -369.57028  -369.55784  -369.62098     0.65422     0.00000     0.00000
  Kinetic  1838.61325  1860.17639  1859.36903   -13.05486     0.00001     0.00000
  Fock        0.00000     0.00000     0.00000     0.00000     0.00000     0.00000
  -------------------------------------------------------------------------------------
  Total      39.45651    53.66282    52.90643   -10.55092     0.00000     0.00000
  in kB      52.28115    71.10496    70.10273   -13.98031     0.00000     0.00000
  external pressure =       64.50 kB  Pullay stress =        0.00 kB


 VOLUME and BASIS-vectors are now :
 -----------------------------------------------------------------------------
  energy-cutoff  :      400.00
  volume of cell :     1209.16
      direct lattice vectors                 reciprocal lattice vectors
    10.795489594  0.105838016  0.000000000     0.092640361 -0.000926403  0.000000000
     0.105838016 10.583813563  0.000000000    -0.000926403  0.094493166  0.000000000
     0.000000000  0.000000000 10.583813563     0.000000000  0.000000000  0.094483902

  length of vectors
    10.796008395 10.584342739 10.583813563     0.092644992  0.094497707  0.094483902


 FORCES acting on ions
    electron-ion (+dipol)            ewald-force                    non-local-force                 convergence-correction
 -----------------------------------------------------------------------------------------------
   -.127E-09 0.647E-09 -.166E+01   0.555E-14 0.355E-14 0.118E+01   -.193E-20 -.690E-20 0.477E+00   -.999E-13 -.860E-13 0.269E-04
   -.127E-09 0.647E-09 -.166E+01   0.000E+00 0.355E-14 0.118E+01   0.170E-20 0.455E-20 0.477E+00   0.718E-13 0.985E-13 0.269E-04
   -.127E-09 0.647E-09 -.166E+01   -.444E-15 0.622E-14 0.118E+01   0.405E-21 -.150E-20 0.477E+00   -.359E-13 0.819E-13 0.269E-04
   -.127E-09 0.647E-09 -.166E+01   -.622E-14 -.266E-14 0.118E+01   -.337E-20 0.225E-20 0.477E+00   -.378E-14 -.919E-13 0.269E-04
   -.127E-09 0.647E-09 -.166E+01   0.155E-13 0.266E-14 0.118E+01   -.351E-20 -.433E-21 0.477E+00   0.911E-13 -.141E-12 0.269E-04
   -.127E-09 0.647E-09 -.166E+01   0.311E-14 0.266E-14 0.118E+01   -.287E-20 0.497E-20 0.477E+00   -.727E-13 0.151E-12 0.269E-04
   -.127E-09 0.647E-09 -.166E+01   0.222E-14 0.222E-14 0.118E+01   -.565E-20 -.612E-20 0.477E+00   0.200E-13 0.144E-12 0.269E-04
   -.127E-09 0.647E-09 -.166E+01   0.249E-13 0.000E+00 0.118E+01   0.334E-20 0.489E-20 0.477E+00   0.673E-14 -.144E-12 0.269E-04
   0.101E-08 0.583E-09 0.166E+01   -.355E-14 0.111E-13 -.118E+01   0.516E-20 -.212E-20 -.477E+00   0.271E-13 -.611E-14 -.269E-04
   0.101E-08 0.583E-09 0.166E+01   0.000E+00 0.000E+00 -.118E+01   0.493E-20 0.255E-20 -.477E+00   0.699E-14 -.638E-14 -.269E-04
   0.101E-08 0.582E-09 0.166E+01   0.755E-14 0.266E-14 -.118E+01   -.558E-20 -.185E-20 -.477E+00   0.107E-12 -.396E-14 -.269E-04
   0.101E-08 0.582E-09 0.166E+01   0.533E-14 -.178E-14 -.118E+01   0.156E-20 0.143E-20 -.477E+00   -.741E-13 0.341E-14 -.269E-04
   0.101E-08 0.582E-09 0.166E+01   -.311E-14 0.711E-14 -.118E+01   -.410E-20 -.128E-20 -.477E+00   -.273E-13 -.428E-13 -.269E-04
   0.101E-08 0.583E-09 0.166E+01   -.178E-14 0.107E-13 -.118E+01   0.367E-20 0.125E-20 -.477E+00   -.425E-14 0.206E-13 -.269E-04
   0.101E-08 0.583E-09 0.166E+01   0.142E-13 0.355E-14 -.118E+01   0.733E-20 -.524E-21 -.477E+00   -.109E-12 0.360E-13 -.269E-04
   0.101E-08 0.583E-09 0.166E+01   -.711E-14 0.178E-14 -.118E+01   0.883E-20 0.105E-20 -.477E+00   0.812E-13 -.329E-13 -.269E-04
   -.127E-09 0.647E-09 -.166E+01   -.209E-13 -.155E-14 0.118E+01   0.552E-21 -.212E-20 0.477E+00   -.338E-13 -.456E-13 0.269E-04
   -.127E-09 0.647E-09 -.166E+01   -.182E-13 -.533E-14 0.118E+01   -.661E-20 -.382E-20 0.477E+00   0.826E-14 0.276E-13 0.269E-04
   -.127E-09 0.647E-09 -.166E+01   -.888E-14 -.422E-14 0.118E+01   -.687E-20 0.283E-20 0.477E+00   -.307E-13 0.468E-13 0.269E-04
   -.127E-09 0.647E-09 -.166E+01   -.213E-13 -.266E-14 0.118E+01   0.635E-22 0.230E-20 0.477E+00   -.329E-14 -.233E-13 0.269E-04
   -.127E-09 0.647E-09 -.166E+01   0.151E-13 -.266E-14 0.118E+01   -.556E-20 0.173E-20 0.477E+00   0.313E-13 -.691E-13 0.269E-04
   -.127E-09 0.647E-09 -.166E+01   0.169E-13 -.977E-14 0.118E+01   0.518E-20 0.871E-21 0.477E+00   -.142E-13 0.734E-13 0.269E-04
   -.127E-09 0.647E-09 -.166E+01   -.488E-14 -.533E-14 0.118E+01   -.309E-20 -.321E-20 0.477E+00   0.226E-13 0.737E-13 0.269E-04
   -.127E-09 0.647E-09 -.166E+01   0.107E-13 -.107E-13 0.118E+01   -.200E-20 -.416E-20 0.477E+00   0.578E-15 -.671E-13 0.269E-04
   0.101E-08 0.583E-09 0.166E+01   -.147E-13 -.625E-14 -.118E+01   0.338E-20 -.139E-20 -.477E+00   0.342E-13 0.682E-13 -.269E-04
   0.101E-08 0.582E-09 0.166E+01   -.218E-13 0.799E-14 -.118E+01   -.385E-21 -.102E-20 -.477E+00   -.122E-13 -.693E-13 -.269E-04
   0.101E-08 0.583E-09 0.166E+01   -.142E-13 0.143E-14 -.118E+01   -.512E-20 -.199E-20 -.477E+00   -.206E-14 -.617E-13 -.269E-04
   0.101E-08 0.582E-09 0.166E+01   -.711E-14 0.163E-13 -.118E+01   0.531E-20 0.181E-20 -.477E+00   0.435E-13 0.668E-13 -.269E-04
   0.101E-08 0.583E-09 0.166E+01   -.622E-14 -.758E-14 -.118E+01   -.248E-20 -.319E-20 -.477E+00   -.302E-13 0.872E-13 -.269E-04
   0.101E-08 0.583E-09 0.166E+01   -.133E-13 0.102E-13 -.118E+01   0.654E-20 0.268E-20 -.477E+00   0.121E-13 -.930E-13 -.269E-04
   0.101E-08 0.583E-09 0.166E+01   0.533E-14 0.677E-14 -.118E+01   0.541E-20 -.161E-20 -.477E+00   0.118E-14 -.827E-13 -.269E-04
   0.101E-08 0.584E-09 0.166E+01   -.160E-13 0.117E-13 -.118E+01   -.712E-21 -.127E-20 -.477E+00   -.399E-13 0.859E-13 -.269E-04
   -.127E-09 0.647E-09 -.166E+01   0.155E-13 -.799E-14 0.118E+01   -.314E-20 -.208E-20 0.477E+00   0.580E-13 0.169E-13 0.269E-04
   -.127E-09 0.647E-09 -.166E+01   0.711E-14 -.115E-13 0.118E+01   -.162E-20 0.979E-21 0.477E+00   -.429E-13 -.904E-14 0.269E-04
   -.127E-09 0.647E-09 -.166E+01   0.200E-13 0.311E-14 0.118E+01   0.903E-20 0.100E-21 0.477E+00   0.368E-13 -.183E-13 0.269E-04
   -.127E-09 0.647E-09 -.166E+01   0.266E-14 -.222E-14 0.118E+01   -.319E-21 0.440E-21 0.477E+00   -.132E-14 0.113E-13 0.269E-04
   -.127E-09 0.647E-09 -.166E+01   0.153E-13 -.977E-14 0.118E+01   0.704E-20 0.874E-21 0.477E+00   -.570E-13 0.275E-13 0.269E-04
   -.127E-09 0.647E-09 -.166E+01   0.102E-13 -.266E-14 0.118E+01   0.980E-21 0.114E-20 0.477E+00   0.482E-13 -.248E-13 0.269E-04
   -.127E-09 0.647E-09 -.166E+01   0.235E-13 -.266E-14 0.118E+01   -.222E-20 -.153E-20 0.477E+00   -.280E-13 -.193E-13 0.269E-04
   -.127E-09 0.647E-09 -.166E+01   0.249E-13 -.711E-14 0.118E+01   -.182E-20 0.607E-21 0.477E+00   0.214E-15 0.228E-13 0.269E-04
   0.101E-08 0.583E-09 0.166E+01   0.153E-13 -.178E-14 -.118E+01   -.364E-20 0.269E-21 -.477E+00   0.240E-13 -.506E-13 -.269E-04
   0.101E-08 0.583E-09 0.166E+01   0.239E-14 0.533E-14 -.118E+01   0.473E-21 -.561E-21 -.477E+00   -.170E-13 0.222E-13 -.269E-04
   0.101E-08 0.582E-09 0.166E+01   0.108E-13 -.533E-14 -.118E+01   0.247E-21 0.909E-22 -.477E+00   0.413E-13 0.396E-13 -.269E-04
   0.101E-08 0.582E-09 0.166E+01   0.151E-14 0.178E-14 -.118E+01   0.187E-21 -.960E-21 -.477E+00   -.386E-13 -.261E-13 -.269E-04
   0.101E-08 0.584E-09 0.166E+01   0.173E-13 0.533E-14 -.118E+01   0.570E-20 -.861E-22 -.477E+00   -.132E-13 -.885E-13 -.269E-04
   0.101E-08 0.582E-09 0.166E+01   0.237E-13 -.178E-14 -.118E+01   -.814E-20 0.116E-20 -.477E+00   0.252E-13 0.788E-13 -.269E-04
   0.101E-08 0.582E-09 0.166E+01   0.111E-13 -.533E-14 -.118E+01   -.431E-20 -.772E-21 -.477E+00   -.353E-13 0.723E-13 -.269E-04
   0.101E-08 0.583E-09 0.166E+01   0.308E-14 0.178E-14 -.118E+01   -.129E-20 0.203E-21 -.477E+00   0.458E-13 -.803E-13 -.269E-04
   -.127E-09 0.647E-09 -.166E+01   0.124E-13 -.777E-14 0.118E+01   0.377E-21 -.293E-21 0.477E+00   -.737E-14 -.444E-13 0.269E-04
   -.127E-09 0.647E-09 -.166E+01   0.888E-15 -.444E-14 0.118E+01   0.449E-20 -.368E-20 0.477E+00   0.237E-13 0.356E-13 0.269E-04
   -.127E-09 0.647E-09 -.166E+01   0.888E-14 -.644E-14 0.118E+01   0.577E-20 0.931E-21 0.477E+00   0.443E-13 0.492E-13 0.269E-04
   -.127E-09 0.647E-09 -.166E+01   0.533E-14 -.111E-13 0.118E+01   -.449E-20 -.179E-20 0.477E+00   -.217E-13 -.329E-13 0.269E-04
   -.127E-09 0.648E-09 -.166E+01   -.167E-13 -.711E-14 0.118E+01   0.475E-20 0.310E-20 0.477E+00   0.242E-13 -.114E-12 0.269E-04
   -.127E-09 0.646E-09 -.166E+01   -.178E-13 -.142E-13 0.118E+01   -.232E-20 -.243E-20 0.477E+00   -.313E-13 0.112E-12 0.269E-04
   -.127E-09 0.648E-09 -.166E+01   0.444E-14 -.933E-14 0.118E+01   0.127E-20 0.680E-21 0.477E+00   -.400E-13 0.119E-12 0.269E-04
   -.127E-09 0.647E-09 -.166E+01   -.355E-14 -.178E-13 0.118E+01   0.427E-20 -.342E-20 0.477E+00   0.258E-13 -.115E-12 0.269E-04
   0.101E-08 0.583E-09 0.166E+01   0.894E-14 0.201E-14 -.118E+01   -.320E-21 -.875E-21 -.477E+00   -.215E-13 -.744E-13 -.269E-04
   0.101E-08 0.583E-09 0.166E+01   -.808E-15 -.131E-14 -.118E+01   -.181E-20 -.391E-20 -.477E+00   0.251E-13 0.690E-13 -.269E-04
   0.101E-08 0.583E-09 0.166E+01   -.526E-14 0.133E-13 -.118E+01   -.554E-20 0.449E-20 -.477E+00   0.677E-14 0.776E-13 -.269E-04
   0.101E-08 0.583E-09 0.166E+01   -.880E-14 0.117E-13 -.118E+01   -.298E-20 0.247E-20 -.477E+00   0.196E-14 -.740E-13 -.269E-04
   0.101E-08 0.583E-09 0.166E+01   -.119E-13 -.867E-14 -.118E+01   -.367E-20 0.444E-20 -.477E+00   0.435E-13 -.158E-12 -.269E-04
   0.101E-08 0.583E-09 0.166E+01   -.108E-13 0.127E-13 -.118E+01   -.992E-21 0.281E-20 -.477E+00   -.295E-13 0.158E-12 -.269E-04
   0.101E-08 0.582E-09 0.166E+01   -.116E-13 0.129E-13 -.118E+01   0.217E-20 0.177E-21 -.477E+00   -.379E-14 0.158E-12 -.269E-04
   0.101E-08 0.582E-09 0.166E+01   -.107E-13 0.353E-14 -.118E+01   -.153E-20 -.338E-20 -.477E+00   0.112E-13 -.155E-12 -.269E-04
 -----------------------------------------------------------------------------------------------
   0.282E-07 0.394E-07 0.284E-04   0.842E-13 -.213E-13 0.309E-13   0.122E-21 -.102E-19 0.205E-14   0.695E-13 -.169E-13 0.173E-09
 
 
 POSITION                                       TOTAL-FORCE (eV/Angst)
 -----------------------------------------------------------------------------------
      0.00000      0.00000      0.00876        -0.000000      0.000000      0.000355
      0.00000      0.00000      5.30067        -0.000000     -0.000000      0.000355
      0.05292      5.29191      0.00876        -0.000000      0.000000      0.000355
      0.05292      5.29191      5.30067        -0.000000      0.000000      0.000355
      5.39774      0.05292      0.00876        -0.000000      0.000000      0.000355
      5.39774      0.05292      5.30067         0.000000     -0.000000      0.000355
      5.45066      5.34483      0.00876         0.000000      0.000000      0.000355
      5.45066      5.34483      5.30067         0.000000      0.000000      0.000355
      4.08800      4.00862      1.31421        -0.000000      0.000000     -0.000355
      4.08800      4.00862      6.60612         0.000000      0.000000     -0.000355
      4.14092      9.30053      1.31421         0.000000     -0.000000     -0.000355
      4.14092      9.30053      6.60612         0.000000     -0.000000     -0.000355
      9.48574      4.06154      1.31421         0.000000     -0.000000     -0.000355
      9.48574      4.06154      6.60612         0.000000     -0.000000     -0.000355
      9.53866      9.35345      1.31421        -0.000000     -0.000000     -0.000355
      9.53866      9.35345      6.60612        -0.000000     -0.000000     -0.000355
      0.02646      2.64595      2.65472        -0.000000      0.000000      0.000355
      0.02646      2.64595      7.94663        -0.000000      0.000000      0.000355
      0.07938      7.93786      2.65472         0.000000      0.000000      0.000355
      0.07938      7.93786      7.94663        -0.000000      0.000000      0.000355
      5.42420      2.69887      2.65472         0.000000      0.000000      0.000355
      5.42420      2.69887      7.94663         0.000000      0.000000      0.000355
      5.47712      7.99078      2.65472        -0.000000      0.000000      0.000355
      5.47712      7.99078      7.94663         0.000000      0.000000      0.000355
      4.06154      1.36267      3.96017         0.000000      0.000000     -0.000355
      4.06154      1.36267      9.25207         0.000000      0.000000     -0.000355
      4.11446      6.65457      3.96017         0.000000      0.000000     -0.000355
      4.11446      6.65457      9.25207        -0.000000     -0.000000     -0.000355
      9.45928      1.41558      3.96017         0.000000     -0.000000     -0.000355
      9.45928      1.41558      9.25207         0.000000     -0.000000     -0.000355
      9.51220      6.70749      3.96017        -0.000000     -0.000000     -0.000355
      9.51220      6.70749      9.25207         0.000000     -0.000000     -0.000355
      2.69887      0.02646      2.65472         0.000000     -0.000000      0.000355
      2.69887      0.02646      7.94663         0.000000     -0.000000      0.000355
      2.75179      5.31837      2.65472        -0.000000     -0.000000      0.000355
      2.75179      5.31837      7.94663        -0.000000     -0.000000      0.000355
      8.09662      0.07938      2.65472        -0.000000     -0.000000      0.000355
      8.09662      0.07938      7.94663         0.000000      0.000000      0.000355
      8.14954      5.37129      2.65472        -0.000000      0.000000      0.000355
      8.14954      5.37129      7.94663        -0.000000      0.000000      0.000355
      1.38913      3.98216      3.96017        -0.000000      0.000000     -0.000355
      1.38913      3.98216      9.25207        -0.000000      0.000000     -0.000355
      1.44204      9.27407      3.96017         0.000000      0.000000     -0.000355
      1.44204      9.27407      9.25207         0.000000      0.000000     -0.000355
      6.78687      4.03508      3.96017        -0.000000      0.000000     -0.000355
      6.78687      4.03508      9.25207        -0.000000     -0.000000     -0.000355
      6.83979      9.32699      3.96017        -0.000000      0.000000     -0.000355
      6.83979      9.32699      9.25207         0.000000     -0.000000     -0.000355
      2.72533      2.67241      0.00876        -0.000000     -0.000000      0.000355
      2.72533      2.67241      5.30067        -0.000000     -0.000000      0.000355
      2.77825      7.96432      0.00876         0.000000     -0.000000      0.000355
      2.77825      7.96432      5.30067        -0.000000     -0.000000      0.000355
      8.12308      2.72533      0.00876         0.000000      0.000000      0.000355
      8.12308      2.72533      5.30067         0.000000     -0.000000      0.000355
      8.17600      8.01724      0.00876         0.000000      0.000000      0.000355
      8.17600      8.01724      5.30067        -0.000000      0.000000      0.000355
      1.36267      1.33621      1.31421         0.000000      0.000000     -0.000355
      1.36267      1.33621      6.60612         0.000000      0.000000     -0.000355
      1.41558      6.62811      1.31421         0.000000      0.000000     -0.000355
      1.41558      6.62811      6.60612         0.000000      0.000000     -0.000355
      6.76041      1.38913      1.31421        -0.000000     -0.000000     -0.000355
      6.76041      1.38913      6.60612        -0.000000     -0.000000     -0.000355
      6.81333      6.68103      1.31421         0.000000      0.000000     -0.000355
      6.81333      6.68103      6.60612        -0.000000      0.000000     -0.000355
 -----------------------------------------------------------------------------------
    total drift:                                0.000000      0.000000      0.000028


--------------------------------------------------------------------------------------------------------



  FREE ENERGIE OF THE ION-ELECTRON SYSTEM (eV)
  ---------------------------------------------------
  free  energy   TOTEN  =      -365.96428735 eV

  energy  without entropy=     -365.97644632  energy(sigma->0) =     -365.96834034
 
 d Force = 0.1160629E-01[-0.813E-04, 0.233E-01]  d Energy = 0.1166908E-01-0.628E-04
 d Force =-0.2495861E+00[-0.270E+00,-0.229E+00]  d Ewald  =-0.2495847E+00-0.140E-05


--------------------------------------------------------------------------------------------------------


    POTLOK:  cpu time      0.1447: real time      0.1454


--------------------------------------------------------------------------------------------------------




--------------------------------------------------------------------------------------------------------


  
 reached required accuracy - stopping structural energy minimisation
     LOOP+:  cpu time     12.9231: real time     13.1139
    4ORBIT:  cpu time      0.0000: real time      0.0000

 total amount of memory used by VASP MPI-rank0    79098. kBytes
=======================================================================

   base      :      30000. kBytes
   nonlr-proj:       4696. kBytes
   fftplans  :      17991. kBytes
   grid      :       6881. kBytes
   one-center:         18. kBytes
   wavefun   :      19512. kBytes
 
  
  
 General timing and accounting informations for this job:
 ========================================================
  
                  Total CPU time used (sec):       58.321
                            User time (sec):       55.033
                          System time (sec):        3.288
                         Elapsed time (sec):       61.885
  
                   Maximum memory used (kb):      403080.
                   Average memory used (kb):          N/A
  
                          Minor page faults:        91867
                          Major page faults:            0
                 Voluntary context switches:         8814
