Si64                                    
           1
    10.795490    0.105838    0.000000
     0.105838   10.583814    0.000000
     0.000000    0.000000   10.583814
   Si
    64
Direct configuration=     1
   0.00000000  0.00000000  0.00000000
   0.00000000  0.00000000  0.50000000
   0.00000000  0.50000000  0.00000000
   0.00000000  0.50000000  0.50000000
   0.50000000  0.00000000  0.00000000
   0.50000000  0.00000000  0.50000000
   0.50000000  0.50000000  0.00000000
   0.50000000  0.50000000  0.50000000
   0.37500000  0.37500000  0.12500000
   0.37500000  0.37500000  0.62500000
   0.37500000  0.87500000  0.12500000
   0.37500000  0.87500000  0.62500000
   0.87500000  0.37500000  0.12500000
   0.87500000  0.37500000  0.62500000
   0.87500000  0.87500000  0.12500000
   0.87500000  0.87500000  0.62500000
   0.00000000  0.25000000  0.25000000
   0.00000000  0.25000000  0.75000000
   0.00000000  0.75000000  0.25000000
   0.00000000  0.75000000  0.75000000
   0.50000000  0.25000000  0.25000000
   0.50000000  0.25000000  0.75000000
   0.50000000  0.75000000  0.25000000
   0.50000000  0.75000000  0.75000000
   0.37500000  0.12500000  0.37500000
   0.37500000  0.12500000  0.87500000
   0.37500000  0.62500000  0.37500000
   0.37500000  0.62500000  0.87500000
   0.87500000  0.12500000  0.37500000
   0.87500000  0.12500000  0.87500000
   0.87500000  0.62500000  0.37500000
   0.87500000  0.62500000  0.87500000
   0.25000000  0.00000000  0.25000000
   0.25000000  0.00000000  0.75000000
   0.25000000  0.50000000  0.25000000
   0.25000000  0.50000000  0.75000000
   0.75000000  0.00000000  0.25000000
   0.75000000  0.00000000  0.75000000
   0.75000000  0.50000000  0.25000000
   0.75000000  0.50000000  0.75000000
   0.12500000  0.37500000  0.37500000
   0.12500000  0.37500000  0.87500000
   0.12500000  0.87500000  0.37500000
   0.12500000  0.87500000  0.87500000
   0.62500000  0.37500000  0.37500000
   0.62500000  0.37500000  0.87500000
   0.62500000  0.87500000  0.37500000
   0.62500000  0.87500000  0.87500000
   0.25000000  0.25000000  0.00000000
   0.25000000  0.25000000  0.50000000
   0.25000000  0.75000000  0.00000000
   0.25000000  0.75000000  0.50000000
   0.75000000  0.25000000  0.00000000
   0.75000000  0.25000000  0.50000000
   0.75000000  0.75000000  0.00000000
   0.75000000  0.75000000  0.50000000
   0.12500000  0.12500000  0.12500000
   0.12500000  0.12500000  0.62500000
   0.12500000  0.62500000  0.12500000
   0.12500000  0.62500000  0.62500000
   0.62500000  0.12500000  0.12500000
   0.62500000  0.12500000  0.62500000
   0.62500000  0.62500000  0.12500000
   0.62500000  0.62500000  0.62500000
Direct configuration=     2
   1.00000000  1.00000000  0.00116560
   0.00000000  1.00000000  0.50116560
   1.00000000  0.50000000  0.00116560
   1.00000000  0.50000000  0.50116560
   0.50000000  0.00000000  0.00116560
   0.50000000  0.00000000  0.50116560
   0.50000000  0.50000000  0.00116560
   0.50000000  0.50000000  0.50116560
   0.37500000  0.37500000  0.12383440
   0.37500000  0.37500000  0.62383440
   0.37500000  0.87500000  0.12383440
   0.37500000  0.87500000  0.62383440
   0.87500000  0.37500000  0.12383440
   0.87500000  0.37500000  0.62383440
   0.87500000  0.87500000  0.12383440
   0.87500000  0.87500000  0.62383440
   1.00000000  0.25000000  0.25116560
   1.00000000  0.25000000  0.75116560
   1.00000000  0.75000000  0.25116560
   0.00000000  0.75000000  0.75116560
   0.50000000  0.25000000  0.25116560
   0.50000000  0.25000000  0.75116560
   0.50000000  0.75000000  0.25116560
   0.50000000  0.75000000  0.75116560
   0.37500000  0.12500000  0.37383440
   0.37500000  0.12500000  0.87383440
   0.37500000  0.62500000  0.37383440
   0.37500000  0.62500000  0.87383440
   0.87500000  0.12500000  0.37383440
   0.87500000  0.12500000  0.87383440
   0.87500000  0.62500000  0.37383440
   0.87500000  0.62500000  0.87383440
   0.25000000  0.00000000  0.25116560
   0.25000000  1.00000000  0.75116560
   0.25000000  0.50000000  0.25116560
   0.25000000  0.50000000  0.75116560
   0.75000000  0.00000000  0.25116560
   0.75000000  0.00000000  0.75116560
   0.75000000  0.50000000  0.25116560
   0.75000000  0.50000000  0.75116560
   0.12500000  0.37500000  0.37383440
   0.12500000  0.37500000  0.87383440
   0.12500000  0.87500000  0.37383440
   0.12500000  0.87500000  0.87383440
   0.62500000  0.37500000  0.37383440
   0.62500000  0.37500000  0.87383440
   0.62500000  0.87500000  0.37383440
   0.62500000  0.87500000  0.87383440
   0.25000000  0.25000000  0.00116560
   0.25000000  0.25000000  0.50116560
   0.25000000  0.75000000  0.00116560
   0.25000000  0.75000000  0.50116560
   0.75000000  0.25000000  0.00116560
   0.75000000  0.25000000  0.50116560
   0.75000000  0.75000000  0.00116560
   0.75000000  0.75000000  0.50116560
   0.12500000  0.12500000  0.12383440
   0.12500000  0.12500000  0.62383440
   0.12500000  0.62500000  0.12383440
   0.12500000  0.62500000  0.62383440
   0.62500000  0.12500000  0.12383440
   0.62500000  0.12500000  0.62383440
   0.62500000  0.62500000  0.12383440
   0.62500000  0.62500000  0.62383440
Direct configuration=     3
   0.00000000  0.00000000  0.00082814
   0.00000000  0.00000000  0.50082814
   0.00000000  0.50000000  0.00082814
   0.00000000  0.50000000  0.50082814
   0.50000000  0.00000000  0.00082814
   0.50000000  0.00000000  0.50082814
   0.50000000  0.50000000  0.00082814
   0.50000000  0.50000000  0.50082814
   0.37500000  0.37500000  0.12417186
   0.37500000  0.37500000  0.62417186
   0.37500000  0.87500000  0.12417186
   0.37500000  0.87500000  0.62417186
   0.87500000  0.37500000  0.12417186
   0.87500000  0.37500000  0.62417186
   0.87500000  0.87500000  0.12417186
   0.87500000  0.87500000  0.62417186
   0.00000000  0.25000000  0.25082814
   0.00000000  0.25000000  0.75082814
   0.00000000  0.75000000  0.25082814
   0.00000000  0.75000000  0.75082814
   0.50000000  0.25000000  0.25082814
   0.50000000  0.25000000  0.75082814
   0.50000000  0.75000000  0.25082814
   0.50000000  0.75000000  0.75082814
   0.37500000  0.12500000  0.37417186
   0.37500000  0.12500000  0.87417186
   0.37500000  0.62500000  0.37417186
   0.37500000  0.62500000  0.87417186
   0.87500000  0.12500000  0.37417186
   0.87500000  0.12500000  0.87417186
   0.87500000  0.62500000  0.37417186
   0.87500000  0.62500000  0.87417186
   0.25000000  0.00000000  0.25082814
   0.25000000  0.00000000  0.75082814
   0.25000000  0.50000000  0.25082814
   0.25000000  0.50000000  0.75082814
   0.75000000  0.00000000  0.25082814
   0.75000000  0.00000000  0.75082814
   0.75000000  0.50000000  0.25082814
   0.75000000  0.50000000  0.75082814
   0.12500000  0.37500000  0.37417186
   0.12500000  0.37500000  0.87417186
   0.12500000  0.87500000  0.37417186
   0.12500000  0.87500000  0.87417186
   0.62500000  0.37500000  0.37417186
   0.62500000  0.37500000  0.87417186
   0.62500000  0.87500000  0.37417186
   0.62500000  0.87500000  0.87417186
   0.25000000  0.25000000  0.00082814
   0.25000000  0.25000000  0.50082814
   0.25000000  0.75000000  0.00082814
   0.25000000  0.75000000  0.50082814
   0.75000000  0.25000000  0.00082814
   0.75000000  0.25000000  0.50082814
   0.75000000  0.75000000  0.00082814
   0.75000000  0.75000000  0.50082814
   0.12500000  0.12500000  0.12417186
   0.12500000  0.12500000  0.62417186
   0.12500000  0.62500000  0.12417186
   0.12500000  0.62500000  0.62417186
   0.62500000  0.12500000  0.12417186
   0.62500000  0.12500000  0.62417186
   0.62500000  0.62500000  0.12417186
   0.62500000  0.62500000  0.62417186
