  64  64   0   0
  0.1875877E+02  0.1048696E-08  0.1070096E-08  0.1070042E-08  0.5000000E-15
  1.000000000000000E-004
  CAR 
 Si64                                    
     11.93656852     -7.98165143  301      6.66321589      1.00000000
     -7.982  0.0000E+00  0.0000E+00
     -7.915  0.0000E+00  0.0000E+00
     -7.849  0.0000E+00  0.0000E+00
     -7.782  0.0000E+00  0.0000E+00
     -7.716  0.0000E+00  0.0000E+00
     -7.650  0.0000E+00  0.0000E+00
     -7.583 -0.1995E-28 -0.1324E-29
     -7.517 -0.3470E-26 -0.2317E-27
     -7.450 -0.4853E-24 -0.3245E-25
     -7.384 -0.5432E-22 -0.3639E-23
     -7.318 -0.4864E-20 -0.3266E-21
     -7.251 -0.3483E-18 -0.2345E-19
     -7.185 -0.1994E-16 -0.1348E-17
     -7.119 -0.8845E-15 -0.6007E-16
     -7.052 -0.3218E-13 -0.2196E-14
     -6.986 -0.9334E-12 -0.6417E-13
     -6.919 -0.2156E-10 -0.1496E-11
     -6.853 -0.3960E-09 -0.2779E-10
     -6.787 -0.5772E-08 -0.4110E-09
     -6.720 -0.6656E-07 -0.4830E-08
     -6.654 -0.6051E-06 -0.4501E-07
     -6.587 -0.4313E-05 -0.3314E-06
     -6.521 -0.2390E-04 -0.1918E-05
     -6.455 -0.1015E-03 -0.8656E-05
     -6.388 -0.3222E-03 -0.3005E-04
     -6.322 -0.7244E-03 -0.7815E-04
     -6.255 -0.9796E-03 -0.1432E-03
     -6.189 -0.1030E-03 -0.1500E-03
     -6.123  0.2885E-02  0.4150E-04
     -6.056  0.7236E-02  0.5219E-03
     -5.990  0.1064E-01  0.1228E-02
     -5.923  0.1400E-01  0.2158E-02
     -5.857  0.2486E-01  0.3809E-02
     -5.791  0.4919E-01  0.7074E-02
     -5.724  0.7807E-01  0.1226E-01
     -5.658  0.9455E-01  0.1853E-01
     -5.591  0.1004E+00  0.2520E-01
     -5.525  0.1200E+00  0.3317E-01
     -5.459  0.1621E+00  0.4393E-01
     -5.392  0.1958E+00  0.5694E-01
     -5.326  0.1894E+00  0.6951E-01
     -5.259  0.1562E+00  0.7988E-01
     -5.193  0.1334E+00  0.8874E-01
     -5.127  0.1278E+00  0.9723E-01
     -5.060  0.1163E+00  0.1049E+00
     -4.994  0.9106E-01  0.1110E+00
     -4.928  0.7074E-01  0.1157E+00
     -4.861  0.6949E-01  0.1203E+00
     -4.795  0.8840E-01  0.1262E+00
     -4.728  0.1386E+00  0.1354E+00
     -4.662  0.2332E+00  0.1509E+00
     -4.596  0.3452E+00  0.1738E+00
     -4.529  0.4169E+00  0.2015E+00
     -4.463  0.4324E+00  0.2302E+00
     -4.396  0.4311E+00  0.2588E+00
     -4.330  0.4292E+00  0.2873E+00
     -4.264  0.3833E+00  0.3127E+00
     -4.197  0.2645E+00  0.3303E+00
     -4.131  0.1159E+00  0.3380E+00
     -4.064  0.8437E-02  0.3385E+00
     -3.998 -0.2123E-01  0.3371E+00
     -3.932  0.2580E-01  0.3389E+00
     -3.865  0.1343E+00  0.3478E+00
     -3.799  0.2783E+00  0.3662E+00
     -3.732  0.4140E+00  0.3937E+00
     -3.666  0.4896E+00  0.4262E+00
     -3.600  0.4743E+00  0.4577E+00
     -3.533  0.3847E+00  0.4833E+00
     -3.467  0.2798E+00  0.5018E+00
     -3.400  0.2272E+00  0.5169E+00
     -3.334  0.2653E+00  0.5345E+00
     -3.268  0.3825E+00  0.5599E+00
     -3.201  0.5225E+00  0.5946E+00
     -3.135  0.6204E+00  0.6358E+00
     -3.068  0.6459E+00  0.6787E+00
     -3.002  0.6130E+00  0.7194E+00
     -2.936  0.5516E+00  0.7560E+00
     -2.869  0.4840E+00  0.7882E+00
     -2.803  0.4311E+00  0.8168E+00
     -2.737  0.4123E+00  0.8442E+00
     -2.670  0.4158E+00  0.8718E+00
     -2.604  0.3902E+00  0.8977E+00
     -2.537  0.2980E+00  0.9175E+00
     -2.471  0.1645E+00  0.9284E+00
     -2.405  0.4998E-01  0.9317E+00
     -2.338 -0.1162E-01  0.9309E+00
     -2.272 -0.2645E-01  0.9292E+00
     -2.205 -0.1016E-01  0.9285E+00
     -2.139  0.3380E-01  0.9307E+00
     -2.073  0.1014E+00  0.9375E+00
     -2.006  0.1663E+00  0.9485E+00
     -1.940  0.1868E+00  0.9609E+00
     -1.873  0.1460E+00  0.9706E+00
     -1.807  0.7669E-01  0.9757E+00
     -1.741  0.4183E-01  0.9785E+00
     -1.674  0.8991E-01  0.9845E+00
     -1.608  0.2239E+00  0.9993E+00
     -1.541  0.3959E+00  0.1026E+01
     -1.475  0.5272E+00  0.1061E+01
     -1.409  0.5498E+00  0.1097E+01
     -1.342  0.4506E+00  0.1127E+01
     -1.276  0.2813E+00  0.1146E+01
     -1.209  0.1271E+00  0.1154E+01
     -1.143  0.5383E-01  0.1158E+01
     -1.077  0.7288E-01  0.1163E+01
     -1.010  0.1412E+00  0.1172E+01
     -0.944  0.1960E+00  0.1185E+01
     -0.877  0.2017E+00  0.1198E+01
     -0.811  0.1809E+00  0.1210E+01
     -0.745  0.1947E+00  0.1223E+01
     -0.678  0.2715E+00  0.1241E+01
     -0.612  0.3544E+00  0.1265E+01
     -0.546  0.3540E+00  0.1288E+01
     -0.479  0.2717E+00  0.1306E+01
     -0.413  0.2328E+00  0.1322E+01
     -0.346  0.3642E+00  0.1346E+01
     -0.280  0.6514E+00  0.1389E+01
     -0.214  0.9304E+00  0.1451E+01
     -0.147  0.1017E+01  0.1519E+01
     -0.081  0.8501E+00  0.1575E+01
     -0.014  0.5238E+00  0.1610E+01
      0.052  0.2051E+00  0.1623E+01
      0.118  0.1464E-01  0.1624E+01
      0.185 -0.1727E-01  0.1623E+01
      0.251  0.7787E-01  0.1628E+01
      0.318  0.2348E+00  0.1644E+01
      0.384  0.3650E+00  0.1668E+01
      0.450  0.3947E+00  0.1694E+01
      0.517  0.3174E+00  0.1716E+01
      0.583  0.1968E+00  0.1729E+01
      0.650  0.1137E+00  0.1736E+01
      0.716  0.1174E+00  0.1744E+01
      0.782  0.2101E+00  0.1758E+01
      0.849  0.3489E+00  0.1781E+01
      0.915  0.4623E+00  0.1812E+01
      0.982  0.4872E+00  0.1844E+01
      1.048  0.4082E+00  0.1871E+01
      1.114  0.2651E+00  0.1889E+01
      1.181  0.1227E+00  0.1897E+01
      1.247  0.2744E-01  0.1899E+01
      1.314 -0.1358E-01  0.1898E+01
      1.380 -0.2224E-01  0.1896E+01
      1.446 -0.2368E-01  0.1895E+01
      1.513 -0.2710E-01  0.1893E+01
      1.579 -0.1743E-01  0.1892E+01
      1.645  0.4016E-01  0.1895E+01
      1.712  0.1714E+00  0.1906E+01
      1.778  0.3502E+00  0.1929E+01
      1.845  0.4980E+00  0.1962E+01
      1.911  0.5530E+00  0.1999E+01
      1.977  0.5325E+00  0.2034E+01
      2.044  0.5017E+00  0.2068E+01
      2.110  0.4926E+00  0.2100E+01
      2.177  0.4902E+00  0.2133E+01
      2.243  0.4776E+00  0.2165E+01
      2.309  0.4495E+00  0.2194E+01
      2.376  0.3971E+00  0.2221E+01
      2.442  0.3282E+00  0.2243E+01
      2.509  0.3020E+00  0.2263E+01
      2.575  0.4063E+00  0.2290E+01
      2.641  0.6741E+00  0.2334E+01
      2.708  0.1019E+01  0.2402E+01
      2.774  0.1269E+01  0.2486E+01
      2.841  0.1279E+01  0.2571E+01
      2.907  0.1034E+01  0.2640E+01
      2.973  0.6527E+00  0.2683E+01
      3.040  0.2956E+00  0.2703E+01
      3.106  0.6238E-01  0.2707E+01
      3.173 -0.4027E-01  0.2704E+01
      3.239 -0.4335E-01  0.2701E+01
      3.305  0.5071E-01  0.2705E+01
      3.372  0.2667E+00  0.2723E+01
      3.438  0.5880E+00  0.2762E+01
      3.505  0.9136E+00  0.2822E+01
      3.571  0.1121E+01  0.2897E+01
      3.637  0.1170E+01  0.2974E+01
      3.704  0.1112E+01  0.3048E+01
      3.770  0.1004E+01  0.3115E+01
      3.836  0.8687E+00  0.3172E+01
      3.903  0.7379E+00  0.3221E+01
      3.969  0.6654E+00  0.3266E+01
      4.036  0.6729E+00  0.3310E+01
      4.102  0.7078E+00  0.3357E+01
      4.168  0.6884E+00  0.3403E+01
      4.235  0.5878E+00  0.3442E+01
      4.301  0.4604E+00  0.3473E+01
      4.368  0.3851E+00  0.3498E+01
      4.434  0.3940E+00  0.3524E+01
      4.500  0.4590E+00  0.3555E+01
      4.567  0.5320E+00  0.3590E+01
      4.633  0.5820E+00  0.3629E+01
      4.700  0.6010E+00  0.3669E+01
      4.766  0.6050E+00  0.3709E+01
      4.832  0.6306E+00  0.3751E+01
      4.899  0.7017E+00  0.3797E+01
      4.965  0.7919E+00  0.3850E+01
      5.032  0.8398E+00  0.3906E+01
      5.098  0.8037E+00  0.3959E+01
      5.164  0.6883E+00  0.4005E+01
      5.231  0.5262E+00  0.4040E+01
      5.297  0.3593E+00  0.4063E+01
      5.364  0.2344E+00  0.4079E+01
      5.430  0.1901E+00  0.4092E+01
      5.496  0.2255E+00  0.4107E+01
      5.563  0.2907E+00  0.4126E+01
      5.629  0.3235E+00  0.4147E+01
      5.696  0.2980E+00  0.4167E+01
      5.762  0.2323E+00  0.4183E+01
      5.828  0.1588E+00  0.4193E+01
      5.895  0.1004E+00  0.4200E+01
      5.961  0.7225E-01  0.4205E+01
      6.027  0.8159E-01  0.4210E+01
      6.094  0.1171E+00  0.4218E+01
      6.160  0.1504E+00  0.4228E+01
      6.227  0.1586E+00  0.4238E+01
      6.293  0.1397E+00  0.4248E+01
      6.359  0.1056E+00  0.4255E+01
      6.426  0.6812E-01  0.4259E+01
      6.492  0.3695E-01  0.4262E+01
      6.559  0.2145E-01  0.4263E+01
      6.625  0.2786E-01  0.4265E+01
      6.691  0.5472E-01  0.4268E+01
      6.758  0.9260E-01  0.4275E+01
      6.824  0.1274E+00  0.4283E+01
      6.891  0.1444E+00  0.4293E+01
      6.957  0.1339E+00  0.4302E+01
      7.023  0.9910E-01  0.4308E+01
      7.090  0.5846E-01  0.4312E+01
      7.156  0.3713E-01  0.4315E+01
      7.223  0.5148E-01  0.4318E+01
      7.289  0.9712E-01  0.4324E+01
      7.355  0.1501E+00  0.4334E+01
      7.422  0.1853E+00  0.4347E+01
      7.488  0.1987E+00  0.4360E+01
      7.555  0.2128E+00  0.4374E+01
      7.621  0.2547E+00  0.4391E+01
      7.687  0.3225E+00  0.4412E+01
      7.754  0.3758E+00  0.4437E+01
      7.820  0.3727E+00  0.4462E+01
      7.887  0.3166E+00  0.4483E+01
      7.953  0.2591E+00  0.4500E+01
      8.019  0.2565E+00  0.4517E+01
      8.086  0.3201E+00  0.4538E+01
      8.152  0.4121E+00  0.4566E+01
      8.219  0.4883E+00  0.4598E+01
      8.285  0.5318E+00  0.4634E+01
      8.351  0.5414E+00  0.4670E+01
      8.418  0.5173E+00  0.4704E+01
      8.484  0.4818E+00  0.4736E+01
      8.550  0.4854E+00  0.4768E+01
      8.617  0.5664E+00  0.4806E+01
      8.683  0.7126E+00  0.4853E+01
      8.750  0.8737E+00  0.4911E+01
      8.816  0.9988E+00  0.4977E+01
      8.882  0.1059E+01  0.5048E+01
      8.949  0.1044E+01  0.5117E+01
      9.015  0.9544E+00  0.5180E+01
      9.082  0.7920E+00  0.5233E+01
      9.148  0.5795E+00  0.5271E+01
      9.214  0.3801E+00  0.5297E+01
      9.281  0.2688E+00  0.5314E+01
      9.347  0.2625E+00  0.5332E+01
      9.414  0.2966E+00  0.5352E+01
      9.480  0.2880E+00  0.5371E+01
      9.546  0.2115E+00  0.5385E+01
      9.613  0.1070E+00  0.5392E+01
      9.679  0.2752E-01  0.5394E+01
      9.746 -0.4989E-02  0.5393E+01
      9.812 -0.8707E-03  0.5393E+01
      9.878  0.1740E-01  0.5394E+01
      9.945  0.3073E-01  0.5396E+01
     10.011  0.3035E-01  0.5398E+01
     10.078  0.1942E-01  0.5400E+01
     10.144  0.7192E-02  0.5400E+01
     10.210  0.6588E-04  0.5400E+01
     10.277 -0.1822E-02  0.5400E+01
     10.343 -0.1327E-02  0.5400E+01
     10.410 -0.5741E-03  0.5400E+01
     10.476 -0.1760E-03  0.5400E+01
     10.542 -0.4042E-04  0.5400E+01
     10.609 -0.7129E-05  0.5400E+01
     10.675 -0.9789E-06  0.5400E+01
     10.741 -0.1055E-06  0.5400E+01
     10.808 -0.8971E-08  0.5400E+01
     10.874 -0.6042E-09  0.5400E+01
     10.941 -0.3232E-10  0.5400E+01
     11.007 -0.1376E-11  0.5400E+01
     11.073 -0.4664E-13  0.5400E+01
     11.140 -0.1268E-14  0.5400E+01
     11.206 -0.2787E-16  0.5400E+01
     11.273  0.0000E+00  0.5400E+01
     11.339  0.0000E+00  0.5400E+01
     11.405  0.0000E+00  0.5400E+01
     11.472  0.0000E+00  0.5400E+01
     11.538  0.0000E+00  0.5400E+01
     11.605  0.0000E+00  0.5400E+01
     11.671  0.0000E+00  0.5400E+01
     11.737  0.0000E+00  0.5400E+01
     11.804  0.0000E+00  0.5400E+01
     11.870  0.0000E+00  0.5400E+01
     11.937  0.0000E+00  0.5400E+01
