       N       E                     dE             d eps       ncg     rms          rms(c)
DAV:   1     0.572299938269E+03    0.57230E+03   -0.84902E+04  2592   0.107E+03
DAV:   2    -0.309423547968E+03   -0.88172E+03   -0.83715E+03  3112   0.175E+02
DAV:   3    -0.372458903728E+03   -0.63035E+02   -0.61775E+02  3128   0.414E+01
DAV:   4    -0.374062894926E+03   -0.16040E+01   -0.15926E+01  3136   0.800E+00
DAV:   5    -0.374113976863E+03   -0.51082E-01   -0.50979E-01  3094   0.131E+00    0.306E+01
RMM:   6    -0.368074616958E+03    0.60394E+01   -0.31892E+00  2592   0.281E+00    0.185E+01
RMM:   7    -0.365459094062E+03    0.26155E+01   -0.80440E+00  2646   0.445E+00    0.119E+00
RMM:   8    -0.365491071374E+03   -0.31977E-01   -0.75722E-01  2619   0.170E+00    0.555E-01
RMM:   9    -0.365514275079E+03   -0.23204E-01   -0.22728E-01  2672   0.831E-01    0.620E-01
RMM:  10    -0.365519270841E+03   -0.49958E-02   -0.41016E-02  2709   0.392E-01    0.927E-01
RMM:  11    -0.365514138908E+03    0.51319E-02   -0.15974E-02  2592   0.246E-01    0.537E-01
RMM:  12    -0.365514349687E+03   -0.21078E-03   -0.19404E-03  2617   0.105E-01    0.501E-01
RMM:  13    -0.365514417338E+03   -0.67651E-04   -0.36021E-04  2713   0.430E-02    0.583E-01
RMM:  14    -0.365514419824E+03   -0.24867E-05   -0.97389E-05  2611   0.239E-02    0.203E-01
RMM:  15    -0.365514456002E+03   -0.36178E-04   -0.37909E-05  2639   0.128E-02    0.141E-01
RMM:  16    -0.365514478455E+03   -0.22453E-04   -0.18998E-05  2592   0.950E-03    0.828E-02
RMM:  17    -0.365514481804E+03   -0.33489E-05   -0.64212E-06  2387   0.559E-03    0.190E-02
RMM:  18    -0.365514481738E+03    0.66163E-07   -0.89188E-07  1565   0.229E-03
   1 F= -.36551448E+03 E0= -.36552152E+03  d E =-.365514E+03
       N       E                     dE             d eps       ncg     rms          rms(c)
DAV:   1    -0.365561134503E+03   -0.46653E-01   -0.29466E+00  2936   0.329E+00    0.798E-01
RMM:   2    -0.365574894672E+03   -0.13760E-01   -0.14350E-01  2592   0.812E-01    0.328E-01
RMM:   3    -0.365576290378E+03   -0.13957E-02   -0.21640E-02  2632   0.356E-01    0.135E-01
RMM:   4    -0.365576215255E+03    0.75123E-04   -0.30492E-03  2636   0.148E-01    0.528E-02
RMM:   5    -0.365576242039E+03   -0.26784E-04   -0.56939E-04  2701   0.583E-02    0.107E-02
RMM:   6    -0.365576253763E+03   -0.11724E-04   -0.11892E-04  2764   0.248E-02    0.297E-03
RMM:   7    -0.365576255507E+03   -0.17442E-05   -0.18463E-05  2497   0.935E-03    0.214E-03
RMM:   8    -0.365576255658E+03   -0.15089E-06   -0.28857E-06  1783   0.373E-03
   2 F= -.36557626E+03 E0= -.36558003E+03  d E =-.617739E-01
       N       E                     dE             d eps       ncg     rms          rms(c)
DAV:   1    -0.365588913732E+03   -0.12658E-01   -0.26385E-01  2920   0.983E-01    0.238E-01
RMM:   2    -0.365590118299E+03   -0.12046E-02   -0.12541E-02  2592   0.242E-01    0.984E-02
RMM:   3    -0.365590234499E+03   -0.11620E-03   -0.18495E-03  2632   0.106E-01    0.389E-02
RMM:   4    -0.365590229160E+03    0.53387E-05   -0.26004E-04  2632   0.439E-02    0.153E-02
RMM:   5    -0.365590231592E+03   -0.24318E-05   -0.49874E-05  2705   0.171E-02    0.314E-03
RMM:   6    -0.365590232415E+03   -0.82333E-06   -0.94394E-06  2180   0.723E-03    0.742E-04
RMM:   7    -0.365590232600E+03   -0.18470E-06   -0.15539E-06  1653   0.279E-03    0.484E-04
RMM:   8    -0.365590232651E+03   -0.50705E-07   -0.31997E-07  1419   0.126E-03
   3 F= -.36559023E+03 E0= -.36559509E+03  d E =-.757509E-01
