 vasp.6.4.3 19Mar24 (build Oct 21 2024 22:36:34) complex                        
  
 executed on             LinuxIFC date 2024.11.01  22:52:05
 running   96 mpi-ranks, on    1 nodes
 distrk:  each k-point on   24 cores,    4 groups
 distr:  one band on NCORE=  12 cores,    2 groups


--------------------------------------------------------------------------------------------------------


 INCAR:
   SYSTEM = Si64
   ISTART = 0
   ICHARG = 2
   LREAL = Auto
   PREC = Accurate
   LWAVE = .False.
   LCHARG = .False.
   ADDGRID = .True.
   ENCUT = 400
   GGA = PS
   GGA_COMPAT = .FALSE.
   ISMEAR = 1
   SIGMA = 0.2
   NELM = 60
   NELMIN = 8
   EDIFF = 1e-06
   EDIFFG = -0.01
   NSW = 60
   IBRION = 2
   ISIF = 2
   KPAR = 4
   NPAR = 2
   ALGO = Fast

 POTCAR:    PAW_PBE Si 05Jan2001                  
 POTCAR:    PAW_PBE Si 05Jan2001                  
   VRHFIN =Si: s2p2                                                                                 
   LEXCH  = PE                                                                                      
   EATOM  =   103.0669 eV,    7.5752 Ry                                                             
                                                                                                    
   TITEL  = PAW_PBE Si 05Jan2001                                                                    
   LULTRA =        F    use ultrasoft PP ?                                                          
   IUNSCR =        1    unscreen: 0-lin 1-nonlin 2-no                                               
   RPACOR =    1.500    partial core radius                                                         
   POMASS =   28.085; ZVAL   =    4.000    mass and valenz                                          
   RCORE  =    1.900    outmost cutoff radius                                                       
   RWIGS  =    2.480; RWIGS  =    1.312    wigner-seitz radius (au A)                               
   ENMAX  =  245.345; ENMIN  =  184.009 eV                                                          
   ICORE  =        2    local potential                                                             
   LCOR   =        T    correct aug charges                                                         
   LPAW   =        T    paw PP                                                                      
   EAUG   =  322.069                                                                                
   DEXC   =    0.000                                                                                
   RMAX   =    1.950    core radius for proj-oper                                                   
   RAUG   =    1.300    factor for augmentation sphere                                              
   RDEP   =    1.993    radius for radial grids                                                     
   RDEPT  =    1.837    core radius for aug-charge                                                  
                                                                                                    
   Atomic configuration                                                                             
    6 entries                                                                                       
     n  l   j            E        occ.                                                              
     1  0  0.50     -1785.8828   2.0000                                                             
     2  0  0.50      -139.4969   2.0000                                                             
     2  1  1.50       -95.5546   6.0000                                                             
     3  0  0.50       -10.8127   2.0000                                                             
     3  1  0.50        -4.0811   2.0000                                                             
     3  2  1.50        -4.0817   0.0000                                                             
   Description                                                                                      
     l       E           TYP  RCUT    TYP  RCUT                                                     
     0    -10.8127223     23  1.900                                                                 
     0     -7.6451159     23  1.900                                                                 
     1     -4.0811372     23  1.900                                                                 
     1      2.4879257     23  1.900                                                                 
     2     -4.0817478      7  1.900                                                                 
  local pseudopotential read in
  partial core-charges read in
  partial kinetic energy density read in
  atomic valenz-charges read in
  non local Contribution for L=           0  read in
    real space projection operators read in
  non local Contribution for L=           0  read in
    real space projection operators read in
  non local Contribution for L=           1  read in
    real space projection operators read in
  non local Contribution for L=           1  read in
    real space projection operators read in
    PAW grid and wavefunctions read in
 
   number of l-projection  operators is LMAX  =           4
   number of lm-projection operators is LMMAX =           8
 
 Optimization of the real space projectors (new method)

 maximal supplied QI-value         = 19.84
 optimisation between [QCUT,QGAM] = [ 10.12, 20.44] = [ 28.68,116.96] Ry 
 Optimized for a Real-space Cutoff    1.38 Angstroem

   l    n(q)    QCUT    max X(q) W(low)/X(q) W(high)/X(q)  e(spline) 
   0      8    10.119   159.560    0.58E-04    0.11E-03    0.54E-07
   0      8    10.119   115.863    0.56E-04    0.11E-03    0.54E-07
   1      8    10.119    88.339    0.22E-03    0.17E-03    0.19E-06
   1      8    10.119    48.592    0.22E-03    0.17E-03    0.18E-06
 -----------------------------------------------------------------------------
|                                                                             |
|               ----> ADVICE to this user running VASP <----                  |
|                                                                             |
|     You enforced a specific xc type in the INCAR file but a different       |
|     type was found in the POTCAR file.                                      |
|     I HOPE YOU KNOW WHAT YOU ARE DOING!                                     |
|                                                                             |
 -----------------------------------------------------------------------------

  PAW_PBE Si 05Jan2001                  :
 energy of atom  1       EATOM= -103.0669
 kinetic energy error for atom=    0.0012 (will be added to EATOM!!)
 
 
 POSCAR: Si8
  positions in direct lattice
  velocities in cartesian coordinates


 exchange-correlation table for PS
   RHO(1)=    0.500       N(1)  =     2000
   RHO(2)=  100.500       N(2)  =     4000
 


--------------------------------------------------------------------------------------------------------


 ion  position               nearest neighbor table
   1  0.000  0.000  0.000-  15 2.29  57 2.29  44 2.32  30 2.32
   2  0.000  0.000  0.500-  16 2.29  58 2.29  43 2.32  29 2.32
   3  0.000  0.500  0.000-  13 2.29  59 2.29  42 2.32  32 2.32
   4  0.000  0.500  0.500-  14 2.29  60 2.29  41 2.32  31 2.32
   5  0.500  0.000  0.000-  11 2.29  61 2.29  48 2.32  26 2.32
   6  0.500  0.000  0.500-  12 2.29  62 2.29  47 2.32  25 2.32
   7  0.500  0.500  0.000-   9 2.29  63 2.29  46 2.32  28 2.32
   8  0.500  0.500  0.500-  10 2.29  64 2.29  45 2.32  27 2.32
   9  0.375  0.375  0.125-   7 2.29  49 2.29  35 2.32  21 2.32
  10  0.375  0.375  0.625-   8 2.29  50 2.29  36 2.32  22 2.32
  11  0.375  0.875  0.125-   5 2.29  51 2.29  33 2.32  23 2.32
  12  0.375  0.875  0.625-   6 2.29  52 2.29  34 2.32  24 2.32
  13  0.875  0.375  0.125-   3 2.29  53 2.29  39 2.32  17 2.32
  14  0.875  0.375  0.625-   4 2.29  54 2.29  40 2.32  18 2.32
  15  0.875  0.875  0.125-   1 2.29  55 2.29  37 2.32  19 2.32
  16  0.875  0.875  0.625-   2 2.29  56 2.29  38 2.32  20 2.32
  17  0.000  0.250  0.250-  29 2.29  41 2.29  13 2.32  57 2.32
  18  0.000  0.250  0.750-  30 2.29  42 2.29  14 2.32  58 2.32
  19  0.000  0.750  0.250-  31 2.29  43 2.29  15 2.32  59 2.32
  20  0.000  0.750  0.750-  32 2.29  44 2.29  16 2.32  60 2.32
  21  0.500  0.250  0.250-  25 2.29  45 2.29   9 2.32  61 2.32
  22  0.500  0.250  0.750-  26 2.29  46 2.29  10 2.32  62 2.32
  23  0.500  0.750  0.250-  27 2.29  47 2.29  11 2.32  63 2.32
  24  0.500  0.750  0.750-  28 2.29  48 2.29  12 2.32  64 2.32
  25  0.375  0.125  0.375-  21 2.29  33 2.29   6 2.32  50 2.32
  26  0.375  0.125  0.875-  22 2.29  34 2.29   5 2.32  49 2.32
  27  0.375  0.625  0.375-  23 2.29  35 2.29   8 2.32  52 2.32
  28  0.375  0.625  0.875-  24 2.29  36 2.29   7 2.32  51 2.32
  29  0.875  0.125  0.375-  17 2.29  37 2.29   2 2.32  54 2.32
  30  0.875  0.125  0.875-  18 2.29  38 2.29   1 2.32  53 2.32
  31  0.875  0.625  0.375-  19 2.29  39 2.29   4 2.32  56 2.32
  32  0.875  0.625  0.875-  20 2.29  40 2.29   3 2.32  55 2.32
  33  0.250  0.000  0.250-  25 2.29  43 2.29  11 2.32  57 2.32
  34  0.250  0.000  0.750-  26 2.29  44 2.29  12 2.32  58 2.32
  35  0.250  0.500  0.250-  27 2.29  41 2.29   9 2.32  59 2.32
  36  0.250  0.500  0.750-  28 2.29  42 2.29  10 2.32  60 2.32
  37  0.750  0.000  0.250-  29 2.29  47 2.29  15 2.32  61 2.32
  38  0.750  0.000  0.750-  30 2.29  48 2.29  16 2.32  62 2.32
  39  0.750  0.500  0.250-  31 2.29  45 2.29  13 2.32  63 2.32
  40  0.750  0.500  0.750-  32 2.29  46 2.29  14 2.32  64 2.32
  41  0.125  0.375  0.375-  17 2.29  35 2.29   4 2.32  50 2.32
  42  0.125  0.375  0.875-  18 2.29  36 2.29   3 2.32  49 2.32
  43  0.125  0.875  0.375-  19 2.29  33 2.29   2 2.32  52 2.32
  44  0.125  0.875  0.875-  20 2.29  34 2.29   1 2.32  51 2.32
  45  0.625  0.375  0.375-  21 2.29  39 2.29   8 2.32  54 2.32
  46  0.625  0.375  0.875-  22 2.29  40 2.29   7 2.32  53 2.32
  47  0.625  0.875  0.375-  23 2.29  37 2.29   6 2.32  56 2.32
  48  0.625  0.875  0.875-  24 2.29  38 2.29   5 2.32  55 2.32
  49  0.250  0.250  0.000-   9 2.29  57 2.29  42 2.32  26 2.32
  50  0.250  0.250  0.500-  10 2.29  58 2.29  41 2.32  25 2.32
  51  0.250  0.750  0.000-  11 2.29  59 2.29  44 2.32  28 2.32
  52  0.250  0.750  0.500-  12 2.29  60 2.29  43 2.32  27 2.32
  53  0.750  0.250  0.000-  13 2.29  61 2.29  46 2.32  30 2.32
  54  0.750  0.250  0.500-  14 2.29  62 2.29  45 2.32  29 2.32
  55  0.750  0.750  0.000-  15 2.29  63 2.29  48 2.32  32 2.32
  56  0.750  0.750  0.500-  16 2.29  64 2.29  47 2.32  31 2.32
  57  0.125  0.125  0.125-   1 2.29  49 2.29  33 2.32  17 2.32
  58  0.125  0.125  0.625-   2 2.29  50 2.29  34 2.32  18 2.32
  59  0.125  0.625  0.125-   3 2.29  51 2.29  35 2.32  19 2.32
  60  0.125  0.625  0.625-   4 2.29  52 2.29  36 2.32  20 2.32
  61  0.625  0.125  0.125-   5 2.29  53 2.29  37 2.32  21 2.32
  62  0.625  0.125  0.625-   6 2.29  54 2.29  38 2.32  22 2.32
  63  0.625  0.625  0.125-   7 2.29  55 2.29  39 2.32  23 2.32
  64  0.625  0.625  0.625-   8 2.29  56 2.29  40 2.32  24 2.32
 
  LATTYP: Found a simple monoclinic cell.
 ALAT       =    10.4869584723
 B/A-ratio  =     1.0203550065
 C/A-ratio  =     1.0204060228
 COS(beta)  =    -0.0202019835
  
  Lattice vectors:
  
 A1 = (  10.4864125486,  -0.1070040158,   0.0000000000)
 A2 = (   0.0000000000,   0.0000000000, -10.7004205802)
 A3 = (  -0.1070040158,  10.7004205802,   0.0000000000)


Analysis of symmetry for initial positions (statically):
=====================================================================
 Subroutine PRICEL returns following result:
 
  LATTYP: Found a base centered monoclinic cell.
 ALAT       =     5.2434792361
 B/A-ratio  =     1.0203550065
 C/A-ratio  =     0.7071067812
 COS(beta)  =    -0.6925303224
  
  Lattice vectors:
  
 A1 = (  -2.6216031372,   0.0267510040,  -2.6751051451)
 A2 = (  -2.6216031372,   0.0267510040,   2.6751051451)
 A3 = (   2.5948521332,   2.6483541411,   0.0000000000)
 
  32 primitive cells build up your supercell.
 

 Routine SETGRP: Setting up the symmetry group for a 
 simple monoclinic supercell.


 Subroutine GETGRP returns: Found  4 space group operations
 (whereof  2 operations were pure point group operations)
 out of a pool of  4 trial point group operations.


The static configuration has the point symmetry C_2 .
 The point group associated with its full space group is C_2h.


Analysis of symmetry for dynamics (positions and initial velocities):
=====================================================================
 Subroutine PRICEL returns following result:
 
  LATTYP: Found a base centered monoclinic cell.
 ALAT       =     5.2434792361
 B/A-ratio  =     1.0203550065
 C/A-ratio  =     0.7071067812
 COS(beta)  =    -0.6925303224
  
  Lattice vectors:
  
 A1 = (  -2.6216031372,   0.0267510040,  -2.6751051451)
 A2 = (  -2.6216031372,   0.0267510040,   2.6751051451)
 A3 = (   2.5948521332,   2.6483541411,   0.0000000000)
 
  32 primitive cells build up your supercell.
 

 Routine SETGRP: Setting up the symmetry group for a 
 simple monoclinic supercell.


 Subroutine GETGRP returns: Found  4 space group operations
 (whereof  2 operations were pure point group operations)
 out of a pool of  4 trial point group operations.


The dynamic configuration has the point symmetry C_2 .
 The point group associated with its full space group is C_2h.


 Subroutine INISYM returns: Found  4 space group operations
 (whereof  2 operations are pure point group operations),
 and found    32 'primitive' translations


----------------------------------------------------------------------------------------

                                     Primitive cell                                     

  volume of cell :      37.5175

  direct lattice vectors                    reciprocal lattice vectors
    -2.621603137  0.026751004 -2.675105145    -0.188835036  0.185020194 -0.186908541
    -2.621603137  0.026751004  2.675105145    -0.188835036  0.185020194  0.186908541
     2.594852133  2.648354141  0.000000000     0.003814842  0.373855231  0.000000000

  length of vectors
     3.745624936  3.745624936  3.707699725     0.323768352  0.323768352  0.373874694

  position of ions in fractional coordinates (direct lattice)
     0.000000000  0.000000000  0.000000000
     0.750000000  0.250000000  0.500000000

  ion indices of the primitive-cell ions
   primitive index   ion index
                 1           1
                 2          15

----------------------------------------------------------------------------------------

 
 
 KPOINTS: Automatic mesh                          

Automatic generation of k-mesh.
 Grid dimensions read from file:
 generate k-points for:    2    2    2

 Generating k-lattice:

  Cartesian coordinates                     Fractional coordinates (reciprocal lattice)
     0.047685614  0.000476855  0.000000000     0.500000000 -0.000000000  0.000000000
     0.000476855  0.046731904  0.000000000    -0.000000000  0.500000000  0.000000000
     0.000000000  0.000000000  0.046727135     0.000000000  0.000000000  0.500000000

  Length of vectors
     0.047687999  0.046734337  0.046727135

  Shift w.r.t. Gamma in fractional coordinates (k-lattice)
     0.000000000  0.000000000  0.000000000

 
 Subroutine IBZKPT returns following result:
 ===========================================
 
 Found      8 irreducible k-points:
 
 Following reciprocal coordinates:
            Coordinates               Weight
  0.000000  0.000000  0.000000      1.000000
  0.500000 -0.000000  0.000000      1.000000
 -0.000000  0.500000  0.000000      1.000000
  0.500000  0.500000  0.000000      1.000000
  0.000000  0.000000  0.500000      1.000000
  0.500000 -0.000000  0.500000      1.000000
 -0.000000  0.500000  0.500000      1.000000
  0.500000  0.500000  0.500000      1.000000
 
 Following cartesian coordinates:
            Coordinates               Weight
  0.000000  0.000000  0.000000      1.000000
  0.047686  0.000477  0.000000      1.000000
  0.000477  0.046732  0.000000      1.000000
  0.048162  0.047209  0.000000      1.000000
  0.000000  0.000000  0.046727      1.000000
  0.047686  0.000477  0.046727      1.000000
  0.000477  0.046732  0.046727      1.000000
  0.048162  0.047209  0.046727      1.000000
 


--------------------------------------------------------------------------------------------------------




 Dimension of arrays:
   k-points           NKPTS =      8   k-points in BZ     NKDIM =      8   number of bands    NBANDS=    162
   number of dos      NEDOS =    301   number of ions     NIONS =     64
   non local maximal  LDIM  =      4   non local SUM 2l+1 LMDIM =      8
   total plane-waves  NPLWV = 343000
   max r-space proj   IRMAX =   3198   max aug-charges    IRDMAX=  76609
   dimension x,y,z NGX =    70 NGY =   70 NGZ =   70
   dimension x,y,z NGXF=   140 NGYF=  140 NGZF=  140
   support grid    NGXF=   280 NGYF=  280 NGZF=  280
   ions per type =              64
   NGX,Y,Z   is equivalent  to a cutoff of  11.10, 10.87, 10.88 a.u.
   NGXF,Y,Z  is equivalent  to a cutoff of  22.19, 21.75, 21.75 a.u.

 SYSTEM =  Si64                                    
 POSCAR =  Si8                                     

 Startparameter for this run:
   NWRITE =      2    write-flag & timer
   PREC   = accura    normal or accurate (medium, high low for compatibility)
   ISTART =      0    job   : 0-new  1-cont  2-samecut
   ICHARG =      2    charge: 1-file 2-atom 10-const
   ISPIN  =      1    spin polarized calculation?
   LNONCOLLINEAR =      F non collinear calculations
   LSORBIT =      F    spin-orbit coupling
   INIWAV =      1    electr: 0-lowe 1-rand  2-diag
   LASPH  =      F    aspherical Exc in radial PAW
 Electronic Relaxation 1
   ENCUT  =  400.0 eV  29.40 Ry    5.42 a.u.  17.10 17.45 17.45*2*pi/ulx,y,z
   ENINI  =  400.0     initial cutoff
   ENAUG  =  322.1 eV  augmentation charge cutoff
   NELM   =     60;   NELMIN=  8; NELMDL= -5     # of ELM steps 
   EDIFF  = 0.1E-05   stopping-criterion for ELM
   LREAL  =      T    real-space projection
   NLSPLINE    = F    spline interpolate recip. space projectors
   LCOMPAT=      F    compatible to vasp.4.4
   GGA_COMPAT  = F    GGA compatible to vasp.4.4-vasp.4.6
   LMAXPAW     = -100 max onsite density
   LMAXMIX     =    2 max onsite mixed and CHGCAR
   VOSKOWN=      0    Vosko Wilk Nusair interpolation
   ROPT   =   -0.00025
 Ionic relaxation
   EDIFFG = -.1E-01   stopping-criterion for IOM
   NSW    =     60    number of steps for IOM
   NBLOCK =      1;   KBLOCK =     60    inner block; outer block 
   IBRION =      2    ionic relax: 0-MD 1-quasi-New 2-CG
   NFREE  =      1    steps in history (QN), initial steepest desc. (CG)
   ISIF   =      2    stress and relaxation
   IWAVPR =     11    prediction:  0-non 1-charg 2-wave 3-comb
   ISYM   =      2    0-nonsym 1-usesym 2-fastsym
   LCORR  =      T    Harris-Foulkes like correction to forces

   POTIM  = 0.5000    time-step for ionic-motion
   TEIN   =    0.0    initial temperature
   TEBEG  =    0.0;   TEEND  =   0.0 temperature during run
   SMASS  =  -3.00    Nose mass-parameter (am)
   estimated Nose-frequenzy (Omega)   =  0.10E-29 period in steps = 0.13E+47 mass=  -0.251E-26a.u.
   SCALEE = 1.0000    scale energy and forces
   NPACO  =    256;   APACO  = 10.0  distance and # of slots for P.C.
   PSTRESS=    0.0 pullay stress

  Mass of Ions in am
   POMASS =  28.09
  Ionic Valenz
   ZVAL   =   4.00
  Atomic Wigner-Seitz radii
   RWIGS  =  -1.00
  virtual crystal weights 
   VCA    =   1.00
   NELECT =     256.0000    total number of electrons
   NUPDOWN=      -1.0000    fix difference up-down

 DOS related values:
   EMIN   =  10.00;   EMAX   =-10.00  energy-range for DOS
   EFERMI =   0.00;   METHOD = LEGACY      
   ISMEAR =     1;   SIGMA  =   0.20  broadening in eV -4-tet -1-fermi 0-gaus

 Electronic relaxation 2 (details)
   IALGO  =     68    algorithm
   LDIAG  =      T    sub-space diagonalisation (order eigenvalues)
   LSUBROT=      F    optimize rotation matrix (better conditioning)
   TURBO    =      0    0=normal 1=particle mesh
   IRESTART =      0    0=no restart 2=restart with 2 vectors
   NREBOOT  =      0    no. of reboots
   NMIN     =      0    reboot dimension
   EREF     =   0.00    reference energy to select bands
   IMIX   =      4    mixing-type and parameters
     AMIX     =   0.40;   BMIX     =  1.00
     AMIX_MAG =   1.60;   BMIX_MAG =  1.00
     AMIN     =   0.10
     WC   =   100.;   INIMIX=   1;  MIXPRE=   1;  MAXMIX= -45

 Intra band minimization:
   WEIMIN = 0.0010     energy-eigenvalue tresh-hold
   EBREAK =  0.15E-08  absolut break condition
   DEPER  =   0.30     relativ break condition  

   TIME   =   0.40     timestep for ELM

  volume/ion in A,a.u.               =      18.76       126.59
  Fermi-wavevector in a.u.,A,eV,Ry     =   0.978048  1.848242 13.015025  0.956577
  Thomas-Fermi vector in A             =   2.108793
 
 Write flags
   LWAVE        =      F    write WAVECAR
   LDOWNSAMPLE  =      F    k-point downsampling of WAVECAR
   LCHARG       =      F    write CHGCAR
   LVTOT        =      F    write LOCPOT, total local potential
   LVHAR        =      F    write LOCPOT, Hartree potential only
   WRT_POTENTIAL= false  ! write potential to hdf5 file
   LELF         =      F    write electronic localiz. function (ELF)
   LORBIT       =      0    0 simple, 1 ext, 2 COOP (PROOUT), +10 PAW based schemes


 Dipole corrections
   LMONO      =      F    monopole corrections only (constant potential shift)
   LDIPOL     =      F    correct potential (dipole corrections)
   IDIPOL     =      0    1-x, 2-y, 3-z, 4-all directions 
   EPSILON    =  1.0000000 bulk dielectric constant
   LVACPOTAV  =      F  vacuum potentials using an averaging scheme for the charge density
   VACPOTFLAT =  0.1000000 required flatness to determine vacuum potential
 Exchange correlation treatment:
   GGA     = PS    functional components
   XC_C    = 1    coefficients multiplying the functional components
   LIBXC   =     F    Libxc                    
   VOSKOWN =     0    Vosko Wilk Nusair interpolation
   LHFCALC =     F    Hartree Fock is set to
   LHFONE  =     F    Hartree Fock one center treatment
   AEXX    =    0.0000 exact exchange contribution

 Parameters of functionals:
   PS:
     No parameter
 
 Van der Waals corrections
   IVDW    =     0    specifies the selected vdW correction

 Linear response parameters
   LEPSILON=     F    determine dielectric tensor
   LRPA    =     F    only Hartree local field effects (RPA)
   LNABLA  =     F    use nabla operator in PAW spheres
   LVEL    =     F    velocity operator in full k-point grid
   CSHIFT  =0.1000    complex shift for real part using Kramers Kronig
   OMEGAMAX=  -1.0    maximum frequency
   DEG_THRESHOLD= 0.2000000E-02 threshold for treating states as degnerate
   RTIME   =   -0.100 relaxation time in fs
  (WPLASMAI=    0.000 imaginary part of plasma frequency in eV, 0.658/RTIME)
   DFIELD  = 0.0000000 0.0000000 0.0000000 field for delta impulse in time
 
  Optional k-point grid parameters
   LKPOINTS_OPT  =     F    use optional k-point grid
   KPOINTS_OPT_MODE=     1    mode for optional k-point grid
 
 Orbital magnetization related:
   ORBITALMAG=     F  switch on orbital magnetization
   LCHIMAG   =     F  perturbation theory with respect to B field
   DQ        =  0.001000  dq finite difference perturbation B field
   LLRAUG    =     F  two centre corrections for induced B field
   LBONE     =     F  B-component reconstruction in AE one-centre
   LVGVCALC  =     T  calculate vGv susceptibility
   LVGVAPPL  =     F  apply vGv susceptibility instead of pGv for G=0

 Random number generation:
   RANDOM_GENERATOR = DEFAULT
   PCG_SEED         = not used


--------------------------------------------------------------------------------------------------------


 conjugate gradient relaxation of ions
 charge density and potential will be updated during run
 non-spin polarized calculation
 RMM-DIIS sequential band-by-band and
  variant of blocked Davidson during initial phase
 perform sub-space diagonalisation
    before iterative eigenvector-optimisation
 modified Broyden-mixing scheme, WC =      100.0
 initial mixing is a Kerker type mixing with AMIX =  0.4000 and BMIX =      1.0000
 Hartree-type preconditioning will be used
 using additional bands           34
 real space projection scheme for non local part
 use partial core corrections
 calculate Harris-corrections to forces 
   (improved forces if not selfconsistent)
 use gradient corrections 
 use of overlap-Matrix (Vanderbilt PP)
 Methfessel and Paxton  Order N= 1 SIGMA  =   0.20


--------------------------------------------------------------------------------------------------------


  energy-cutoff  :      400.00
  volume of cell :     1200.56
      direct lattice vectors                 reciprocal lattice vectors
    10.486412549 -0.107004016  0.000000000     0.095371229  0.000953711  0.000000000
    -0.107004016 10.700420580  0.000000000     0.000953711  0.093463808  0.000000000
     0.000000000  0.000000000 10.700420580     0.000000000  0.000000000  0.093454271

  length of vectors
    10.486958472 10.700955586 10.700420580     0.095375997  0.093468673  0.093454271


 
 k-points in units of 2pi/SCALE and weight: Automatic mesh                          
   0.00000000  0.00000000  0.00000000       0.125
   0.04768562  0.00047686  0.00000000       0.125
   0.00047686  0.04673191  0.00000000       0.125
   0.04816248  0.04720877  0.00000000       0.125
   0.00000000  0.00000000  0.04672714       0.125
   0.04768562  0.00047686  0.04672714       0.125
   0.00047686  0.04673191  0.04672714       0.125
   0.04816248  0.04720877  0.04672714       0.125
 
 k-points in reciprocal lattice and weights: Automatic mesh                          
   0.00000000  0.00000000  0.00000000       0.125
   0.50000000 -0.00000000  0.00000000       0.125
  -0.00000000  0.50000000  0.00000000       0.125
   0.50000000  0.50000000  0.00000000       0.125
   0.00000000  0.00000000  0.50000000       0.125
   0.50000000 -0.00000000  0.50000000       0.125
  -0.00000000  0.50000000  0.50000000       0.125
   0.50000000  0.50000000  0.50000000       0.125
 
 position of ions in fractional coordinates (direct lattice) 
   0.00000000  0.00000000  0.00000000
   0.00000000  0.00000000  0.50000000
   0.00000000  0.50000000  0.00000000
   0.00000000  0.50000000  0.50000000
   0.50000000  0.00000000  0.00000000
   0.50000000  0.00000000  0.50000000
   0.50000000  0.50000000  0.00000000
   0.50000000  0.50000000  0.50000000
   0.37500000  0.37500000  0.12500000
   0.37500000  0.37500000  0.62500000
   0.37500000  0.87500000  0.12500000
   0.37500000  0.87500000  0.62500000
   0.87500000  0.37500000  0.12500000
   0.87500000  0.37500000  0.62500000
   0.87500000  0.87500000  0.12500000
   0.87500000  0.87500000  0.62500000
   0.00000000  0.25000000  0.25000000
   0.00000000  0.25000000  0.75000000
   0.00000000  0.75000000  0.25000000
   0.00000000  0.75000000  0.75000000
   0.50000000  0.25000000  0.25000000
   0.50000000  0.25000000  0.75000000
   0.50000000  0.75000000  0.25000000
   0.50000000  0.75000000  0.75000000
   0.37500000  0.12500000  0.37500000
   0.37500000  0.12500000  0.87500000
   0.37500000  0.62500000  0.37500000
   0.37500000  0.62500000  0.87500000
   0.87500000  0.12500000  0.37500000
   0.87500000  0.12500000  0.87500000
   0.87500000  0.62500000  0.37500000
   0.87500000  0.62500000  0.87500000
   0.25000000  0.00000000  0.25000000
   0.25000000  0.00000000  0.75000000
   0.25000000  0.50000000  0.25000000
   0.25000000  0.50000000  0.75000000
   0.75000000  0.00000000  0.25000000
   0.75000000  0.00000000  0.75000000
   0.75000000  0.50000000  0.25000000
   0.75000000  0.50000000  0.75000000
   0.12500000  0.37500000  0.37500000
   0.12500000  0.37500000  0.87500000
   0.12500000  0.87500000  0.37500000
   0.12500000  0.87500000  0.87500000
   0.62500000  0.37500000  0.37500000
   0.62500000  0.37500000  0.87500000
   0.62500000  0.87500000  0.37500000
   0.62500000  0.87500000  0.87500000
   0.25000000  0.25000000  0.00000000
   0.25000000  0.25000000  0.50000000
   0.25000000  0.75000000  0.00000000
   0.25000000  0.75000000  0.50000000
   0.75000000  0.25000000  0.00000000
   0.75000000  0.25000000  0.50000000
   0.75000000  0.75000000  0.00000000
   0.75000000  0.75000000  0.50000000
   0.12500000  0.12500000  0.12500000
   0.12500000  0.12500000  0.62500000
   0.12500000  0.62500000  0.12500000
   0.12500000  0.62500000  0.62500000
   0.62500000  0.12500000  0.12500000
   0.62500000  0.12500000  0.62500000
   0.62500000  0.62500000  0.12500000
   0.62500000  0.62500000  0.62500000
 
 position of ions in cartesian coordinates  (Angst):
   0.00000000  0.00000000  0.00000000
   0.00000000  0.00000000  5.35021029
  -0.05350201  5.35021029  0.00000000
  -0.05350201  5.35021029  5.35021029
   5.24320627 -0.05350201  0.00000000
   5.24320627 -0.05350201  5.35021029
   5.18970427  5.29670828  0.00000000
   5.18970427  5.29670828  5.35021029
   3.89227820  3.97253121  1.33755257
   3.89227820  3.97253121  6.68776286
   3.83877619  9.32274150  1.33755257
   3.83877619  9.32274150  6.68776286
   9.13548447  3.91902920  1.33755257
   9.13548447  3.91902920  6.68776286
   9.08198247  9.26923949  1.33755257
   9.08198247  9.26923949  6.68776286
  -0.02675100  2.67510515  2.67510515
  -0.02675100  2.67510515  8.02531544
  -0.08025301  8.02531544  2.67510515
  -0.08025301  8.02531544  8.02531544
   5.21645527  2.62160314  2.67510515
   5.21645527  2.62160314  8.02531544
   5.16295326  7.97181343  2.67510515
   5.16295326  7.97181343  8.02531544
   3.91902920  1.29742607  4.01265772
   3.91902920  1.29742607  9.36286801
   3.86552720  6.64763636  4.01265772
   3.86552720  6.64763636  9.36286801
   9.16223548  1.24392406  4.01265772
   9.16223548  1.24392406  9.36286801
   9.10873347  6.59413435  4.01265772
   9.10873347  6.59413435  9.36286801
   2.62160314 -0.02675100  2.67510515
   2.62160314 -0.02675100  8.02531544
   2.56810113  5.32345929  2.67510515
   2.56810113  5.32345929  8.02531544
   7.86480941 -0.08025301  2.67510515
   7.86480941 -0.08025301  8.02531544
   7.81130740  5.26995728  2.67510515
   7.81130740  5.26995728  8.02531544
   1.27067506  3.99928222  4.01265772
   1.27067506  3.99928222  9.36286801
   1.21717305  9.34949251  4.01265772
   1.21717305  9.34949251  9.36286801
   6.51388134  3.94578021  4.01265772
   6.51388134  3.94578021  9.36286801
   6.46037933  9.29599050  4.01265772
   6.46037933  9.29599050  9.36286801
   2.59485213  2.64835414  0.00000000
   2.59485213  2.64835414  5.35021029
   2.54135013  7.99856443  0.00000000
   2.54135013  7.99856443  5.35021029
   7.83805841  2.59485213  0.00000000
   7.83805841  2.59485213  5.35021029
   7.78455640  7.94506242  0.00000000
   7.78455640  7.94506242  5.35021029
   1.29742607  1.32417707  1.33755257
   1.29742607  1.32417707  6.68776286
   1.24392406  6.67438736  1.33755257
   1.24392406  6.67438736  6.68776286
   6.54063234  1.27067506  1.33755257
   6.54063234  1.27067506  6.68776286
   6.48713033  6.62088535  1.33755257
   6.48713033  6.62088535  6.68776286
 


--------------------------------------------------------------------------------------------------------


 k-point     1 :   0.0000 0.0000 0.0000  plane waves:   21821
 k-point     2 :   0.5000-0.0000 0.0000  plane waves:   21810
 k-point     3 :  -0.0000 0.5000 0.0000  plane waves:   21796
 k-point     4 :   0.5000 0.5000 0.0000  plane waves:   21840
 k-point     5 :   0.0000 0.0000 0.5000  plane waves:   21782
 k-point     6 :   0.5000-0.0000 0.5000  plane waves:   21788
 k-point     7 :  -0.0000 0.5000 0.5000  plane waves:   21780
 k-point     8 :   0.5000 0.5000 0.5000  plane waves:   21824

 maximum and minimum number of plane-waves per node :      1847     1778

 maximum number of plane-waves:     21840
 maximum index in each direction: 
   IXMAX=   17   IYMAX=   17   IZMAX=   17
   IXMIN=  -17   IYMIN=  -17   IZMIN=  -17


 real space projection operators:
  total allocation   :      12231.50 KBytes
  max/ min on nodes  :       1058.00        886.25


 parallel 3D FFT for wavefunctions:
    minimum data exchange during FFTs selected (reduces bandwidth)
 parallel 3D FFT for charge:
    minimum data exchange during FFTs selected (reduces bandwidth)


 total amount of memory used by VASP MPI-rank0    79215. kBytes
=======================================================================

   base      :      30000. kBytes
   nonlr-proj:       4729. kBytes
   fftplans  :      17992. kBytes
   grid      :       6881. kBytes
   one-center:         18. kBytes
   wavefun   :      19595. kBytes
 
     INWAV:  cpu time      0.0000: real time      0.0000
 Broyden mixing: mesh for mixing (old mesh)
   NGX = 35   NGY = 35   NGZ = 35
  (NGX  =140   NGY  =140   NGZ  =140)
  gives a total of  42875 points

 initial charge density was supplied:
 charge density of overlapping atoms calculated
 number of electron     256.0000000 magnetization 
 keeping initial charge density in first step


--------------------------------------------------------------------------------------------------------


 Maximum index for non-local projection operator          286
 Maximum index for augmentation-charges         3794 (set IRDMAX)


--------------------------------------------------------------------------------------------------------


 First call to EWALD:  gamma=   0.167
 Maximum number of real-space cells 3x 3x 3
 Maximum number of reciprocal cells 3x 3x 3

    FEWALD:  cpu time      0.0036: real time      0.0036


--------------------------------------- Ionic step        1  -------------------------------------------




--------------------------------------- Iteration      1(   1)  ---------------------------------------


    POTLOK:  cpu time      0.0909: real time      0.0982
    SETDIJ:  cpu time      0.0846: real time      0.0900
     EDDAV:  cpu time      1.2566: real time      1.3394
       DOS:  cpu time      0.0115: real time      0.0136
    --------------------------------------------
      LOOP:  cpu time      1.4436: real time      1.5412

 eigenvalue-minimisations  :  2592
 total energy-change (2. order) : 0.5722999E+03  (-0.8490170E+04)
 number of electron     256.0000000 magnetization 
 augmentation part      256.0000000 magnetization 

 Free energy of the ion-electron system (eV)
  ---------------------------------------------------
  alpha Z        PSCENC =       114.84977139
  Ewald energy   TEWEN  =     -7473.41737008
  -Hartree energ DENC   =      -321.71252128
  -exchange      EXHF   =         0.00000000
  -V(xc)+E(xc)   XCENC  =      -550.85176856
  PAW double counting   =      5598.62625415    -4492.17844134
  entropy T*S    EENTRO =        -0.01776409
  eigenvalues    EBANDS =      1132.20591710
  atomic energy  EATOM  =      6564.79586099
  Solvation  Ediel_sol  =         0.00000000
  ---------------------------------------------------
  free energy    TOTEN  =       572.29993827 eV

  energy without entropy =      572.31770236  energy(sigma->0) =      572.30585963


--------------------------------------------------------------------------------------------------------




--------------------------------------- Iteration      1(   2)  ---------------------------------------


     EDDAV:  cpu time      1.3275: real time      1.3489
       DOS:  cpu time      0.0014: real time      0.0014
    --------------------------------------------
      LOOP:  cpu time      1.3289: real time      1.3503

 eigenvalue-minimisations  :  3112
 total energy-change (2. order) :-0.8817235E+03  (-0.8371525E+03)
 number of electron     256.0000000 magnetization 
 augmentation part      256.0000000 magnetization 

 Free energy of the ion-electron system (eV)
  ---------------------------------------------------
  alpha Z        PSCENC =       114.84977139
  Ewald energy   TEWEN  =     -7473.41737008
  -Hartree energ DENC   =      -321.71252128
  -exchange      EXHF   =         0.00000000
  -V(xc)+E(xc)   XCENC  =      -550.85176856
  PAW double counting   =      5598.62625415    -4492.17844134
  entropy T*S    EENTRO =         0.00585897
  eigenvalues    EBANDS =       250.45880781
  atomic energy  EATOM  =      6564.79586099
  Solvation  Ediel_sol  =         0.00000000
  ---------------------------------------------------
  free energy    TOTEN  =      -309.42354797 eV

  energy without entropy =     -309.42940694  energy(sigma->0) =     -309.42550096


--------------------------------------------------------------------------------------------------------




--------------------------------------- Iteration      1(   3)  ---------------------------------------


     EDDAV:  cpu time      1.3592: real time      1.4009
       DOS:  cpu time      0.0019: real time      0.0019
    --------------------------------------------
      LOOP:  cpu time      1.3611: real time      1.4027

 eigenvalue-minimisations  :  3128
 total energy-change (2. order) :-0.6303536E+02  (-0.6177464E+02)
 number of electron     256.0000000 magnetization 
 augmentation part      256.0000000 magnetization 

 Free energy of the ion-electron system (eV)
  ---------------------------------------------------
  alpha Z        PSCENC =       114.84977139
  Ewald energy   TEWEN  =     -7473.41737008
  -Hartree energ DENC   =      -321.71252128
  -exchange      EXHF   =         0.00000000
  -V(xc)+E(xc)   XCENC  =      -550.85176856
  PAW double counting   =      5598.62625415    -4492.17844134
  entropy T*S    EENTRO =         0.00787119
  eigenvalues    EBANDS =       187.42143982
  atomic energy  EATOM  =      6564.79586099
  Solvation  Ediel_sol  =         0.00000000
  ---------------------------------------------------
  free energy    TOTEN  =      -372.45890373 eV

  energy without entropy =     -372.46677492  energy(sigma->0) =     -372.46152746


--------------------------------------------------------------------------------------------------------




--------------------------------------- Iteration      1(   4)  ---------------------------------------


     EDDAV:  cpu time      1.3450: real time      1.3604
       DOS:  cpu time      0.0013: real time      0.0013
    --------------------------------------------
      LOOP:  cpu time      1.3463: real time      1.3617

 eigenvalue-minimisations  :  3136
 total energy-change (2. order) :-0.1603991E+01  (-0.1592625E+01)
 number of electron     256.0000000 magnetization 
 augmentation part      256.0000000 magnetization 

 Free energy of the ion-electron system (eV)
  ---------------------------------------------------
  alpha Z        PSCENC =       114.84977139
  Ewald energy   TEWEN  =     -7473.41737008
  -Hartree energ DENC   =      -321.71252128
  -exchange      EXHF   =         0.00000000
  -V(xc)+E(xc)   XCENC  =      -550.85176856
  PAW double counting   =      5598.62625415    -4492.17844134
  entropy T*S    EENTRO =         0.00769518
  eigenvalues    EBANDS =       185.81762463
  atomic energy  EATOM  =      6564.79586099
  Solvation  Ediel_sol  =         0.00000000
  ---------------------------------------------------
  free energy    TOTEN  =      -374.06289493 eV

  energy without entropy =     -374.07059011  energy(sigma->0) =     -374.06545999


--------------------------------------------------------------------------------------------------------




--------------------------------------- Iteration      1(   5)  ---------------------------------------


     EDDAV:  cpu time      1.3317: real time      1.3505
       DOS:  cpu time      0.0018: real time      0.0018
    CHARGE:  cpu time      0.2506: real time      0.2546
    MIXING:  cpu time      0.0088: real time      0.0115
    --------------------------------------------
      LOOP:  cpu time      1.5930: real time      1.6184

 eigenvalue-minimisations  :  3094
 total energy-change (2. order) :-0.5108194E-01  (-0.5097940E-01)
 number of electron     256.0000001 magnetization 
 augmentation part      -15.1207176 magnetization 

 Broyden mixing:
  rms(total) = 0.30611E+01    rms(broyden)= 0.30611E+01
  rms(prec ) = 0.33686E+01
  weight for this iteration     100.00

 Free energy of the ion-electron system (eV)
  ---------------------------------------------------
  alpha Z        PSCENC =       114.84977139
  Ewald energy   TEWEN  =     -7473.41737008
  -Hartree energ DENC   =      -321.71252128
  -exchange      EXHF   =         0.00000000
  -V(xc)+E(xc)   XCENC  =      -550.85176856
  PAW double counting   =      5598.62625415    -4492.17844134
  entropy T*S    EENTRO =         0.00769813
  eigenvalues    EBANDS =       185.76653975
  atomic energy  EATOM  =      6564.79586099
  Solvation  Ediel_sol  =         0.00000000
  ---------------------------------------------------
  free energy    TOTEN  =      -374.11397686 eV

  energy without entropy =     -374.12167499  energy(sigma->0) =     -374.11654291


--------------------------------------------------------------------------------------------------------




--------------------------------------- Iteration      1(   6)  ---------------------------------------


    POTLOK:  cpu time      0.0802: real time      0.0958
    SETDIJ:  cpu time      0.0714: real time      0.0716
    EDDIAG:  cpu time      0.1386: real time      0.1410
  RMM-DIIS:  cpu time      0.7046: real time      0.7096
    ORTHCH:  cpu time      0.0199: real time      0.0199
       DOS:  cpu time      0.0022: real time      0.0022
    CHARGE:  cpu time      0.2362: real time      0.2372
    MIXING:  cpu time      0.0070: real time      0.0105
    --------------------------------------------
      LOOP:  cpu time      1.2601: real time      1.2879

 eigenvalue-minimisations  :  2592
 total energy-change (2. order) : 0.6039360E+01  (-0.3189234E+00)
 number of electron     256.0000001 magnetization 
 augmentation part      -14.9343668 magnetization 

 Broyden mixing:
  rms(total) = 0.18470E+01    rms(broyden)= 0.18470E+01
  rms(prec ) = 0.20192E+01
  weight for this iteration     100.00

 eigenvalues of (default mixing * dielectric matrix)
  average eigenvalue GAMMA=   2.5149
  2.5149

 Free energy of the ion-electron system (eV)
  ---------------------------------------------------
  alpha Z        PSCENC =       114.84977139
  Ewald energy   TEWEN  =     -7473.41737008
  -Hartree energ DENC   =      -371.23412458
  -exchange      EXHF   =         0.00000000
  -V(xc)+E(xc)   XCENC  =      -543.01083755
  PAW double counting   =     13278.25741094   -12175.79976528
  entropy T*S    EENTRO =         0.02323390
  eigenvalues    EBANDS =       237.46120332
  atomic energy  EATOM  =      6564.79586099
  Solvation  Ediel_sol  =         0.00000000
  ---------------------------------------------------
  free energy    TOTEN  =      -368.07461696 eV

  energy without entropy =     -368.09785086  energy(sigma->0) =     -368.08236159


--------------------------------------------------------------------------------------------------------




--------------------------------------- Iteration      1(   7)  ---------------------------------------


    POTLOK:  cpu time      0.0780: real time      0.0946
    SETDIJ:  cpu time      0.0725: real time      0.0727
    EDDIAG:  cpu time      0.1409: real time      0.1413
  RMM-DIIS:  cpu time      0.7084: real time      0.7106
    ORTHCH:  cpu time      0.0207: real time      0.0208
       DOS:  cpu time      0.0012: real time      0.0012
    CHARGE:  cpu time      0.2348: real time      0.2359
    MIXING:  cpu time      0.0103: real time      0.0116
    --------------------------------------------
      LOOP:  cpu time      1.2668: real time      1.2888

 eigenvalue-minimisations  :  2646
 total energy-change (2. order) : 0.2615523E+01  (-0.8043962E+00)
 number of electron     256.0000001 magnetization 
 augmentation part      -14.6722026 magnetization 

 Broyden mixing:
  rms(total) = 0.11870E+00    rms(broyden)= 0.11870E+00
  rms(prec ) = 0.14953E+00
  weight for this iteration     100.00

 eigenvalues of (default mixing * dielectric matrix)
  average eigenvalue GAMMA=   2.3073
  2.3073  2.3073

 Free energy of the ion-electron system (eV)
  ---------------------------------------------------
  alpha Z        PSCENC =       114.84977139
  Ewald energy   TEWEN  =     -7473.41737008
  -Hartree energ DENC   =      -452.71739375
  -exchange      EXHF   =         0.00000000
  -V(xc)+E(xc)   XCENC  =      -529.52133980
  PAW double counting   =     32290.09805839   -31193.24189570
  entropy T*S    EENTRO =         0.01830184
  eigenvalues    EBANDS =       313.67691267
  atomic energy  EATOM  =      6564.79586099
  Solvation  Ediel_sol  =         0.00000000
  ---------------------------------------------------
  free energy    TOTEN  =      -365.45909406 eV

  energy without entropy =     -365.47739590  energy(sigma->0) =     -365.46519467


--------------------------------------------------------------------------------------------------------




--------------------------------------- Iteration      1(   8)  ---------------------------------------


    POTLOK:  cpu time      0.0730: real time      0.0875
    SETDIJ:  cpu time      0.0775: real time      0.0778
    EDDIAG:  cpu time      0.1398: real time      0.1403
  RMM-DIIS:  cpu time      0.7094: real time      0.7116
    ORTHCH:  cpu time      0.0205: real time      0.0205
       DOS:  cpu time      0.0021: real time      0.0021
    CHARGE:  cpu time      0.2358: real time      0.2367
    MIXING:  cpu time      0.0100: real time      0.0106
    --------------------------------------------
      LOOP:  cpu time      1.2682: real time      1.2871

 eigenvalue-minimisations  :  2619
 total energy-change (2. order) :-0.3197731E-01  (-0.7572228E-01)
 number of electron     256.0000001 magnetization 
 augmentation part      -14.7322842 magnetization 

 Broyden mixing:
  rms(total) = 0.55480E-01    rms(broyden)= 0.55480E-01
  rms(prec ) = 0.59730E-01
  weight for this iteration     100.00

 eigenvalues of (default mixing * dielectric matrix)
  average eigenvalue GAMMA=   2.0609
  2.5576  1.8125  1.8125

 Free energy of the ion-electron system (eV)
  ---------------------------------------------------
  alpha Z        PSCENC =       114.84977139
  Ewald energy   TEWEN  =     -7473.41737008
  -Hartree energ DENC   =      -443.09949178
  -exchange      EXHF   =         0.00000000
  -V(xc)+E(xc)   XCENC  =      -530.34539285
  PAW double counting   =     32014.91797540   -30916.95363599
  entropy T*S    EENTRO =         0.02100081
  eigenvalues    EBANDS =       303.74021074
  atomic energy  EATOM  =      6564.79586099
  Solvation  Ediel_sol  =         0.00000000
  ---------------------------------------------------
  free energy    TOTEN  =      -365.49107137 eV

  energy without entropy =     -365.51207218  energy(sigma->0) =     -365.49807164


--------------------------------------------------------------------------------------------------------




--------------------------------------- Iteration      1(   9)  ---------------------------------------


    POTLOK:  cpu time      0.0784: real time      0.0921
    SETDIJ:  cpu time      0.0713: real time      0.0715
    EDDIAG:  cpu time      0.1334: real time      0.1338
  RMM-DIIS:  cpu time      0.7132: real time      0.7154
    ORTHCH:  cpu time      0.0202: real time      0.0202
       DOS:  cpu time      0.0022: real time      0.0022
    CHARGE:  cpu time      0.2346: real time      0.2355
    MIXING:  cpu time      0.0117: real time      0.0117
    --------------------------------------------
      LOOP:  cpu time      1.2649: real time      1.2824

 eigenvalue-minimisations  :  2672
 total energy-change (2. order) :-0.2320370E-01  (-0.2272778E-01)
 number of electron     256.0000001 magnetization 
 augmentation part      -14.7166948 magnetization 

 Broyden mixing:
  rms(total) = 0.62049E-01    rms(broyden)= 0.62049E-01
  rms(prec ) = 0.70559E-01
  weight for this iteration     100.00

 eigenvalues of (default mixing * dielectric matrix)
  average eigenvalue GAMMA=   1.6761
  2.5541  1.9722  1.9722  0.2060

 Free energy of the ion-electron system (eV)
  ---------------------------------------------------
  alpha Z        PSCENC =       114.84977139
  Ewald energy   TEWEN  =     -7473.41737008
  -Hartree energ DENC   =      -446.80996030
  -exchange      EXHF   =         0.00000000
  -V(xc)+E(xc)   XCENC  =      -529.84983989
  PAW double counting   =     32495.33219266   -31397.68834681
  entropy T*S    EENTRO =         0.02026494
  eigenvalues    EBANDS =       307.25315203
  atomic energy  EATOM  =      6564.79586099
  Solvation  Ediel_sol  =         0.00000000
  ---------------------------------------------------
  free energy    TOTEN  =      -365.51427508 eV

  energy without entropy =     -365.53454002  energy(sigma->0) =     -365.52103006


--------------------------------------------------------------------------------------------------------




--------------------------------------- Iteration      1(  10)  ---------------------------------------


    POTLOK:  cpu time      0.0730: real time      0.0889
    SETDIJ:  cpu time      0.0724: real time      0.0726
    EDDIAG:  cpu time      0.1335: real time      0.1340
  RMM-DIIS:  cpu time      0.7175: real time      0.7198
    ORTHCH:  cpu time      0.0200: real time      0.0200
       DOS:  cpu time      0.0018: real time      0.0018
    CHARGE:  cpu time      0.2347: real time      0.2356
    MIXING:  cpu time      0.0108: real time      0.0108
    --------------------------------------------
      LOOP:  cpu time      1.2638: real time      1.2835

 eigenvalue-minimisations  :  2709
 total energy-change (2. order) :-0.4995762E-02  (-0.4101588E-02)
 number of electron     256.0000001 magnetization 
 augmentation part      -14.7224826 magnetization 

 Broyden mixing:
  rms(total) = 0.92740E-01    rms(broyden)= 0.92740E-01
  rms(prec ) = 0.10065E+00
  weight for this iteration     100.00

 eigenvalues of (default mixing * dielectric matrix)
  average eigenvalue GAMMA=   1.6575
  2.6889  2.3329  1.7569  0.7545  0.7545

 Free energy of the ion-electron system (eV)
  ---------------------------------------------------
  alpha Z        PSCENC =       114.84977139
  Ewald energy   TEWEN  =     -7473.41737008
  -Hartree energ DENC   =      -447.10990771
  -exchange      EXHF   =         0.00000000
  -V(xc)+E(xc)   XCENC  =      -529.81674614
  PAW double counting   =     32572.91609609   -31475.28283268
  entropy T*S    EENTRO =         0.02017213
  eigenvalues    EBANDS =       307.52568518
  atomic energy  EATOM  =      6564.79586099
  Solvation  Ediel_sol  =         0.00000000
  ---------------------------------------------------
  free energy    TOTEN  =      -365.51927084 eV

  energy without entropy =     -365.53944297  energy(sigma->0) =     -365.52599488


--------------------------------------------------------------------------------------------------------




--------------------------------------- Iteration      1(  11)  ---------------------------------------


    POTLOK:  cpu time      0.0788: real time      0.0954
    SETDIJ:  cpu time      0.0704: real time      0.0706
    EDDIAG:  cpu time      0.1351: real time      0.1355
  RMM-DIIS:  cpu time      0.6963: real time      0.6985
    ORTHCH:  cpu time      0.0200: real time      0.0201
       DOS:  cpu time      0.0017: real time      0.0017
    CHARGE:  cpu time      0.2354: real time      0.2364
    MIXING:  cpu time      0.0105: real time      0.0106
    --------------------------------------------
      LOOP:  cpu time      1.2482: real time      1.2686

 eigenvalue-minimisations  :  2592
 total energy-change (2. order) : 0.5131934E-02  (-0.1597413E-02)
 number of electron     256.0000001 magnetization 
 augmentation part      -14.7379397 magnetization 

 Broyden mixing:
  rms(total) = 0.53657E-01    rms(broyden)= 0.53656E-01
  rms(prec ) = 0.54091E-01
  weight for this iteration     100.00

 eigenvalues of (default mixing * dielectric matrix)
  average eigenvalue GAMMA=   1.5198
  2.6132  2.6132  1.3904  1.3904  0.7807  0.3313

 Free energy of the ion-electron system (eV)
  ---------------------------------------------------
  alpha Z        PSCENC =       114.84977139
  Ewald energy   TEWEN  =     -7473.41737008
  -Hartree energ DENC   =      -444.15653307
  -exchange      EXHF   =         0.00000000
  -V(xc)+E(xc)   XCENC  =      -530.05082272
  PAW double counting   =     32407.78108418   -31309.87924189
  entropy T*S    EENTRO =         0.02106540
  eigenvalues    EBANDS =       304.54204689
  atomic energy  EATOM  =      6564.79586099
  Solvation  Ediel_sol  =         0.00000000
  ---------------------------------------------------
  free energy    TOTEN  =      -365.51413891 eV

  energy without entropy =     -365.53520431  energy(sigma->0) =     -365.52116071


--------------------------------------------------------------------------------------------------------




--------------------------------------- Iteration      1(  12)  ---------------------------------------


    POTLOK:  cpu time      0.0778: real time      0.0957
    SETDIJ:  cpu time      0.0709: real time      0.0712
    EDDIAG:  cpu time      0.1330: real time      0.1334
  RMM-DIIS:  cpu time      0.6934: real time      0.6955
    ORTHCH:  cpu time      0.0199: real time      0.0199
       DOS:  cpu time      0.0018: real time      0.0018
    CHARGE:  cpu time      0.2351: real time      0.2360
    MIXING:  cpu time      0.0108: real time      0.0109
    --------------------------------------------
      LOOP:  cpu time      1.2426: real time      1.2644

 eigenvalue-minimisations  :  2617
 total energy-change (2. order) :-0.2107791E-03  (-0.1940424E-03)
 number of electron     256.0000001 magnetization 
 augmentation part      -14.7407913 magnetization 

 Broyden mixing:
  rms(total) = 0.50102E-01    rms(broyden)= 0.50102E-01
  rms(prec ) = 0.50345E-01
  weight for this iteration     100.00

 eigenvalues of (default mixing * dielectric matrix)
  average eigenvalue GAMMA=   1.4617
  2.6085  2.6085  1.8731  1.0860  0.8593  0.4708  0.7258

 Free energy of the ion-electron system (eV)
  ---------------------------------------------------
  alpha Z        PSCENC =       114.84977139
  Ewald energy   TEWEN  =     -7473.41737008
  -Hartree energ DENC   =      -444.05582681
  -exchange      EXHF   =         0.00000000
  -V(xc)+E(xc)   XCENC  =      -530.07133982
  PAW double counting   =     32326.18924989   -31228.29821201
  entropy T*S    EENTRO =         0.02108173
  eigenvalues    EBANDS =       304.47243504
  atomic energy  EATOM  =      6564.79586099
  Solvation  Ediel_sol  =         0.00000000
  ---------------------------------------------------
  free energy    TOTEN  =      -365.51434969 eV

  energy without entropy =     -365.53543142  energy(sigma->0) =     -365.52137693


--------------------------------------------------------------------------------------------------------




--------------------------------------- Iteration      1(  13)  ---------------------------------------


    POTLOK:  cpu time      0.0721: real time      0.0888
    SETDIJ:  cpu time      0.0733: real time      0.0739
    EDDIAG:  cpu time      0.1332: real time      0.1342
  RMM-DIIS:  cpu time      0.7270: real time      0.7338
    ORTHCH:  cpu time      0.0203: real time      0.0205
       DOS:  cpu time      0.0016: real time      0.0016
    CHARGE:  cpu time      0.2352: real time      0.2362
    MIXING:  cpu time      0.0113: real time      0.0113
    --------------------------------------------
      LOOP:  cpu time      1.2740: real time      1.3004

 eigenvalue-minimisations  :  2713
 total energy-change (2. order) :-0.6765076E-04  (-0.3602069E-04)
 number of electron     256.0000001 magnetization 
 augmentation part      -14.7414186 magnetization 

 Broyden mixing:
  rms(total) = 0.58285E-01    rms(broyden)= 0.58285E-01
  rms(prec ) = 0.58504E-01
  weight for this iteration     100.00

 eigenvalues of (default mixing * dielectric matrix)
  average eigenvalue GAMMA=   1.7180
  2.9283  2.9283  2.3151  2.3151  0.9583  0.8878  0.8878  0.5232

 Free energy of the ion-electron system (eV)
  ---------------------------------------------------
  alpha Z        PSCENC =       114.84977139
  Ewald energy   TEWEN  =     -7473.41737008
  -Hartree energ DENC   =      -444.10908893
  -exchange      EXHF   =         0.00000000
  -V(xc)+E(xc)   XCENC  =      -530.05617172
  PAW double counting   =     32396.76693438   -31298.87872751
  entropy T*S    EENTRO =         0.02108461
  eigenvalues    EBANDS =       304.51328953
  atomic energy  EATOM  =      6564.79586099
  Solvation  Ediel_sol  =         0.00000000
  ---------------------------------------------------
  free energy    TOTEN  =      -365.51441734 eV

  energy without entropy =     -365.53550195  energy(sigma->0) =     -365.52144554


--------------------------------------------------------------------------------------------------------




--------------------------------------- Iteration      1(  14)  ---------------------------------------


    POTLOK:  cpu time      0.0745: real time      0.0926
    SETDIJ:  cpu time      0.0749: real time      0.0751
    EDDIAG:  cpu time      0.1344: real time      0.1348
  RMM-DIIS:  cpu time      0.6912: real time      0.6936
    ORTHCH:  cpu time      0.0198: real time      0.0199
       DOS:  cpu time      0.0020: real time      0.0020
    CHARGE:  cpu time      0.2357: real time      0.2364
    MIXING:  cpu time      0.0107: real time      0.0108
    --------------------------------------------
      LOOP:  cpu time      1.2432: real time      1.2651

 eigenvalue-minimisations  :  2611
 total energy-change (2. order) :-0.2486678E-05  (-0.9738902E-05)
 number of electron     256.0000001 magnetization 
 augmentation part      -14.7413165 magnetization 

 Broyden mixing:
  rms(total) = 0.20336E-01    rms(broyden)= 0.20336E-01
  rms(prec ) = 0.20574E-01
  weight for this iteration     100.00

 eigenvalues of (default mixing * dielectric matrix)
  average eigenvalue GAMMA=   1.5289
  2.6395  2.6395  2.4449  2.1525  0.9655  0.9303  0.9303  0.5290  0.5290

 Free energy of the ion-electron system (eV)
  ---------------------------------------------------
  alpha Z        PSCENC =       114.84977139
  Ewald energy   TEWEN  =     -7473.41737008
  -Hartree energ DENC   =      -443.97667113
  -exchange      EXHF   =         0.00000000
  -V(xc)+E(xc)   XCENC  =      -530.09877693
  PAW double counting   =     32064.90750554   -30967.03831647
  entropy T*S    EENTRO =         0.02108282
  eigenvalues    EBANDS =       304.44249404
  atomic energy  EATOM  =      6564.79586099
  Solvation  Ediel_sol  =         0.00000000
  ---------------------------------------------------
  free energy    TOTEN  =      -365.51441982 eV

  energy without entropy =     -365.53550265  energy(sigma->0) =     -365.52144743


--------------------------------------------------------------------------------------------------------




--------------------------------------- Iteration      1(  15)  ---------------------------------------


    POTLOK:  cpu time      0.0711: real time      0.0895
    SETDIJ:  cpu time      0.0735: real time      0.0741
    EDDIAG:  cpu time      0.1546: real time      0.1559
  RMM-DIIS:  cpu time      0.7142: real time      0.7203
    ORTHCH:  cpu time      0.0200: real time      0.0202
       DOS:  cpu time      0.0022: real time      0.0022
    CHARGE:  cpu time      0.2353: real time      0.2374
    MIXING:  cpu time      0.0106: real time      0.0107
    --------------------------------------------
      LOOP:  cpu time      1.2816: real time      1.3102

 eigenvalue-minimisations  :  2639
 total energy-change (2. order) :-0.3617755E-04  (-0.3790944E-05)
 number of electron     256.0000001 magnetization 
 augmentation part      -14.7415827 magnetization 

 Broyden mixing:
  rms(total) = 0.14101E-01    rms(broyden)= 0.14101E-01
  rms(prec ) = 0.14257E-01
  weight for this iteration     100.00

 eigenvalues of (default mixing * dielectric matrix)
  average eigenvalue GAMMA=   1.4944
  2.7214  2.7214  2.2137  2.0926  0.8848  0.8848  1.0109  1.0109  0.8730  0.5303

 Free energy of the ion-electron system (eV)
  ---------------------------------------------------
  alpha Z        PSCENC =       114.84977139
  Ewald energy   TEWEN  =     -7473.41737008
  -Hartree energ DENC   =      -443.95433226
  -exchange      EXHF   =         0.00000000
  -V(xc)+E(xc)   XCENC  =      -530.09704518
  PAW double counting   =     32047.07155204   -30949.20067435
  entropy T*S    EENTRO =         0.02110745
  eigenvalues    EBANDS =       304.41667399
  atomic energy  EATOM  =      6564.79586099
  Solvation  Ediel_sol  =         0.00000000
  ---------------------------------------------------
  free energy    TOTEN  =      -365.51445600 eV

  energy without entropy =     -365.53556346  energy(sigma->0) =     -365.52149182


--------------------------------------------------------------------------------------------------------




--------------------------------------- Iteration      1(  16)  ---------------------------------------


    POTLOK:  cpu time      0.0795: real time      0.0979
    SETDIJ:  cpu time      0.0721: real time      0.0726
    EDDIAG:  cpu time      0.1373: real time      0.1380
  RMM-DIIS:  cpu time      0.6976: real time      0.7060
    ORTHCH:  cpu time      0.0203: real time      0.0203
       DOS:  cpu time      0.0025: real time      0.0026
    CHARGE:  cpu time      0.2360: real time      0.2368
    MIXING:  cpu time      0.0114: real time      0.0118
    --------------------------------------------
      LOOP:  cpu time      1.2567: real time      1.2860

 eigenvalue-minimisations  :  2592
 total energy-change (2. order) :-0.2245334E-04  (-0.1899821E-05)
 number of electron     256.0000001 magnetization 
 augmentation part      -14.7414246 magnetization 

 Broyden mixing:
  rms(total) = 0.82789E-02    rms(broyden)= 0.82788E-02
  rms(prec ) = 0.83346E-02
  weight for this iteration     100.00

 eigenvalues of (default mixing * dielectric matrix)
  average eigenvalue GAMMA=   1.4584
  2.7502  2.7502  2.2090  2.2090  1.0827  1.0827  0.9774  0.9774  0.8604  0.5718
  0.5718

 Free energy of the ion-electron system (eV)
  ---------------------------------------------------
  alpha Z        PSCENC =       114.84977139
  Ewald energy   TEWEN  =     -7473.41737008
  -Hartree energ DENC   =      -444.02435001
  -exchange      EXHF   =         0.00000000
  -V(xc)+E(xc)   XCENC  =      -530.08898552
  PAW double counting   =     32038.54337055   -30940.67312450
  entropy T*S    EENTRO =         0.02111718
  eigenvalues    EBANDS =       304.47923155
  atomic energy  EATOM  =      6564.79586099
  Solvation  Ediel_sol  =         0.00000000
  ---------------------------------------------------
  free energy    TOTEN  =      -365.51447846 eV

  energy without entropy =     -365.53559564  energy(sigma->0) =     -365.52151752


--------------------------------------------------------------------------------------------------------




--------------------------------------- Iteration      1(  17)  ---------------------------------------


    POTLOK:  cpu time      0.0739: real time      0.0896
    SETDIJ:  cpu time      0.0784: real time      0.0787
    EDDIAG:  cpu time      0.1351: real time      0.1355
  RMM-DIIS:  cpu time      0.6465: real time      0.6488
    ORTHCH:  cpu time      0.0197: real time      0.0198
       DOS:  cpu time      0.0022: real time      0.0022
    CHARGE:  cpu time      0.2650: real time      0.2685
    MIXING:  cpu time      0.0119: real time      0.0120
    --------------------------------------------
      LOOP:  cpu time      1.2326: real time      1.2550

 eigenvalue-minimisations  :  2387
 total energy-change (2. order) :-0.3348853E-05  (-0.6421171E-06)
 number of electron     256.0000001 magnetization 
 augmentation part      -14.7412200 magnetization 

 Broyden mixing:
  rms(total) = 0.19006E-02    rms(broyden)= 0.19005E-02
  rms(prec ) = 0.19263E-02
  weight for this iteration     100.00

 eigenvalues of (default mixing * dielectric matrix)
  average eigenvalue GAMMA=   1.6984
  2.9453  2.9453  2.2828  2.2828  2.4988  2.0993  0.9580  0.9580  0.9184  0.9767
  0.9767  0.5390

 Free energy of the ion-electron system (eV)
  ---------------------------------------------------
  alpha Z        PSCENC =       114.84977139
  Ewald energy   TEWEN  =     -7473.41737008
  -Hartree energ DENC   =      -444.05238918
  -exchange      EXHF   =         0.00000000
  -V(xc)+E(xc)   XCENC  =      -530.08979342
  PAW double counting   =     32000.29571401   -30902.42569749
  entropy T*S    EENTRO =         0.02112021
  eigenvalues    EBANDS =       304.50830177
  atomic energy  EATOM  =      6564.79586099
  Solvation  Ediel_sol  =         0.00000000
  ---------------------------------------------------
  free energy    TOTEN  =      -365.51448180 eV

  energy without entropy =     -365.53560201  energy(sigma->0) =     -365.52152187


--------------------------------------------------------------------------------------------------------




--------------------------------------- Iteration      1(  18)  ---------------------------------------


    POTLOK:  cpu time      0.0867: real time      0.0946
    SETDIJ:  cpu time      0.0731: real time      0.0734
    EDDIAG:  cpu time      0.1334: real time      0.1341
  RMM-DIIS:  cpu time      0.4492: real time      0.4507
    ORTHCH:  cpu time      0.0201: real time      0.0202
       DOS:  cpu time      0.0025: real time      0.0025
    --------------------------------------------
      LOOP:  cpu time      0.7651: real time      0.7753

 eigenvalue-minimisations  :  1565
 total energy-change (2. order) : 0.6616301E-07  (-0.8918843E-07)
 number of electron     256.0000001 magnetization 
 augmentation part      -14.7412200 magnetization 

 Free energy of the ion-electron system (eV)
  ---------------------------------------------------
  alpha Z        PSCENC =       114.84977139
  Ewald energy   TEWEN  =     -7473.41737008
  -Hartree energ DENC   =      -444.05586429
  -exchange      EXHF   =         0.00000000
  -V(xc)+E(xc)   XCENC  =      -530.09081650
  PAW double counting   =     31987.50503621   -30889.63493481
  entropy T*S    EENTRO =         0.02112088
  eigenvalues    EBANDS =       304.51271448
  atomic energy  EATOM  =      6564.79586099
  Solvation  Ediel_sol  =         0.00000000
  ---------------------------------------------------
  free energy    TOTEN  =      -365.51448174 eV

  energy without entropy =     -365.53560262  energy(sigma->0) =     -365.52152203


--------------------------------------------------------------------------------------------------------




 average (electrostatic) potential at core
  the test charge radii are     0.9892
  (the norm of the test charge is              1.0000)
       1 -82.2896       2 -82.2896       3 -82.2896       4 -82.2896       5 -82.2896
       6 -82.2896       7 -82.2896       8 -82.2896       9 -82.2896      10 -82.2896
      11 -82.2896      12 -82.2896      13 -82.2896      14 -82.2896      15 -82.2896
      16 -82.2896      17 -82.2896      18 -82.2896      19 -82.2896      20 -82.2896
      21 -82.2896      22 -82.2896      23 -82.2896      24 -82.2896      25 -82.2896
      26 -82.2896      27 -82.2896      28 -82.2896      29 -82.2896      30 -82.2896
      31 -82.2896      32 -82.2896      33 -82.2896      34 -82.2896      35 -82.2896
      36 -82.2896      37 -82.2896      38 -82.2896      39 -82.2896      40 -82.2896
      41 -82.2896      42 -82.2896      43 -82.2896      44 -82.2896      45 -82.2896
      46 -82.2896      47 -82.2896      48 -82.2896      49 -82.2896      50 -82.2896
      51 -82.2896      52 -82.2896      53 -82.2896      54 -82.2896      55 -82.2896
      56 -82.2896      57 -82.2896      58 -82.2896      59 -82.2896      60 -82.2896
      61 -82.2896      62 -82.2896      63 -82.2896      64 -82.2896
 
 
 
 E-fermi :   6.6475     XC(G=0):  -9.8049     alpha+bet :-12.7858

 val. band max:        6.5768570176   @ k =   0.0000   0.0000   0.0000
 cond. band min:       6.7383292292   @ k =   0.5000  -0.0000   0.0000
 fundamental gap:      0.1614722116
 Fermi energy:         6.6474682130

 k-point     1 :       0.0000    0.0000    0.0000
  band No.  band energies     occupation 
      1      -5.9825      2.00000
      2      -4.8480      2.00000
      3      -4.8480      2.00000
      4      -4.8472      2.00000
      5      -4.8472      2.00000
      6      -4.8069      2.00000
      7      -4.8069      2.00000
      8      -3.8528      2.00000
      9      -3.8528      2.00000
     10      -3.8208      2.00000
     11      -3.8208      2.00000
     12      -3.8208      2.00000
     13      -3.8208      2.00000
     14      -3.7915      2.00000
     15      -3.7915      2.00000
     16      -3.7915      2.00000
     17      -3.7915      2.00000
     18      -3.7280      2.00000
     19      -3.7280      2.00000
     20      -3.5320      2.00000
     21      -3.5320      2.00000
     22      -3.3885      2.00000
     23      -3.3885      2.00000
     24      -1.7043      2.00000
     25      -1.6214      2.00000
     26      -1.6214      2.00000
     27      -1.5425      2.00000
     28      -1.4996      2.00000
     29      -1.4996      2.00000
     30      -1.4898      2.00000
     31      -1.4898      2.00000
     32      -1.4558      2.00000
     33      -1.4558      2.00000
     34      -1.3617      2.00000
     35      -1.3617      2.00000
     36      -1.3617      2.00000
     37      -1.3617      2.00000
     38      -1.3088      2.00000
     39      -1.3088      2.00000
     40      -1.2677      2.00000
     41      -1.2676      2.00000
     42      -0.8787      2.00000
     43      -0.8787      2.00000
     44      -0.8547      2.00000
     45      -0.8547      2.00000
     46       0.7887      2.00000
     47       0.7887      2.00000
     48       0.8244      2.00000
     49       0.8244      2.00000
     50       0.8244      2.00000
     51       0.8244      2.00000
     52       0.8571      2.00000
     53       0.8571      2.00000
     54       0.9046      2.00000
     55       0.9046      2.00000
     56       0.9046      2.00000
     57       0.9046      2.00000
     58       2.2658      2.00000
     59       2.2658      2.00000
     60       2.2698      2.00000
     61       2.2698      2.00000
     62       2.2803      2.00000
     63       2.2803      2.00000
     64       2.2846      2.00000
     65       2.2846      2.00000
     66       2.2846      2.00000
     67       2.2846      2.00000
     68       2.2866      2.00000
     69       2.2866      2.00000
     70       2.3452      2.00000
     71       2.3452      2.00000
     72       2.3709      2.00000
     73       2.3709      2.00000
     74       2.3709      2.00000
     75       2.3709      2.00000
     76       2.3936      2.00000
     77       2.3936      2.00000
     78       2.4905      2.00000
     79       2.4905      2.00000
     80       2.4905      2.00000
     81       2.4905      2.00000
     82       2.9037      2.00000
     83       2.9037      2.00000
     84       2.9102      2.00000
     85       2.9102      2.00000
     86       3.0617      2.00000
     87       3.0617      2.00000
     88       3.3143      2.00000
     89       3.3143      2.00000
     90       3.3605      2.00000
     91       3.4790      2.00000
     92       3.4790      2.00000
     93       3.5995      2.00000
     94       4.3534      2.00000
     95       4.3534      2.00000
     96       4.3535      2.00000
     97       4.3535      2.00000
     98       4.3755      2.00000
     99       4.3755      2.00000
    100       4.4583      2.00000
    101       4.4583      2.00000
    102       4.5029      2.00000
    103       4.5029      2.00000
    104       4.5910      2.00000
    105       4.5910      2.00000
    106       4.9477      2.00000
    107       4.9477      2.00000
    108       4.9477      2.00000
    109       4.9477      2.00000
    110       5.0563      2.00000
    111       5.0563      2.00000
    112       5.0598      2.00000
    113       5.0598      2.00000
    114       5.1155      2.00000
    115       5.1155      2.00000
    116       5.1155      2.00000
    117       5.1155      2.00000
    118       5.1643      2.00000
    119       5.1643      2.00000
    120       5.1759      2.00000
    121       5.1759      2.00000
    122       5.2640      2.00000
    123       5.2640      2.00000
    124       5.3643      2.00000
    125       5.3643      2.00000
    126       6.4187      2.06865
    127       6.4216      2.06772
    128       6.5769      1.55828
    129       6.8136      0.00509
    130       6.8136      0.00509
    131       6.8584     -0.05984
    132       6.9813     -0.03982
    133       6.9813     -0.03982
    134       7.1080     -0.00534
    135       7.3321     -0.00001
    136       7.3321     -0.00001
    137       7.4967     -0.00000
    138       7.4967     -0.00000
    139       7.4980     -0.00000
    140       7.4980     -0.00000
    141       8.0547     -0.00000
    142       8.0547     -0.00000
    143       8.2386     -0.00000
    144       8.2387     -0.00000
    145       8.7298     -0.00000
    146       8.7299     -0.00000
    147       8.7300     -0.00000
    148       8.7303     -0.00000
    149       8.8355     -0.00000
    150       8.8588     -0.00000
    151       8.8634     -0.00000
    152       8.9254     -0.00000
    153       8.9256     -0.00000
    154       8.9265     -0.00000
    155       8.9306     -0.00000
    156       9.0005     -0.00000
    157       9.0039     -0.00000
    158       9.0101     -0.00000
    159       9.2015     -0.00000
    160       9.4774     -0.00000
    161       9.4929     -0.00000
    162       9.5435     -0.00000

 k-point     2 :       0.5000   -0.0000    0.0000
  band No.  band energies     occupation 
      1      -5.6859      2.00000
      2      -5.6859      2.00000
      3      -4.6065      2.00000
      4      -4.6065      2.00000
      5      -4.5762      2.00000
      6      -4.5762      2.00000
      7      -4.5762      2.00000
      8      -4.5762      2.00000
      9      -4.5442      2.00000
     10      -4.5442      2.00000
     11      -3.7045      2.00000
     12      -3.7045      2.00000
     13      -3.7045      2.00000
     14      -3.7045      2.00000
     15      -3.6194      2.00000
     16      -3.6194      2.00000
     17      -3.6194      2.00000
     18      -3.6194      2.00000
     19      -3.3824      2.00000
     20      -3.3824      2.00000
     21      -2.7074      2.00000
     22      -2.7074      2.00000
     23      -2.6188      2.00000
     24      -2.6188      2.00000
     25      -2.6188      2.00000
     26      -2.6188      2.00000
     27      -2.5275      2.00000
     28      -2.5275      2.00000
     29      -1.6096      2.00000
     30      -1.6096      2.00000
     31      -1.5798      2.00000
     32      -1.5798      2.00000
     33      -1.4587      2.00000
     34      -1.4587      2.00000
     35      -1.4326      2.00000
     36      -1.4326      2.00000
     37      -0.3466      2.00000
     38      -0.3466      2.00000
     39      -0.2805      2.00000
     40      -0.2805      2.00000
     41      -0.2805      2.00000
     42      -0.2805      2.00000
     43      -0.2204      2.00000
     44      -0.2204      2.00000
     45      -0.1866      2.00000
     46      -0.1866      2.00000
     47      -0.1866      2.00000
     48      -0.1866      2.00000
     49      -0.1631      2.00000
     50      -0.1631      2.00000
     51      -0.1631      2.00000
     52      -0.1631      2.00000
     53       0.7279      2.00000
     54       0.7279      2.00000
     55       1.8390      2.00000
     56       1.8390      2.00000
     57       1.8414      2.00000
     58       1.8414      2.00000
     59       1.8414      2.00000
     60       1.8414      2.00000
     61       1.8441      2.00000
     62       1.8441      2.00000
     63       2.0580      2.00000
     64       2.0580      2.00000
     65       2.0761      2.00000
     66       2.0761      2.00000
     67       2.0761      2.00000
     68       2.0761      2.00000
     69       2.1030      2.00000
     70       2.1030      2.00000
     71       2.7220      2.00000
     72       2.7220      2.00000
     73       2.7705      2.00000
     74       2.7705      2.00000
     75       2.8075      2.00000
     76       2.8075      2.00000
     77       2.8582      2.00000
     78       2.8582      2.00000
     79       3.4829      2.00000
     80       3.4829      2.00000
     81       3.5297      2.00000
     82       3.5297      2.00000
     83       3.5297      2.00000
     84       3.5297      2.00000
     85       3.5655      2.00000
     86       3.5655      2.00000
     87       3.5788      2.00000
     88       3.5788      2.00000
     89       3.5796      2.00000
     90       3.5796      2.00000
     91       3.7135      2.00000
     92       3.7135      2.00000
     93       3.7548      2.00000
     94       3.7548      2.00000
     95       3.7548      2.00000
     96       3.7548      2.00000
     97       3.7947      2.00000
     98       3.7947      2.00000
     99       3.9081      2.00000
    100       3.9081      2.00000
    101       3.9081      2.00000
    102       3.9081      2.00000
    103       4.0179      2.00000
    104       4.0179      2.00000
    105       4.0179      2.00000
    106       4.0179      2.00000
    107       4.9638      2.00000
    108       4.9638      2.00000
    109       4.9638      2.00000
    110       4.9638      2.00000
    111       4.9674      2.00000
    112       4.9674      2.00000
    113       4.9685      2.00000
    114       4.9685      2.00000
    115       4.9895      2.00000
    116       4.9895      2.00000
    117       4.9895      2.00000
    118       4.9895      2.00000
    119       5.0612      2.00000
    120       5.0612      2.00000
    121       5.0612      2.00000
    122       5.0612      2.00000
    123       5.2754      2.00000
    124       5.2754      2.00000
    125       5.5290      2.00000
    126       5.5290      2.00000
    127       5.5358      2.00000
    128       5.5358      2.00000
    129       6.7383      0.31204
    130       6.7383      0.31204
    131       7.7082     -0.00000
    132       7.7082     -0.00000
    133       8.2381     -0.00000
    134       8.2381     -0.00000
    135       8.3302     -0.00000
    136       8.3302     -0.00000
    137       8.3881     -0.00000
    138       8.3882     -0.00000
    139       8.4105     -0.00000
    140       8.4106     -0.00000
    141       8.5633     -0.00000
    142       8.5640     -0.00000
    143       8.7131     -0.00000
    144       8.7138     -0.00000
    145       8.7145     -0.00000
    146       8.7152     -0.00000
    147       8.8217     -0.00000
    148       8.8233     -0.00000
    149       8.8239     -0.00000
    150       8.8314     -0.00000
    151       8.8715     -0.00000
    152       8.8738     -0.00000
    153       8.9437     -0.00000
    154       8.9459     -0.00000
    155       8.9493     -0.00000
    156       8.9601     -0.00000
    157       9.0378     -0.00000
    158       9.0744     -0.00000
    159       9.1395     -0.00000
    160       9.1975     -0.00000
    161       9.2510     -0.00000
    162       9.3204     -0.00000

 k-point     3 :      -0.0000    0.5000    0.0000
  band No.  band energies     occupation 
[...]
  0.000   0.000   4.169   0.000   0.000   7.766   0.000   0.000
 -0.001  -0.002   0.000   4.169   0.000   0.000   7.766   0.000
  0.000   0.000   0.000   0.000   4.169   0.000   0.000   7.766
  0.000   0.000   7.766   0.000   0.000  14.477   0.000   0.000
 -0.002  -0.003   0.000   7.766   0.000   0.000  14.477   0.000
  0.000   0.000   0.000   0.000   7.766   0.000   0.000  14.478
 total augmentation occupancy for first ion, spin component:           1
  6.491  -2.593   0.000   0.053   0.000   0.000  -0.020   0.000
 -2.593   1.144   0.000  -0.027   0.000  -0.000   0.010   0.000
  0.000  -0.000   3.195  -0.000   0.002  -0.735   0.000   0.002
  0.053  -0.027   0.000   3.196  -0.000   0.000  -0.735   0.000
  0.000   0.000   0.002   0.000   3.152   0.002  -0.000  -0.719
  0.000  -0.000  -0.735   0.000   0.002   0.178   0.000  -0.001
 -0.020   0.010   0.000  -0.735  -0.000  -0.000   0.179  -0.000
  0.000   0.000   0.002   0.000  -0.719  -0.001  -0.000   0.174


------------------------ aborting loop because EDIFF is reached ----------------------------------------


    CHARGE:  cpu time      0.2409: real time      0.2438
    FORLOC:  cpu time      0.0214: real time      0.0215
    FORNL :  cpu time      0.6925: real time      0.6947
    STRESS:  cpu time      2.1159: real time      2.1415
    FORCOR:  cpu time      0.0840: real time      0.0846
    FORHAR:  cpu time      0.0342: real time      0.0344
    MIXING:  cpu time      0.0405: real time      0.0407
    OFIELD:  cpu time      0.0001: real time      0.0001

  FORCE on cell =-STRESS in cart. coord.  units (eV):
  Direction    XX          YY          ZZ          XY          YZ          ZX
  --------------------------------------------------------------------------------------
  Alpha Z   114.84977   114.84977   114.84977
  Ewald   -2537.59170 -2468.39379 -2468.29296     9.70350    -0.00000     0.00000
  Hartree   140.66802   151.50526   151.27689     8.39779    -0.00000    -0.00000
  E(xc)    -830.12609  -830.77788  -830.80406    -0.00098    -0.00000    -0.00000
  Local    -846.49342  -929.03097  -929.05232   -19.74169    -0.00000     0.00000
  n-local  2519.79118  2530.53679  2530.97528    -0.77977    -0.00000     0.00000
  augment  -369.75320  -369.80589  -369.83796    -0.62727     0.00000     0.00000
  Kinetic  1871.34671  1852.02643  1851.63385    14.24218     0.00001     0.00001
  Fock        0.00000     0.00000     0.00000     0.00000     0.00000     0.00000
  -------------------------------------------------------------------------------------
  Total      62.69126    50.90971    50.74849    11.19375     0.00000     0.00000
  in kB      83.66297    67.94022    67.72506    14.93832     0.00000     0.00000
  external pressure =       73.11 kB  Pullay stress =        0.00 kB


 VOLUME and BASIS-vectors are now :
 -----------------------------------------------------------------------------
  energy-cutoff  :      400.00
  volume of cell :     1200.56
      direct lattice vectors                 reciprocal lattice vectors
    10.486412549 -0.107004016  0.000000000     0.095371229  0.000953711  0.000000000
    -0.107004016 10.700420580  0.000000000     0.000953711  0.093463808  0.000000000
     0.000000000  0.000000000 10.700420580     0.000000000  0.000000000  0.093454271

  length of vectors
    10.486958472 10.700955586 10.700420580     0.095375997  0.093468673  0.093454271


 FORCES acting on ions
    electron-ion (+dipol)            ewald-force                    non-local-force                 convergence-correction
 -----------------------------------------------------------------------------------------------
   -.546E-09 -.825E-09 0.167E+01   -.555E-14 0.249E-13 -.118E+01   -.243E-20 -.457E-20 -.484E+00   -.259E-13 -.445E-13 -.254E-04
   -.545E-09 -.825E-09 0.167E+01   -.533E-14 0.213E-13 -.118E+01   -.648E-20 0.317E-20 -.484E+00   0.165E-13 -.347E-13 -.254E-04
   -.546E-09 -.825E-09 0.167E+01   -.400E-14 0.242E-13 -.118E+01   0.918E-20 -.167E-20 -.484E+00   -.232E-13 0.522E-13 -.254E-04
   -.545E-09 -.825E-09 0.167E+01   -.178E-14 0.235E-13 -.118E+01   0.238E-20 -.541E-20 -.484E+00   0.684E-14 0.258E-13 -.254E-04
   -.546E-09 -.825E-09 0.167E+01   0.755E-14 0.155E-13 -.118E+01   0.142E-19 -.654E-21 -.484E+00   0.818E-14 0.143E-14 -.254E-04
   -.546E-09 -.825E-09 0.167E+01   0.444E-15 0.266E-13 -.118E+01   0.862E-21 0.177E-20 -.484E+00   -.226E-14 -.369E-13 -.254E-04
   -.545E-09 -.826E-09 0.167E+01   0.311E-14 0.253E-13 -.118E+01   -.770E-20 -.411E-20 -.484E+00   0.227E-13 0.711E-14 -.254E-04
   -.546E-09 -.824E-09 0.167E+01   0.000E+00 0.320E-13 -.118E+01   -.109E-20 0.106E-20 -.484E+00   -.525E-14 0.236E-13 -.254E-04
   0.248E-08 0.242E-08 -.167E+01   0.155E-13 0.271E-13 0.118E+01   0.921E-20 0.116E-20 0.484E+00   0.286E-13 -.813E-14 0.254E-04
   0.248E-08 0.242E-08 -.167E+01   0.231E-13 0.249E-13 0.118E+01   -.707E-20 -.399E-20 0.484E+00   0.104E-13 -.210E-13 0.254E-04
   0.248E-08 0.242E-08 -.167E+01   0.164E-13 0.262E-13 0.118E+01   -.411E-20 0.252E-20 0.484E+00   -.695E-13 -.876E-14 0.254E-04
   0.248E-08 0.242E-08 -.167E+01   0.160E-13 0.320E-13 0.118E+01   -.746E-20 0.374E-20 0.484E+00   0.606E-13 0.872E-14 0.254E-04
   0.248E-08 0.242E-08 -.167E+01   0.187E-13 0.324E-13 0.118E+01   -.747E-20 -.189E-20 0.484E+00   -.346E-13 -.594E-13 0.254E-04
   0.248E-08 0.242E-08 -.167E+01   0.888E-14 0.249E-13 0.118E+01   -.858E-21 0.502E-20 0.484E+00   -.150E-13 0.234E-13 0.254E-04
   0.248E-08 0.242E-08 -.167E+01   0.755E-14 0.271E-13 0.118E+01   0.600E-20 0.245E-20 0.484E+00   0.647E-13 0.471E-13 0.254E-04
   0.248E-08 0.242E-08 -.167E+01   0.888E-14 0.338E-13 0.118E+01   -.399E-20 -.187E-20 0.484E+00   -.563E-13 -.425E-13 0.254E-04
   -.545E-09 -.825E-09 0.167E+01   0.422E-14 0.222E-14 -.118E+01   0.631E-20 -.213E-20 -.484E+00   -.860E-13 -.175E-13 -.254E-04
   -.545E-09 -.825E-09 0.167E+01   0.711E-14 0.222E-14 -.118E+01   0.594E-20 -.282E-20 -.484E+00   0.590E-13 -.104E-12 -.254E-04
   -.546E-09 -.825E-09 0.167E+01   0.577E-14 0.422E-14 -.118E+01   -.736E-20 -.195E-20 -.484E+00   -.255E-14 0.141E-13 -.254E-04
   -.545E-09 -.825E-09 0.167E+01   -.533E-14 0.622E-14 -.118E+01   -.278E-20 -.435E-20 -.484E+00   -.265E-13 0.971E-13 -.254E-04
   -.546E-09 -.824E-09 0.167E+01   -.178E-13 0.711E-14 -.118E+01   -.939E-20 0.162E-20 -.484E+00   0.829E-13 0.519E-13 -.254E-04
   -.545E-09 -.825E-09 0.167E+01   0.133E-13 0.355E-14 -.118E+01   -.126E-19 0.628E-21 -.484E+00   -.605E-13 -.111E-12 -.254E-04
   -.546E-09 -.824E-09 0.167E+01   -.977E-14 -.444E-14 -.118E+01   0.752E-20 -.182E-20 -.484E+00   0.118E-14 -.472E-13 -.254E-04
   -.546E-09 -.825E-09 0.167E+01   0.000E+00 -.355E-14 -.118E+01   0.121E-19 -.723E-21 -.484E+00   0.289E-13 0.103E-12 -.254E-04
   0.248E-08 0.242E-08 -.167E+01   0.142E-13 0.194E-14 0.118E+01   0.253E-20 -.161E-20 0.484E+00   -.126E-13 0.442E-14 0.254E-04
   0.248E-08 0.242E-08 -.167E+01   0.107E-13 0.730E-14 0.118E+01   -.102E-20 0.111E-20 0.484E+00   0.188E-13 -.857E-13 0.254E-04
   0.248E-08 0.242E-08 -.167E+01   0.355E-13 -.182E-14 0.118E+01   -.819E-21 0.179E-20 0.484E+00   -.422E-13 -.402E-14 0.254E-04
   0.248E-08 0.242E-08 -.167E+01   0.284E-13 0.106E-13 0.118E+01   0.821E-20 0.862E-21 0.484E+00   0.610E-13 0.756E-13 0.254E-04
   0.248E-08 0.242E-08 -.167E+01   0.622E-14 0.552E-14 0.118E+01   0.564E-21 0.382E-20 0.484E+00   0.750E-14 0.349E-13 0.254E-04
   0.248E-08 0.242E-08 -.167E+01   0.133E-13 0.908E-14 0.118E+01   0.914E-21 0.286E-20 0.484E+00   -.130E-13 -.168E-12 0.254E-04
   0.248E-08 0.242E-08 -.167E+01   0.160E-13 0.110E-13 0.118E+01   0.740E-20 -.500E-20 0.484E+00   0.383E-13 -.386E-13 0.254E-04
   0.248E-08 0.242E-08 -.167E+01   0.302E-13 0.885E-14 0.118E+01   -.391E-20 -.715E-21 0.484E+00   -.590E-13 0.155E-12 0.254E-04
   -.546E-09 -.825E-09 0.167E+01   -.193E-13 -.777E-14 -.118E+01   -.223E-20 0.158E-21 -.484E+00   -.119E-12 0.377E-13 -.254E-04
   -.546E-09 -.825E-09 0.167E+01   -.182E-13 -.400E-14 -.118E+01   0.279E-21 -.318E-21 -.484E+00   0.886E-13 -.897E-13 -.254E-04
   -.546E-09 -.824E-09 0.167E+01   -.226E-13 0.733E-14 -.118E+01   0.409E-20 -.112E-20 -.484E+00   -.564E-13 -.459E-13 -.254E-04
   -.546E-09 -.824E-09 0.167E+01   -.169E-13 0.000E+00 -.118E+01   0.430E-20 0.606E-20 -.484E+00   0.871E-13 0.985E-13 -.254E-04
   -.546E-09 -.825E-09 0.167E+01   -.224E-13 -.711E-14 -.118E+01   -.595E-20 0.105E-20 -.484E+00   0.124E-12 0.124E-12 -.254E-04
   -.546E-09 -.825E-09 0.167E+01   -.107E-13 -.711E-14 -.118E+01   0.774E-20 0.549E-20 -.484E+00   -.946E-13 -.182E-12 -.254E-04
   -.546E-09 -.824E-09 0.167E+01   -.315E-13 -.622E-14 -.118E+01   0.266E-20 0.667E-21 -.484E+00   0.527E-13 -.121E-12 -.254E-04
   -.546E-09 -.825E-09 0.167E+01   -.142E-13 -.711E-14 -.118E+01   -.102E-20 0.162E-20 -.484E+00   -.837E-13 0.177E-12 -.254E-04
   0.248E-08 0.242E-08 -.167E+01   -.239E-13 -.444E-14 0.118E+01   0.608E-20 -.773E-20 0.484E+00   -.651E-13 -.370E-13 0.254E-04
   0.248E-08 0.242E-08 -.167E+01   -.368E-14 -.799E-14 0.118E+01   0.582E-20 -.577E-21 0.484E+00   0.892E-13 0.194E-14 0.254E-04
   0.248E-08 0.242E-08 -.167E+01   -.119E-13 -.888E-15 0.118E+01   -.621E-20 -.749E-21 0.484E+00   -.260E-13 0.225E-13 0.254E-04
   0.248E-08 0.242E-08 -.167E+01   -.159E-13 -.888E-15 0.118E+01   -.917E-20 0.177E-20 0.484E+00   -.195E-14 -.136E-13 0.254E-04
   0.248E-08 0.242E-08 -.167E+01   0.339E-14 -.533E-14 0.118E+01   -.457E-20 0.339E-20 0.484E+00   0.641E-13 -.710E-13 0.254E-04
   0.248E-08 0.242E-08 -.167E+01   -.727E-14 -.178E-14 0.118E+01   -.140E-19 0.363E-20 0.484E+00   -.818E-13 0.493E-13 0.254E-04
   0.248E-08 0.242E-08 -.167E+01   0.698E-14 -.178E-14 0.118E+01   0.611E-20 -.561E-20 0.484E+00   0.371E-13 0.484E-13 0.254E-04
   0.248E-08 0.242E-08 -.167E+01   -.279E-14 0.533E-14 0.118E+01   0.603E-20 -.254E-20 0.484E+00   -.826E-14 -.541E-13 0.254E-04
   -.546E-09 -.825E-09 0.167E+01   -.167E-13 -.300E-13 -.118E+01   0.629E-20 0.404E-20 -.484E+00   0.243E-13 -.233E-13 -.254E-04
   -.546E-09 -.824E-09 0.167E+01   -.138E-13 -.284E-13 -.118E+01   -.418E-20 -.305E-20 -.484E+00   0.342E-14 -.606E-13 -.254E-04
   -.546E-09 -.824E-09 0.167E+01   -.315E-13 -.289E-13 -.118E+01   -.594E-20 0.322E-20 -.484E+00   -.250E-13 0.118E-13 -.254E-04
   -.546E-09 -.825E-09 0.167E+01   -.284E-13 -.351E-13 -.118E+01   -.794E-20 0.345E-20 -.484E+00   0.635E-14 0.685E-13 -.254E-04
   -.546E-09 -.826E-09 0.167E+01   0.444E-14 -.298E-13 -.118E+01   -.893E-20 -.628E-21 -.484E+00   -.111E-13 -.171E-13 -.254E-04
   -.546E-09 -.824E-09 0.167E+01   0.355E-14 -.222E-13 -.118E+01   -.247E-20 -.133E-20 -.484E+00   -.147E-13 -.560E-13 -.254E-04
   -.546E-09 -.824E-09 0.167E+01   -.977E-14 -.293E-13 -.118E+01   -.490E-21 0.406E-20 -.484E+00   0.318E-13 0.680E-14 -.254E-04
   -.546E-09 -.825E-09 0.167E+01   -.178E-13 -.249E-13 -.118E+01   0.394E-20 -.266E-20 -.484E+00   -.116E-13 0.660E-13 -.254E-04
   0.248E-08 0.242E-08 -.167E+01   0.789E-15 -.237E-13 0.118E+01   -.629E-20 -.486E-20 0.484E+00   -.986E-13 -.584E-14 0.254E-04
   0.248E-08 0.242E-08 -.167E+01   0.407E-14 -.254E-13 0.118E+01   -.260E-20 0.222E-20 0.484E+00   0.838E-13 -.129E-12 0.254E-04
   0.248E-08 0.242E-08 -.167E+01   0.576E-15 -.205E-13 0.118E+01   -.836E-21 -.154E-20 0.484E+00   -.458E-13 -.294E-14 0.254E-04
   0.248E-08 0.242E-08 -.167E+01   0.107E-13 -.178E-13 0.118E+01   0.793E-20 -.516E-20 0.484E+00   0.397E-13 0.128E-12 0.254E-04
   0.248E-08 0.242E-08 -.167E+01   0.249E-14 -.275E-13 0.118E+01   0.894E-20 -.190E-20 0.484E+00   0.107E-12 0.926E-13 0.254E-04
   0.248E-08 0.242E-08 -.167E+01   -.108E-13 -.280E-13 0.118E+01   0.924E-20 -.120E-20 0.484E+00   -.895E-13 -.177E-12 0.254E-04
   0.248E-08 0.242E-08 -.167E+01   0.254E-14 -.235E-13 0.118E+01   -.131E-19 -.576E-20 0.484E+00   0.516E-13 -.983E-13 0.254E-04
   0.248E-08 0.242E-08 -.167E+01   0.349E-14 -.208E-13 0.118E+01   -.395E-20 0.434E-20 0.484E+00   -.357E-13 0.169E-12 0.254E-04
 -----------------------------------------------------------------------------------------------
   0.618E-07 0.512E-07 -.532E-04   -.454E-13 0.262E-13 -.207E-13   -.136E-19 -.133E-19 -.377E-14   0.431E-14 -.188E-12 -.103E-10
 
 
 POSITION                                       TOTAL-FORCE (eV/Angst)
 -----------------------------------------------------------------------------------
      0.00000      0.00000     10.69146         0.000000     -0.000000      0.000259
      0.00000      0.00000      5.34125         0.000000     -0.000000      0.000259
     -0.05350      5.35021     10.69146        -0.000000     -0.000000      0.000259
     -0.05350      5.35021      5.34125        -0.000000      0.000000      0.000259
      5.24321     -0.05350     10.69146         0.000000     -0.000000      0.000259
      5.24321     -0.05350      5.34125         0.000000     -0.000000      0.000259
      5.18970      5.29671     10.69146        -0.000000      0.000000      0.000259
      5.18970      5.29671      5.34125        -0.000000      0.000000      0.000259
      3.89228      3.97253      1.34651         0.000000     -0.000000     -0.000259
      3.89228      3.97253      6.69672        -0.000000     -0.000000     -0.000259
      3.83878      9.32274      1.34651         0.000000      0.000000     -0.000259
      3.83878      9.32274      6.69672        -0.000000     -0.000000     -0.000259
      9.13548      3.91903      1.34651         0.000000      0.000000     -0.000259
      9.13548      3.91903      6.69672         0.000000     -0.000000     -0.000259
      9.08198      9.26924      1.34651         0.000000      0.000000     -0.000259
      9.08198      9.26924      6.69672        -0.000000     -0.000000     -0.000259
     -0.02675      2.67511      2.66615        -0.000000     -0.000000      0.000259
     -0.02675      2.67511      8.01636         0.000000     -0.000000      0.000259
     -0.08025      8.02532      2.66615         0.000000      0.000000      0.000259
     -0.08025      8.02532      8.01636         0.000000      0.000000      0.000259
      5.21646      2.62160      2.66615         0.000000     -0.000000      0.000259
      5.21646      2.62160      8.01636         0.000000     -0.000000      0.000259
      5.16295      7.97181      2.66615        -0.000000     -0.000000      0.000259
      5.16295      7.97181      8.01636        -0.000000      0.000000      0.000259
      3.91903      1.29743      4.02162        -0.000000     -0.000000     -0.000259
      3.91903      1.29743      9.37183        -0.000000     -0.000000     -0.000259
      3.86553      6.64764      4.02162         0.000000      0.000000     -0.000259
      3.86553      6.64764      9.37183         0.000000      0.000000     -0.000259
      9.16224      1.24392      4.02162        -0.000000      0.000000     -0.000259
      9.16224      1.24392      9.37183        -0.000000      0.000000     -0.000259
      9.10873      6.59413      4.02162         0.000000      0.000000     -0.000259
      9.10873      6.59413      9.37183         0.000000      0.000000     -0.000259
      2.62160     -0.02675      2.66615        -0.000000     -0.000000      0.000259
      2.62160     -0.02675      8.01636         0.000000     -0.000000      0.000259
      2.56810      5.32346      2.66615         0.000000      0.000000      0.000259
      2.56810      5.32346      8.01636         0.000000      0.000000      0.000259
      7.86481     -0.08025      2.66615         0.000000     -0.000000      0.000259
      7.86481     -0.08025      8.01636         0.000000     -0.000000      0.000259
      7.81131      5.26996      2.66615        -0.000000      0.000000      0.000259
      7.81131      5.26996      8.01636        -0.000000      0.000000      0.000259
      1.27068      3.99928      4.02162         0.000000     -0.000000     -0.000259
      1.27068      3.99928      9.37183        -0.000000      0.000000     -0.000259
      1.21717      9.34949      4.02162        -0.000000     -0.000000     -0.000259
      1.21717      9.34949      9.37183        -0.000000     -0.000000     -0.000259
      6.51388      3.94578      4.02162         0.000000      0.000000     -0.000259
      6.51388      3.94578      9.37183        -0.000000     -0.000000     -0.000259
      6.46038      9.29599      4.02162         0.000000      0.000000     -0.000259
      6.46038      9.29599      9.37183         0.000000     -0.000000     -0.000259
      2.59485      2.64835     10.69146         0.000000      0.000000      0.000259
      2.59485      2.64835      5.34125         0.000000      0.000000      0.000259
      2.54135      7.99856     10.69146        -0.000000      0.000000      0.000259
      2.54135      7.99856      5.34125         0.000000     -0.000000      0.000259
      7.83806      2.59485     10.69146        -0.000000     -0.000000      0.000259
      7.83806      2.59485      5.34125         0.000000     -0.000000      0.000259
      7.78456      7.94506     10.69146        -0.000000      0.000000      0.000259
      7.78456      7.94506      5.34125         0.000000     -0.000000      0.000259
      1.29743      1.32418      1.34651        -0.000000     -0.000000     -0.000259
      1.29743      1.32418      6.69672        -0.000000      0.000000     -0.000259
      1.24392      6.67439      1.34651         0.000000      0.000000     -0.000259
      1.24392      6.67439      6.69672         0.000000      0.000000     -0.000259
      6.54063      1.27068      1.34651        -0.000000     -0.000000     -0.000259
      6.54063      1.27068      6.69672        -0.000000     -0.000000     -0.000259
      6.48713      6.62089      1.34651         0.000000     -0.000000     -0.000259
      6.48713      6.62089      6.69672         0.000000     -0.000000     -0.000259
 -----------------------------------------------------------------------------------
    total drift:                                0.000000      0.000000     -0.000053


--------------------------------------------------------------------------------------------------------



  FREE ENERGIE OF THE ION-ELECTRON SYSTEM (eV)
  ---------------------------------------------------
  free  energy   TOTEN  =      -365.59023265 eV

  energy  without entropy=     -365.60480616  energy(sigma->0) =     -365.59509049
 
 d Force = 0.1394746E-01[ 0.635E-04, 0.278E-01]  d Energy = 0.1397699E-01-0.295E-04
 d Force =-0.2652050E+00[-0.290E+00,-0.240E+00]  d Ewald  =-0.2651934E+00-0.116E-04


--------------------------------------------------------------------------------------------------------


    POTLOK:  cpu time      0.1458: real time      0.1468


--------------------------------------------------------------------------------------------------------




--------------------------------------------------------------------------------------------------------


  
 reached required accuracy - stopping structural energy minimisation
     LOOP+:  cpu time     13.1571: real time     13.3428
    4ORBIT:  cpu time      0.0000: real time      0.0000

 total amount of memory used by VASP MPI-rank0    79215. kBytes
=======================================================================

   base      :      30000. kBytes
   nonlr-proj:       4729. kBytes
   fftplans  :      17992. kBytes
   grid      :       6881. kBytes
   one-center:         18. kBytes
   wavefun   :      19595. kBytes
 
  
  
 General timing and accounting informations for this job:
 ========================================================
  
                  Total CPU time used (sec):       58.930
                            User time (sec):       55.699
                          System time (sec):        3.231
                         Elapsed time (sec):       62.763
  
                   Maximum memory used (kb):      407736.
                   Average memory used (kb):          N/A
  
                          Minor page faults:        95401
                          Major page faults:            0
                 Voluntary context switches:         9479
