       N       E                     dE             d eps       ncg     rms          rms(c)
DAV:   1     0.562806258100E+03    0.56281E+03   -0.83894E+04  2592   0.106E+03
DAV:   2    -0.310087018767E+03   -0.87289E+03   -0.82915E+03  3088   0.173E+02
DAV:   3    -0.373200599697E+03   -0.63114E+02   -0.62005E+02  3144   0.412E+01
DAV:   4    -0.374818958427E+03   -0.16184E+01   -0.16064E+01  3136   0.803E+00
DAV:   5    -0.374873556501E+03   -0.54598E-01   -0.54475E-01  3120   0.135E+00    0.284E+01
RMM:   6    -0.369782753010E+03    0.50908E+01   -0.25447E+00  2592   0.249E+00    0.171E+01
RMM:   7    -0.367459307826E+03    0.23234E+01   -0.65241E+00  2638   0.401E+00    0.954E-01
RMM:   8    -0.367503743599E+03   -0.44436E-01   -0.63796E-01  2627   0.153E+00    0.495E-01
RMM:   9    -0.367523214449E+03   -0.19471E-01   -0.18001E-01  2666   0.750E-01    0.571E-01
RMM:  10    -0.367526518128E+03   -0.33037E-02   -0.31310E-02  2742   0.351E-01    0.737E-01
RMM:  11    -0.367524299776E+03    0.22184E-02   -0.10421E-02  2592   0.208E-01    0.693E-01
RMM:  12    -0.367524383298E+03   -0.83522E-04   -0.16992E-03  2602   0.975E-02    0.707E-01
RMM:  13    -0.367524430085E+03   -0.46788E-04   -0.31175E-04  2766   0.395E-02    0.761E-01
RMM:  14    -0.367524410266E+03    0.19819E-04   -0.88832E-05  2604   0.231E-02    0.506E-01
RMM:  15    -0.367524525577E+03   -0.11531E-03   -0.48557E-05  2603   0.139E-02    0.433E-01
RMM:  16    -0.367524614703E+03   -0.89126E-04   -0.30076E-05  2592   0.127E-02    0.293E-01
RMM:  17    -0.367524656113E+03   -0.41410E-04   -0.22097E-05  2592   0.109E-02    0.140E-01
RMM:  18    -0.367524667431E+03   -0.11318E-04   -0.73111E-06  2585   0.633E-03    0.526E-02
RMM:  19    -0.367524670992E+03   -0.35611E-05   -0.27107E-06  1727   0.374E-03    0.880E-03
RMM:  20    -0.367524671372E+03   -0.37968E-06   -0.81098E-07  1564   0.199E-03
   1 F= -.36752467E+03 E0= -.36753446E+03  d E =-.367525E+03
       N       E                     dE             d eps       ncg     rms          rms(c)
DAV:   1    -0.367532985575E+03   -0.83146E-02   -0.41876E-01  2976   0.123E+00    0.279E-01
RMM:   2    -0.367535117817E+03   -0.21322E-02   -0.22275E-02  2593   0.311E-01    0.113E-01
RMM:   3    -0.367535468112E+03   -0.35030E-03   -0.36293E-03  2649   0.141E-01    0.482E-02
RMM:   4    -0.367535471116E+03   -0.30037E-05   -0.48951E-04  2679   0.586E-02    0.168E-02
RMM:   5    -0.367535474645E+03   -0.35291E-05   -0.81734E-05  2659   0.229E-02    0.377E-03
RMM:   6    -0.367535476625E+03   -0.19798E-05   -0.19728E-05  2592   0.102E-02    0.700E-04
RMM:   7    -0.367535476875E+03   -0.24962E-06   -0.25638E-06  1763   0.366E-03    0.649E-04
RMM:   8    -0.367535476924E+03   -0.49367E-07   -0.57297E-07  1430   0.167E-03
   2 F= -.36753548E+03 E0= -.36754496E+03  d E =-.108056E-01
       N       E                     dE             d eps       ncg     rms          rms(c)
DAV:   1    -0.367536640604E+03   -0.11637E-02   -0.25653E-02  2952   0.305E-01    0.689E-02
RMM:   2    -0.367536769354E+03   -0.12875E-03   -0.13375E-03  2592   0.766E-02    0.281E-02
RMM:   3    -0.367536790234E+03   -0.20880E-04   -0.21355E-04  2644   0.346E-02    0.118E-02
RMM:   4    -0.367536790650E+03   -0.41675E-06   -0.29049E-05  2670   0.144E-02    0.417E-03
RMM:   5    -0.367536790906E+03   -0.25602E-06   -0.49634E-06  2036   0.566E-03    0.929E-04
RMM:   6    -0.367536791006E+03   -0.99614E-07   -0.10650E-06  1568   0.247E-03    0.177E-04
RMM:   7    -0.367536791030E+03   -0.24037E-07   -0.23414E-07  1346   0.109E-03    0.125E-04
RMM:   8    -0.367536791036E+03   -0.59517E-08   -0.56804E-08   842   0.615E-04
   3 F= -.36753679E+03 E0= -.36754639E+03  d E =-.121197E-01
