  64  64   0   0
  0.1966986E+02  0.1072572E-08  0.1083406E-08  0.1083392E-08  0.5000000E-15
  1.000000000000000E-004
  CAR 
 Si64                                    
     11.42518299     -8.14080056  301      6.27178965      1.00000000
     -8.141  0.0000E+00  0.0000E+00
     -8.076  0.0000E+00  0.0000E+00
     -8.010  0.0000E+00  0.0000E+00
     -7.945  0.0000E+00  0.0000E+00
     -7.880  0.0000E+00  0.0000E+00
     -7.815  0.0000E+00  0.0000E+00
     -7.749 -0.1159E-28 -0.7557E-30
     -7.684 -0.1886E-26 -0.1237E-27
     -7.619 -0.2488E-24 -0.1635E-25
     -7.554 -0.2647E-22 -0.1743E-23
     -7.489 -0.2271E-20 -0.1499E-21
     -7.423 -0.1571E-18 -0.1039E-19
     -7.358 -0.8752E-17 -0.5812E-18
     -7.293 -0.3822E-15 -0.2551E-16
     -7.228 -0.1372E-13 -0.9200E-15
     -7.163 -0.3968E-12 -0.2680E-13
     -7.097 -0.9217E-11 -0.6279E-12
     -7.032 -0.1717E-09 -0.1182E-10
     -6.967 -0.2559E-08 -0.1787E-09
     -6.902 -0.3047E-07 -0.2166E-08
     -6.836 -0.2887E-06 -0.2099E-07
     -6.771 -0.2167E-05 -0.1623E-06
     -6.706 -0.1280E-04 -0.9973E-06
     -6.641 -0.5889E-04 -0.4838E-05
     -6.576 -0.2071E-03 -0.1834E-04
     -6.510 -0.5373E-03 -0.5338E-04
     -6.445 -0.9445E-03 -0.1150E-03
     -6.380 -0.7933E-03 -0.1667E-03
     -6.315  0.9787E-03 -0.1029E-03
     -6.249  0.4638E-02  0.1996E-03
     -6.184  0.8664E-02  0.7647E-03
     -6.119  0.1222E-01  0.1561E-02
     -6.054  0.1971E-01  0.2847E-02
     -5.989  0.3841E-01  0.5352E-02
     -5.923  0.6656E-01  0.9694E-02
     -5.858  0.9018E-01  0.1558E-01
     -5.793  0.1021E+00  0.2224E-01
     -5.728  0.1177E+00  0.2991E-01
     -5.662  0.1527E+00  0.3987E-01
     -5.597  0.1912E+00  0.5234E-01
     -5.532  0.1999E+00  0.6538E-01
     -5.467  0.1754E+00  0.7682E-01
     -5.402  0.1478E+00  0.8645E-01
     -5.336  0.1348E+00  0.9525E-01
     -5.271  0.1226E+00  0.1032E+00
     -5.206  0.9913E-01  0.1097E+00
     -5.141  0.7638E-01  0.1147E+00
     -5.075  0.7084E-01  0.1193E+00
     -5.010  0.8871E-01  0.1251E+00
     -4.945  0.1403E+00  0.1342E+00
     -4.880  0.2357E+00  0.1496E+00
     -4.815  0.3501E+00  0.1725E+00
     -4.749  0.4301E+00  0.2005E+00
     -4.684  0.4569E+00  0.2303E+00
     -4.619  0.4603E+00  0.2603E+00
     -4.554  0.4500E+00  0.2897E+00
     -4.488  0.3877E+00  0.3150E+00
     -4.423  0.2552E+00  0.3316E+00
     -4.358  0.1020E+00  0.3383E+00
     -4.293 -0.9311E-03  0.3382E+00
     -4.228 -0.1817E-01  0.3370E+00
     -4.162  0.4926E-01  0.3402E+00
     -4.097  0.1835E+00  0.3522E+00
     -4.032  0.3479E+00  0.3749E+00
     -3.967  0.4825E+00  0.4063E+00
     -3.902  0.5268E+00  0.4407E+00
     -3.836  0.4647E+00  0.4710E+00
     -3.771  0.3430E+00  0.4934E+00
     -3.706  0.2415E+00  0.5091E+00
     -3.641  0.2244E+00  0.5238E+00
     -3.575  0.3119E+00  0.5441E+00
     -3.510  0.4693E+00  0.5747E+00
     -3.445  0.6220E+00  0.6153E+00
     -3.380  0.7046E+00  0.6612E+00
     -3.315  0.7024E+00  0.7070E+00
     -3.249  0.6398E+00  0.7488E+00
     -3.184  0.5468E+00  0.7844E+00
     -3.119  0.4572E+00  0.8142E+00
     -3.054  0.4105E+00  0.8410E+00
     -2.988  0.4123E+00  0.8679E+00
     -2.923  0.4055E+00  0.8944E+00
     -2.858  0.3282E+00  0.9158E+00
     -2.793  0.1906E+00  0.9282E+00
     -2.728  0.6041E-01  0.9321E+00
     -2.662 -0.1352E-01  0.9313E+00
     -2.597 -0.3175E-01  0.9292E+00
     -2.532 -0.1145E-01  0.9284E+00
     -2.467  0.4128E-01  0.9311E+00
     -2.401  0.1176E+00  0.9388E+00
     -2.336  0.1833E+00  0.9508E+00
     -2.271  0.1935E+00  0.9634E+00
     -2.206  0.1369E+00  0.9723E+00
     -2.141  0.5575E-01  0.9759E+00
     -2.075  0.1850E-01  0.9771E+00
     -2.010  0.7865E-01  0.9823E+00
     -1.945  0.2431E+00  0.9981E+00
     -1.880  0.4537E+00  0.1028E+01
     -1.814  0.6027E+00  0.1067E+01
     -1.749  0.6013E+00  0.1106E+01
     -1.684  0.4502E+00  0.1136E+01
     -1.619  0.2398E+00  0.1151E+01
     -1.554  0.7826E-01  0.1156E+01
     -1.488  0.2263E-01  0.1158E+01
     -1.423  0.6231E-01  0.1162E+01
     -1.358  0.1405E+00  0.1171E+01
     -1.293  0.1922E+00  0.1184E+01
     -1.227  0.1861E+00  0.1196E+01
     -1.162  0.1467E+00  0.1205E+01
     -1.097  0.1341E+00  0.1214E+01
     -1.032  0.1920E+00  0.1227E+01
     -0.967  0.2993E+00  0.1246E+01
     -0.901  0.3783E+00  0.1271E+01
     -0.836  0.3782E+00  0.1295E+01
     -0.771  0.3504E+00  0.1318E+01
     -0.706  0.4052E+00  0.1345E+01
     -0.641  0.5918E+00  0.1383E+01
     -0.575  0.8352E+00  0.1438E+01
     -0.510  0.9817E+00  0.1502E+01
     -0.445  0.9089E+00  0.1561E+01
     -0.380  0.6284E+00  0.1602E+01
     -0.314  0.2894E+00  0.1621E+01
     -0.249  0.6553E-01  0.1625E+01
     -0.184  0.3677E-01  0.1628E+01
     -0.119  0.1624E+00  0.1638E+01
     -0.054  0.3257E+00  0.1659E+01
      0.012  0.4078E+00  0.1686E+01
      0.077  0.3654E+00  0.1710E+01
      0.142  0.2490E+00  0.1726E+01
      0.207  0.1412E+00  0.1735E+01
      0.273  0.9105E-01  0.1741E+01
      0.338  0.1082E+00  0.1748E+01
      0.403  0.1848E+00  0.1760E+01
      0.468  0.3011E+00  0.1780E+01
      0.533  0.4180E+00  0.1807E+01
      0.599  0.4798E+00  0.1839E+01
      0.664  0.4411E+00  0.1867E+01
      0.729  0.3093E+00  0.1887E+01
      0.794  0.1499E+00  0.1897E+01
      0.860  0.3385E-01  0.1899E+01
      0.925 -0.1586E-01  0.1898E+01
      0.990 -0.2153E-01  0.1897E+01
      1.055 -0.1417E-01  0.1896E+01
      1.120 -0.1149E-01  0.1895E+01
      1.186 -0.1908E-01  0.1894E+01
      1.251 -0.3368E-01  0.1892E+01
      1.316 -0.3496E-01  0.1890E+01
      1.381  0.2423E-01  0.1891E+01
      1.447  0.1991E+00  0.1904E+01
      1.512  0.4908E+00  0.1936E+01
      1.577  0.7914E+00  0.1988E+01
      1.642  0.9266E+00  0.2048E+01
      1.707  0.8031E+00  0.2101E+01
      1.773  0.5154E+00  0.2134E+01
      1.838  0.2736E+00  0.2152E+01
      1.903  0.2167E+00  0.2166E+01
      1.968  0.3067E+00  0.2186E+01
      2.034  0.3968E+00  0.2212E+01
      2.099  0.3871E+00  0.2237E+01
      2.164  0.3226E+00  0.2258E+01
      2.229  0.3564E+00  0.2282E+01
      2.294  0.6088E+00  0.2321E+01
      2.360  0.1032E+01  0.2389E+01
      2.425  0.1400E+01  0.2480E+01
      2.490  0.1468E+01  0.2576E+01
      2.555  0.1172E+01  0.2652E+01
      2.620  0.6804E+00  0.2696E+01
      2.686  0.2402E+00  0.2712E+01
      2.751 -0.1462E-01  0.2711E+01
      2.816 -0.1008E+00  0.2705E+01
      2.881 -0.8304E-01  0.2699E+01
      2.947  0.2447E-01  0.2701E+01
      3.012  0.2548E+00  0.2717E+01
      3.077  0.6072E+00  0.2757E+01
      3.142  0.9909E+00  0.2822E+01
      3.207  0.1269E+01  0.2904E+01
      3.273  0.1359E+01  0.2993E+01
      3.338  0.1276E+01  0.3076E+01
      3.403  0.1087E+01  0.3147E+01
      3.468  0.8624E+00  0.3203E+01
      3.534  0.6786E+00  0.3248E+01
      3.599  0.6083E+00  0.3287E+01
      3.664  0.6613E+00  0.3330E+01
      3.729  0.7377E+00  0.3379E+01
      3.794  0.7066E+00  0.3425E+01
      3.860  0.5541E+00  0.3461E+01
      3.925  0.4065E+00  0.3487E+01
      3.990  0.3829E+00  0.3512E+01
      4.055  0.4669E+00  0.3543E+01
      4.121  0.5543E+00  0.3579E+01
      4.186  0.5881E+00  0.3617E+01
      4.251  0.5961E+00  0.3656E+01
      4.316  0.6183E+00  0.3696E+01
      4.381  0.6601E+00  0.3740E+01
      4.447  0.7191E+00  0.3786E+01
      4.512  0.8016E+00  0.3839E+01
      4.577  0.8903E+00  0.3897E+01
      4.642  0.9256E+00  0.3957E+01
      4.708  0.8428E+00  0.4012E+01
      4.773  0.6332E+00  0.4053E+01
      4.838  0.3664E+00  0.4077E+01
      4.903  0.1502E+00  0.4087E+01
      4.968  0.6618E-01  0.4091E+01
      5.034  0.1273E+00  0.4100E+01
      5.099  0.2721E+00  0.4117E+01
      5.164  0.3953E+00  0.4143E+01
      5.229  0.4118E+00  0.4170E+01
      5.295  0.3143E+00  0.4191E+01
      5.360  0.1684E+00  0.4202E+01
      5.425  0.5442E-01  0.4205E+01
      5.490  0.1724E-01  0.4206E+01
      5.555  0.5479E-01  0.4210E+01
      5.621  0.1285E+00  0.4218E+01
      5.686  0.1842E+00  0.4230E+01
      5.751  0.1857E+00  0.4242E+01
      5.816  0.1408E+00  0.4252E+01
      5.881  0.8716E-01  0.4257E+01
      5.947  0.5287E-01  0.4261E+01
      6.012  0.3715E-01  0.4263E+01
      6.077  0.2548E-01  0.4265E+01
      6.142  0.1154E-01  0.4265E+01
      6.208  0.3252E-02  0.4266E+01
      6.273  0.1525E-01  0.4267E+01
      6.338  0.5624E-01  0.4270E+01
      6.403  0.1164E+00  0.4278E+01
      6.468  0.1662E+00  0.4289E+01
      6.534  0.1749E+00  0.4300E+01
      6.599  0.1362E+00  0.4309E+01
      6.664  0.7346E-01  0.4314E+01
      6.729  0.2252E-01  0.4315E+01
      6.795  0.1325E-01  0.4316E+01
      6.860  0.5919E-01  0.4320E+01
      6.925  0.1457E+00  0.4330E+01
      6.990  0.2262E+00  0.4344E+01
      7.055  0.2525E+00  0.4361E+01
      7.121  0.2259E+00  0.4376E+01
      7.186  0.2103E+00  0.4389E+01
      7.251  0.2705E+00  0.4407E+01
      7.316  0.3927E+00  0.4433E+01
      7.382  0.4816E+00  0.4464E+01
      7.447  0.4522E+00  0.4493E+01
      7.512  0.3183E+00  0.4514E+01
      7.577  0.1887E+00  0.4526E+01
      7.642  0.1818E+00  0.4538E+01
      7.708  0.3357E+00  0.4560E+01
      7.773  0.5760E+00  0.4598E+01
      7.838  0.7639E+00  0.4648E+01
      7.903  0.7978E+00  0.4700E+01
      7.969  0.6921E+00  0.4745E+01
      8.034  0.5613E+00  0.4781E+01
      8.099  0.5272E+00  0.4816E+01
      8.164  0.6337E+00  0.4857E+01
      8.229  0.8327E+00  0.4911E+01
      8.295  0.1027E+01  0.4978E+01
      8.360  0.1122E+01  0.5052E+01
      8.425  0.1075E+01  0.5122E+01
      8.490  0.9067E+00  0.5181E+01
      8.556  0.6837E+00  0.5225E+01
      8.621  0.4756E+00  0.5256E+01
      8.686  0.3215E+00  0.5277E+01
      8.751  0.2343E+00  0.5293E+01
      8.816  0.2198E+00  0.5307E+01
      8.882  0.2680E+00  0.5325E+01
      8.947  0.3286E+00  0.5346E+01
      9.012  0.3307E+00  0.5368E+01
      9.077  0.2484E+00  0.5384E+01
      9.142  0.1271E+00  0.5392E+01
      9.208  0.3357E-01  0.5394E+01
      9.273 -0.2869E-02  0.5394E+01
      9.338  0.3042E-02  0.5394E+01
      9.403  0.2121E-01  0.5396E+01
      9.469  0.3028E-01  0.5398E+01
      9.534  0.2529E-01  0.5399E+01
      9.599  0.1327E-01  0.5400E+01
      9.664  0.3231E-02  0.5400E+01
      9.729 -0.1247E-02  0.5400E+01
      9.795 -0.1758E-02  0.5400E+01
      9.860 -0.1005E-02  0.5400E+01
      9.925 -0.3829E-03  0.5400E+01
      9.990 -0.1073E-03  0.5400E+01
     10.056 -0.2300E-04  0.5400E+01
     10.121 -0.3839E-05  0.5400E+01
     10.186 -0.5044E-06  0.5400E+01
     10.251 -0.5254E-07  0.5400E+01
     10.316 -0.4357E-08  0.5400E+01
     10.382 -0.2887E-09  0.5400E+01
     10.447 -0.1531E-10  0.5400E+01
     10.512 -0.6516E-12  0.5400E+01
     10.577 -0.2227E-13  0.5400E+01
     10.643 -0.6100E-15  0.5400E+01
     10.708 -0.1419E-16  0.5400E+01
     10.773  0.0000E+00  0.5400E+01
     10.838  0.0000E+00  0.5400E+01
     10.903  0.0000E+00  0.5400E+01
     10.969  0.0000E+00  0.5400E+01
     11.034  0.0000E+00  0.5400E+01
     11.099  0.0000E+00  0.5400E+01
     11.164  0.0000E+00  0.5400E+01
     11.230  0.0000E+00  0.5400E+01
     11.295  0.0000E+00  0.5400E+01
     11.360  0.0000E+00  0.5400E+01
     11.425  0.0000E+00  0.5400E+01
