       N       E                     dE             d eps       ncg     rms          rms(c)
DAV:   1     0.561606576009E+03    0.56161E+03   -0.84273E+04  2592   0.106E+03
DAV:   2    -0.311176659823E+03   -0.87278E+03   -0.82725E+03  3088   0.173E+02
DAV:   3    -0.373308300409E+03   -0.62132E+02   -0.60891E+02  3144   0.410E+01
DAV:   4    -0.374906656152E+03   -0.15984E+01   -0.15861E+01  3120   0.797E+00
DAV:   5    -0.374958466860E+03   -0.51811E-01   -0.51697E-01  3108   0.133E+00    0.288E+01
RMM:   6    -0.369711800330E+03    0.52467E+01   -0.26467E+00  2592   0.254E+00    0.173E+01
RMM:   7    -0.367340265389E+03    0.23715E+01   -0.68118E+00  2658   0.408E+00    0.997E-01
RMM:   8    -0.367379153547E+03   -0.38888E-01   -0.62124E-01  2614   0.155E+00    0.497E-01
RMM:   9    -0.367398975996E+03   -0.19822E-01   -0.18399E-01  2667   0.759E-01    0.577E-01
RMM:  10    -0.367402257866E+03   -0.32819E-02   -0.32351E-02  2731   0.358E-01    0.712E-01
RMM:  11    -0.367399783166E+03    0.24747E-02   -0.10620E-02  2592   0.212E-01    0.781E-01
RMM:  12    -0.367399774198E+03    0.89675E-05   -0.17527E-03  2609   0.992E-02    0.868E-01
RMM:  13    -0.367399855289E+03   -0.81091E-04   -0.33800E-04  2758   0.413E-02    0.890E-01
RMM:  14    -0.367399234329E+03    0.62096E-03   -0.24972E-04  2592   0.354E-02    0.962E-01
RMM:  15    -0.367399443558E+03   -0.20923E-03   -0.10544E-04  2594   0.183E-02    0.942E-01
RMM:  16    -0.367399831519E+03   -0.38796E-03   -0.66181E-05  2592   0.185E-02    0.801E-01
RMM:  17    -0.367399929184E+03   -0.97665E-04   -0.39138E-05  2593   0.131E-02    0.674E-01
RMM:  18    -0.367399997306E+03   -0.68122E-04   -0.10252E-05  2594   0.798E-03    0.546E-01
RMM:  19    -0.367400162428E+03   -0.16512E-03   -0.46126E-05  2710   0.155E-02    0.266E-01
RMM:  20    -0.367400236450E+03   -0.74022E-04   -0.41472E-05  2677   0.147E-02    0.611E-02
RMM:  21    -0.367400248686E+03   -0.12236E-04   -0.12129E-05  2592   0.792E-03    0.245E-02
RMM:  22    -0.367400251313E+03   -0.26267E-05   -0.22916E-06  1609   0.325E-03    0.188E-02
RMM:  23    -0.367400252656E+03   -0.13427E-05   -0.40341E-07  1554   0.130E-03    0.484E-03
RMM:  24    -0.367400252572E+03    0.83826E-07   -0.19238E-07  1556   0.889E-04
   1 F= -.36740025E+03 E0= -.36741048E+03  d E =-.367400E+03
       N       E                     dE             d eps       ncg     rms          rms(c)
DAV:   1    -0.367408936335E+03   -0.86837E-02   -0.46031E-01  2944   0.130E+00    0.295E-01
RMM:   2    -0.367411251630E+03   -0.23153E-02   -0.24115E-02  2592   0.325E-01    0.120E-01
RMM:   3    -0.367411619688E+03   -0.36806E-03   -0.39106E-03  2647   0.147E-01    0.511E-02
RMM:   4    -0.367411620819E+03   -0.11308E-05   -0.52647E-04  2674   0.610E-02    0.180E-02
RMM:   5    -0.367411624473E+03   -0.36540E-05   -0.88338E-05  2660   0.238E-02    0.382E-03
RMM:   6    -0.367411626624E+03   -0.21510E-05   -0.21456E-05  2627   0.106E-02    0.811E-04
RMM:   7    -0.367411626890E+03   -0.26619E-06   -0.27244E-06  1783   0.377E-03    0.725E-04
RMM:   8    -0.367411626939E+03   -0.48997E-07   -0.58747E-07  1444   0.170E-03
   2 F= -.36741163E+03 E0= -.36742131E+03  d E =-.113744E-01
       N       E                     dE             d eps       ncg     rms          rms(c)
DAV:   1    -0.367413074412E+03   -0.14475E-02   -0.31311E-02  2936   0.338E-01    0.770E-02
RMM:   2    -0.367413230477E+03   -0.15606E-03   -0.16164E-03  2592   0.845E-02    0.314E-02
RMM:   3    -0.367413254703E+03   -0.24226E-04   -0.25507E-04  2643   0.380E-02    0.131E-02
RMM:   4    -0.367413255023E+03   -0.32083E-06   -0.34779E-05  2668   0.158E-02    0.469E-03
RMM:   5    -0.367413255317E+03   -0.29326E-06   -0.59724E-06  2109   0.617E-03    0.103E-03
RMM:   6    -0.367413255433E+03   -0.11586E-06   -0.12727E-06  1584   0.268E-03    0.190E-04
RMM:   7    -0.367413255460E+03   -0.27055E-07   -0.26436E-07  1379   0.115E-03    0.147E-04
RMM:   8    -0.367413255468E+03   -0.83955E-08   -0.67885E-08   881   0.635E-04
   3 F= -.36741326E+03 E0= -.36742314E+03  d E =-.130029E-01
