<?xml version="1.0" encoding="ISO-8859-1"?>
<modeling>
 <generator>
  <i name="program" type="string">vasp </i>
  <i name="version" type="string">6.4.3  </i>
  <i name="subversion" type="string">19Mar24 (build Oct 21 2024 22:36:34) complex                          parallel </i>
  <i name="platform" type="string">LinuxIFC </i>
  <i name="date" type="string">2024 11 01 </i>
  <i name="time" type="string">22:46:15 </i>
 </generator>
 <incar>
  <i type="string" name="SYSTEM">Si64</i>
  <i type="int" name="ISTART">     0</i>
  <i type="string" name="PREC">Accurate</i>
  <i type="string" name="ALGO">Fast</i>
  <i type="logical" name="ADDGRID"> T  </i>
  <i type="int" name="ICHARG">     2</i>
  <i type="int" name="NELM">    60</i>
  <i type="int" name="NELMIN">     8</i>
  <i type="int" name="IBRION">     2</i>
  <i name="EDIFF">      0.00000100</i>
  <i name="EDIFFG">     -0.01000000</i>
  <i type="int" name="NSW">    60</i>
  <i type="int" name="ISIF">     2</i>
  <i name="ENCUT">    400.00000000</i>
  <i type="string" name="LREAL">Auto</i>
  <i type="int" name="ISMEAR">     1</i>
  <i name="SIGMA">      0.20000000</i>
  <i type="logical" name="LWAVE"> F  </i>
  <i type="logical" name="LCHARG"> F  </i>
  <i type="logical" name="GGA_COMPAT"> F  </i>
  <i type="string" name="GGA">PS</i>
 </incar>
 <primitive_cell>
  <structure name="primitive_cell" >
   <crystal>
    <varray name="basis" >
     <v>      -2.68139540       0.01354250      -2.70848015 </v>
     <v>      -2.68139540       0.01354250       2.70848015 </v>
     <v>       2.66785289       2.69493765       0.00000000 </v>
    </varray>
    <i name="volume">     39.33971432 </i>
    <varray name="rec_basis" >
     <v>      -0.18554240       0.18367766      -0.18460538 </v>
     <v>      -0.18554240       0.18367766       0.18460538 </v>
     <v>       0.00186476       0.36922008       0.00000000 </v>
    </varray>
   </crystal>
   <varray name="positions" >
    <v>       0.00000000       0.00000000       0.00000000 </v>
    <v>       0.75000000       0.25000000       0.50000000 </v>
   </varray>
  </structure>
  <varray name="primitive_index" >
   <v type="int" >        1 </v>
   <v type="int" >       15 </v>
  </varray>
 </primitive_cell>
 <kpoints>
  <generation param="Gamma">
   <v type="int" name="divisions">       2        2        2 </v>
   <v name="usershift">      0.00000000       0.00000000       0.00000000 </v>
   <v name="genvec1">      0.50000000      -0.00000000       0.00000000 </v>
   <v name="genvec2">     -0.00000000       0.50000000       0.00000000 </v>
   <v name="genvec3">      0.00000000       0.00000000       0.50000000 </v>
   <v name="shift">      0.00000000       0.00000000       0.00000000 </v>
  </generation>
  <varray name="kpointlist" >
   <v>       0.00000000       0.00000000       0.00000000 </v>
   <v>       0.50000000      -0.00000000       0.00000000 </v>
   <v>       0.00000000       0.50000000       0.00000000 </v>
   <v>       0.50000000       0.50000000       0.00000000 </v>
   <v>       0.00000000       0.00000000       0.50000000 </v>
   <v>       0.50000000      -0.00000000       0.50000000 </v>
   <v>       0.00000000       0.50000000       0.50000000 </v>
   <v>       0.50000000       0.50000000       0.50000000 </v>
  </varray>
  <varray name="weights" >
   <v>       0.12500000 </v>
   <v>       0.12500000 </v>
   <v>       0.12500000 </v>
   <v>       0.12500000 </v>
   <v>       0.12500000 </v>
   <v>       0.12500000 </v>
   <v>       0.12500000 </v>
   <v>       0.12500000 </v>
  </varray>
 </kpoints>
 <parameters>
  <separator name="general" >
   <i type="string" name="SYSTEM">Si64</i>
   <i type="logical" name="LCOMPAT"> F  </i>
  </separator>
  <separator name="electronic" >
   <i type="string" name="PREC">accura</i>
   <i name="ENMAX">    400.00000000</i>
   <i name="ENAUG">    322.06900000</i>
   <i name="EDIFF">      0.00000100</i>
   <i type="int" name="IALGO">    68</i>
   <i type="int" name="IWAVPR">    11</i>
   <i type="int" name="NBANDS">   162</i>
   <i type="int" name="NBANDSLOW">    -1</i>
   <i type="int" name="NBANDSHIGH">    -1</i>
   <i name="NELECT">    256.00000000</i>
   <i type="int" name="TURBO">     0</i>
   <i type="int" name="IRESTART">     0</i>
   <i type="int" name="NREBOOT">     0</i>
   <i type="int" name="NMIN">     0</i>
   <i name="EREF">      0.00000000</i>
   <separator name="electronic smearing" >
    <i type="int" name="ISMEAR">     1</i>
    <i name="SIGMA">      0.20000000</i>
    <i name="KSPACING">      0.50000000</i>
    <i type="logical" name="KGAMMA"> T  </i>
    <i type="logical" name="KBLOWUP"> T  </i>
   </separator>
   <separator name="electronic projectors" >
    <i type="logical" name="LREAL"> T  </i>
    <v name="ROPT">     -0.00025000</v>
    <i type="int" name="LMAXPAW">  -100</i>
    <i type="int" name="LMAXMIX">     2</i>
    <i type="logical" name="NLSPLINE"> F  </i>
   </separator>
   <separator name="electronic startup" >
    <i type="int" name="ISTART">     0</i>
    <i type="int" name="ICHARG">     2</i>
    <i type="int" name="INIWAV">     1</i>
   </separator>
   <separator name="electronic spin" >
    <i type="int" name="ISPIN">     1</i>
    <i type="logical" name="LNONCOLLINEAR"> F  </i>
    <v name="MAGMOM">      1.00000000      1.00000000      1.00000000      1.00000000      1.00000000      1.00000000      1.00000000      1.00000000      1.00000000      1.00000000      1.00000000      1.00000000      1.00000000      1.00000000      1.00000000      1.00000000      1.00000000      1.00000000      1.00000000      1.00000000
      1.00000000      1.00000000      1.00000000      1.00000000      1.00000000      1.00000000      1.00000000      1.00000000      1.00000000      1.00000000      1.00000000      1.00000000      1.00000000      1.00000000      1.00000000      1.00000000      1.00000000      1.00000000      1.00000000      1.00000000
      1.00000000      1.00000000      1.00000000      1.00000000      1.00000000      1.00000000      1.00000000      1.00000000      1.00000000      1.00000000      1.00000000      1.00000000      1.00000000      1.00000000      1.00000000      1.00000000      1.00000000      1.00000000      1.00000000      1.00000000
      1.00000000      1.00000000      1.00000000      1.00000000</v>
    <i name="NUPDOWN">     -1.00000000</i>
    <i type="logical" name="LSORBIT"> F  </i>
    <v name="SAXIS">      0.00000000      0.00000000      1.00000000</v>
    <i type="logical" name="LSPIRAL"> F  </i>
    <v name="QSPIRAL">      0.00000000      0.00000000      0.00000000</v>
    <i type="logical" name="LZEROZ"> F  </i>
   </separator>
   <separator name="electronic exchange-correlation" >
    <i type="logical" name="LASPH"> F  </i>
   </separator>
   <separator name="electronic convergence" >
    <i type="int" name="NELM">    60</i>
    <i type="int" name="NELMDL">    -5</i>
    <i type="int" name="NELMIN">     8</i>
    <i name="ENINI">    400.00000000</i>
    <separator name="electronic convergence detail" >
     <i type="logical" name="LDIAG"> T  </i>
     <i type="logical" name="LSUBROT"> F  </i>
     <i name="WEIMIN">      0.00100000</i>
     <i name="EBREAK">      0.00000000</i>
     <i name="DEPER">      0.30000000</i>
     <i type="int" name="NRMM">     4</i>
     <i name="TIME">      0.40000000</i>
    </separator>
   </separator>
   <separator name="electronic mixer" >
    <i name="AMIX">      0.40000000</i>
    <i name="BMIX">      1.00000000</i>
    <i name="AMIN">      0.10000000</i>
    <i name="AMIX_MAG">      1.60000000</i>
    <i name="BMIX_MAG">      1.00000000</i>
    <separator name="electronic mixer details" >
     <i type="int" name="IMIX">     4</i>
     <i type="logical" name="MIXFIRST"> F  </i>
     <i type="int" name="MAXMIX">   -45</i>
     <i name="WC">    100.00000000</i>
     <i type="int" name="INIMIX">     1</i>
     <i type="int" name="MIXPRE">     1</i>
     <i type="int" name="MREMOVE">     5</i>
    </separator>
   </separator>
   <separator name="electronic dipolcorrection" >
    <i type="logical" name="LDIPOL"> F  </i>
    <i type="logical" name="LMONO"> F  </i>
    <i type="int" name="IDIPOL">     0</i>
    <i name="EPSILON">      1.00000000</i>
    <v name="DIPOL">   -100.00000000   -100.00000000   -100.00000000</v>
    <i name="EFIELD">      0.00000000</i>
    <i type="logical" name="LVACPOTAV"> F  </i>
   </separator>
  </separator>
  <separator name="grids" >
   <i type="int" name="NGX">    70</i>
   <i type="int" name="NGY">    72</i>
   <i type="int" name="NGZ">    72</i>
   <i type="int" name="NGXF">   140</i>
   <i type="int" name="NGYF">   144</i>
   <i type="int" name="NGZF">   144</i>
   <i type="logical" name="ADDGRID"> T  </i>
  </separator>
  <separator name="ionic" >
   <i type="int" name="NSW">    60</i>
   <i type="int" name="IBRION">     2</i>
   <i type="int" name="MDALGO">     0</i>
   <i type="int" name="ISIF">     2</i>
   <i name="PSTRESS">      0.00000000</i>
   <i name="EDIFFG">     -0.01000000</i>
   <i type="int" name="NFREE">     1</i>
   <i name="POTIM">      0.50000000</i>
   <i name="SMASS">     -3.00000000</i>
   <i name="SCALEE">      1.00000000</i>
  </separator>
  <separator name="ionic md" >
   <i name="TEBEG">      0.00010000</i>
   <i name="TEEND">      0.00010000</i>
   <i type="int" name="NBLOCK">     1</i>
   <i type="int" name="KBLOCK">    60</i>
   <i type="int" name="NPACO">   256</i>
   <i name="APACO">     10.00000000</i>
  </separator>
  <separator name="symmetry" >
   <i type="int" name="ISYM">     2</i>
   <i name="SYMPREC">      0.00001000</i>
  </separator>
  <separator name="dos" >
   <i type="int" name="LORBIT">     0</i>
   <v name="RWIGS">     -1.00000000</v>
   <i type="int" name="NEDOS">   301</i>
   <i name="EMIN">     10.00000000</i>
   <i name="EMAX">    -10.00000000</i>
   <i name="EFERMI">      0.00000000</i>
  </separator>
  <separator name="writing" >
   <i type="int" name="NWRITE">     2</i>
   <i type="logical" name="LWAVE"> F  </i>
   <i type="logical" name="LDOWNSAMPLE"> F  </i>
   <i type="logical" name="LCHARG"> F  </i>
   <i type="logical" name="LPARD"> F  </i>
   <i type="logical" name="LVTOT"> F  </i>
   <i type="logical" name="LVHAR"> F  </i>
   <i type="logical" name="LELF"> F  </i>
   <i type="logical" name="LOPTICS"> F  </i>
   <v name="STM">      0.00000000      0.00000000      0.00000000      0.00000000      0.00000000      0.00000000      0.00000000</v>
  </separator>
  <separator name="performance" >
   <i type="int" name="NPAR">     2</i>
   <i type="int" name="NSIM">     4</i>
   <i type="int" name="NBLK">    -1</i>
   <i type="logical" name="LPLANE"> T  </i>
   <i type="logical" name="LSCALAPACK"> T  </i>
   <i type="logical" name="LSCAAWARE"> F  </i>
   <i type="logical" name="LSCALU"> F  </i>
   <i type="logical" name="LASYNC"> F  </i>
   <i type="logical" name="LORBITALREAL"> F  </i>
  </separator>
  <separator name="miscellaneous" >
   <i type="int" name="IDIOT">     3</i>
   <i type="int" name="PHON_NSTRUCT">    -1</i>
   <i type="logical" name="LMUSIC"> F  </i>
   <v name="POMASS">     28.08500000</v>
   <v name="DARWINR">      0.00000000</v>
   <v name="DARWINV">      1.00000000</v>
   <i type="logical" name="LCORR"> T  </i>
  </separator>
  <i type="logical" name="GGA_COMPAT"> F  </i>
  <i type="logical" name="LBERRY"> F  </i>
  <i type="int" name="ICORELEVEL">     0</i>
  <i type="logical" name="LDAU"> F  </i>
  <i type="int" name="I_CONSTRAINED_M">     0</i>
  <separator name="electronic exchange-correlation" >
   <i type="string" name="GGA    ">PS</i>
   <i type="string" name="XC_C">1</i>
   <i type="int" name="VOSKOWN">     0</i>
   <i type="logical" name="LHFCALC"> F  </i>
   <i type="string" name="PRECFOCK"></i>
   <i type="logical" name="LSYMGRAD"> F  </i>
   <i type="logical" name="LHFONE"> F  </i>
   <i type="logical" name="LRHFCALC"> F  </i>
   <i type="logical" name="LTHOMAS"> F  </i>
   <i type="logical" name="LMODELHF"> F  </i>
   <i type="logical" name="LFOCKACE"> F  </i>
   <i name="ENCUT4O">     -1.00000000</i>
   <i type="int" name="EXXOEP">     0</i>
   <i type="int" name="FOURORBIT">     0</i>
   <i name="AEXX">      0.00000000</i>
   <i name="HFALPHA">      0.00000000</i>
   <i name="MCALPHA">      0.00000000</i>
   <i name="ALDAX">      1.00000000</i>
   <i name="AGGAX">      1.00000000</i>
   <i name="AMGGAX">      1.00000000</i>
   <i name="ALDAC">      1.00000000</i>
   <i name="AGGAC">      1.00000000</i>
   <i name="AMGGAC">      1.00000000</i>
   <i type="int" name="NKREDX">     1</i>
   <i type="int" name="NKREDY">     1</i>
   <i type="int" name="NKREDZ">     1</i>
   <i type="logical" name="SHIFTRED"> F  </i>
   <i type="logical" name="ODDONLY"> F  </i>
   <i type="logical" name="EVENONLY"> F  </i>
   <i type="int" name="LMAXFOCK">     0</i>
   <i type="int" name="NMAXFOCKAE">     0</i>
   <i type="logical" name="LFOCKAEDFT"> F  </i>
   <i name="HFSCREEN">      0.00000000</i>
   <i name="HFSCREENC">      0.00000000</i>
   <i type="int" name="NBANDSGWLOW">     0</i>
  </separator>
  <separator name="vdW DFT" >
   <i type="logical" name="LUSE_VDW"> F  </i>
   <i type="int" name="IVDW_NL">    -1</i>
   <i type="logical" name="LSPIN_VDW"> F  </i>
   <i name="ZAB_VDW">     -0.84910000</i>
   <i name="GAMMA_VDW">      1.39626340</i>
   <i name="ALPHA_VDW">      0.00000000</i>
   <i name="PARAM1">      0.12340000</i>
   <i name="PARAM2">      1.00000000</i>
   <i name="BPARAM">      6.30000000</i>
   <i name="CPARAM">      0.00930000</i>
  </separator>
  <separator name="model GW" >
   <i type="int" name="MODEL_GW">     0</i>
   <i name="MODEL_EPS0">     11.80191430</i>
   <i name="MODEL_ALPHA">      1.00000000</i>
  </separator>
  <separator name="linear response parameters" >
   <i type="logical" name="LEPSILON"> F  </i>
   <i type="logical" name="LRPA"> F  </i>
   <i type="logical" name="LNABLA"> F  </i>
   <i type="logical" name="LVEL"> F  </i>
   <i name="CSHIFT">      0.10000000</i>
   <i name="OMEGAMAX">     -1.00000000</i>
   <i name="DEG_THRESHOLD">      0.00200000</i>
   <i name="RTIME">     -0.10000000</i>
   <i name="WPLASMAI">      0.00000000</i>
   <v name="DFIELD">      0.00000000      0.00000000      0.00000000</v>
   <v name="WPLASMA">      0.00000000      0.00000000      0.00000000      0.00000000      0.00000000      0.00000000      0.00000000      0.00000000      0.00000000</v>
  </separator>
  <separator name="orbital magnetization" >
   <i type="logical" name="NUCIND"> F  </i>
   <v name="MAGPOS">      0.00000000      0.00000000      0.00000000</v>
   <i type="logical" name="LNICSALL"> T  </i>
   <i type="logical" name="ORBITALMAG"> F  </i>
   <i type="logical" name="LMAGBLOCH"> F  </i>
   <i type="logical" name="LCHIMAG"> F  </i>
   <i type="logical" name="LGAUGE"> T  </i>
   <i type="int" name="MAGATOM">     0</i>
   <v name="MAGDIPOL">      0.00000000      0.00000000      0.00000000</v>
   <v name="AVECCONST">      0.00000000      0.00000000      0.00000000</v>
  </separator>
  <separator name="response functions" >
   <i type="logical" name="LALL_IN_ONE"> F  </i>
   <i type="int" name="IALL_IN_ONE">    -1</i>
   <i type="int" name="NBANDS_WAVE">    -1</i>
   <i type="logical" name="LFINITE_TEMPERATURE"> F  </i>
   <i type="logical" name="LADDER"> F  </i>
   <i type="logical" name="LRPAFORCE"> F  </i>
   <i type="logical" name="LFXC"> F  </i>
   <i type="logical" name="LHARTREE"> T  </i>
   <i type="int" name="IBSE">     0</i>
   <v type="int" name="KPOINT">    -1     0     0     0</v>
   <i type="logical" name="LTCTC"> F  </i>
   <i type="logical" name="LTCTE"> F  </i>
   <i type="logical" name="LTETE"> F  </i>
   <i type="logical" name="LTRIPLET"> F  </i>
   <i type="logical" name="LFXCEPS"> F  </i>
   <i type="logical" name="LFXHEG"> F  </i>
   <i type="int" name="NATURALO">     2</i>
   <i type="logical" name="LHOLEGF"> F  </i>
   <i type="logical" name="L2ORDER"> F  </i>
   <i type="logical" name="LDMP1"> F  </i>
   <i type="logical" name="LMP2LT"> F  </i>
   <i type="logical" name="LSMP2LT"> F  </i>
   <i type="logical" name="LGWLF"> F  </i>
   <i name="ENCUTGW">     -1.60000002</i>
   <i name="ENCUTGWSOFT">     -1.60000002</i>
   <i name="ENCUTLF">     -1.00000000</i>
   <i type="logical" name="ESF_SPLINES"> F  </i>
   <i name="ESF_CONV">      0.01000000</i>
   <i type="int" name="ESF_NINTER">    15</i>
   <i type="int" name="LMAXMP2">    -1</i>
   <i name="SCISSOR">      0.00000000</i>
   <i type="int" name="NOMEGA">     0</i>
   <i type="int" name="NOMEGAR">     0</i>
   <i type="int" name="NBANDSGW">    -1</i>
   <i type="int" name="NBANDSO">    -1</i>
   <i type="int" name="NBANDSV">    -1</i>
   <i type="int" name="NELMGW">     1</i>
   <i type="int" name="NELMHF">     1</i>
   <i type="int" name="DIM">     3</i>
   <i type="int" name="IESPILON">     4</i>
   <i type="int" name="ANTIRES">     0</i>
   <i name="OMEGAMAX">    -30.00000000</i>
   <i name="OMEGAMIN">    -30.00000000</i>
   <i name="OMEGATL">   -200.00000000</i>
   <i type="int" name="OMEGAGRID">     0</i>
   <i name="CSHIFT">     -0.10000000</i>
   <i type="logical" name="LSELFENERGY"> F  </i>
   <i type="logical" name="LSPECTRAL"> F  </i>
   <i type="logical" name="LSPECTRALGW"> F  </i>
   <i type="logical" name="LSINGLES"> F  </i>
   <i type="logical" name="LFERMIGW"> F  </i>
   <i type="logical" name="ODDONLYGW"> F  </i>
   <i type="logical" name="EVENONLYGW"> F  </i>
   <i type="int" name="NKREDLFX">     1</i>
   <i type="int" name="NKREDLFY">     1</i>
   <i type="int" name="NKREDLFZ">     1</i>
   <i type="int" name="MAXMEM">  2800</i>
   <i type="int" name="TELESCOPE">     0</i>
   <i type="int" name="NTAUPAR">    -1</i>
   <i type="int" name="NOMEGAPAR">    -1</i>
   <i name="DAMP_NEWTON">      0.80000001</i>
   <i name="LAMBDA">      1.00000000</i>
  </separator>
  <separator name="External order field" >
   <i name="OFIELD_KAPPA">      0.00000000</i>
   <v name="OFIELD_K">      0.00000000      0.00000000      0.00000000</v>
   <i name="OFIELD_Q6_NEAR">      0.00000000</i>
   <i name="OFIELD_Q6_FAR">      0.00000000</i>
   <i name="OFIELD_A">      0.00000000</i>
  </separator>
  <separator name="optional k-points parameters" >
   <i type="int" name="KPOINTS_OPT_MODE">     1</i>
   <i type="logical" name="LKPOINTS_OPT"> F  </i>
  </separator>
 </parameters>
 <atominfo>
  <atoms>      64 </atoms>
  <types>       1 </types>
  <array name="atoms" >
   <dimension dim="1">ion</dimension>
   <field type="string">element</field>
   <field type="int">atomtype</field>
   <set>
    <rc><c>Si</c><c>   1</c></rc>
    <rc><c>Si</c><c>   1</c></rc>
    <rc><c>Si</c><c>   1</c></rc>
    <rc><c>Si</c><c>   1</c></rc>
    <rc><c>Si</c><c>   1</c></rc>
    <rc><c>Si</c><c>   1</c></rc>
    <rc><c>Si</c><c>   1</c></rc>
    <rc><c>Si</c><c>   1</c></rc>
    <rc><c>Si</c><c>   1</c></rc>
    <rc><c>Si</c><c>   1</c></rc>
    <rc><c>Si</c><c>   1</c></rc>
    <rc><c>Si</c><c>   1</c></rc>
    <rc><c>Si</c><c>   1</c></rc>
    <rc><c>Si</c><c>   1</c></rc>
    <rc><c>Si</c><c>   1</c></rc>
    <rc><c>Si</c><c>   1</c></rc>
    <rc><c>Si</c><c>   1</c></rc>
    <rc><c>Si</c><c>   1</c></rc>
    <rc><c>Si</c><c>   1</c></rc>
    <rc><c>Si</c><c>   1</c></rc>
    <rc><c>Si</c><c>   1</c></rc>
    <rc><c>Si</c><c>   1</c></rc>
    <rc><c>Si</c><c>   1</c></rc>
    <rc><c>Si</c><c>   1</c></rc>
    <rc><c>Si</c><c>   1</c></rc>
    <rc><c>Si</c><c>   1</c></rc>
    <rc><c>Si</c><c>   1</c></rc>
    <rc><c>Si</c><c>   1</c></rc>
    <rc><c>Si</c><c>   1</c></rc>
    <rc><c>Si</c><c>   1</c></rc>
    <rc><c>Si</c><c>   1</c></rc>
    <rc><c>Si</c><c>   1</c></rc>
    <rc><c>Si</c><c>   1</c></rc>
    <rc><c>Si</c><c>   1</c></rc>
    <rc><c>Si</c><c>   1</c></rc>
    <rc><c>Si</c><c>   1</c></rc>
    <rc><c>Si</c><c>   1</c></rc>
    <rc><c>Si</c><c>   1</c></rc>
    <rc><c>Si</c><c>   1</c></rc>
    <rc><c>Si</c><c>   1</c></rc>
    <rc><c>Si</c><c>   1</c></rc>
    <rc><c>Si</c><c>   1</c></rc>
    <rc><c>Si</c><c>   1</c></rc>
    <rc><c>Si</c><c>   1</c></rc>
    <rc><c>Si</c><c>   1</c></rc>
    <rc><c>Si</c><c>   1</c></rc>
    <rc><c>Si</c><c>   1</c></rc>
    <rc><c>Si</c><c>   1</c></rc>
    <rc><c>Si</c><c>   1</c></rc>
    <rc><c>Si</c><c>   1</c></rc>
    <rc><c>Si</c><c>   1</c></rc>
    <rc><c>Si</c><c>   1</c></rc>
    <rc><c>Si</c><c>   1</c></rc>
    <rc><c>Si</c><c>   1</c></rc>
    <rc><c>Si</c><c>   1</c></rc>
    <rc><c>Si</c><c>   1</c></rc>
    <rc><c>Si</c><c>   1</c></rc>
    <rc><c>Si</c><c>   1</c></rc>
    <rc><c>Si</c><c>   1</c></rc>
    <rc><c>Si</c><c>   1</c></rc>
    <rc><c>Si</c><c>   1</c></rc>
    <rc><c>Si</c><c>   1</c></rc>
    <rc><c>Si</c><c>   1</c></rc>
    <rc><c>Si</c><c>   1</c></rc>
   </set>
  </array>
  <array name="atomtypes" >
   <dimension dim="1">type</dimension>
   <field type="int">atomspertype</field>
   <field type="string">element</field>
   <field>mass</field>
   <field>valence</field>
   <field type="string">pseudopotential</field>
   <set>
    <rc><c>  64</c><c>Si</c><c>     28.08500000</c><c>      4.00000000</c><c>  PAW_PBE Si 05Jan2001                  </c></rc>
   </set>
  </array>
 </atominfo>
 <structure name="initialpos" >
  <crystal>
   <varray name="basis" >
    <v>      10.72558158      -0.05417001       0.00000000 </v>
    <v>      -0.05417001      10.83392060       0.00000000 </v>
    <v>       0.00000000       0.00000000      10.83392060 </v>
   </varray>
   <i name="volume">   1258.87085824 </i>
   <varray name="rec_basis" >
    <v>       0.09323739       0.00046619       0.00000000 </v>
    <v>       0.00046619       0.09230502       0.00000000 </v>
    <v>       0.00000000       0.00000000       0.09230269 </v>
   </varray>
  </crystal>
  <varray name="positions" >
   <v>       0.00000000       0.00000000       0.00000000 </v>
   <v>       0.00000000       0.00000000       0.50000000 </v>
   <v>       0.00000000       0.50000000       0.00000000 </v>
   <v>       0.00000000       0.50000000       0.50000000 </v>
   <v>       0.50000000       0.00000000       0.00000000 </v>
   <v>       0.50000000       0.00000000       0.50000000 </v>
   <v>       0.50000000       0.50000000       0.00000000 </v>
   <v>       0.50000000       0.50000000       0.50000000 </v>
   <v>       0.37500000       0.37500000       0.12500000 </v>
   <v>       0.37500000       0.37500000       0.62500000 </v>
   <v>       0.37500000       0.87500000       0.12500000 </v>
   <v>       0.37500000       0.87500000       0.62500000 </v>
   <v>       0.87500000       0.37500000       0.12500000 </v>
   <v>       0.87500000       0.37500000       0.62500000 </v>
   <v>       0.87500000       0.87500000       0.12500000 </v>
   <v>       0.87500000       0.87500000       0.62500000 </v>
   <v>       0.00000000       0.25000000       0.25000000 </v>
   <v>       0.00000000       0.25000000       0.75000000 </v>
   <v>       0.00000000       0.75000000       0.25000000 </v>
   <v>       0.00000000       0.75000000       0.75000000 </v>
   <v>       0.50000000       0.25000000       0.25000000 </v>
   <v>       0.50000000       0.25000000       0.75000000 </v>
   <v>       0.50000000       0.75000000       0.25000000 </v>
   <v>       0.50000000       0.75000000       0.75000000 </v>
   <v>       0.37500000       0.12500000       0.37500000 </v>
   <v>       0.37500000       0.12500000       0.87500000 </v>
   <v>       0.37500000       0.62500000       0.37500000 </v>
   <v>       0.37500000       0.62500000       0.87500000 </v>
   <v>       0.87500000       0.12500000       0.37500000 </v>
   <v>       0.87500000       0.12500000       0.87500000 </v>
   <v>       0.87500000       0.62500000       0.37500000 </v>
   <v>       0.87500000       0.62500000       0.87500000 </v>
   <v>       0.25000000       0.00000000       0.25000000 </v>
   <v>       0.25000000       0.00000000       0.75000000 </v>
   <v>       0.25000000       0.50000000       0.25000000 </v>
   <v>       0.25000000       0.50000000       0.75000000 </v>
   <v>       0.75000000       0.00000000       0.25000000 </v>
   <v>       0.75000000       0.00000000       0.75000000 </v>
   <v>       0.75000000       0.50000000       0.25000000 </v>
   <v>       0.75000000       0.50000000       0.75000000 </v>
   <v>       0.12500000       0.37500000       0.37500000 </v>
   <v>       0.12500000       0.37500000       0.87500000 </v>
   <v>       0.12500000       0.87500000       0.37500000 </v>
   <v>       0.12500000       0.87500000       0.87500000 </v>
   <v>       0.62500000       0.37500000       0.37500000 </v>
   <v>       0.62500000       0.37500000       0.87500000 </v>
   <v>       0.62500000       0.87500000       0.37500000 </v>
   <v>       0.62500000       0.87500000       0.87500000 </v>
   <v>       0.25000000       0.25000000       0.00000000 </v>
   <v>       0.25000000       0.25000000       0.50000000 </v>
   <v>       0.25000000       0.75000000       0.00000000 </v>
   <v>       0.25000000       0.75000000       0.50000000 </v>
   <v>       0.75000000       0.25000000       0.00000000 </v>
   <v>       0.75000000       0.25000000       0.50000000 </v>
   <v>       0.75000000       0.75000000       0.00000000 </v>
   <v>       0.75000000       0.75000000       0.50000000 </v>
   <v>       0.12500000       0.12500000       0.12500000 </v>
   <v>       0.12500000       0.12500000       0.62500000 </v>
   <v>       0.12500000       0.62500000       0.12500000 </v>
   <v>       0.12500000       0.62500000       0.62500000 </v>
   <v>       0.62500000       0.12500000       0.12500000 </v>
   <v>       0.62500000       0.12500000       0.62500000 </v>
   <v>       0.62500000       0.62500000       0.12500000 </v>
   <v>       0.62500000       0.62500000       0.62500000 </v>
  </varray>
 </structure>
 <calculation>
  <scstep>
   <time name="dav">    1.29    1.36</time>
   <time name="total">    1.46    1.53</time>
   <energy>
    <i name="alphaZ">    109.53004659 </i>
    <i name="ewald">  -7356.27947085 </i>
    <i name="hartreedc">   -343.79611732 </i>
    <i name="XCdc">   -556.52784518 </i>
    <i name="pawpsdc">   5598.62625415 </i>
    <i name="pawaedc">  -4492.17844134 </i>
    <i name="eentropy">      0.00259450 </i>
    <i name="bandstr">   1037.43369447 </i>
    <i name="atom">   6564.79586099 </i>
    <i name="e_fr_energy">    561.60657601 </i>
    <i name="e_wo_entrp">    561.60398151 </i>
    <i name="e_0_energy">    561.60571118 </i>
   </energy>
  </scstep>
  <scstep>
   <time name="dav">    1.35    1.36</time>
   <time name="total">    1.35    1.36</time>
   <energy>
    <i name="e_fr_energy">   -311.17665982 </i>
    <i name="e_wo_entrp">   -311.17340336 </i>
    <i name="e_0_energy">   -311.17557434 </i>
   </energy>
  </scstep>
  <scstep>
   <time name="dav">    1.39    1.40</time>
   <time name="total">    1.39    1.40</time>
   <energy>
    <i name="e_fr_energy">   -373.30830041 </i>
    <i name="e_wo_entrp">   -373.31559565 </i>
    <i name="e_0_energy">   -373.31073216 </i>
   </energy>
  </scstep>
  <scstep>
   <time name="dav">    1.36    1.37</time>
   <time name="total">    1.36    1.37</time>
   <energy>
    <i name="e_fr_energy">   -374.90665615 </i>
    <i name="e_wo_entrp">   -374.91517946 </i>
    <i name="e_0_energy">   -374.90949726 </i>
   </energy>
  </scstep>
  <scstep>
   <time name="dav">    1.35    1.37</time>
   <time name="total">    1.61    1.63</time>
   <energy>
    <i name="e_fr_energy">   -374.95846686 </i>
    <i name="e_wo_entrp">   -374.96696758 </i>
    <i name="e_0_energy">   -374.96130043 </i>
   </energy>
  </scstep>
  <scstep>
   <time name="diag">    0.13    0.13</time>
   <time name="diis">    0.74    0.74</time>
   <time name="orth">    0.02    0.02</time>
   <time name="total">    1.29    1.32</time>
   <energy>
    <i name="e_fr_energy">   -369.71180033 </i>
    <i name="e_wo_entrp">   -369.72170556 </i>
    <i name="e_0_energy">   -369.71510207 </i>
   </energy>
  </scstep>
  <scstep>
   <time name="diag">    0.13    0.13</time>
   <time name="diis">    0.73    0.73</time>
   <time name="orth">    0.02    0.02</time>
   <time name="total">    1.29    1.31</time>
   <energy>
    <i name="e_fr_energy">   -367.34026539 </i>
    <i name="e_wo_entrp">   -367.37277567 </i>
    <i name="e_0_energy">   -367.35110215 </i>
   </energy>
  </scstep>
  <scstep>
   <time name="diag">    0.13    0.13</time>
   <time name="diis">    0.74    0.74</time>
   <time name="orth">    0.02    0.02</time>
   <time name="total">    1.30    1.31</time>
   <energy>
    <i name="e_fr_energy">   -367.37915355 </i>
    <i name="e_wo_entrp">   -367.41012778 </i>
    <i name="e_0_energy">   -367.38947829 </i>
   </energy>
  </scstep>
  <scstep>
   <time name="diag">    0.13    0.13</time>
   <time name="diis">    0.74    0.74</time>
   <time name="orth">    0.02    0.02</time>
   <time name="total">    1.29    1.31</time>
   <energy>
    <i name="e_fr_energy">   -367.39897600 </i>
    <i name="e_wo_entrp">   -367.43043563 </i>
    <i name="e_0_energy">   -367.40946254 </i>
   </energy>
  </scstep>
  <scstep>
   <time name="diag">    0.13    0.13</time>
   <time name="diis">    0.77    0.78</time>
   <time name="orth">    0.02    0.02</time>
   <time name="total">    1.32    1.35</time>
   <energy>
    <i name="e_fr_energy">   -367.40225787 </i>
    <i name="e_wo_entrp">   -367.43372053 </i>
    <i name="e_0_energy">   -367.41274542 </i>
   </energy>
  </scstep>
  <scstep>
   <time name="diag">    0.13    0.13</time>
   <time name="diis">    0.72    0.72</time>
   <time name="orth">    0.02    0.02</time>
   <time name="total">    1.27    1.29</time>
   <energy>
    <i name="e_fr_energy">   -367.39978317 </i>
    <i name="e_wo_entrp">   -367.43058219 </i>
    <i name="e_0_energy">   -367.41004951 </i>
   </energy>
  </scstep>
  <scstep>
   <time name="diag">    0.13    0.13</time>
   <time name="diis">    0.71    0.71</time>
   <time name="orth">    0.02    0.02</time>
   <time name="total">    1.26    1.28</time>
   <energy>
    <i name="e_fr_energy">   -367.39977420 </i>
    <i name="e_wo_entrp">   -367.43053664 </i>
    <i name="e_0_energy">   -367.41002835 </i>
   </energy>
  </scstep>
  <scstep>
   <time name="diag">    0.13    0.13</time>
   <time name="diis">    0.76    0.76</time>
   <time name="orth">    0.02    0.02</time>
   <time name="total">    1.31    1.33</time>
   <energy>
    <i name="e_fr_energy">   -367.39985529 </i>
    <i name="e_wo_entrp">   -367.43061956 </i>
    <i name="e_0_energy">   -367.41011004 </i>
   </energy>
  </scstep>
  <scstep>
   <time name="diag">    0.13    0.13</time>
   <time name="diis">    0.72    0.72</time>
   <time name="orth">    0.02    0.02</time>
   <time name="total">    1.27    1.28</time>
   <energy>
    <i name="e_fr_energy">   -367.39923433 </i>
    <i name="e_wo_entrp">   -367.42998823 </i>
    <i name="e_0_energy">   -367.40948563 </i>
   </energy>
  </scstep>
  <scstep>
   <time name="diag">    0.13    0.13</time>
   <time name="diis">    0.72    0.72</time>
   <time name="orth">    0.02    0.02</time>
   <time name="total">    1.27    1.29</time>
   <energy>
    <i name="e_fr_energy">   -367.39944356 </i>
    <i name="e_wo_entrp">   -367.43014245 </i>
    <i name="e_0_energy">   -367.40967652 </i>
   </energy>
  </scstep>
  <scstep>
   <time name="diag">    0.14    0.14</time>
   <time name="diis">    0.72    0.72</time>
   <time name="orth">    0.02    0.02</time>
   <time name="total">    1.28    1.30</time>
   <energy>
    <i name="e_fr_energy">   -367.39983152 </i>
    <i name="e_wo_entrp">   -367.43053935 </i>
    <i name="e_0_energy">   -367.41006746 </i>
   </energy>
  </scstep>
  <scstep>
   <time name="diag">    0.13    0.13</time>
   <time name="diis">    0.71    0.71</time>
   <time name="orth">    0.02    0.02</time>
   <time name="total">    1.26    1.28</time>
   <energy>
    <i name="e_fr_energy">   -367.39992918 </i>
    <i name="e_wo_entrp">   -367.43065761 </i>
    <i name="e_0_energy">   -367.41017199 </i>
   </energy>
  </scstep>
  <scstep>
   <time name="diag">    0.13    0.13</time>
   <time name="diis">    0.72    0.72</time>
   <time name="orth">    0.02    0.02</time>
   <time name="total">    1.28    1.30</time>
   <energy>
    <i name="e_fr_energy">   -367.39999731 </i>
    <i name="e_wo_entrp">   -367.43072137 </i>
    <i name="e_0_energy">   -367.41023866 </i>
   </energy>
  </scstep>
  <scstep>
   <time name="diag">    0.13    0.13</time>
   <time name="diis">    0.76    0.76</time>
   <time name="orth">    0.02    0.02</time>
   <time name="total">    1.31    1.33</time>
   <energy>
    <i name="e_fr_energy">   -367.40016243 </i>
    <i name="e_wo_entrp">   -367.43086471 </i>
    <i name="e_0_energy">   -367.41039652 </i>
   </energy>
  </scstep>
  <scstep>
   <time name="diag">    0.13    0.13</time>
   <time name="diis">    0.74    0.74</time>
   <time name="orth">    0.02    0.02</time>
   <time name="total">    1.30    1.31</time>
   <energy>
    <i name="e_fr_energy">   -367.40023645 </i>
    <i name="e_wo_entrp">   -367.43091836 </i>
    <i name="e_0_energy">   -367.41046375 </i>
   </energy>
  </scstep>
  <scstep>
   <time name="diag">    0.13    0.13</time>
   <time name="diis">    0.71    0.72</time>
   <time name="orth">    0.02    0.02</time>
   <time name="total">    1.28    1.31</time>
   <energy>
    <i name="e_fr_energy">   -367.40024869 </i>
    <i name="e_wo_entrp">   -367.43092611 </i>
    <i name="e_0_energy">   -367.41047450 </i>
   </energy>
  </scstep>
  <scstep>
   <time name="diag">    0.13    0.14</time>
   <time name="diis">    0.47    0.48</time>
   <time name="orth">    0.02    0.02</time>
   <time name="total">    1.02    1.05</time>
   <energy>
    <i name="e_fr_energy">   -367.40025131 </i>
    <i name="e_wo_entrp">   -367.43093000 </i>
    <i name="e_0_energy">   -367.41047754 </i>
   </energy>
  </scstep>
  <scstep>
   <time name="diag">    0.14    0.14</time>
   <time name="diis">    0.46    0.46</time>
   <time name="orth">    0.02    0.02</time>
   <time name="total">    1.03    1.04</time>
   <energy>
    <i name="e_fr_energy">   -367.40025266 </i>
    <i name="e_wo_entrp">   -367.43093213 </i>
    <i name="e_0_energy">   -367.41047915 </i>
   </energy>
  </scstep>
  <scstep>
   <time name="diag">    0.13    0.14</time>
   <time name="diis">    0.45    0.47</time>
   <time name="orth">    0.02    0.02</time>
   <time name="total">    0.76    0.79</time>
   <energy>
    <i name="alphaZ">    109.53004659 </i>
    <i name="ewald">  -7356.27947085 </i>
    <i name="hartreedc">   -461.61008989 </i>
    <i name="XCdc">   -536.64692998 </i>
    <i name="pawpsdc">  28868.12174965 </i>
    <i name="pawaedc"> -27768.99951800 </i>
    <i name="eentropy">      0.03067772 </i>
    <i name="bandstr">    213.65742119 </i>
    <i name="atom">   6564.79586099 </i>
    <i name="e_fr_energy">   -367.40025257 </i>
    <i name="e_wo_entrp">   -367.43093029 </i>
    <i name="e_0_energy">   -367.41047848 </i>
   </energy>
  </scstep>
  <structure>
   <crystal>
    <varray name="basis" >
     <v>      10.72558158      -0.05417001       0.00000000 </v>
     <v>      -0.05417001      10.83392060       0.00000000 </v>
     <v>       0.00000000       0.00000000      10.83392060 </v>
    </varray>
    <i name="volume">   1258.87085824 </i>
    <varray name="rec_basis" >
     <v>       0.09323739       0.00046619       0.00000000 </v>
     <v>       0.00046619       0.09230502       0.00000000 </v>
     <v>       0.00000000       0.00000000       0.09230269 </v>
    </varray>
   </crystal>
   <varray name="positions" >
    <v>       0.00000000       0.00000000       0.00000000 </v>
    <v>       0.00000000       0.00000000       0.50000000 </v>
    <v>       0.00000000       0.50000000       0.00000000 </v>
    <v>       0.00000000       0.50000000       0.50000000 </v>
    <v>       0.50000000       0.00000000       0.00000000 </v>
    <v>       0.50000000       0.00000000       0.50000000 </v>
    <v>       0.50000000       0.50000000       0.00000000 </v>
    <v>       0.50000000       0.50000000       0.50000000 </v>
    <v>       0.37500000       0.37500000       0.12500000 </v>
    <v>       0.37500000       0.37500000       0.62500000 </v>
    <v>       0.37500000       0.87500000       0.12500000 </v>
    <v>       0.37500000       0.87500000       0.62500000 </v>
    <v>       0.87500000       0.37500000       0.12500000 </v>
    <v>       0.87500000       0.37500000       0.62500000 </v>
    <v>       0.87500000       0.87500000       0.12500000 </v>
    <v>       0.87500000       0.87500000       0.62500000 </v>
    <v>       0.00000000       0.25000000       0.25000000 </v>
    <v>       0.00000000       0.25000000       0.75000000 </v>
    <v>       0.00000000       0.75000000       0.25000000 </v>
    <v>       0.00000000       0.75000000       0.75000000 </v>
    <v>       0.50000000       0.25000000       0.25000000 </v>
    <v>       0.50000000       0.25000000       0.75000000 </v>
    <v>       0.50000000       0.75000000       0.25000000 </v>
    <v>       0.50000000       0.75000000       0.75000000 </v>
    <v>       0.37500000       0.12500000       0.37500000 </v>
    <v>       0.37500000       0.12500000       0.87500000 </v>
    <v>       0.37500000       0.62500000       0.37500000 </v>
    <v>       0.37500000       0.62500000       0.87500000 </v>
    <v>       0.87500000       0.12500000       0.37500000 </v>
    <v>       0.87500000       0.12500000       0.87500000 </v>
    <v>       0.87500000       0.62500000       0.37500000 </v>
    <v>       0.87500000       0.62500000       0.87500000 </v>
    <v>       0.25000000       0.00000000       0.25000000 </v>
    <v>       0.25000000       0.00000000       0.75000000 </v>
    <v>       0.25000000       0.50000000       0.25000000 </v>
    <v>       0.25000000       0.50000000       0.75000000 </v>
    <v>       0.75000000       0.00000000       0.25000000 </v>
    <v>       0.75000000       0.00000000       0.75000000 </v>
    <v>       0.75000000       0.50000000       0.25000000 </v>
    <v>       0.75000000       0.50000000       0.75000000 </v>
    <v>       0.12500000       0.37500000       0.37500000 </v>
    <v>       0.12500000       0.37500000       0.87500000 </v>
    <v>       0.12500000       0.87500000       0.37500000 </v>
    <v>       0.12500000       0.87500000       0.87500000 </v>
    <v>       0.62500000       0.37500000       0.37500000 </v>
    <v>       0.62500000       0.37500000       0.87500000 </v>
    <v>       0.62500000       0.87500000       0.37500000 </v>
    <v>       0.62500000       0.87500000       0.87500000 </v>
    <v>       0.25000000       0.25000000       0.00000000 </v>
    <v>       0.25000000       0.25000000       0.50000000 </v>
    <v>       0.25000000       0.75000000       0.00000000 </v>
    <v>       0.25000000       0.75000000       0.50000000 </v>
    <v>       0.75000000       0.25000000       0.00000000 </v>
    <v>       0.75000000       0.25000000       0.50000000 </v>
    <v>       0.75000000       0.75000000       0.00000000 </v>
    <v>       0.75000000       0.75000000       0.50000000 </v>
    <v>       0.12500000       0.12500000       0.12500000 </v>
    <v>       0.12500000       0.12500000       0.62500000 </v>
    <v>       0.12500000       0.62500000       0.12500000 </v>
    <v>       0.12500000       0.62500000       0.62500000 </v>
    <v>       0.62500000       0.12500000       0.12500000 </v>
    <v>       0.62500000       0.12500000       0.62500000 </v>
    <v>       0.62500000       0.62500000       0.12500000 </v>
    <v>       0.62500000       0.62500000       0.62500000 </v>
   </varray>
  </structure>
  <varray name="forces" >
   <v>      -0.00000000       0.00000000      -0.10690092 </v>
   <v>      -0.00000000       0.00000000      -0.10690092 </v>
   <v>       0.00000000      -0.00000000      -0.10690092 </v>
   <v>       0.00000000      -0.00000000      -0.10690092 </v>
   <v>      -0.00000000       0.00000000      -0.10690092 </v>
   <v>      -0.00000000      -0.00000000      -0.10690092 </v>
   <v>       0.00000000      -0.00000000      -0.10690092 </v>
   <v>      -0.00000000       0.00000000      -0.10690092 </v>
   <v>       0.00000000       0.00000000       0.10690092 </v>
   <v>      -0.00000000       0.00000000       0.10690092 </v>
   <v>       0.00000000      -0.00000000       0.10690092 </v>
   <v>      -0.00000000       0.00000000       0.10690092 </v>
   <v>      -0.00000000       0.00000000       0.10690092 </v>
   <v>       0.00000000      -0.00000000       0.10690092 </v>
   <v>      -0.00000000       0.00000000       0.10690092 </v>
   <v>       0.00000000      -0.00000000       0.10690092 </v>
   <v>      -0.00000000       0.00000000      -0.10690092 </v>
   <v>      -0.00000000       0.00000000      -0.10690092 </v>
   <v>       0.00000000      -0.00000000      -0.10690092 </v>
   <v>       0.00000000      -0.00000000      -0.10690092 </v>
   <v>       0.00000000       0.00000000      -0.10690092 </v>
   <v>       0.00000000       0.00000000      -0.10690092 </v>
   <v>      -0.00000000       0.00000000      -0.10690092 </v>
   <v>      -0.00000000      -0.00000000      -0.10690092 </v>
   <v>      -0.00000000       0.00000000       0.10690092 </v>
   <v>       0.00000000      -0.00000000       0.10690092 </v>
   <v>      -0.00000000      -0.00000000       0.10690092 </v>
   <v>      -0.00000000      -0.00000000       0.10690092 </v>
   <v>      -0.00000000      -0.00000000       0.10690092 </v>
   <v>       0.00000000      -0.00000000       0.10690092 </v>
   <v>      -0.00000000       0.00000000       0.10690092 </v>
   <v>       0.00000000      -0.00000000       0.10690092 </v>
   <v>      -0.00000000       0.00000000      -0.10690092 </v>
   <v>       0.00000000       0.00000000      -0.10690092 </v>
   <v>       0.00000000      -0.00000000      -0.10690092 </v>
   <v>      -0.00000000      -0.00000000      -0.10690092 </v>
   <v>      -0.00000000       0.00000000      -0.10690092 </v>
   <v>      -0.00000000      -0.00000000      -0.10690092 </v>
   <v>       0.00000000       0.00000000      -0.10690092 </v>
   <v>       0.00000000      -0.00000000      -0.10690092 </v>
   <v>      -0.00000000      -0.00000000       0.10690092 </v>
   <v>       0.00000000      -0.00000000       0.10690092 </v>
   <v>       0.00000000       0.00000000       0.10690092 </v>
   <v>       0.00000000      -0.00000000       0.10690092 </v>
   <v>       0.00000000       0.00000000       0.10690092 </v>
   <v>       0.00000000       0.00000000       0.10690092 </v>
   <v>      -0.00000000       0.00000000       0.10690092 </v>
   <v>      -0.00000000       0.00000000       0.10690092 </v>
   <v>      -0.00000000      -0.00000000      -0.10690092 </v>
   <v>      -0.00000000       0.00000000      -0.10690092 </v>
   <v>       0.00000000      -0.00000000      -0.10690092 </v>
   <v>      -0.00000000      -0.00000000      -0.10690092 </v>
   <v>       0.00000000       0.00000000      -0.10690092 </v>
   <v>       0.00000000       0.00000000      -0.10690092 </v>
   <v>      -0.00000000      -0.00000000      -0.10690092 </v>
   <v>      -0.00000000      -0.00000000      -0.10690092 </v>
   <v>       0.00000000       0.00000000       0.10690092 </v>
   <v>      -0.00000000      -0.00000000       0.10690092 </v>
   <v>       0.00000000      -0.00000000       0.10690092 </v>
   <v>       0.00000000      -0.00000000       0.10690092 </v>
   <v>       0.00000000      -0.00000000       0.10690092 </v>
   <v>       0.00000000      -0.00000000       0.10690092 </v>
   <v>      -0.00000000       0.00000000       0.10690092 </v>
   <v>       0.00000000       0.00000000       0.10690092 </v>
  </varray>
  <varray name="stress" >
   <v>      25.90989380      10.94077594       0.00000000 </v>
   <v>      10.94077596      17.40157168       0.00000000 </v>
   <v>       0.00000000       0.00000000      17.30139818 </v>
  </varray>
  <energy>
   <i name="e_fr_energy">   -367.40025257 </i>
   <i name="e_wo_entrp">   -367.43093029 </i>
   <i name="e_0_energy">   -367.41047848 </i>
  </energy>
  <time name="totalsc">   34.12   34.65</time>
 </calculation>
 <calculation>
  <scstep>
   <time name="dav">    1.29    1.30</time>
   <time name="total">    1.69    1.70</time>
   <energy>
    <i name="alphaZ">    109.53004659 </i>
    <i name="ewald">  -7356.50080560 </i>
    <i name="hartreedc">   -461.47681383 </i>
    <i name="XCdc">   -536.65332400 </i>
    <i name="pawpsdc">  28868.06375364 </i>
    <i name="pawaedc"> -27768.94119420 </i>
    <i name="eentropy">      0.02893242 </i>
    <i name="bandstr">    213.74460766 </i>
    <i name="atom">   6564.79586099 </i>
    <i name="e_fr_energy">   -367.40893634 </i>
    <i name="e_wo_entrp">   -367.43786876 </i>
    <i name="e_0_energy">   -367.41858048 </i>
   </energy>
  </scstep>
  <scstep>
   <time name="diag">    0.13    0.13</time>
   <time name="diis">    0.72    0.72</time>
   <time name="orth">    0.02    0.02</time>
   <time name="total">    1.28    1.29</time>
   <energy>
    <i name="e_fr_energy">   -367.41125163 </i>
    <i name="e_wo_entrp">   -367.44016006 </i>
    <i name="e_0_energy">   -367.42088777 </i>
   </energy>
  </scstep>
  <scstep>
   <time name="diag">    0.14    0.14</time>
   <time name="diis">    0.72    0.73</time>
   <time name="orth">    0.02    0.02</time>
   <time name="total">    1.29    1.30</time>
   <energy>
    <i name="e_fr_energy">   -367.41161969 </i>
    <i name="e_wo_entrp">   -367.44059002 </i>
    <i name="e_0_energy">   -367.42127646 </i>
   </energy>
  </scstep>
  <scstep>
   <time name="diag">    0.13    0.13</time>
   <time name="diis">    0.73    0.73</time>
   <time name="orth">    0.02    0.02</time>
   <time name="total">    1.29    1.31</time>
   <energy>
    <i name="e_fr_energy">   -367.41162082 </i>
    <i name="e_wo_entrp">   -367.44065395 </i>
    <i name="e_0_energy">   -367.42129853 </i>
   </energy>
  </scstep>
  <scstep>
   <time name="diag">    0.13    0.13</time>
   <time name="diis">    0.74    0.74</time>
   <time name="orth">    0.02    0.02</time>
   <time name="total">    1.29    1.31</time>
   <energy>
    <i name="e_fr_energy">   -367.41162447 </i>
    <i name="e_wo_entrp">   -367.44068156 </i>
    <i name="e_0_energy">   -367.42131017 </i>
   </energy>
  </scstep>
  <scstep>
   <time name="diag">    0.13    0.13</time>
   <time name="diis">    0.73    0.74</time>
   <time name="orth">    0.02    0.02</time>
   <time name="total">    1.28    1.31</time>
   <energy>
    <i name="e_fr_energy">   -367.41162662 </i>
    <i name="e_wo_entrp">   -367.44068312 </i>
    <i name="e_0_energy">   -367.42131212 </i>
   </energy>
  </scstep>
  <scstep>
   <time name="diag">    0.17    0.17</time>
   <time name="diis">    0.52    0.52</time>
   <time name="orth">    0.02    0.02</time>
   <time name="total">    1.10    1.14</time>
   <energy>
    <i name="e_fr_energy">   -367.41162689 </i>
    <i name="e_wo_entrp">   -367.44068313 </i>
    <i name="e_0_energy">   -367.42131230 </i>
   </energy>
  </scstep>
  <scstep>
   <time name="diag">    0.13    0.13</time>
   <time name="diis">    0.45    0.45</time>
   <time name="orth">    0.02    0.02</time>
   <time name="total">    0.76    0.76</time>
   <energy>
    <i name="alphaZ">    109.53004659 </i>
    <i name="ewald">  -7356.50080560 </i>
    <i name="hartreedc">   -461.44456551 </i>
    <i name="XCdc">   -536.65990403 </i>
    <i name="pawpsdc">  28855.45900017 </i>
    <i name="pawaedc"> -27756.33227559 </i>
    <i name="eentropy">      0.02905629 </i>
    <i name="bandstr">    213.71195976 </i>
    <i name="atom">   6564.79586099 </i>
    <i name="e_fr_energy">   -367.41162694 </i>
    <i name="e_wo_entrp">   -367.44068323 </i>
    <i name="e_0_energy">   -367.42131237 </i>
   </energy>
  </scstep>
  <structure>
   <crystal>
    <varray name="basis" >
     <v>      10.72558158      -0.05417001       0.00000000 </v>
     <v>      -0.05417001      10.83392060       0.00000000 </v>
     <v>       0.00000000       0.00000000      10.83392060 </v>
    </varray>
    <i name="volume">   1258.87085824 </i>
    <varray name="rec_basis" >
     <v>       0.09323739       0.00046619       0.00000000 </v>
     <v>       0.00046619       0.09230502       0.00000000 </v>
     <v>       0.00000000       0.00000000       0.09230269 </v>
    </varray>
   </crystal>
   <varray name="positions" >
    <v>       1.00000000       0.00000000       0.99952398 </v>
    <v>       1.00000000       0.00000000       0.49952398 </v>
    <v>       0.00000000       0.50000000       0.99952398 </v>
    <v>       0.00000000       0.50000000       0.49952398 </v>
    <v>       0.50000000       0.00000000       0.99952398 </v>
    <v>       0.50000000       1.00000000       0.49952398 </v>
    <v>       0.50000000       0.50000000       0.99952398 </v>
    <v>       0.50000000       0.50000000       0.49952398 </v>
    <v>       0.37500000       0.37500000       0.12547602 </v>
    <v>       0.37500000       0.37500000       0.62547602 </v>
    <v>       0.37500000       0.87500000       0.12547602 </v>
    <v>       0.37500000       0.87500000       0.62547602 </v>
    <v>       0.87500000       0.37500000       0.12547602 </v>
    <v>       0.87500000       0.37500000       0.62547602 </v>
    <v>       0.87500000       0.87500000       0.12547602 </v>
    <v>       0.87500000       0.87500000       0.62547602 </v>
    <v>       1.00000000       0.25000000       0.24952398 </v>
    <v>       1.00000000       0.25000000       0.74952398 </v>
    <v>       1.00000000       0.75000000       0.24952398 </v>
    <v>       0.00000000       0.75000000       0.74952398 </v>
    <v>       0.50000000       0.25000000       0.24952398 </v>
    <v>       0.50000000       0.25000000       0.74952398 </v>
    <v>       0.50000000       0.75000000       0.24952398 </v>
    <v>       0.50000000       0.75000000       0.74952398 </v>
    <v>       0.37500000       0.12500000       0.37547602 </v>
    <v>       0.37500000       0.12500000       0.87547602 </v>
    <v>       0.37500000       0.62500000       0.37547602 </v>
    <v>       0.37500000       0.62500000       0.87547602 </v>
    <v>       0.87500000       0.12500000       0.37547602 </v>
    <v>       0.87500000       0.12500000       0.87547602 </v>
    <v>       0.87500000       0.62500000       0.37547602 </v>
    <v>       0.87500000       0.62500000       0.87547602 </v>
    <v>       0.25000000       0.00000000       0.24952398 </v>
    <v>       0.25000000       0.00000000       0.74952398 </v>
    <v>       0.25000000       0.50000000       0.24952398 </v>
    <v>       0.25000000       0.50000000       0.74952398 </v>
    <v>       0.75000000       0.00000000       0.24952398 </v>
    <v>       0.75000000       1.00000000       0.74952398 </v>
    <v>       0.75000000       0.50000000       0.24952398 </v>
    <v>       0.75000000       0.50000000       0.74952398 </v>
    <v>       0.12500000       0.37500000       0.37547602 </v>
    <v>       0.12500000       0.37500000       0.87547602 </v>
    <v>       0.12500000       0.87500000       0.37547602 </v>
    <v>       0.12500000       0.87500000       0.87547602 </v>
    <v>       0.62500000       0.37500000       0.37547602 </v>
    <v>       0.62500000       0.37500000       0.87547602 </v>
    <v>       0.62500000       0.87500000       0.37547602 </v>
    <v>       0.62500000       0.87500000       0.87547602 </v>
    <v>       0.25000000       0.25000000       0.99952398 </v>
    <v>       0.25000000       0.25000000       0.49952398 </v>
    <v>       0.25000000       0.75000000       0.99952398 </v>
    <v>       0.25000000       0.75000000       0.49952398 </v>
    <v>       0.75000000       0.25000000       0.99952398 </v>
    <v>       0.75000000       0.25000000       0.49952398 </v>
    <v>       0.75000000       0.75000000       0.99952398 </v>
    <v>       0.75000000       0.75000000       0.49952398 </v>
    <v>       0.12500000       0.12500000       0.12547602 </v>
    <v>       0.12500000       0.12500000       0.62547602 </v>
    <v>       0.12500000       0.62500000       0.12547602 </v>
    <v>       0.12500000       0.62500000       0.62547602 </v>
    <v>       0.62500000       0.12500000       0.12547602 </v>
    <v>       0.62500000       0.12500000       0.62547602 </v>
    <v>       0.62500000       0.62500000       0.12547602 </v>
    <v>       0.62500000       0.62500000       0.62547602 </v>
   </varray>
  </structure>
  <varray name="forces" >
   <v>       0.00000000       0.00000000       0.03766418 </v>
   <v>       0.00000000       0.00000000       0.03766418 </v>
   <v>      -0.00000000      -0.00000000       0.03766418 </v>
   <v>      -0.00000000      -0.00000000       0.03766418 </v>
   <v>       0.00000000       0.00000000       0.03766418 </v>
   <v>       0.00000000       0.00000000       0.03766418 </v>
   <v>       0.00000000      -0.00000000       0.03766418 </v>
   <v>       0.00000000      -0.00000000       0.03766418 </v>
   <v>      -0.00000000       0.00000000      -0.03766418 </v>
   <v>      -0.00000000       0.00000000      -0.03766418 </v>
   <v>       0.00000000      -0.00000000      -0.03766418 </v>
   <v>       0.00000000      -0.00000000      -0.03766418 </v>
   <v>      -0.00000000       0.00000000      -0.03766418 </v>
   <v>      -0.00000000       0.00000000      -0.03766418 </v>
   <v>      -0.00000000      -0.00000000      -0.03766418 </v>
   <v>      -0.00000000      -0.00000000      -0.03766418 </v>
   <v>       0.00000000       0.00000000       0.03766418 </v>
   <v>       0.00000000       0.00000000       0.03766418 </v>
   <v>       0.00000000      -0.00000000       0.03766418 </v>
   <v>      -0.00000000      -0.00000000       0.03766418 </v>
   <v>      -0.00000000       0.00000000       0.03766418 </v>
   <v>      -0.00000000       0.00000000       0.03766418 </v>
   <v>      -0.00000000      -0.00000000       0.03766418 </v>
   <v>      -0.00000000      -0.00000000       0.03766418 </v>
   <v>       0.00000000      -0.00000000      -0.03766418 </v>
   <v>       0.00000000      -0.00000000      -0.03766418 </v>
   <v>       0.00000000       0.00000000      -0.03766418 </v>
   <v>      -0.00000000       0.00000000      -0.03766418 </v>
   <v>       0.00000000      -0.00000000      -0.03766418 </v>
   <v>       0.00000000      -0.00000000      -0.03766418 </v>
   <v>       0.00000000       0.00000000      -0.03766418 </v>
   <v>       0.00000000       0.00000000      -0.03766418 </v>
   <v>       0.00000000       0.00000000       0.03766418 </v>
   <v>       0.00000000       0.00000000       0.03766418 </v>
   <v>       0.00000000      -0.00000000       0.03766418 </v>
   <v>      -0.00000000      -0.00000000       0.03766418 </v>
   <v>       0.00000000       0.00000000       0.03766418 </v>
   <v>       0.00000000       0.00000000       0.03766418 </v>
   <v>      -0.00000000      -0.00000000       0.03766418 </v>
   <v>      -0.00000000      -0.00000000       0.03766418 </v>
   <v>      -0.00000000       0.00000000      -0.03766418 </v>
   <v>      -0.00000000       0.00000000      -0.03766418 </v>
   <v>       0.00000000      -0.00000000      -0.03766418 </v>
   <v>       0.00000000      -0.00000000      -0.03766418 </v>
   <v>      -0.00000000       0.00000000      -0.03766418 </v>
   <v>       0.00000000       0.00000000      -0.03766418 </v>
   <v>      -0.00000000      -0.00000000      -0.03766418 </v>
   <v>      -0.00000000      -0.00000000      -0.03766418 </v>
   <v>      -0.00000000       0.00000000       0.03766418 </v>
   <v>       0.00000000       0.00000000       0.03766418 </v>
   <v>      -0.00000000      -0.00000000       0.03766418 </v>
   <v>      -0.00000000      -0.00000000       0.03766418 </v>
   <v>       0.00000000       0.00000000       0.03766418 </v>
   <v>       0.00000000       0.00000000       0.03766418 </v>
   <v>      -0.00000000      -0.00000000       0.03766418 </v>
   <v>      -0.00000000      -0.00000000       0.03766418 </v>
   <v>       0.00000000      -0.00000000      -0.03766418 </v>
   <v>       0.00000000      -0.00000000      -0.03766418 </v>
   <v>      -0.00000000       0.00000000      -0.03766418 </v>
   <v>      -0.00000000       0.00000000      -0.03766418 </v>
   <v>       0.00000000      -0.00000000      -0.03766418 </v>
   <v>       0.00000000      -0.00000000      -0.03766418 </v>
   <v>       0.00000000       0.00000000      -0.03766418 </v>
   <v>       0.00000000       0.00000000      -0.03766418 </v>
  </varray>
  <varray name="stress" >
   <v>      25.83988796       6.44976511       0.00000000 </v>
   <v>       6.44976512      17.31185540       0.00000000 </v>
   <v>       0.00000000       0.00000000      17.09194580 </v>
  </varray>
  <energy>
   <i name="e_fr_energy">   -367.41162694 </i>
   <i name="e_wo_entrp">   -367.44068323 </i>
   <i name="e_0_energy">   -367.42131237 </i>
  </energy>
  <time name="totalsc">   13.53   13.70</time>
 </calculation>
 <calculation>
  <scstep>
   <time name="dav">    1.29    1.30</time>
   <time name="total">    1.69    1.69</time>
   <energy>
    <i name="alphaZ">    109.53004659 </i>
    <i name="ewald">  -7356.45130031 </i>
    <i name="hartreedc">   -461.47370705 </i>
    <i name="XCdc">   -536.65859358 </i>
    <i name="pawpsdc">  28855.36520251 </i>
    <i name="pawaedc"> -27756.23847141 </i>
    <i name="eentropy">      0.02968874 </i>
    <i name="bandstr">    213.68819910 </i>
    <i name="atom">   6564.79586099 </i>
    <i name="e_fr_energy">   -367.41307441 </i>
    <i name="e_wo_entrp">   -367.44276316 </i>
    <i name="e_0_energy">   -367.42297066 </i>
   </energy>
  </scstep>
  <scstep>
   <time name="diag">    0.13    0.13</time>
   <time name="diis">    0.72    0.72</time>
   <time name="orth">    0.02    0.02</time>
   <time name="total">    1.29    1.29</time>
   <energy>
    <i name="e_fr_energy">   -367.41323048 </i>
    <i name="e_wo_entrp">   -367.44292371 </i>
    <i name="e_0_energy">   -367.42312822 </i>
   </energy>
  </scstep>
  <scstep>
   <time name="diag">    0.13    0.13</time>
   <time name="diis">    0.72    0.73</time>
   <time name="orth">    0.02    0.02</time>
   <time name="total">    1.27    1.29</time>
   <energy>
    <i name="e_fr_energy">   -367.41325470 </i>
    <i name="e_wo_entrp">   -367.44293578 </i>
    <i name="e_0_energy">   -367.42314839 </i>
   </energy>
  </scstep>
  <scstep>
   <time name="diag">    0.13    0.13</time>
   <time name="diis">    0.73    0.73</time>
   <time name="orth">    0.02    0.02</time>
   <time name="total">    1.28    1.30</time>
   <energy>
    <i name="e_fr_energy">   -367.41325502 </i>
    <i name="e_wo_entrp">   -367.44292382 </i>
    <i name="e_0_energy">   -367.42314462 </i>
   </energy>
  </scstep>
  <scstep>
   <time name="diag">    0.13    0.13</time>
   <time name="diis">    0.60    0.60</time>
   <time name="orth">    0.02    0.02</time>
   <time name="total">    1.16    1.16</time>
   <energy>
    <i name="e_fr_energy">   -367.41325532 </i>
    <i name="e_wo_entrp">   -367.44291922 </i>
    <i name="e_0_energy">   -367.42314328 </i>
   </energy>
  </scstep>
  <scstep>
   <time name="diag">    0.13    0.13</time>
   <time name="diis">    0.48    0.48</time>
   <time name="orth">    0.02    0.02</time>
   <time name="total">    1.02    1.04</time>
   <energy>
    <i name="e_fr_energy">   -367.41325543 </i>
    <i name="e_wo_entrp">   -367.44291940 </i>
    <i name="e_0_energy">   -367.42314342 </i>
   </energy>
  </scstep>
  <scstep>
   <time name="diag">    0.13    0.13</time>
   <time name="diis">    0.45    0.45</time>
   <time name="orth">    0.02    0.02</time>
   <time name="total">    1.00    1.02</time>
   <energy>
    <i name="e_fr_energy">   -367.41325546 </i>
    <i name="e_wo_entrp">   -367.44291949 </i>
    <i name="e_0_energy">   -367.42314347 </i>
   </energy>
  </scstep>
  <scstep>
   <time name="diag">    0.13    0.13</time>
   <time name="diis">    0.37    0.37</time>
   <time name="orth">    0.02    0.02</time>
   <time name="total">    0.68    0.69</time>
   <energy>
    <i name="alphaZ">    109.53004659 </i>
    <i name="ewald">  -7356.45130031 </i>
    <i name="hartreedc">   -461.48151543 </i>
    <i name="XCdc">   -536.65717837 </i>
    <i name="pawpsdc">  28857.37798612 </i>
    <i name="pawaedc"> -27758.25222004 </i>
    <i name="eentropy">      0.02966403 </i>
    <i name="bandstr">    213.69540095 </i>
    <i name="atom">   6564.79586099 </i>
    <i name="e_fr_energy">   -367.41325547 </i>
    <i name="e_wo_entrp">   -367.44291949 </i>
    <i name="e_0_energy">   -367.42314348 </i>
   </energy>
  </scstep>
  <structure>
   <crystal>
    <varray name="basis" >
     <v>      10.72558158      -0.05417001       0.00000000 </v>
     <v>      -0.05417001      10.83392060       0.00000000 </v>
     <v>       0.00000000       0.00000000      10.83392060 </v>
    </varray>
    <i name="volume">   1258.87085824 </i>
    <varray name="rec_basis" >
     <v>       0.09323739       0.00046619       0.00000000 </v>
     <v>       0.00046619       0.09230502       0.00000000 </v>
     <v>       0.00000000       0.00000000       0.09230269 </v>
    </varray>
   </crystal>
   <varray name="positions" >
    <v>       0.00000000       0.00000000       0.99964800 </v>
    <v>       0.00000000       0.00000000       0.49964800 </v>
    <v>       0.00000000       0.50000000       0.99964800 </v>
    <v>       0.00000000       0.50000000       0.49964800 </v>
    <v>       0.50000000       0.00000000       0.99964800 </v>
    <v>       0.50000000       0.00000000       0.49964800 </v>
    <v>       0.50000000       0.50000000       0.99964800 </v>
    <v>       0.50000000       0.50000000       0.49964800 </v>
    <v>       0.37500000       0.37500000       0.12535200 </v>
    <v>       0.37500000       0.37500000       0.62535200 </v>
    <v>       0.37500000       0.87500000       0.12535200 </v>
    <v>       0.37500000       0.87500000       0.62535200 </v>
    <v>       0.87500000       0.37500000       0.12535200 </v>
    <v>       0.87500000       0.37500000       0.62535200 </v>
    <v>       0.87500000       0.87500000       0.12535200 </v>
    <v>       0.87500000       0.87500000       0.62535200 </v>
    <v>       0.00000000       0.25000000       0.24964800 </v>
    <v>       0.00000000       0.25000000       0.74964800 </v>
    <v>       0.00000000       0.75000000       0.24964800 </v>
    <v>       0.00000000       0.75000000       0.74964800 </v>
    <v>       0.50000000       0.25000000       0.24964800 </v>
    <v>       0.50000000       0.25000000       0.74964800 </v>
    <v>       0.50000000       0.75000000       0.24964800 </v>
    <v>       0.50000000       0.75000000       0.74964800 </v>
    <v>       0.37500000       0.12500000       0.37535200 </v>
    <v>       0.37500000       0.12500000       0.87535200 </v>
    <v>       0.37500000       0.62500000       0.37535200 </v>
    <v>       0.37500000       0.62500000       0.87535200 </v>
    <v>       0.87500000       0.12500000       0.37535200 </v>
    <v>       0.87500000       0.12500000       0.87535200 </v>
    <v>       0.87500000       0.62500000       0.37535200 </v>
    <v>       0.87500000       0.62500000       0.87535200 </v>
    <v>       0.25000000       0.00000000       0.24964800 </v>
    <v>       0.25000000       0.00000000       0.74964800 </v>
    <v>       0.25000000       0.50000000       0.24964800 </v>
    <v>       0.25000000       0.50000000       0.74964800 </v>
    <v>       0.75000000       0.00000000       0.24964800 </v>
    <v>       0.75000000       0.00000000       0.74964800 </v>
    <v>       0.75000000       0.50000000       0.24964800 </v>
    <v>       0.75000000       0.50000000       0.74964800 </v>
    <v>       0.12500000       0.37500000       0.37535200 </v>
    <v>       0.12500000       0.37500000       0.87535200 </v>
    <v>       0.12500000       0.87500000       0.37535200 </v>
    <v>       0.12500000       0.87500000       0.87535200 </v>
    <v>       0.62500000       0.37500000       0.37535200 </v>
    <v>       0.62500000       0.37500000       0.87535200 </v>
    <v>       0.62500000       0.87500000       0.37535200 </v>
    <v>       0.62500000       0.87500000       0.87535200 </v>
    <v>       0.25000000       0.25000000       0.99964800 </v>
    <v>       0.25000000       0.25000000       0.49964800 </v>
    <v>       0.25000000       0.75000000       0.99964800 </v>
    <v>       0.25000000       0.75000000       0.49964800 </v>
    <v>       0.75000000       0.25000000       0.99964800 </v>
    <v>       0.75000000       0.25000000       0.49964800 </v>
    <v>       0.75000000       0.75000000       0.99964800 </v>
    <v>       0.75000000       0.75000000       0.49964800 </v>
    <v>       0.12500000       0.12500000       0.12535200 </v>
    <v>       0.12500000       0.12500000       0.62535200 </v>
    <v>       0.12500000       0.62500000       0.12535200 </v>
    <v>       0.12500000       0.62500000       0.62535200 </v>
    <v>       0.62500000       0.12500000       0.12535200 </v>
    <v>       0.62500000       0.12500000       0.62535200 </v>
    <v>       0.62500000       0.62500000       0.12535200 </v>
    <v>       0.62500000       0.62500000       0.62535200 </v>
   </varray>
  </structure>
  <varray name="forces" >
   <v>      -0.00000000      -0.00000000       0.00006851 </v>
   <v>      -0.00000000      -0.00000000       0.00006851 </v>
   <v>       0.00000000       0.00000000       0.00006851 </v>
   <v>       0.00000000       0.00000000       0.00006851 </v>
   <v>      -0.00000000      -0.00000000       0.00006851 </v>
   <v>       0.00000000      -0.00000000       0.00006851 </v>
   <v>      -0.00000000       0.00000000       0.00006851 </v>
   <v>       0.00000000       0.00000000       0.00006851 </v>
   <v>      -0.00000000      -0.00000000      -0.00006851 </v>
   <v>       0.00000000      -0.00000000      -0.00006851 </v>
   <v>      -0.00000000       0.00000000      -0.00006851 </v>
   <v>      -0.00000000       0.00000000      -0.00006851 </v>
   <v>       0.00000000      -0.00000000      -0.00006851 </v>
   <v>       0.00000000      -0.00000000      -0.00006851 </v>
   <v>      -0.00000000       0.00000000      -0.00006851 </v>
   <v>      -0.00000000       0.00000000      -0.00006851 </v>
   <v>       0.00000000      -0.00000000       0.00006851 </v>
   <v>       0.00000000      -0.00000000       0.00006851 </v>
   <v>      -0.00000000       0.00000000       0.00006851 </v>
   <v>       0.00000000       0.00000000       0.00006851 </v>
   <v>      -0.00000000      -0.00000000       0.00006851 </v>
   <v>      -0.00000000      -0.00000000       0.00006851 </v>
   <v>      -0.00000000       0.00000000       0.00006851 </v>
   <v>       0.00000000       0.00000000       0.00006851 </v>
   <v>      -0.00000000       0.00000000      -0.00006851 </v>
   <v>      -0.00000000       0.00000000      -0.00006851 </v>
   <v>      -0.00000000      -0.00000000      -0.00006851 </v>
   <v>       0.00000000      -0.00000000      -0.00006851 </v>
   <v>      -0.00000000       0.00000000      -0.00006851 </v>
   <v>      -0.00000000       0.00000000      -0.00006851 </v>
   <v>       0.00000000      -0.00000000      -0.00006851 </v>
   <v>      -0.00000000      -0.00000000      -0.00006851 </v>
   <v>      -0.00000000      -0.00000000       0.00006851 </v>
   <v>       0.00000000      -0.00000000       0.00006851 </v>
   <v>       0.00000000       0.00000000       0.00006851 </v>
   <v>       0.00000000       0.00000000       0.00006851 </v>
   <v>      -0.00000000      -0.00000000       0.00006851 </v>
   <v>       0.00000000      -0.00000000       0.00006851 </v>
   <v>      -0.00000000       0.00000000       0.00006851 </v>
   <v>       0.00000000       0.00000000       0.00006851 </v>
   <v>       0.00000000      -0.00000000      -0.00006851 </v>
   <v>       0.00000000      -0.00000000      -0.00006851 </v>
   <v>      -0.00000000       0.00000000      -0.00006851 </v>
   <v>      -0.00000000       0.00000000      -0.00006851 </v>
   <v>      -0.00000000      -0.00000000      -0.00006851 </v>
   <v>      -0.00000000      -0.00000000      -0.00006851 </v>
   <v>      -0.00000000       0.00000000      -0.00006851 </v>
   <v>      -0.00000000       0.00000000      -0.00006851 </v>
   <v>      -0.00000000      -0.00000000       0.00006851 </v>
   <v>       0.00000000      -0.00000000       0.00006851 </v>
   <v>      -0.00000000       0.00000000       0.00006851 </v>
   <v>      -0.00000000       0.00000000       0.00006851 </v>
   <v>      -0.00000000      -0.00000000       0.00006851 </v>
   <v>      -0.00000000      -0.00000000       0.00006851 </v>
   <v>       0.00000000       0.00000000       0.00006851 </v>
   <v>       0.00000000       0.00000000       0.00006851 </v>
   <v>      -0.00000000       0.00000000      -0.00006851 </v>
   <v>       0.00000000       0.00000000      -0.00006851 </v>
   <v>       0.00000000      -0.00000000      -0.00006851 </v>
   <v>       0.00000000      -0.00000000      -0.00006851 </v>
   <v>      -0.00000000       0.00000000      -0.00006851 </v>
   <v>      -0.00000000       0.00000000      -0.00006851 </v>
   <v>       0.00000000      -0.00000000      -0.00006851 </v>
   <v>       0.00000000      -0.00000000      -0.00006851 </v>
  </varray>
  <varray name="stress" >
   <v>      25.86612272       7.62021355       0.00000000 </v>
   <v>       7.62021359      17.34346545       0.00000000 </v>
   <v>       0.00000000       0.00000000      17.15705101 </v>
  </varray>
  <energy>
   <i name="e_fr_energy">   -367.41325547 </i>
   <i name="e_wo_entrp">   -367.44291949 </i>
   <i name="e_0_energy">   -367.42314348 </i>
  </energy>
  <time name="totalsc">   12.73   12.89</time>
  <eigenvalues>
   <array>
    <dimension dim="1">band</dimension>
    <dimension dim="2">kpoint</dimension>
    <dimension dim="3">spin</dimension>
    <field>eigene</field>
    <field>occ</field>
    <set>
     <set comment="spin 1">
      <set comment="kpoint 1">
       <r>   -6.1408    1.0000 </r>
       <r>   -5.0443    1.0000 </r>
       <r>   -5.0443    1.0000 </r>
       <r>   -5.0441    1.0000 </r>
       <r>   -5.0441    1.0000 </r>
       <r>   -5.0252    1.0000 </r>
       <r>   -5.0252    1.0000 </r>
       <r>   -4.0722    1.0000 </r>
       <r>   -4.0722    1.0000 </r>
       <r>   -4.0613    1.0000 </r>
       <r>   -4.0613    1.0000 </r>
       <r>   -4.0613    1.0000 </r>
       <r>   -4.0613    1.0000 </r>
       <r>   -4.0479    1.0000 </r>
       <r>   -4.0479    1.0000 </r>
       <r>   -4.0479    1.0000 </r>
       <r>   -4.0479    1.0000 </r>
       <r>   -4.0232    1.0000 </r>
       <r>   -4.0232    1.0000 </r>
       <r>   -3.7706    1.0000 </r>
       <r>   -3.7706    1.0000 </r>
       <r>   -3.7194    1.0000 </r>
       <r>   -3.7194    1.0000 </r>
       <r>   -1.9524    1.0000 </r>
       <r>   -1.9347    1.0000 </r>
       <r>   -1.9347    1.0000 </r>
       <r>   -1.9182    1.0000 </r>
       <r>   -1.8734    1.0000 </r>
       <r>   -1.8734    1.0000 </r>
       <r>   -1.7776    1.0000 </r>
       <r>   -1.7775    1.0000 </r>
       <r>   -1.7564    1.0000 </r>
       <r>   -1.7564    1.0000 </r>
       <r>   -1.7290    1.0000 </r>
       <r>   -1.7290    1.0000 </r>
       <r>   -1.7290    1.0000 </r>
       <r>   -1.7290    1.0000 </r>
       <r>   -1.7223    1.0000 </r>
       <r>   -1.7223    1.0000 </r>
       <r>   -1.7022    1.0000 </r>
       <r>   -1.7022    1.0000 </r>
       <r>   -1.1382    1.0000 </r>
       <r>   -1.1382    1.0000 </r>
       <r>   -1.1165    1.0000 </r>
       <r>   -1.1165    1.0000 </r>
       <r>    0.4285    1.0000 </r>
       <r>    0.4285    1.0000 </r>
       <r>    0.4344    1.0000 </r>
       <r>    0.4344    1.0000 </r>
       <r>    0.4344    1.0000 </r>
       <r>    0.4344    1.0000 </r>
       <r>    0.4407    1.0000 </r>
       <r>    0.4407    1.0000 </r>
       <r>    0.4711    1.0000 </r>
       <r>    0.4711    1.0000 </r>
       <r>    0.4711    1.0000 </r>
       <r>    0.4711    1.0000 </r>
       <r>    1.9732    1.0000 </r>
       <r>    1.9732    1.0000 </r>
       <r>    1.9786    1.0000 </r>
       <r>    1.9786    1.0000 </r>
       <r>    1.9907    1.0000 </r>
       <r>    1.9907    1.0000 </r>
       <r>    1.9907    1.0000 </r>
       <r>    1.9907    1.0000 </r>
       <r>    1.9963    1.0000 </r>
       <r>    1.9963    1.0000 </r>
       <r>    2.0029    1.0000 </r>
       <r>    2.0029    1.0000 </r>
       <r>    2.0708    1.0000 </r>
       <r>    2.0708    1.0000 </r>
       <r>    2.0806    1.0000 </r>
       <r>    2.0806    1.0000 </r>
       <r>    2.0806    1.0000 </r>
       <r>    2.0806    1.0000 </r>
       <r>    2.0887    1.0000 </r>
       <r>    2.0887    1.0000 </r>
       <r>    2.1373    1.0000 </r>
       <r>    2.1373    1.0000 </r>
       <r>    2.1373    1.0000 </r>
       <r>    2.1373    1.0000 </r>
       <r>    2.4319    1.0000 </r>
       <r>    2.4319    1.0000 </r>
       <r>    2.4330    1.0000 </r>
       <r>    2.4330    1.0000 </r>
       <r>    2.5046    1.0000 </r>
       <r>    2.5046    1.0000 </r>
       <r>    2.9999    1.0000 </r>
       <r>    2.9999    1.0000 </r>
       <r>    3.0103    1.0000 </r>
       <r>    3.0782    1.0000 </r>
       <r>    3.0782    1.0000 </r>
       <r>    3.1472    1.0000 </r>
       <r>    3.9867    1.0000 </r>
       <r>    3.9867    1.0000 </r>
       <r>    3.9910    1.0000 </r>
       <r>    3.9910    1.0000 </r>
       <r>    3.9915    1.0000 </r>
       <r>    3.9915    1.0000 </r>
       <r>    4.0405    1.0000 </r>
       <r>    4.0405    1.0000 </r>
       <r>    4.0633    1.0000 </r>
       <r>    4.0633    1.0000 </r>
       <r>    4.1182    1.0000 </r>
       <r>    4.1182    1.0000 </r>
       <r>    4.5627    1.0000 </r>
       <r>    4.5627    1.0000 </r>
       <r>    4.5627    1.0000 </r>
       <r>    4.5627    1.0000 </r>
       <r>    4.5961    1.0000 </r>
       <r>    4.5961    1.0000 </r>
       <r>    4.6432    1.0000 </r>
       <r>    4.6432    1.0000 </r>
       <r>    4.6432    1.0000 </r>
       <r>    4.6432    1.0000 </r>
       <r>    4.6828    1.0000 </r>
       <r>    4.6828    1.0000 </r>
       <r>    4.6919    1.0000 </r>
       <r>    4.6919    1.0000 </r>
       <r>    4.7238    1.0000 </r>
       <r>    4.7238    1.0000 </r>
       <r>    4.7687    1.0000 </r>
       <r>    4.7687    1.0000 </r>
       <r>    4.8434    1.0000 </r>
       <r>    4.8434    1.0000 </r>
       <r>    5.9241    1.0169 </r>
       <r>    5.9496    1.0226 </r>
       <r>    6.0482    1.0334 </r>
       <r>    6.4725   -0.0255 </r>
       <r>    6.4725   -0.0255 </r>
       <r>    6.4770   -0.0276 </r>
       <r>    6.5534   -0.0315 </r>
       <r>    6.5534   -0.0315 </r>
       <r>    6.6303   -0.0147 </r>
       <r>    6.9360   -0.0000 </r>
       <r>    6.9360   -0.0000 </r>
       <r>    7.0154   -0.0000 </r>
       <r>    7.0154   -0.0000 </r>
       <r>    7.0169   -0.0000 </r>
       <r>    7.0169   -0.0000 </r>
       <r>    7.4463   -0.0000 </r>
       <r>    7.4463   -0.0000 </r>
       <r>    7.5471   -0.0000 </r>
       <r>    7.5471   -0.0000 </r>
       <r>    8.2840   -0.0000 </r>
       <r>    8.2840   -0.0000 </r>
       <r>    8.2840   -0.0000 </r>
       <r>    8.2840   -0.0000 </r>
       <r>    8.3236   -0.0000 </r>
       <r>    8.3236   -0.0000 </r>
       <r>    8.3782   -0.0000 </r>
       <r>    8.3782   -0.0000 </r>
       <r>    8.3782   -0.0000 </r>
       <r>    8.3782   -0.0000 </r>
       <r>    8.4320   -0.0000 </r>
       <r>    8.4339   -0.0000 </r>
       <r>    8.4339   -0.0000 </r>
       <r>    8.4984   -0.0000 </r>
       <r>    8.5517   -0.0000 </r>
       <r>    8.9864   -0.0000 </r>
       <r>    8.9897   -0.0000 </r>
       <r>    8.9941   -0.0000 </r>
      </set>
      <set comment="kpoint 2">
       <r>   -5.8593    1.0000 </r>
       <r>   -5.8593    1.0000 </r>
       <r>   -4.8005    1.0000 </r>
       <r>   -4.8005    1.0000 </r>
       <r>   -4.7879    1.0000 </r>
       <r>   -4.7879    1.0000 </r>
       <r>   -4.7879    1.0000 </r>
       <r>   -4.7879    1.0000 </r>
       <r>   -4.7750    1.0000 </r>
       <r>   -4.7750    1.0000 </r>
       <r>   -3.9358    1.0000 </r>
       <r>   -3.9358    1.0000 </r>
       <r>   -3.9358    1.0000 </r>
       <r>   -3.9358    1.0000 </r>
       <r>   -3.9042    1.0000 </r>
       <r>   -3.9042    1.0000 </r>
       <r>   -3.9042    1.0000 </r>
       <r>   -3.9042    1.0000 </r>
       <r>   -3.6728    1.0000 </r>
       <r>   -3.6728    1.0000 </r>
       <r>   -2.9714    1.0000 </r>
       <r>   -2.9714    1.0000 </r>
       <r>   -2.9394    1.0000 </r>
       <r>   -2.9394    1.0000 </r>
       <r>   -2.9394    1.0000 </r>
       <r>   -2.9394    1.0000 </r>
       <r>   -2.9072    1.0000 </r>
       <r>   -2.9072    1.0000 </r>
       <r>   -1.8687    1.0000 </r>
       <r>   -1.8687    1.0000 </r>
       <r>   -1.8674    1.0000 </r>
       <r>   -1.8674    1.0000 </r>
       <r>   -1.8271    1.0000 </r>
       <r>   -1.8271    1.0000 </r>
       <r>   -1.8268    1.0000 </r>
       <r>   -1.8268    1.0000 </r>
       <r>   -0.6635    1.0000 </r>
       <r>   -0.6635    1.0000 </r>
       <r>   -0.6541    1.0000 </r>
       <r>   -0.6541    1.0000 </r>
       <r>   -0.6541    1.0000 </r>
       <r>   -0.6541    1.0000 </r>
       <r>   -0.6456    1.0000 </r>
       <r>   -0.6456    1.0000 </r>
       <r>   -0.5145    1.0000 </r>
       <r>   -0.5145    1.0000 </r>
       <r>   -0.5145    1.0000 </r>
       <r>   -0.5145    1.0000 </r>
       <r>   -0.4786    1.0000 </r>
       <r>   -0.4786    1.0000 </r>
       <r>   -0.4786    1.0000 </r>
       <r>   -0.4786    1.0000 </r>
       <r>    0.2464    1.0000 </r>
       <r>    0.2464    1.0000 </r>
       <r>    1.5817    1.0000 </r>
       <r>    1.5817    1.0000 </r>
       <r>    1.5860    1.0000 </r>
       <r>    1.5860    1.0000 </r>
       <r>    1.5860    1.0000 </r>
       <r>    1.5860    1.0000 </r>
       <r>    1.5900    1.0000 </r>
       <r>    1.5900    1.0000 </r>
       <r>    1.6337    1.0000 </r>
       <r>    1.6337    1.0000 </r>
       <r>    1.6440    1.0000 </r>
       <r>    1.6440    1.0000 </r>
       <r>    1.6440    1.0000 </r>
       <r>    1.6440    1.0000 </r>
       <r>    1.6570    1.0000 </r>
       <r>    1.6570    1.0000 </r>
       <r>    2.4126    1.0000 </r>
       <r>    2.4126    1.0000 </r>
       <r>    2.4520    1.0000 </r>
       <r>    2.4520    1.0000 </r>
       <r>    2.4625    1.0000 </r>
       <r>    2.4625    1.0000 </r>
       <r>    2.5028    1.0000 </r>
       <r>    2.5028    1.0000 </r>
       <r>    3.1516    1.0000 </r>
       <r>    3.1516    1.0000 </r>
       <r>    3.1678    1.0000 </r>
       <r>    3.1678    1.0000 </r>
       <r>    3.1678    1.0000 </r>
       <r>    3.1678    1.0000 </r>
       <r>    3.1814    1.0000 </r>
       <r>    3.1814    1.0000 </r>
       <r>    3.2527    1.0000 </r>
       <r>    3.2527    1.0000 </r>
       <r>    3.2529    1.0000 </r>
       <r>    3.2529    1.0000 </r>
       <r>    3.3087    1.0000 </r>
       <r>    3.3087    1.0000 </r>
       <r>    3.3434    1.0000 </r>
       <r>    3.3434    1.0000 </r>
       <r>    3.3434    1.0000 </r>
       <r>    3.3434    1.0000 </r>
       <r>    3.3786    1.0000 </r>
       <r>    3.3786    1.0000 </r>
       <r>    3.4622    1.0000 </r>
       <r>    3.4622    1.0000 </r>
       <r>    3.4622    1.0000 </r>
       <r>    3.4622    1.0000 </r>
       <r>    3.5355    1.0000 </r>
[...]
      </set>
     </set>
    </set>
   </array>
  </eigenvalues>
  <separator name="orbital magnetization" >
   <v name="MAGDIPOLOUT">      0.00000000      0.00000000      0.00000000</v>
  </separator>
  <dos>
   <i name="efermi">      6.27178965 </i>
   <total>
    <array>
     <dimension dim="1">gridpoints</dimension>
     <dimension dim="2">spin</dimension>
     <field>energy</field>
     <field>total</field>
     <field>integrated</field>
     <set>
      <set comment="spin 1">
       <r>    -8.1408     0.0000     0.0000 </r>
       <r>    -8.0756     0.0000     0.0000 </r>
       <r>    -8.0104     0.0000     0.0000 </r>
       <r>    -7.9451     0.0000     0.0000 </r>
       <r>    -7.8799     0.0000     0.0000 </r>
       <r>    -7.8147     0.0000     0.0000 </r>
       <r>    -7.7495    -0.0000    -0.0000 </r>
       <r>    -7.6843    -0.0000    -0.0000 </r>
       <r>    -7.6190    -0.0000    -0.0000 </r>
       <r>    -7.5538    -0.0000    -0.0000 </r>
       <r>    -7.4886    -0.0000    -0.0000 </r>
       <r>    -7.4234    -0.0000    -0.0000 </r>
       <r>    -7.3582    -0.0000    -0.0000 </r>
       <r>    -7.2929    -0.0000    -0.0000 </r>
       <r>    -7.2277    -0.0000    -0.0000 </r>
       <r>    -7.1625    -0.0000    -0.0000 </r>
       <r>    -7.0973    -0.0000    -0.0000 </r>
       <r>    -7.0321    -0.0000    -0.0000 </r>
       <r>    -6.9668    -0.0000    -0.0000 </r>
       <r>    -6.9016    -0.0000    -0.0000 </r>
       <r>    -6.8364    -0.0000    -0.0000 </r>
       <r>    -6.7712    -0.0001    -0.0000 </r>
       <r>    -6.7060    -0.0008    -0.0001 </r>
       <r>    -6.6407    -0.0035    -0.0003 </r>
       <r>    -6.5755    -0.0124    -0.0011 </r>
       <r>    -6.5103    -0.0322    -0.0032 </r>
       <r>    -6.4451    -0.0567    -0.0069 </r>
       <r>    -6.3799    -0.0476    -0.0100 </r>
       <r>    -6.3146     0.0587    -0.0062 </r>
       <r>    -6.2494     0.2783     0.0120 </r>
       <r>    -6.1842     0.5199     0.0459 </r>
       <r>    -6.1190     0.7330     0.0937 </r>
       <r>    -6.0538     1.1828     0.1708 </r>
       <r>    -5.9885     2.3047     0.3211 </r>
       <r>    -5.9233     3.9938     0.5816 </r>
       <r>    -5.8581     5.4109     0.9345 </r>
       <r>    -5.7929     6.1279     1.3342 </r>
       <r>    -5.7277     7.0613     1.7947 </r>
       <r>    -5.6624     9.1638     2.3924 </r>
       <r>    -5.5972    11.4730     3.1407 </r>
       <r>    -5.5320    11.9934     3.9229 </r>
       <r>    -5.4668    10.5211     4.6090 </r>
       <r>    -5.4016     8.8657     5.1873 </r>
       <r>    -5.3363     8.0880     5.7148 </r>
       <r>    -5.2711     7.3575     6.1946 </r>
       <r>    -5.2059     5.9475     6.5825 </r>
       <r>    -5.1407     4.5830     6.8814 </r>
       <r>    -5.0755     4.2503     7.1586 </r>
       <r>    -5.0102     5.3224     7.5058 </r>
       <r>    -4.9450     8.4180     8.0548 </r>
       <r>    -4.8798    14.1432     8.9772 </r>
       <r>    -4.8146    21.0040    10.3471 </r>
       <r>    -4.7494    25.8045    12.0300 </r>
       <r>    -4.6841    27.4146    13.8180 </r>
       <r>    -4.6189    27.6187    15.6193 </r>
       <r>    -4.5537    27.0013    17.3803 </r>
       <r>    -4.4885    23.2620    18.8975 </r>
       <r>    -4.4233    15.3131    19.8962 </r>
       <r>    -4.3580     6.1191    20.2953 </r>
       <r>    -4.2928    -0.0559    20.2916 </r>
       <r>    -4.2276    -1.0903    20.2205 </r>
       <r>    -4.1624     2.9554    20.4133 </r>
       <r>    -4.0972    11.0081    21.1312 </r>
       <r>    -4.0319    20.8752    22.4927 </r>
       <r>    -3.9667    28.9477    24.3807 </r>
       <r>    -3.9015    31.6083    26.4422 </r>
       <r>    -3.8363    27.8795    28.2605 </r>
       <r>    -3.7711    20.5804    29.6027 </r>
       <r>    -3.7058    14.4880    30.5476 </r>
       <r>    -3.6406    13.4636    31.4257 </r>
       <r>    -3.5754    18.7126    32.6462 </r>
       <r>    -3.5102    28.1559    34.4825 </r>
       <r>    -3.4450    37.3193    36.9164 </r>
       <r>    -3.3797    42.2788    39.6739 </r>
       <r>    -3.3145    42.1467    42.4227 </r>
       <r>    -3.2493    38.3859    44.9262 </r>
       <r>    -3.1841    32.8081    47.0659 </r>
       <r>    -3.1189    27.4303    48.8549 </r>
       <r>    -3.0536    24.6286    50.4612 </r>
       <r>    -2.9884    24.7359    52.0745 </r>
       <r>    -2.9232    24.3328    53.6615 </r>
       <r>    -2.8580    19.6940    54.9459 </r>
       <r>    -2.7928    11.4342    55.6916 </r>
       <r>    -2.7275     3.6247    55.9280 </r>
       <r>    -2.6623    -0.8111    55.8751 </r>
       <r>    -2.5971    -1.9051    55.7509 </r>
       <r>    -2.5319    -0.6868    55.7061 </r>
       <r>    -2.4667     2.4768    55.8676 </r>
       <r>    -2.4014     7.0555    56.3278 </r>
       <r>    -2.3362    10.9968    57.0450 </r>
       <r>    -2.2710    11.6093    57.8022 </r>
       <r>    -2.2058     8.2168    58.3381 </r>
       <r>    -2.1406     3.3451    58.5562 </r>
       <r>    -2.0753     1.1102    58.6286 </r>
       <r>    -2.0101     4.7190    58.9364 </r>
       <r>    -1.9449    14.5864    59.8877 </r>
       <r>    -1.8797    27.2193    61.6630 </r>
       <r>    -1.8145    36.1629    64.0215 </r>
       <r>    -1.7492    36.0751    66.3743 </r>
       <r>    -1.6840    27.0107    68.1360 </r>
       <r>    -1.6188    14.3901    69.0745 </r>
       <r>    -1.5536     4.6956    69.3807 </r>
       <r>    -1.4884     1.3580    69.4693 </r>
       <r>    -1.4231     3.7386    69.7131 </r>
       <r>    -1.3579     8.4301    70.2629 </r>
       <r>    -1.2927    11.5303    71.0149 </r>
       <r>    -1.2275    11.1652    71.7431 </r>
       <r>    -1.1623     8.8007    72.3171 </r>
       <r>    -1.0970     8.0457    72.8419 </r>
       <r>    -1.0318    11.5200    73.5932 </r>
       <r>    -0.9666    17.9588    74.7645 </r>
       <r>    -0.9014    22.6950    76.2446 </r>
       <r>    -0.8362    22.6925    77.7246 </r>
       <r>    -0.7709    21.0221    79.0957 </r>
       <r>    -0.7057    24.3113    80.6813 </r>
       <r>    -0.6405    35.5080    82.9971 </r>
       <r>    -0.5753    50.1122    86.2654 </r>
       <r>    -0.5101    58.9020    90.1070 </r>
       <r>    -0.4448    54.5356    93.6638 </r>
       <r>    -0.3796    37.7022    96.1228 </r>
       <r>    -0.3144    17.3612    97.2551 </r>
       <r>    -0.2492     3.9319    97.5115 </r>
       <r>    -0.1840     2.2064    97.6554 </r>
       <r>    -0.1187     9.7467    98.2911 </r>
       <r>    -0.0535    19.5408    99.5655 </r>
       <r>     0.0117    24.4667   101.1612 </r>
       <r>     0.0769    21.9211   102.5909 </r>
       <r>     0.1421    14.9406   103.5654 </r>
       <r>     0.2074     8.4747   104.1181 </r>
       <r>     0.2726     5.4629   104.4744 </r>
       <r>     0.3378     6.4899   104.8976 </r>
       <r>     0.4030    11.0902   105.6209 </r>
       <r>     0.4682    18.0653   106.7992 </r>
       <r>     0.5335    25.0789   108.4348 </r>
       <r>     0.5987    28.7868   110.3123 </r>
       <r>     0.6639    26.4685   112.0385 </r>
       <r>     0.7291    18.5582   113.2489 </r>
       <r>     0.7943     8.9935   113.8355 </r>
       <r>     0.8596     2.0307   113.9679 </r>
       <r>     0.9248    -0.9519   113.9058 </r>
       <r>     0.9900    -1.2921   113.8216 </r>
       <r>     1.0552    -0.8503   113.7661 </r>
       <r>     1.1204    -0.6896   113.7211 </r>
       <r>     1.1857    -1.1447   113.6465 </r>
       <r>     1.2509    -2.0209   113.5147 </r>
       <r>     1.3161    -2.0977   113.3779 </r>
       <r>     1.3813     1.4536   113.4727 </r>
       <r>     1.4465    11.9437   114.2516 </r>
       <r>     1.5118    29.4470   116.1722 </r>
       <r>     1.5770    47.4832   119.2690 </r>
       <r>     1.6422    55.5956   122.8950 </r>
       <r>     1.7074    48.1876   126.0377 </r>
       <r>     1.7726    30.9240   128.0546 </r>
       <r>     1.8379    16.4142   129.1251 </r>
       <r>     1.9031    13.0000   129.9730 </r>
       <r>     1.9683    18.4024   131.1732 </r>
       <r>     2.0335    23.8088   132.7260 </r>
       <r>     2.0987    23.2256   134.2408 </r>
       <r>     2.1640    19.3555   135.5031 </r>
       <r>     2.2292    21.3833   136.8978 </r>
       <r>     2.2944    36.5250   139.2799 </r>
       <r>     2.3596    61.8975   143.3169 </r>
       <r>     2.4248    84.0007   148.7954 </r>
       <r>     2.4901    88.0893   154.5406 </r>
       <r>     2.5553    70.3183   159.1267 </r>
       <r>     2.6205    40.8234   161.7892 </r>
       <r>     2.6857    14.4097   162.7290 </r>
       <r>     2.7509    -0.8771   162.6718 </r>
       <r>     2.8162    -6.0476   162.2774 </r>
       <r>     2.8814    -4.9821   161.9525 </r>
       <r>     2.9466     1.4685   162.0482 </r>
       <r>     3.0118    15.2868   163.0452 </r>
       <r>     3.0770    36.4332   165.4214 </r>
       <r>     3.1422    59.4546   169.2990 </r>
       <r>     3.2075    76.1468   174.2653 </r>
       <r>     3.2727    81.5696   179.5853 </r>
       <r>     3.3379    76.5727   184.5794 </r>
       <r>     3.4031    65.1931   188.8312 </r>
       <r>     3.4683    51.7425   192.2059 </r>
       <r>     3.5336    40.7175   194.8615 </r>
       <r>     3.5988    36.4980   197.2419 </r>
       <r>     3.6640    39.6788   199.8297 </r>
       <r>     3.7292    44.2633   202.7166 </r>
       <r>     3.7944    42.3971   205.4817 </r>
       <r>     3.8597    33.2456   207.6500 </r>
       <r>     3.9249    24.3896   209.2407 </r>
       <r>     3.9901    22.9760   210.7392 </r>
       <r>     4.0553    28.0149   212.5663 </r>
       <r>     4.1205    33.2575   214.7354 </r>
       <r>     4.1858    35.2862   217.0367 </r>
       <r>     4.2510    35.7682   219.3695 </r>
       <r>     4.3162    37.0990   221.7891 </r>
       <r>     4.3814    39.6031   224.3720 </r>
       <r>     4.4466    43.1439   227.1859 </r>
       <r>     4.5119    48.0953   230.3226 </r>
       <r>     4.5771    53.4191   233.8066 </r>
       <r>     4.6423    55.5349   237.4286 </r>
       <r>     4.7075    50.5685   240.7267 </r>
       <r>     4.7727    37.9950   243.2047 </r>
       <r>     4.8380    21.9828   244.6384 </r>
       <r>     4.9032     9.0114   245.2262 </r>
       <r>     4.9684     3.9707   245.4851 </r>
       <r>     5.0336     7.6392   245.9834 </r>
       <r>     5.0988    16.3284   247.0483 </r>
       <r>     5.1641    23.7156   248.5950 </r>
       <r>     5.2293    24.7057   250.2063 </r>
       <r>     5.2945    18.8581   251.4362 </r>
       <r>     5.3597    10.1047   252.0953 </r>
       <r>     5.4249     3.2655   252.3082 </r>
       <r>     5.4902     1.0343   252.3757 </r>
       <r>     5.5554     3.2875   252.5901 </r>
       <r>     5.6206     7.7103   253.0930 </r>
       <r>     5.6858    11.0495   253.8136 </r>
       <r>     5.7510    11.1418   254.5403 </r>
       <r>     5.8163     8.4481   255.0913 </r>
       <r>     5.8815     5.2294   255.4324 </r>
       <r>     5.9467     3.1719   255.6392 </r>
       <r>     6.0119     2.2288   255.7846 </r>
       <r>     6.0771     1.5288   255.8843 </r>
       <r>     6.1424     0.6926   255.9295 </r>
       <r>     6.2076     0.1951   255.9422 </r>
       <r>     6.2728     0.9149   256.0019 </r>
       <r>     6.3380     3.3744   256.2219 </r>
       <r>     6.4032     6.9869   256.6776 </r>
       <r>     6.4685     9.9726   257.3280 </r>
       <r>     6.5337    10.4920   258.0123 </r>
       <r>     6.5989     8.1693   258.5451 </r>
       <r>     6.6641     4.4078   258.8326 </r>
       <r>     6.7293     1.3514   258.9208 </r>
       <r>     6.7946     0.7953   258.9726 </r>
       <r>     6.8598     3.5515   259.2042 </r>
       <r>     6.9250     8.7412   259.7743 </r>
       <r>     6.9902    13.5747   260.6597 </r>
       <r>     7.0554    15.1505   261.6478 </r>
       <r>     7.1207    13.5557   262.5319 </r>
       <r>     7.1859    12.6198   263.3550 </r>
       <r>     7.2511    16.2326   264.4137 </r>
       <r>     7.3163    23.5592   265.9502 </r>
       <r>     7.3815    28.8978   267.8349 </r>
       <r>     7.4468    27.1330   269.6045 </r>
       <r>     7.5120    19.0966   270.8500 </r>
       <r>     7.5772    11.3213   271.5884 </r>
       <r>     7.6424    10.9089   272.2998 </r>
       <r>     7.7076    20.1438   273.6136 </r>
       <r>     7.7729    34.5618   275.8677 </r>
       <r>     7.8381    45.8325   278.8569 </r>
       <r>     7.9033    47.8707   281.9791 </r>
       <r>     7.9685    41.5247   284.6873 </r>
       <r>     8.0337    33.6751   286.8836 </r>
       <r>     8.0990    31.6293   288.9464 </r>
       <r>     8.1642    38.0199   291.4261 </r>
       <r>     8.2294    49.9631   294.6847 </r>
       <r>     8.2946    61.5966   298.7020 </r>
       <r>     8.3598    67.3478   303.0944 </r>
       <r>     8.4251    64.5266   307.3029 </r>
       <r>     8.4903    54.4021   310.8510 </r>
       <r>     8.5555    41.0201   313.5263 </r>
       <r>     8.6207    28.5350   315.3873 </r>
       <r>     8.6859    19.2890   316.6454 </r>
       <r>     8.7512    14.0598   317.5623 </r>
       <r>     8.8164    13.1893   318.4225 </r>
       <r>     8.8816    16.0828   319.4715 </r>
       <r>     8.9468    19.7165   320.7574 </r>
       <r>     9.0120    19.8401   322.0513 </r>
       <r>     9.0773    14.9025   323.0233 </r>
       <r>     9.1425     7.6257   323.5206 </r>
       <r>     9.2077     2.0142   323.6520 </r>
       <r>     9.2729    -0.1721   323.6408 </r>
       <r>     9.3381     0.1825   323.6527 </r>
       <r>     9.4034     1.2724   323.7357 </r>
       <r>     9.4686     1.8170   323.8542 </r>
       <r>     9.5338     1.5174   323.9531 </r>
       <r>     9.5990     0.7964   324.0051 </r>
       <r>     9.6642     0.1939   324.0177 </r>
       <r>     9.7295    -0.0748   324.0128 </r>
       <r>     9.7947    -0.1055   324.0060 </r>
       <r>     9.8599    -0.0603   324.0020 </r>
       <r>     9.9251    -0.0230   324.0005 </r>
       <r>     9.9903    -0.0064   324.0001 </r>
       <r>    10.0556    -0.0014   324.0000 </r>
       <r>    10.1208    -0.0002   324.0000 </r>
       <r>    10.1860    -0.0000   324.0000 </r>
       <r>    10.2512    -0.0000   324.0000 </r>
       <r>    10.3164    -0.0000   324.0000 </r>
       <r>    10.3817    -0.0000   324.0000 </r>
       <r>    10.4469    -0.0000   324.0000 </r>
       <r>    10.5121    -0.0000   324.0000 </r>
       <r>    10.5773    -0.0000   324.0000 </r>
       <r>    10.6425    -0.0000   324.0000 </r>
       <r>    10.7078    -0.0000   324.0000 </r>
       <r>    10.7730     0.0000   324.0000 </r>
       <r>    10.8382     0.0000   324.0000 </r>
       <r>    10.9034     0.0000   324.0000 </r>
       <r>    10.9686     0.0000   324.0000 </r>
       <r>    11.0339     0.0000   324.0000 </r>
       <r>    11.0991     0.0000   324.0000 </r>
       <r>    11.1643     0.0000   324.0000 </r>
       <r>    11.2295     0.0000   324.0000 </r>
       <r>    11.2947     0.0000   324.0000 </r>
       <r>    11.3600     0.0000   324.0000 </r>
       <r>    11.4252     0.0000   324.0000 </r>
      </set>
     </set>
    </array>
   </total>
  </dos>
 </calculation>
 <structure name="finalpos" >
  <crystal>
   <varray name="basis" >
    <v>      10.72558158      -0.05417001       0.00000000 </v>
    <v>      -0.05417001      10.83392060       0.00000000 </v>
    <v>       0.00000000       0.00000000      10.83392060 </v>
   </varray>
   <i name="volume">   1258.87085824 </i>
   <varray name="rec_basis" >
    <v>       0.09323739       0.00046619       0.00000000 </v>
    <v>       0.00046619       0.09230502       0.00000000 </v>
    <v>       0.00000000       0.00000000       0.09230269 </v>
   </varray>
  </crystal>
  <varray name="positions" >
   <v>       0.00000000       0.00000000       0.99964800 </v>
   <v>       0.00000000       0.00000000       0.49964800 </v>
   <v>       0.00000000       0.50000000       0.99964800 </v>
   <v>       0.00000000       0.50000000       0.49964800 </v>
   <v>       0.50000000       0.00000000       0.99964800 </v>
   <v>       0.50000000       0.00000000       0.49964800 </v>
   <v>       0.50000000       0.50000000       0.99964800 </v>
   <v>       0.50000000       0.50000000       0.49964800 </v>
   <v>       0.37500000       0.37500000       0.12535200 </v>
   <v>       0.37500000       0.37500000       0.62535200 </v>
   <v>       0.37500000       0.87500000       0.12535200 </v>
   <v>       0.37500000       0.87500000       0.62535200 </v>
   <v>       0.87500000       0.37500000       0.12535200 </v>
   <v>       0.87500000       0.37500000       0.62535200 </v>
   <v>       0.87500000       0.87500000       0.12535200 </v>
   <v>       0.87500000       0.87500000       0.62535200 </v>
   <v>       0.00000000       0.25000000       0.24964800 </v>
   <v>       0.00000000       0.25000000       0.74964800 </v>
   <v>       0.00000000       0.75000000       0.24964800 </v>
   <v>       0.00000000       0.75000000       0.74964800 </v>
   <v>       0.50000000       0.25000000       0.24964800 </v>
   <v>       0.50000000       0.25000000       0.74964800 </v>
   <v>       0.50000000       0.75000000       0.24964800 </v>
   <v>       0.50000000       0.75000000       0.74964800 </v>
   <v>       0.37500000       0.12500000       0.37535200 </v>
   <v>       0.37500000       0.12500000       0.87535200 </v>
   <v>       0.37500000       0.62500000       0.37535200 </v>
   <v>       0.37500000       0.62500000       0.87535200 </v>
   <v>       0.87500000       0.12500000       0.37535200 </v>
   <v>       0.87500000       0.12500000       0.87535200 </v>
   <v>       0.87500000       0.62500000       0.37535200 </v>
   <v>       0.87500000       0.62500000       0.87535200 </v>
   <v>       0.25000000       0.00000000       0.24964800 </v>
   <v>       0.25000000       0.00000000       0.74964800 </v>
   <v>       0.25000000       0.50000000       0.24964800 </v>
   <v>       0.25000000       0.50000000       0.74964800 </v>
   <v>       0.75000000       0.00000000       0.24964800 </v>
   <v>       0.75000000       0.00000000       0.74964800 </v>
   <v>       0.75000000       0.50000000       0.24964800 </v>
   <v>       0.75000000       0.50000000       0.74964800 </v>
   <v>       0.12500000       0.37500000       0.37535200 </v>
   <v>       0.12500000       0.37500000       0.87535200 </v>
   <v>       0.12500000       0.87500000       0.37535200 </v>
   <v>       0.12500000       0.87500000       0.87535200 </v>
   <v>       0.62500000       0.37500000       0.37535200 </v>
   <v>       0.62500000       0.37500000       0.87535200 </v>
   <v>       0.62500000       0.87500000       0.37535200 </v>
   <v>       0.62500000       0.87500000       0.87535200 </v>
   <v>       0.25000000       0.25000000       0.99964800 </v>
   <v>       0.25000000       0.25000000       0.49964800 </v>
   <v>       0.25000000       0.75000000       0.99964800 </v>
   <v>       0.25000000       0.75000000       0.49964800 </v>
   <v>       0.75000000       0.25000000       0.99964800 </v>
   <v>       0.75000000       0.25000000       0.49964800 </v>
   <v>       0.75000000       0.75000000       0.99964800 </v>
   <v>       0.75000000       0.75000000       0.49964800 </v>
   <v>       0.12500000       0.12500000       0.12535200 </v>
   <v>       0.12500000       0.12500000       0.62535200 </v>
   <v>       0.12500000       0.62500000       0.12535200 </v>
   <v>       0.12500000       0.62500000       0.62535200 </v>
   <v>       0.62500000       0.12500000       0.12535200 </v>
   <v>       0.62500000       0.12500000       0.62535200 </v>
   <v>       0.62500000       0.62500000       0.12535200 </v>
   <v>       0.62500000       0.62500000       0.62535200 </v>
  </varray>
 </structure>
</modeling>
