 vasp.6.4.3 19Mar24 (build Oct 21 2024 22:36:34) complex                        
  
 executed on             LinuxIFC date 2024.11.01  22:58:27
 running   96 mpi-ranks, on    1 nodes
 distrk:  each k-point on   24 cores,    4 groups
 distr:  one band on NCORE=  12 cores,    2 groups


--------------------------------------------------------------------------------------------------------


 INCAR:
   SYSTEM = Si64
   ISTART = 0
   ICHARG = 2
   LREAL = Auto
   PREC = Accurate
   LWAVE = .False.
   LCHARG = .False.
   ADDGRID = .True.
   ENCUT = 400
   GGA = PS
   GGA_COMPAT = .FALSE.
   ISMEAR = 1
   SIGMA = 0.2
   NELM = 60
   NELMIN = 8
   EDIFF = 1e-06
   EDIFFG = -0.01
   NSW = 60
   IBRION = 2
   ISIF = 2
   KPAR = 4
   NPAR = 2
   ALGO = Fast

 POTCAR:    PAW_PBE Si 05Jan2001                  
 POTCAR:    PAW_PBE Si 05Jan2001                  
   VRHFIN =Si: s2p2                                                                                 
   LEXCH  = PE                                                                                      
   EATOM  =   103.0669 eV,    7.5752 Ry                                                             
                                                                                                    
   TITEL  = PAW_PBE Si 05Jan2001                                                                    
   LULTRA =        F    use ultrasoft PP ?                                                          
   IUNSCR =        1    unscreen: 0-lin 1-nonlin 2-no                                               
   RPACOR =    1.500    partial core radius                                                         
   POMASS =   28.085; ZVAL   =    4.000    mass and valenz                                          
   RCORE  =    1.900    outmost cutoff radius                                                       
   RWIGS  =    2.480; RWIGS  =    1.312    wigner-seitz radius (au A)                               
   ENMAX  =  245.345; ENMIN  =  184.009 eV                                                          
   ICORE  =        2    local potential                                                             
   LCOR   =        T    correct aug charges                                                         
   LPAW   =        T    paw PP                                                                      
   EAUG   =  322.069                                                                                
   DEXC   =    0.000                                                                                
   RMAX   =    1.950    core radius for proj-oper                                                   
   RAUG   =    1.300    factor for augmentation sphere                                              
   RDEP   =    1.993    radius for radial grids                                                     
   RDEPT  =    1.837    core radius for aug-charge                                                  
                                                                                                    
   Atomic configuration                                                                             
    6 entries                                                                                       
     n  l   j            E        occ.                                                              
     1  0  0.50     -1785.8828   2.0000                                                             
     2  0  0.50      -139.4969   2.0000                                                             
     2  1  1.50       -95.5546   6.0000                                                             
     3  0  0.50       -10.8127   2.0000                                                             
     3  1  0.50        -4.0811   2.0000                                                             
     3  2  1.50        -4.0817   0.0000                                                             
   Description                                                                                      
     l       E           TYP  RCUT    TYP  RCUT                                                     
     0    -10.8127223     23  1.900                                                                 
     0     -7.6451159     23  1.900                                                                 
     1     -4.0811372     23  1.900                                                                 
     1      2.4879257     23  1.900                                                                 
     2     -4.0817478      7  1.900                                                                 
  local pseudopotential read in
  partial core-charges read in
  partial kinetic energy density read in
  atomic valenz-charges read in
  non local Contribution for L=           0  read in
    real space projection operators read in
  non local Contribution for L=           0  read in
    real space projection operators read in
  non local Contribution for L=           1  read in
    real space projection operators read in
  non local Contribution for L=           1  read in
    real space projection operators read in
    PAW grid and wavefunctions read in
 
   number of l-projection  operators is LMAX  =           4
   number of lm-projection operators is LMMAX =           8
 
 Optimization of the real space projectors (new method)

 maximal supplied QI-value         = 19.84
 optimisation between [QCUT,QGAM] = [ 10.12, 20.44] = [ 28.68,116.96] Ry 
 Optimized for a Real-space Cutoff    1.38 Angstroem

   l    n(q)    QCUT    max X(q) W(low)/X(q) W(high)/X(q)  e(spline) 
   0      8    10.119   159.560    0.58E-04    0.11E-03    0.54E-07
   0      8    10.119   115.863    0.56E-04    0.11E-03    0.54E-07
   1      8    10.119    88.339    0.22E-03    0.17E-03    0.19E-06
   1      8    10.119    48.592    0.22E-03    0.17E-03    0.18E-06
 -----------------------------------------------------------------------------
|                                                                             |
|               ----> ADVICE to this user running VASP <----                  |
|                                                                             |
|     You enforced a specific xc type in the INCAR file but a different       |
|     type was found in the POTCAR file.                                      |
|     I HOPE YOU KNOW WHAT YOU ARE DOING!                                     |
|                                                                             |
 -----------------------------------------------------------------------------

  PAW_PBE Si 05Jan2001                  :
 energy of atom  1       EATOM= -103.0669
 kinetic energy error for atom=    0.0012 (will be added to EATOM!!)
 
 
 POSCAR: Si8
  positions in direct lattice
  velocities in cartesian coordinates


 exchange-correlation table for PS
   RHO(1)=    0.500       N(1)  =     2000
   RHO(2)=  100.500       N(2)  =     4000
 


--------------------------------------------------------------------------------------------------------


 ion  position               nearest neighbor table
   1  0.000  0.000  0.000-  30 2.29  44 2.29  15 2.30  57 2.30
   2  0.000  0.000  0.500-  29 2.29  43 2.29  16 2.30  58 2.30
   3  0.000  0.500  0.000-  32 2.29  42 2.29  13 2.30  59 2.30
   4  0.000  0.500  0.500-  31 2.29  41 2.29  14 2.30  60 2.30
   5  0.500  0.000  0.000-  26 2.29  48 2.29  11 2.30  61 2.30
   6  0.500  0.000  0.500-  25 2.29  47 2.29  12 2.30  62 2.30
   7  0.500  0.500  0.000-  28 2.29  46 2.29   9 2.30  63 2.30
   8  0.500  0.500  0.500-  27 2.29  45 2.29  10 2.30  64 2.30
   9  0.375  0.375  0.125-  21 2.29  35 2.29   7 2.30  49 2.30
  10  0.375  0.375  0.625-  22 2.29  36 2.29   8 2.30  50 2.30
  11  0.375  0.875  0.125-  23 2.29  33 2.29   5 2.30  51 2.30
  12  0.375  0.875  0.625-  24 2.29  34 2.29   6 2.30  52 2.30
  13  0.875  0.375  0.125-  17 2.29  39 2.29   3 2.30  53 2.30
  14  0.875  0.375  0.625-  18 2.29  40 2.29   4 2.30  54 2.30
  15  0.875  0.875  0.125-  19 2.29  37 2.29   1 2.30  55 2.30
  16  0.875  0.875  0.625-  20 2.29  38 2.29   2 2.30  56 2.30
  17  0.000  0.250  0.250-  13 2.29  57 2.29  41 2.30  29 2.30
  18  0.000  0.250  0.750-  14 2.29  58 2.29  42 2.30  30 2.30
  19  0.000  0.750  0.250-  15 2.29  59 2.29  43 2.30  31 2.30
  20  0.000  0.750  0.750-  16 2.29  60 2.29  44 2.30  32 2.30
  21  0.500  0.250  0.250-   9 2.29  61 2.29  45 2.30  25 2.30
  22  0.500  0.250  0.750-  10 2.29  62 2.29  46 2.30  26 2.30
  23  0.500  0.750  0.250-  11 2.29  63 2.29  47 2.30  27 2.30
  24  0.500  0.750  0.750-  12 2.29  64 2.29  48 2.30  28 2.30
  25  0.375  0.125  0.375-   6 2.29  50 2.29  33 2.30  21 2.30
  26  0.375  0.125  0.875-   5 2.29  49 2.29  34 2.30  22 2.30
  27  0.375  0.625  0.375-   8 2.29  52 2.29  35 2.30  23 2.30
  28  0.375  0.625  0.875-   7 2.29  51 2.29  36 2.30  24 2.30
  29  0.875  0.125  0.375-   2 2.29  54 2.29  37 2.30  17 2.30
  30  0.875  0.125  0.875-   1 2.29  53 2.29  38 2.30  18 2.30
  31  0.875  0.625  0.375-   4 2.29  56 2.29  39 2.30  19 2.30
  32  0.875  0.625  0.875-   3 2.29  55 2.29  40 2.30  20 2.30
  33  0.250  0.000  0.250-  11 2.29  57 2.29  43 2.30  25 2.30
  34  0.250  0.000  0.750-  12 2.29  58 2.29  44 2.30  26 2.30
  35  0.250  0.500  0.250-   9 2.29  59 2.29  41 2.30  27 2.30
  36  0.250  0.500  0.750-  10 2.29  60 2.29  42 2.30  28 2.30
  37  0.750  0.000  0.250-  15 2.29  61 2.29  47 2.30  29 2.30
  38  0.750  0.000  0.750-  16 2.29  62 2.29  48 2.30  30 2.30
  39  0.750  0.500  0.250-  13 2.29  63 2.29  45 2.30  31 2.30
  40  0.750  0.500  0.750-  14 2.29  64 2.29  46 2.30  32 2.30
  41  0.125  0.375  0.375-   4 2.29  50 2.29  35 2.30  17 2.30
  42  0.125  0.375  0.875-   3 2.29  49 2.29  36 2.30  18 2.30
  43  0.125  0.875  0.375-   2 2.29  52 2.29  33 2.30  19 2.30
  44  0.125  0.875  0.875-   1 2.29  51 2.29  34 2.30  20 2.30
  45  0.625  0.375  0.375-   8 2.29  54 2.29  39 2.30  21 2.30
  46  0.625  0.375  0.875-   7 2.29  53 2.29  40 2.30  22 2.30
  47  0.625  0.875  0.375-   6 2.29  56 2.29  37 2.30  23 2.30
  48  0.625  0.875  0.875-   5 2.29  55 2.29  38 2.30  24 2.30
  49  0.250  0.250  0.000-  26 2.29  42 2.29   9 2.30  57 2.30
  50  0.250  0.250  0.500-  25 2.29  41 2.29  10 2.30  58 2.30
  51  0.250  0.750  0.000-  28 2.29  44 2.29  11 2.30  59 2.30
  52  0.250  0.750  0.500-  27 2.29  43 2.29  12 2.30  60 2.30
  53  0.750  0.250  0.000-  30 2.29  46 2.29  13 2.30  61 2.30
  54  0.750  0.250  0.500-  29 2.29  45 2.29  14 2.30  62 2.30
  55  0.750  0.750  0.000-  32 2.29  48 2.29  15 2.30  63 2.30
  56  0.750  0.750  0.500-  31 2.29  47 2.29  16 2.30  64 2.30
  57  0.125  0.125  0.125-  17 2.29  33 2.29   1 2.30  49 2.30
  58  0.125  0.125  0.625-  18 2.29  34 2.29   2 2.30  50 2.30
  59  0.125  0.625  0.125-  19 2.29  35 2.29   3 2.30  51 2.30
  60  0.125  0.625  0.625-  20 2.29  36 2.29   4 2.30  52 2.30
  61  0.625  0.125  0.125-  21 2.29  37 2.29   5 2.30  53 2.30
  62  0.625  0.125  0.625-  22 2.29  38 2.29   6 2.30  54 2.30
  63  0.625  0.625  0.125-  23 2.29  39 2.29   7 2.30  55 2.30
  64  0.625  0.625  0.625-  24 2.29  40 2.29   8 2.30  56 2.30
 
  LATTYP: Found a simple monoclinic cell.
 ALAT       =    10.5570495218
 B/A-ratio  =     0.9999875000
 C/A-ratio  =     1.0099997361
 COS(beta)  =    -0.0099503280
  
  Lattice vectors:
  
 A1 = (   0.0527850078,  10.5569175591,   0.0000000000)
 A2 = (   0.0000000000,   0.0000000000, -10.5569175591)
 A3 = ( -10.6624865746,  -0.0527850078,   0.0000000000)


Analysis of symmetry for initial positions (statically):
=====================================================================
 Subroutine PRICEL returns following result:
 
  LATTYP: Found a base centered monoclinic cell.
 ALAT       =     5.2785247609
 B/A-ratio  =     0.9999875000
 C/A-ratio  =     0.7071067475
 COS(beta)  =    -0.7000005125
  
  Lattice vectors:
  
 A1 = (   0.0131962519,   2.6392293898,  -2.6392293898)
 A2 = (   0.0131962519,   2.6392293898,   2.6392293898)
 A3 = (   2.6524253917,  -2.6260331378,   0.0000000000)
 
  32 primitive cells build up your supercell.
 

 Routine SETGRP: Setting up the symmetry group for a 
 simple monoclinic supercell.


 Subroutine GETGRP returns: Found  4 space group operations
 (whereof  2 operations were pure point group operations)
 out of a pool of  4 trial point group operations.


The static configuration has the point symmetry C_2 .
 The point group associated with its full space group is C_2h.


Analysis of symmetry for dynamics (positions and initial velocities):
=====================================================================
 Subroutine PRICEL returns following result:
 
  LATTYP: Found a base centered monoclinic cell.
 ALAT       =     5.2785247609
 B/A-ratio  =     0.9999875000
 C/A-ratio  =     0.7071067475
 COS(beta)  =    -0.7000005125
  
  Lattice vectors:
  
 A1 = (   0.0131962519,   2.6392293898,  -2.6392293898)
 A2 = (   0.0131962519,   2.6392293898,   2.6392293898)
 A3 = (   2.6524253917,  -2.6260331378,   0.0000000000)
 
  32 primitive cells build up your supercell.
 

 Routine SETGRP: Setting up the symmetry group for a 
 simple monoclinic supercell.


 Subroutine GETGRP returns: Found  4 space group operations
 (whereof  2 operations were pure point group operations)
 out of a pool of  4 trial point group operations.


The dynamic configuration has the point symmetry C_2 .
 The point group associated with its full space group is C_2h.


 Subroutine INISYM returns: Found  4 space group operations
 (whereof  2 operations are pure point group operations),
 and found    32 'primitive' translations


----------------------------------------------------------------------------------------

                                     Primitive cell                                     

  volume of cell :      37.1340

  direct lattice vectors                    reciprocal lattice vectors
     0.013196252  2.639229390 -2.639229390     0.186640252  0.188516031 -0.189449239
     0.013196252  2.639229390  2.639229390     0.186640252  0.188516031  0.189449239
     2.652425392 -2.626033138  0.000000000     0.375156300 -0.001875796  0.000000000

  length of vectors
     3.732457325  3.732457325  3.732480475     0.325981428  0.325981428  0.375160990

  position of ions in fractional coordinates (direct lattice)
     0.000000000  0.000000000  0.000000000
     0.250000000  0.750000000  0.500000000

  ion indices of the primitive-cell ions
   primitive index   ion index
                 1           1
                 2          15

----------------------------------------------------------------------------------------

 
 
 KPOINTS: Automatic mesh                          

Automatic generation of k-mesh.
 Grid dimensions read from file:
 generate k-points for:    2    2    2

 Generating k-lattice:

  Cartesian coordinates                     Fractional coordinates (reciprocal lattice)
     0.046894538 -0.000234475  0.000000000     0.500000000 -0.000000000  0.000000000
    -0.000234475  0.047363482  0.000000000    -0.000000000  0.500000000  0.000000000
     0.000000000  0.000000000  0.047362310     0.000000000  0.000000000  0.500000000

  Length of vectors
     0.046895124  0.047364063  0.047362310

  Shift w.r.t. Gamma in fractional coordinates (k-lattice)
     0.000000000  0.000000000  0.000000000

 
 Subroutine IBZKPT returns following result:
 ===========================================
 
 Found      8 irreducible k-points:
 
 Following reciprocal coordinates:
            Coordinates               Weight
  0.000000  0.000000  0.000000      1.000000
  0.500000 -0.000000  0.000000      1.000000
 -0.000000  0.500000  0.000000      1.000000
  0.500000  0.500000  0.000000      1.000000
  0.000000  0.000000  0.500000      1.000000
  0.500000 -0.000000  0.500000      1.000000
 -0.000000  0.500000  0.500000      1.000000
  0.500000  0.500000  0.500000      1.000000
 
 Following cartesian coordinates:
            Coordinates               Weight
  0.000000  0.000000  0.000000      1.000000
  0.046895 -0.000234  0.000000      1.000000
 -0.000234  0.047363  0.000000      1.000000
  0.046660  0.047129  0.000000      1.000000
  0.000000  0.000000  0.047362      1.000000
  0.046895 -0.000234  0.047362      1.000000
 -0.000234  0.047363  0.047362      1.000000
  0.046660  0.047129  0.047362      1.000000
 


--------------------------------------------------------------------------------------------------------




 Dimension of arrays:
   k-points           NKPTS =      8   k-points in BZ     NKDIM =      8   number of bands    NBANDS=    162
   number of dos      NEDOS =    301   number of ions     NIONS =     64
   non local maximal  LDIM  =      4   non local SUM 2l+1 LMDIM =      8
   total plane-waves  NPLWV = 343000
   max r-space proj   IRMAX =   3231   max aug-charges    IRDMAX=  77399
   dimension x,y,z NGX =    70 NGY =   70 NGZ =   70
   dimension x,y,z NGXF=   140 NGYF=  140 NGZF=  140
   support grid    NGXF=   280 NGYF=  280 NGZF=  280
   ions per type =              64
   NGX,Y,Z   is equivalent  to a cutoff of  10.91, 11.02, 11.02 a.u.
   NGXF,Y,Z  is equivalent  to a cutoff of  21.83, 22.05, 22.05 a.u.

 SYSTEM =  Si64                                    
 POSCAR =  Si8                                     

 Startparameter for this run:
   NWRITE =      2    write-flag & timer
   PREC   = accura    normal or accurate (medium, high low for compatibility)
   ISTART =      0    job   : 0-new  1-cont  2-samecut
   ICHARG =      2    charge: 1-file 2-atom 10-const
   ISPIN  =      1    spin polarized calculation?
   LNONCOLLINEAR =      F non collinear calculations
   LSORBIT =      F    spin-orbit coupling
   INIWAV =      1    electr: 0-lowe 1-rand  2-diag
   LASPH  =      F    aspherical Exc in radial PAW
 Electronic Relaxation 1
   ENCUT  =  400.0 eV  29.40 Ry    5.42 a.u.  17.39 17.22 17.22*2*pi/ulx,y,z
   ENINI  =  400.0     initial cutoff
   ENAUG  =  322.1 eV  augmentation charge cutoff
   NELM   =     60;   NELMIN=  8; NELMDL= -5     # of ELM steps 
   EDIFF  = 0.1E-05   stopping-criterion for ELM
   LREAL  =      T    real-space projection
   NLSPLINE    = F    spline interpolate recip. space projectors
   LCOMPAT=      F    compatible to vasp.4.4
   GGA_COMPAT  = F    GGA compatible to vasp.4.4-vasp.4.6
   LMAXPAW     = -100 max onsite density
   LMAXMIX     =    2 max onsite mixed and CHGCAR
   VOSKOWN=      0    Vosko Wilk Nusair interpolation
   ROPT   =   -0.00025
 Ionic relaxation
   EDIFFG = -.1E-01   stopping-criterion for IOM
   NSW    =     60    number of steps for IOM
   NBLOCK =      1;   KBLOCK =     60    inner block; outer block 
   IBRION =      2    ionic relax: 0-MD 1-quasi-New 2-CG
   NFREE  =      1    steps in history (QN), initial steepest desc. (CG)
   ISIF   =      2    stress and relaxation
   IWAVPR =     11    prediction:  0-non 1-charg 2-wave 3-comb
   ISYM   =      2    0-nonsym 1-usesym 2-fastsym
   LCORR  =      T    Harris-Foulkes like correction to forces

   POTIM  = 0.5000    time-step for ionic-motion
   TEIN   =    0.0    initial temperature
   TEBEG  =    0.0;   TEEND  =   0.0 temperature during run
   SMASS  =  -3.00    Nose mass-parameter (am)
   estimated Nose-frequenzy (Omega)   =  0.10E-29 period in steps = 0.13E+47 mass=  -0.260E-26a.u.
   SCALEE = 1.0000    scale energy and forces
   NPACO  =    256;   APACO  = 10.0  distance and # of slots for P.C.
   PSTRESS=    0.0 pullay stress

  Mass of Ions in am
   POMASS =  28.09
  Ionic Valenz
   ZVAL   =   4.00
  Atomic Wigner-Seitz radii
   RWIGS  =  -1.00
  virtual crystal weights 
   VCA    =   1.00
   NELECT =     256.0000    total number of electrons
   NUPDOWN=      -1.0000    fix difference up-down

 DOS related values:
   EMIN   =  10.00;   EMAX   =-10.00  energy-range for DOS
   EFERMI =   0.00;   METHOD = LEGACY      
   ISMEAR =     1;   SIGMA  =   0.20  broadening in eV -4-tet -1-fermi 0-gaus

 Electronic relaxation 2 (details)
   IALGO  =     68    algorithm
   LDIAG  =      T    sub-space diagonalisation (order eigenvalues)
   LSUBROT=      F    optimize rotation matrix (better conditioning)
   TURBO    =      0    0=normal 1=particle mesh
   IRESTART =      0    0=no restart 2=restart with 2 vectors
   NREBOOT  =      0    no. of reboots
   NMIN     =      0    reboot dimension
   EREF     =   0.00    reference energy to select bands
   IMIX   =      4    mixing-type and parameters
     AMIX     =   0.40;   BMIX     =  1.00
     AMIX_MAG =   1.60;   BMIX_MAG =  1.00
     AMIN     =   0.10
     WC   =   100.;   INIMIX=   1;  MIXPRE=   1;  MAXMIX= -45

 Intra band minimization:
   WEIMIN = 0.0010     energy-eigenvalue tresh-hold
   EBREAK =  0.15E-08  absolut break condition
   DEPER  =   0.30     relativ break condition  

   TIME   =   0.40     timestep for ELM

  volume/ion in A,a.u.               =      18.57       125.30
  Fermi-wavevector in a.u.,A,eV,Ry     =   0.981403  1.854583 13.104483  0.963152
  Thomas-Fermi vector in A             =   2.112407
 
 Write flags
   LWAVE        =      F    write WAVECAR
   LDOWNSAMPLE  =      F    k-point downsampling of WAVECAR
   LCHARG       =      F    write CHGCAR
   LVTOT        =      F    write LOCPOT, total local potential
   LVHAR        =      F    write LOCPOT, Hartree potential only
   WRT_POTENTIAL= false  ! write potential to hdf5 file
   LELF         =      F    write electronic localiz. function (ELF)
   LORBIT       =      0    0 simple, 1 ext, 2 COOP (PROOUT), +10 PAW based schemes


 Dipole corrections
   LMONO      =      F    monopole corrections only (constant potential shift)
   LDIPOL     =      F    correct potential (dipole corrections)
   IDIPOL     =      0    1-x, 2-y, 3-z, 4-all directions 
   EPSILON    =  1.0000000 bulk dielectric constant
   LVACPOTAV  =      F  vacuum potentials using an averaging scheme for the charge density
   VACPOTFLAT =  0.1000000 required flatness to determine vacuum potential
 Exchange correlation treatment:
   GGA     = PS    functional components
   XC_C    = 1    coefficients multiplying the functional components
   LIBXC   =     F    Libxc                    
   VOSKOWN =     0    Vosko Wilk Nusair interpolation
   LHFCALC =     F    Hartree Fock is set to
   LHFONE  =     F    Hartree Fock one center treatment
   AEXX    =    0.0000 exact exchange contribution

 Parameters of functionals:
   PS:
     No parameter
 
 Van der Waals corrections
   IVDW    =     0    specifies the selected vdW correction

 Linear response parameters
   LEPSILON=     F    determine dielectric tensor
   LRPA    =     F    only Hartree local field effects (RPA)
   LNABLA  =     F    use nabla operator in PAW spheres
   LVEL    =     F    velocity operator in full k-point grid
   CSHIFT  =0.1000    complex shift for real part using Kramers Kronig
   OMEGAMAX=  -1.0    maximum frequency
   DEG_THRESHOLD= 0.2000000E-02 threshold for treating states as degnerate
   RTIME   =   -0.100 relaxation time in fs
  (WPLASMAI=    0.000 imaginary part of plasma frequency in eV, 0.658/RTIME)
   DFIELD  = 0.0000000 0.0000000 0.0000000 field for delta impulse in time
 
  Optional k-point grid parameters
   LKPOINTS_OPT  =     F    use optional k-point grid
   KPOINTS_OPT_MODE=     1    mode for optional k-point grid
 
 Orbital magnetization related:
   ORBITALMAG=     F  switch on orbital magnetization
   LCHIMAG   =     F  perturbation theory with respect to B field
   DQ        =  0.001000  dq finite difference perturbation B field
   LLRAUG    =     F  two centre corrections for induced B field
   LBONE     =     F  B-component reconstruction in AE one-centre
   LVGVCALC  =     T  calculate vGv susceptibility
   LVGVAPPL  =     F  apply vGv susceptibility instead of pGv for G=0

 Random number generation:
   RANDOM_GENERATOR = DEFAULT
   PCG_SEED         = not used


--------------------------------------------------------------------------------------------------------


 conjugate gradient relaxation of ions
 charge density and potential will be updated during run
 non-spin polarized calculation
 RMM-DIIS sequential band-by-band and
  variant of blocked Davidson during initial phase
 perform sub-space diagonalisation
    before iterative eigenvector-optimisation
 modified Broyden-mixing scheme, WC =      100.0
 initial mixing is a Kerker type mixing with AMIX =  0.4000 and BMIX =      1.0000
 Hartree-type preconditioning will be used
 using additional bands           34
 real space projection scheme for non local part
 use partial core corrections
 calculate Harris-corrections to forces 
   (improved forces if not selfconsistent)
 use gradient corrections 
 use of overlap-Matrix (Vanderbilt PP)
 Methfessel and Paxton  Order N= 1 SIGMA  =   0.20


--------------------------------------------------------------------------------------------------------


  energy-cutoff  :      400.00
  volume of cell :     1188.29
      direct lattice vectors                 reciprocal lattice vectors
    10.662486575  0.052785008  0.000000000     0.093789075 -0.000468949  0.000000000
     0.052785008 10.556917559  0.000000000    -0.000468949  0.094726964  0.000000000
     0.000000000  0.000000000 10.556917559     0.000000000  0.000000000  0.094724620

  length of vectors
    10.662617231 10.557049522 10.556917559     0.093790247  0.094728125  0.094724620


 
 k-points in units of 2pi/SCALE and weight: Automatic mesh                          
   0.00000000  0.00000000  0.00000000       0.125
   0.04689454 -0.00023447  0.00000000       0.125
  -0.00023447  0.04736349  0.00000000       0.125
   0.04666007  0.04712901  0.00000000       0.125
   0.00000000  0.00000000  0.04736232       0.125
   0.04689454 -0.00023447  0.04736232       0.125
  -0.00023447  0.04736349  0.04736232       0.125
   0.04666007  0.04712901  0.04736232       0.125
 
 k-points in reciprocal lattice and weights: Automatic mesh                          
   0.00000000  0.00000000  0.00000000       0.125
   0.50000000 -0.00000000  0.00000000       0.125
  -0.00000000  0.50000000  0.00000000       0.125
   0.50000000  0.50000000  0.00000000       0.125
   0.00000000  0.00000000  0.50000000       0.125
   0.50000000 -0.00000000  0.50000000       0.125
  -0.00000000  0.50000000  0.50000000       0.125
   0.50000000  0.50000000  0.50000000       0.125
 
 position of ions in fractional coordinates (direct lattice) 
   0.00000000  0.00000000  0.00000000
   0.00000000  0.00000000  0.50000000
   0.00000000  0.50000000  0.00000000
   0.00000000  0.50000000  0.50000000
   0.50000000  0.00000000  0.00000000
   0.50000000  0.00000000  0.50000000
   0.50000000  0.50000000  0.00000000
   0.50000000  0.50000000  0.50000000
   0.37500000  0.37500000  0.12500000
   0.37500000  0.37500000  0.62500000
   0.37500000  0.87500000  0.12500000
   0.37500000  0.87500000  0.62500000
   0.87500000  0.37500000  0.12500000
   0.87500000  0.37500000  0.62500000
   0.87500000  0.87500000  0.12500000
   0.87500000  0.87500000  0.62500000
   0.00000000  0.25000000  0.25000000
   0.00000000  0.25000000  0.75000000
   0.00000000  0.75000000  0.25000000
   0.00000000  0.75000000  0.75000000
   0.50000000  0.25000000  0.25000000
   0.50000000  0.25000000  0.75000000
   0.50000000  0.75000000  0.25000000
   0.50000000  0.75000000  0.75000000
   0.37500000  0.12500000  0.37500000
   0.37500000  0.12500000  0.87500000
   0.37500000  0.62500000  0.37500000
   0.37500000  0.62500000  0.87500000
   0.87500000  0.12500000  0.37500000
   0.87500000  0.12500000  0.87500000
   0.87500000  0.62500000  0.37500000
   0.87500000  0.62500000  0.87500000
   0.25000000  0.00000000  0.25000000
   0.25000000  0.00000000  0.75000000
   0.25000000  0.50000000  0.25000000
   0.25000000  0.50000000  0.75000000
   0.75000000  0.00000000  0.25000000
   0.75000000  0.00000000  0.75000000
   0.75000000  0.50000000  0.25000000
   0.75000000  0.50000000  0.75000000
   0.12500000  0.37500000  0.37500000
   0.12500000  0.37500000  0.87500000
   0.12500000  0.87500000  0.37500000
   0.12500000  0.87500000  0.87500000
   0.62500000  0.37500000  0.37500000
   0.62500000  0.37500000  0.87500000
   0.62500000  0.87500000  0.37500000
   0.62500000  0.87500000  0.87500000
   0.25000000  0.25000000  0.00000000
   0.25000000  0.25000000  0.50000000
   0.25000000  0.75000000  0.00000000
   0.25000000  0.75000000  0.50000000
   0.75000000  0.25000000  0.00000000
   0.75000000  0.25000000  0.50000000
   0.75000000  0.75000000  0.00000000
   0.75000000  0.75000000  0.50000000
   0.12500000  0.12500000  0.12500000
   0.12500000  0.12500000  0.62500000
   0.12500000  0.62500000  0.12500000
   0.12500000  0.62500000  0.62500000
   0.62500000  0.12500000  0.12500000
   0.62500000  0.12500000  0.62500000
   0.62500000  0.62500000  0.12500000
   0.62500000  0.62500000  0.62500000
 
 position of ions in cartesian coordinates  (Angst):
   0.00000000  0.00000000  0.00000000
   0.00000000  0.00000000  5.27845878
   0.02639250  5.27845878  0.00000000
   0.02639250  5.27845878  5.27845878
   5.33124329  0.02639250  0.00000000
   5.33124329  0.02639250  5.27845878
   5.35763579  5.30485128  0.00000000
   5.35763579  5.30485128  5.27845878
   4.01822684  3.97863846  1.31961469
   4.01822684  3.97863846  6.59807347
   4.04461935  9.25709724  1.31961469
   4.04461935  9.25709724  6.59807347
   9.34947013  4.00503097  1.31961469
   9.34947013  4.00503097  6.59807347
   9.37586263  9.28348975  1.31961469
   9.37586263  9.28348975  6.59807347
   0.01319625  2.63922939  2.63922939
   0.01319625  2.63922939  7.91768817
   0.03958876  7.91768817  2.63922939
   0.03958876  7.91768817  7.91768817
   5.34443954  2.66562189  2.63922939
   5.34443954  2.66562189  7.91768817
   5.37083204  7.94408067  2.63922939
   5.37083204  7.94408067  7.91768817
   4.00503059  1.33940907  3.95884408
   4.00503059  1.33940907  9.23730286
   4.03142310  6.61786785  3.95884408
   4.03142310  6.61786785  9.23730286
   9.33627388  1.36580158  3.95884408
   9.33627388  1.36580158  9.23730286
   9.36266638  6.64426036  3.95884408
   9.36266638  6.64426036  9.23730286
   2.66562164  0.01319625  2.63922939
   2.66562164  0.01319625  7.91768817
   2.69201415  5.29165503  2.63922939
   2.69201415  5.29165503  7.91768817
   7.99686493  0.03958876  2.63922939
   7.99686493  0.03958876  7.91768817
   8.02325743  5.31804754  2.63922939
   8.02325743  5.31804754  7.91768817
   1.35260520  3.96544221  3.95884408
   1.35260520  3.96544221  9.23730286
   1.37899770  9.24390099  3.95884408
   1.37899770  9.24390099  9.23730286
   6.68384849  3.99183471  3.95884408
   6.68384849  3.99183471  9.23730286
   6.71024099  9.27029349  3.95884408
   6.71024099  9.27029349  9.23730286
   2.67881790  2.65242564  0.00000000
   2.67881790  2.65242564  5.27845878
   2.70521040  7.93088442  0.00000000
   2.70521040  7.93088442  5.27845878
   8.01006118  2.67881815  0.00000000
   8.01006118  2.67881815  5.27845878
   8.03645369  7.95727693  0.00000000
   8.03645369  7.95727693  5.27845878
   1.33940895  1.32621282  1.31961469
   1.33940895  1.32621282  6.59807347
   1.36580145  6.60467160  1.31961469
   1.36580145  6.60467160  6.59807347
   6.67065224  1.35260532  1.31961469
   6.67065224  1.35260532  6.59807347
   6.69704474  6.63106410  1.31961469
   6.69704474  6.63106410  6.59807347
 


--------------------------------------------------------------------------------------------------------


 k-point     1 :   0.0000 0.0000 0.0000  plane waves:   21613
 k-point     2 :   0.5000-0.0000 0.0000  plane waves:   21582
 k-point     3 :  -0.0000 0.5000 0.0000  plane waves:   21626
 k-point     4 :   0.5000 0.5000 0.0000  plane waves:   21540
 k-point     5 :   0.0000 0.0000 0.5000  plane waves:   21586
 k-point     6 :   0.5000-0.0000 0.5000  plane waves:   21544
 k-point     7 :  -0.0000 0.5000 0.5000  plane waves:   21584
 k-point     8 :   0.5000 0.5000 0.5000  plane waves:   21636

 maximum and minimum number of plane-waves per node :      1839     1772

 maximum number of plane-waves:     21636
 maximum index in each direction: 
   IXMAX=   17   IYMAX=   17   IZMAX=   17
   IXMIN=  -17   IYMIN=  -17   IZMIN=  -17


 real space projection operators:
  total allocation   :      12371.50 KBytes
  max/ min on nodes  :       1078.50        894.75


 parallel 3D FFT for wavefunctions:
    minimum data exchange during FFTs selected (reduces bandwidth)
 parallel 3D FFT for charge:
    minimum data exchange during FFTs selected (reduces bandwidth)


 total amount of memory used by VASP MPI-rank0    78883. kBytes
=======================================================================

   base      :      30000. kBytes
   nonlr-proj:       4771. kBytes
   fftplans  :      17991. kBytes
   grid      :       6881. kBytes
   one-center:         18. kBytes
   wavefun   :      19222. kBytes
 
     INWAV:  cpu time      0.0000: real time      0.0000
 Broyden mixing: mesh for mixing (old mesh)
   NGX = 35   NGY = 35   NGZ = 35
  (NGX  =140   NGY  =140   NGZ  =140)
  gives a total of  42875 points

 initial charge density was supplied:
 charge density of overlapping atoms calculated
 number of electron     256.0000000 magnetization 
 keeping initial charge density in first step


--------------------------------------------------------------------------------------------------------


 Maximum index for non-local projection operator          288
 Maximum index for augmentation-charges         3816 (set IRDMAX)


--------------------------------------------------------------------------------------------------------


 First call to EWALD:  gamma=   0.167
 Maximum number of real-space cells 3x 3x 3
 Maximum number of reciprocal cells 3x 3x 3

    FEWALD:  cpu time      0.0045: real time      0.0045


--------------------------------------- Ionic step        1  -------------------------------------------




--------------------------------------- Iteration      1(   1)  ---------------------------------------


    POTLOK:  cpu time      0.0933: real time      0.1003
    SETDIJ:  cpu time      0.0841: real time      0.0847
     EDDAV:  cpu time      1.2654: real time      1.3363
       DOS:  cpu time      0.0101: real time      0.0120
    --------------------------------------------
      LOOP:  cpu time      1.4530: real time      1.5333

 eigenvalue-minimisations  :  2592
 total energy-change (2. order) : 0.5780801E+03  (-0.8529266E+04)
 number of electron     256.0000000 magnetization 
 augmentation part      256.0000000 magnetization 

 Free energy of the ion-electron system (eV)
  ---------------------------------------------------
  alpha Z        PSCENC =       116.03591873
  Ewald energy   TEWEN  =     -7499.13722509
  -Hartree energ DENC   =      -316.96911694
  -exchange      EXHF   =         0.00000000
  -V(xc)+E(xc)   XCENC  =      -549.59709184
  PAW double counting   =      5598.62625415    -4492.17844134
  entropy T*S    EENTRO =         0.00181615
  eigenvalues    EBANDS =      1156.50209521
  atomic energy  EATOM  =      6564.79586099
  Solvation  Ediel_sol  =         0.00000000
  ---------------------------------------------------
  free energy    TOTEN  =       578.08007003 eV

  energy without entropy =      578.07825388  energy(sigma->0) =      578.07946464


--------------------------------------------------------------------------------------------------------




--------------------------------------- Iteration      1(   2)  ---------------------------------------


     EDDAV:  cpu time      1.3133: real time      1.3299
       DOS:  cpu time      0.0011: real time      0.0011
    --------------------------------------------
      LOOP:  cpu time      1.3144: real time      1.3310

 eigenvalue-minimisations  :  3088
 total energy-change (2. order) :-0.8863580E+03  (-0.8392002E+03)
 number of electron     256.0000000 magnetization 
 augmentation part      256.0000000 magnetization 

 Free energy of the ion-electron system (eV)
  ---------------------------------------------------
  alpha Z        PSCENC =       116.03591873
  Ewald energy   TEWEN  =     -7499.13722509
  -Hartree energ DENC   =      -316.96911694
  -exchange      EXHF   =         0.00000000
  -V(xc)+E(xc)   XCENC  =      -549.59709184
  PAW double counting   =      5598.62625415    -4492.17844134
  entropy T*S    EENTRO =         0.01763484
  eigenvalues    EBANDS =       270.12827793
  atomic energy  EATOM  =      6564.79586099
  Solvation  Ediel_sol  =         0.00000000
  ---------------------------------------------------
  free energy    TOTEN  =      -308.27792856 eV

  energy without entropy =     -308.29556340  energy(sigma->0) =     -308.28380684


--------------------------------------------------------------------------------------------------------




--------------------------------------- Iteration      1(   3)  ---------------------------------------


     EDDAV:  cpu time      1.3264: real time      1.3431
       DOS:  cpu time      0.0021: real time      0.0021
    --------------------------------------------
      LOOP:  cpu time      1.3285: real time      1.3452

 eigenvalue-minimisations  :  3144
 total energy-change (2. order) :-0.6393205E+02  (-0.6267251E+02)
 number of electron     256.0000000 magnetization 
 augmentation part      256.0000000 magnetization 

 Free energy of the ion-electron system (eV)
  ---------------------------------------------------
  alpha Z        PSCENC =       116.03591873
  Ewald energy   TEWEN  =     -7499.13722509
  -Hartree energ DENC   =      -316.96911694
  -exchange      EXHF   =         0.00000000
  -V(xc)+E(xc)   XCENC  =      -549.59709184
  PAW double counting   =      5598.62625415    -4492.17844134
  entropy T*S    EENTRO =         0.00720112
  eigenvalues    EBANDS =       206.20666541
  atomic energy  EATOM  =      6564.79586099
  Solvation  Ediel_sol  =         0.00000000
  ---------------------------------------------------
  free energy    TOTEN  =      -372.20997480 eV

  energy without entropy =     -372.21717592  energy(sigma->0) =     -372.21237517


--------------------------------------------------------------------------------------------------------




--------------------------------------- Iteration      1(   4)  ---------------------------------------


     EDDAV:  cpu time      1.3090: real time      1.3259
       DOS:  cpu time      0.0012: real time      0.0012
    --------------------------------------------
      LOOP:  cpu time      1.3101: real time      1.3270

 eigenvalue-minimisations  :  3120
 total energy-change (2. order) :-0.1652572E+01  (-0.1640814E+01)
 number of electron     256.0000000 magnetization 
 augmentation part      256.0000000 magnetization 

 Free energy of the ion-electron system (eV)
  ---------------------------------------------------
  alpha Z        PSCENC =       116.03591873
  Ewald energy   TEWEN  =     -7499.13722509
  -Hartree energ DENC   =      -316.96911694
  -exchange      EXHF   =         0.00000000
  -V(xc)+E(xc)   XCENC  =      -549.59709184
  PAW double counting   =      5598.62625415    -4492.17844134
  entropy T*S    EENTRO =         0.00801440
  eigenvalues    EBANDS =       204.55328042
  atomic energy  EATOM  =      6564.79586099
  Solvation  Ediel_sol  =         0.00000000
  ---------------------------------------------------
  free energy    TOTEN  =      -373.86254650 eV

  energy without entropy =     -373.87056091  energy(sigma->0) =     -373.86521797


--------------------------------------------------------------------------------------------------------




--------------------------------------- Iteration      1(   5)  ---------------------------------------


     EDDAV:  cpu time      1.3354: real time      1.3476
       DOS:  cpu time      0.0013: real time      0.0013
    CHARGE:  cpu time      0.2477: real time      0.2520
    MIXING:  cpu time      0.0118: real time      0.0136
    --------------------------------------------
      LOOP:  cpu time      1.5963: real time      1.6146

 eigenvalue-minimisations  :  3142
 total energy-change (2. order) :-0.5092951E-01  (-0.5079198E-01)
 number of electron     255.9999997 magnetization 
 augmentation part      -15.1475667 magnetization 

 Broyden mixing:
  rms(total) = 0.31013E+01    rms(broyden)= 0.31013E+01
  rms(prec ) = 0.34115E+01
  weight for this iteration     100.00

 Free energy of the ion-electron system (eV)
  ---------------------------------------------------
  alpha Z        PSCENC =       116.03591873
  Ewald energy   TEWEN  =     -7499.13722509
  -Hartree energ DENC   =      -316.96911694
  -exchange      EXHF   =         0.00000000
  -V(xc)+E(xc)   XCENC  =      -549.59709184
  PAW double counting   =      5598.62625415    -4492.17844134
  entropy T*S    EENTRO =         0.00799175
  eigenvalues    EBANDS =       204.50237357
  atomic energy  EATOM  =      6564.79586099
  Solvation  Ediel_sol  =         0.00000000
  ---------------------------------------------------
  free energy    TOTEN  =      -373.91347601 eV

  energy without entropy =     -373.92146776  energy(sigma->0) =     -373.91613993


--------------------------------------------------------------------------------------------------------




--------------------------------------- Iteration      1(   6)  ---------------------------------------


    POTLOK:  cpu time      0.0741: real time      0.0884
    SETDIJ:  cpu time      0.0766: real time      0.0769
    EDDIAG:  cpu time      0.1363: real time      0.1398
  RMM-DIIS:  cpu time      0.7003: real time      0.7044
    ORTHCH:  cpu time      0.0190: real time      0.0190
       DOS:  cpu time      0.0027: real time      0.0027
    CHARGE:  cpu time      0.2325: real time      0.2330
    MIXING:  cpu time      0.0066: real time      0.0103
    --------------------------------------------
      LOOP:  cpu time      1.2481: real time      1.2745

 eigenvalue-minimisations  :  2592
 total energy-change (2. order) : 0.6192501E+01  (-0.3270842E+00)
 number of electron     255.9999997 magnetization 
 augmentation part      -14.9568102 magnetization 

 Broyden mixing:
  rms(total) = 0.18725E+01    rms(broyden)= 0.18725E+01
  rms(prec ) = 0.20456E+01
  weight for this iteration     100.00

 eigenvalues of (default mixing * dielectric matrix)
  average eigenvalue GAMMA=   2.5173
  2.5173

 Free energy of the ion-electron system (eV)
  ---------------------------------------------------
  alpha Z        PSCENC =       116.03591873
  Ewald energy   TEWEN  =     -7499.13722509
  -Hartree energ DENC   =      -366.95535314
  -exchange      EXHF   =         0.00000000
  -V(xc)+E(xc)   XCENC  =      -541.67009160
  PAW double counting   =     13440.84091792   -12338.50765608
  entropy T*S    EENTRO =         0.02208115
  eigenvalues    EBANDS =       256.85457172
  atomic energy  EATOM  =      6564.79586099
  Solvation  Ediel_sol  =         0.00000000
  ---------------------------------------------------
  free energy    TOTEN  =      -367.72097540 eV

  energy without entropy =     -367.74305655  energy(sigma->0) =     -367.72833578


--------------------------------------------------------------------------------------------------------




--------------------------------------- Iteration      1(   7)  ---------------------------------------


    POTLOK:  cpu time      0.0770: real time      0.0924
    SETDIJ:  cpu time      0.0689: real time      0.0691
    EDDIAG:  cpu time      0.1359: real time      0.1370
  RMM-DIIS:  cpu time      0.7111: real time      0.7131
    ORTHCH:  cpu time      0.0192: real time      0.0193
       DOS:  cpu time      0.0033: real time      0.0033
    CHARGE:  cpu time      0.2340: real time      0.2346
    MIXING:  cpu time      0.0082: real time      0.0090
    --------------------------------------------
      LOOP:  cpu time      1.2577: real time      1.2777

 eigenvalue-minimisations  :  2658
 total energy-change (2. order) : 0.2671936E+01  (-0.8251755E+00)
 number of electron     255.9999997 magnetization 
 augmentation part      -14.6871183 magnetization 

 Broyden mixing:
  rms(total) = 0.12128E+00    rms(broyden)= 0.12128E+00
  rms(prec ) = 0.15180E+00
  weight for this iteration     100.00

 eigenvalues of (default mixing * dielectric matrix)
  average eigenvalue GAMMA=   2.3026
  2.3026  2.3026

 Free energy of the ion-electron system (eV)
  ---------------------------------------------------
  alpha Z        PSCENC =       116.03591873
  Ewald energy   TEWEN  =     -7499.13722509
  -Hartree energ DENC   =      -449.17609692
  -exchange      EXHF   =         0.00000000
  -V(xc)+E(xc)   XCENC  =      -528.04027914
  PAW double counting   =     32981.71589223   -31885.17708188
  entropy T*S    EENTRO =         0.02420033
  eigenvalues    EBANDS =       333.90977150
  atomic energy  EATOM  =      6564.79586099
  Solvation  Ediel_sol  =         0.00000000
  ---------------------------------------------------
  free energy    TOTEN  =      -365.04903924 eV

  energy without entropy =     -365.07323957  energy(sigma->0) =     -365.05710602


--------------------------------------------------------------------------------------------------------




--------------------------------------- Iteration      1(   8)  ---------------------------------------


    POTLOK:  cpu time      0.0787: real time      0.0950
    SETDIJ:  cpu time      0.0713: real time      0.0715
    EDDIAG:  cpu time      0.1371: real time      0.1380
  RMM-DIIS:  cpu time      0.7022: real time      0.7042
    ORTHCH:  cpu time      0.0189: real time      0.0190
       DOS:  cpu time      0.0032: real time      0.0032
    CHARGE:  cpu time      0.2350: real time      0.2356
    MIXING:  cpu time      0.0070: real time      0.0076
    --------------------------------------------
      LOOP:  cpu time      1.2534: real time      1.2740

 eigenvalue-minimisations  :  2612
 total energy-change (2. order) :-0.3145702E-01  (-0.7497825E-01)
 number of electron     255.9999997 magnetization 
 augmentation part      -14.7473993 magnetization 

 Broyden mixing:
  rms(total) = 0.54630E-01    rms(broyden)= 0.54630E-01
  rms(prec ) = 0.58630E-01
  weight for this iteration     100.00

 eigenvalues of (default mixing * dielectric matrix)
  average eigenvalue GAMMA=   2.0869
  2.5567  1.8520  1.8520

 Free energy of the ion-electron system (eV)
  ---------------------------------------------------
  alpha Z        PSCENC =       116.03591873
  Ewald energy   TEWEN  =     -7499.13722509
  -Hartree energ DENC   =      -439.62024937
  -exchange      EXHF   =         0.00000000
  -V(xc)+E(xc)   XCENC  =      -528.84652170
  PAW double counting   =     32791.94596952   -31694.28328802
  entropy T*S    EENTRO =         0.02958909
  eigenvalues    EBANDS =       323.99944959
  atomic energy  EATOM  =      6564.79586099
  Solvation  Ediel_sol  =         0.00000000
  ---------------------------------------------------
  free energy    TOTEN  =      -365.08049626 eV

  energy without entropy =     -365.11008535  energy(sigma->0) =     -365.09035929


--------------------------------------------------------------------------------------------------------




--------------------------------------- Iteration      1(   9)  ---------------------------------------


    POTLOK:  cpu time      0.0731: real time      0.0890
    SETDIJ:  cpu time      0.0732: real time      0.0734
    EDDIAG:  cpu time      0.1324: real time      0.1327
  RMM-DIIS:  cpu time      0.7161: real time      0.7180
    ORTHCH:  cpu time      0.0193: real time      0.0193
       DOS:  cpu time      0.0021: real time      0.0021
    CHARGE:  cpu time      0.2337: real time      0.2343
    MIXING:  cpu time      0.0104: real time      0.0104
    --------------------------------------------
      LOOP:  cpu time      1.2602: real time      1.2792

 eigenvalue-minimisations  :  2672
 total energy-change (2. order) :-0.2356431E-01  (-0.2281284E-01)
 number of electron     255.9999997 magnetization 
 augmentation part      -14.7314679 magnetization 

 Broyden mixing:
  rms(total) = 0.61668E-01    rms(broyden)= 0.61668E-01
  rms(prec ) = 0.70436E-01
  weight for this iteration     100.00

 eigenvalues of (default mixing * dielectric matrix)
  average eigenvalue GAMMA=   1.9580
  2.5443  2.4156  2.4156  0.4565

 Free energy of the ion-electron system (eV)
  ---------------------------------------------------
  alpha Z        PSCENC =       116.03591873
  Ewald energy   TEWEN  =     -7499.13722509
  -Hartree energ DENC   =      -443.26836092
  -exchange      EXHF   =         0.00000000
  -V(xc)+E(xc)   XCENC  =      -528.36455163
  PAW double counting   =     33239.62434433   -32142.28515332
  entropy T*S    EENTRO =         0.02835266
  eigenvalues    EBANDS =       327.46675366
  atomic energy  EATOM  =      6564.79586099
  Solvation  Ediel_sol  =         0.00000000
  ---------------------------------------------------
  free energy    TOTEN  =      -365.10406058 eV

  energy without entropy =     -365.13241324  energy(sigma->0) =     -365.11351146


--------------------------------------------------------------------------------------------------------




--------------------------------------- Iteration      1(  10)  ---------------------------------------


    POTLOK:  cpu time      0.0727: real time      0.0876
    SETDIJ:  cpu time      0.0736: real time      0.0738
    EDDIAG:  cpu time      0.1311: real time      0.1314
  RMM-DIIS:  cpu time      0.7307: real time      0.7328
    ORTHCH:  cpu time      0.0188: real time      0.0189
       DOS:  cpu time      0.0032: real time      0.0032
    CHARGE:  cpu time      0.2330: real time      0.2336
    MIXING:  cpu time      0.0088: real time      0.0088
    --------------------------------------------
      LOOP:  cpu time      1.2721: real time      1.2903

 eigenvalue-minimisations  :  2730
 total energy-change (2. order) :-0.4424335E-02  (-0.4030369E-02)
 number of electron     255.9999997 magnetization 
 augmentation part      -14.7377079 magnetization 

 Broyden mixing:
  rms(total) = 0.82215E-01    rms(broyden)= 0.82215E-01
  rms(prec ) = 0.90093E-01
  weight for this iteration     100.00

 eigenvalues of (default mixing * dielectric matrix)
  average eigenvalue GAMMA=   1.5701
  2.6357  2.0484  2.0484  0.5745  0.5433

 Free energy of the ion-electron system (eV)
  ---------------------------------------------------
  alpha Z        PSCENC =       116.03591873
  Ewald energy   TEWEN  =     -7499.13722509
  -Hartree energ DENC   =      -443.39462706
  -exchange      EXHF   =         0.00000000
  -V(xc)+E(xc)   XCENC  =      -528.35085833
  PAW double counting   =     33271.09601606   -32173.76218788
  entropy T*S    EENTRO =         0.02828037
  eigenvalues    EBANDS =       327.58033729
  atomic energy  EATOM  =      6564.79586099
  Solvation  Ediel_sol  =         0.00000000
  ---------------------------------------------------
  free energy    TOTEN  =      -365.10848491 eV

  energy without entropy =     -365.13676528  energy(sigma->0) =     -365.11791170


--------------------------------------------------------------------------------------------------------




--------------------------------------- Iteration      1(  11)  ---------------------------------------


    POTLOK:  cpu time      0.0776: real time      0.0947
    SETDIJ:  cpu time      0.0716: real time      0.0717
    EDDIAG:  cpu time      0.1302: real time      0.1306
  RMM-DIIS:  cpu time      0.7051: real time      0.7154
    ORTHCH:  cpu time      0.0188: real time      0.0188
       DOS:  cpu time      0.0031: real time      0.0031
    CHARGE:  cpu time      0.2340: real time      0.2346
    MIXING:  cpu time      0.0077: real time      0.0077
    --------------------------------------------
      LOOP:  cpu time      1.2481: real time      1.2766

 eigenvalue-minimisations  :  2592
 total energy-change (2. order) : 0.4801408E-02  (-0.1416850E-02)
 number of electron     255.9999997 magnetization 
 augmentation part      -14.7528082 magnetization 

 Broyden mixing:
  rms(total) = 0.65831E-01    rms(broyden)= 0.65831E-01
  rms(prec ) = 0.66443E-01
  weight for this iteration     100.00

 eigenvalues of (default mixing * dielectric matrix)
  average eigenvalue GAMMA=   1.4274
  2.5472  2.5472  1.4110  0.8898  0.8898  0.2797

 Free energy of the ion-electron system (eV)
  ---------------------------------------------------
  alpha Z        PSCENC =       116.03591873
  Ewald energy   TEWEN  =     -7499.13722509
  -Hartree energ DENC   =      -440.58912839
  -exchange      EXHF   =         0.00000000
  -V(xc)+E(xc)   XCENC  =      -528.56690872
  PAW double counting   =     33208.17326325   -32110.56035725
  entropy T*S    EENTRO =         0.02968092
  eigenvalues    EBANDS =       324.71521206
  atomic energy  EATOM  =      6564.79586099
  Solvation  Ediel_sol  =         0.00000000
  ---------------------------------------------------
  free energy    TOTEN  =      -365.10368350 eV

  energy without entropy =     -365.13336443  energy(sigma->0) =     -365.11357714


--------------------------------------------------------------------------------------------------------




--------------------------------------- Iteration      1(  12)  ---------------------------------------


    POTLOK:  cpu time      0.0778: real time      0.0921
    SETDIJ:  cpu time      0.0713: real time      0.0715
    EDDIAG:  cpu time      0.1332: real time      0.1335
  RMM-DIIS:  cpu time      0.6910: real time      0.6927
    ORTHCH:  cpu time      0.0191: real time      0.0191
       DOS:  cpu time      0.0026: real time      0.0026
    CHARGE:  cpu time      0.2337: real time      0.2342
    MIXING:  cpu time      0.0097: real time      0.0097
    --------------------------------------------
      LOOP:  cpu time      1.2384: real time      1.2555

 eigenvalue-minimisations  :  2614
 total energy-change (2. order) :-0.1701197E-03  (-0.1930031E-03)
 number of electron     255.9999997 magnetization 
 augmentation part      -14.7559105 magnetization 

 Broyden mixing:
  rms(total) = 0.65398E-01    rms(broyden)= 0.65398E-01
  rms(prec ) = 0.65817E-01
  weight for this iteration     100.00

 eigenvalues of (default mixing * dielectric matrix)
  average eigenvalue GAMMA=   1.4038
  2.5598  2.5598  1.6286  0.9657  0.9657  0.7933  0.3538

 Free energy of the ion-electron system (eV)
  ---------------------------------------------------
  alpha Z        PSCENC =       116.03591873
  Ewald energy   TEWEN  =     -7499.13722509
  -Hartree energ DENC   =      -440.44838120
  -exchange      EXHF   =         0.00000000
  -V(xc)+E(xc)   XCENC  =      -528.59178632
  PAW double counting   =     33127.80260525   -32030.19918076
  entropy T*S    EENTRO =         0.02971269
  eigenvalues    EBANDS =       324.60862207
  atomic energy  EATOM  =      6564.79586099
  Solvation  Ediel_sol  =         0.00000000
  ---------------------------------------------------
  free energy    TOTEN  =      -365.10385362 eV

  energy without entropy =     -365.13356632  energy(sigma->0) =     -365.11375785


--------------------------------------------------------------------------------------------------------




--------------------------------------- Iteration      1(  13)  ---------------------------------------


    POTLOK:  cpu time      0.0773: real time      0.0936
    SETDIJ:  cpu time      0.0750: real time      0.0752
    EDDIAG:  cpu time      0.1311: real time      0.1314
  RMM-DIIS:  cpu time      0.7215: real time      0.7234
    ORTHCH:  cpu time      0.0190: real time      0.0190
       DOS:  cpu time      0.0031: real time      0.0031
    CHARGE:  cpu time      0.2336: real time      0.2341
    MIXING:  cpu time      0.0086: real time      0.0086
    --------------------------------------------
      LOOP:  cpu time      1.2691: real time      1.2884

 eigenvalue-minimisations  :  2734
 total energy-change (2. order) :-0.7565895E-04  (-0.3739791E-04)
 number of electron     255.9999997 magnetization 
 augmentation part      -14.7564913 magnetization 

 Broyden mixing:
  rms(total) = 0.73361E-01    rms(broyden)= 0.73361E-01
  rms(prec ) = 0.73737E-01
  weight for this iteration     100.00

 eigenvalues of (default mixing * dielectric matrix)
  average eigenvalue GAMMA=   1.7322
  3.0858  3.0858  2.4657  2.0892  0.9943  0.8821  0.8821  0.3726

 Free energy of the ion-electron system (eV)
  ---------------------------------------------------
  alpha Z        PSCENC =       116.03591873
  Ewald energy   TEWEN  =     -7499.13722509
  -Hartree energ DENC   =      -440.48951153
  -exchange      EXHF   =         0.00000000
  -V(xc)+E(xc)   XCENC  =      -528.58001306
  PAW double counting   =     33195.39461650   -32097.79262617
  entropy T*S    EENTRO =         0.02971393
  eigenvalues    EBANDS =       324.63933641
  atomic energy  EATOM  =      6564.79586099
  Solvation  Ediel_sol  =         0.00000000
  ---------------------------------------------------
  free energy    TOTEN  =      -365.10392928 eV

  energy without entropy =     -365.13364321  energy(sigma->0) =     -365.11383392


--------------------------------------------------------------------------------------------------------




--------------------------------------- Iteration      1(  14)  ---------------------------------------


    POTLOK:  cpu time      0.0769: real time      0.0953
    SETDIJ:  cpu time      0.0718: real time      0.0720
    EDDIAG:  cpu time      0.1298: real time      0.1301
  RMM-DIIS:  cpu time      0.6960: real time      0.6979
    ORTHCH:  cpu time      0.0189: real time      0.0190
       DOS:  cpu time      0.0024: real time      0.0024
    CHARGE:  cpu time      0.2328: real time      0.2333
    MIXING:  cpu time      0.0097: real time      0.0097
    --------------------------------------------
      LOOP:  cpu time      1.2383: real time      1.2597

 eigenvalue-minimisations  :  2603
 total energy-change (2. order) : 0.2974628E-04  (-0.1045686E-04)
 number of electron     255.9999997 magnetization 
 augmentation part      -14.7567917 magnetization 

 Broyden mixing:
  rms(total) = 0.30335E-01    rms(broyden)= 0.30335E-01
  rms(prec ) = 0.30808E-01
  weight for this iteration     100.00

 eigenvalues of (default mixing * dielectric matrix)
  average eigenvalue GAMMA=   1.4921
  2.5462  2.5462  2.5390  1.9592  0.9547  0.9547  0.9188  0.3787  0.6318

 Free energy of the ion-electron system (eV)
  ---------------------------------------------------
  alpha Z        PSCENC =       116.03591873
  Ewald energy   TEWEN  =     -7499.13722509
  -Hartree energ DENC   =      -440.24548903
  -exchange      EXHF   =         0.00000000
  -V(xc)+E(xc)   XCENC  =      -528.63355143
  PAW double counting   =     32798.76510398   -31701.19152362
  entropy T*S    EENTRO =         0.02974809
  eigenvalues    EBANDS =       324.47725783
  atomic energy  EATOM  =      6564.79586099
  Solvation  Ediel_sol  =         0.00000000
  ---------------------------------------------------
  free energy    TOTEN  =      -365.10389954 eV

  energy without entropy =     -365.13364762  energy(sigma->0) =     -365.11381556


--------------------------------------------------------------------------------------------------------




--------------------------------------- Iteration      1(  15)  ---------------------------------------


    POTLOK:  cpu time      0.0794: real time      0.0941
    SETDIJ:  cpu time      0.0712: real time      0.0714
    EDDIAG:  cpu time      0.1324: real time      0.1327
  RMM-DIIS:  cpu time      0.7049: real time      0.7068
    ORTHCH:  cpu time      0.0191: real time      0.0191
       DOS:  cpu time      0.0027: real time      0.0027
    CHARGE:  cpu time      0.2344: real time      0.2350
    MIXING:  cpu time      0.0081: real time      0.0081
    --------------------------------------------
      LOOP:  cpu time      1.2522: real time      1.2699

 eigenvalue-minimisations  :  2628
 total energy-change (2. order) :-0.1003154E-03  (-0.4579254E-05)
 number of electron     255.9999997 magnetization 
 augmentation part      -14.7570911 magnetization 

 Broyden mixing:
  rms(total) = 0.30131E-01    rms(broyden)= 0.30131E-01
  rms(prec ) = 0.30424E-01
  weight for this iteration     100.00

 eigenvalues of (default mixing * dielectric matrix)
  average eigenvalue GAMMA=   1.4411
  2.6213  2.6213  2.3795  1.7971  0.8744  0.8744  0.9939  0.9939  0.8815  0.3737

 Free energy of the ion-electron system (eV)
  ---------------------------------------------------
  alpha Z        PSCENC =       116.03591873
  Ewald energy   TEWEN  =     -7499.13722509
  -Hartree energ DENC   =      -440.26523215
  -exchange      EXHF   =         0.00000000
  -V(xc)+E(xc)   XCENC  =      -528.61983649
  PAW double counting   =     32859.58611033   -31762.00654631
  entropy T*S    EENTRO =         0.02979028
  eigenvalues    EBANDS =       324.47715984
  atomic energy  EATOM  =      6564.79586099
  Solvation  Ediel_sol  =         0.00000000
  ---------------------------------------------------
  free energy    TOTEN  =      -365.10399985 eV

  energy without entropy =     -365.13379013  energy(sigma->0) =     -365.11392995


--------------------------------------------------------------------------------------------------------




--------------------------------------- Iteration      1(  16)  ---------------------------------------


    POTLOK:  cpu time      0.0762: real time      0.0884
    SETDIJ:  cpu time      0.0762: real time      0.0764
    EDDIAG:  cpu time      0.1340: real time      0.1350
  RMM-DIIS:  cpu time      0.6916: real time      0.6933
    ORTHCH:  cpu time      0.0190: real time      0.0196
       DOS:  cpu time      0.0024: real time      0.0027
    CHARGE:  cpu time      0.2340: real time      0.2345
    MIXING:  cpu time      0.0092: real time      0.0095
    --------------------------------------------
      LOOP:  cpu time      1.2425: real time      1.2594

 eigenvalue-minimisations  :  2592
 total energy-change (2. order) :-0.6346081E-04  (-0.2817976E-05)
 number of electron     255.9999997 magnetization 
 augmentation part      -14.7566511 magnetization 

 Broyden mixing:
  rms(total) = 0.24245E-01    rms(broyden)= 0.24245E-01
  rms(prec ) = 0.24395E-01
  weight for this iteration     100.00

 eigenvalues of (default mixing * dielectric matrix)
  average eigenvalue GAMMA=   1.4804
  2.6829  2.6829  2.2684  2.2684  1.1882  1.1882  0.9657  0.9657  0.8494  0.8494
  0.3748

 Free energy of the ion-electron system (eV)
  ---------------------------------------------------
  alpha Z        PSCENC =       116.03591873
  Ewald energy   TEWEN  =     -7499.13722509
  -Hartree energ DENC   =      -440.41155236
  -exchange      EXHF   =         0.00000000
  -V(xc)+E(xc)   XCENC  =      -528.60393196
  PAW double counting   =     32874.37708645   -31776.79968767
  entropy T*S    EENTRO =         0.02978763
  eigenvalues    EBANDS =       324.60967997
  atomic energy  EATOM  =      6564.79586099
  Solvation  Ediel_sol  =         0.00000000
  ---------------------------------------------------
  free energy    TOTEN  =      -365.10406331 eV

  energy without entropy =     -365.13385094  energy(sigma->0) =     -365.11399252


--------------------------------------------------------------------------------------------------------




--------------------------------------- Iteration      1(  17)  ---------------------------------------


    POTLOK:  cpu time      0.0760: real time      0.0922
    SETDIJ:  cpu time      0.0768: real time      0.0770
    EDDIAG:  cpu time      0.1329: real time      0.1335
  RMM-DIIS:  cpu time      0.6958: real time      0.6975
    ORTHCH:  cpu time      0.0191: real time      0.0191
       DOS:  cpu time      0.0037: real time      0.0039
    CHARGE:  cpu time      0.2338: real time      0.2344
    MIXING:  cpu time      0.0089: real time      0.0089
    --------------------------------------------
      LOOP:  cpu time      1.2471: real time      1.2665

 eigenvalue-minimisations  :  2592
 total energy-change (2. order) :-0.1530567E-04  (-0.1031154E-05)
 number of electron     255.9999997 magnetization 
 augmentation part      -14.7565607 magnetization 

 Broyden mixing:
  rms(total) = 0.79329E-02    rms(broyden)= 0.79329E-02
  rms(prec ) = 0.80339E-02
  weight for this iteration     100.00

 eigenvalues of (default mixing * dielectric matrix)
  average eigenvalue GAMMA=   1.6627
  2.9114  2.9114  2.0905  2.0905  2.4847  2.0704  1.0569  1.0569  1.0007  1.0007
  0.9043  0.3746

 Free energy of the ion-electron system (eV)
  ---------------------------------------------------
  alpha Z        PSCENC =       116.03591873
  Ewald energy   TEWEN  =     -7499.13722509
  -Hartree energ DENC   =      -440.39630881
  -exchange      EXHF   =         0.00000000
  -V(xc)+E(xc)   XCENC  =      -528.61534016
  PAW double counting   =     32762.03921420   -31664.46319608
  entropy T*S    EENTRO =         0.02980824
  eigenvalues    EBANDS =       324.60718936
  atomic energy  EATOM  =      6564.79586099
  Solvation  Ediel_sol  =         0.00000000
  ---------------------------------------------------
  free energy    TOTEN  =      -365.10407862 eV

  energy without entropy =     -365.13388685  energy(sigma->0) =     -365.11401470


--------------------------------------------------------------------------------------------------------




--------------------------------------- Iteration      1(  18)  ---------------------------------------


    POTLOK:  cpu time      0.0873: real time      0.0892
    SETDIJ:  cpu time      0.0749: real time      0.0751
    EDDIAG:  cpu time      0.1324: real time      0.1328
  RMM-DIIS:  cpu time      0.6493: real time      0.6510
    ORTHCH:  cpu time      0.0187: real time      0.0198
       DOS:  cpu time      0.0026: real time      0.0026
    CHARGE:  cpu time      0.2335: real time      0.2340
    MIXING:  cpu time      0.0086: real time      0.0087
    --------------------------------------------
      LOOP:  cpu time      1.2073: real time      1.2132

 eigenvalue-minimisations  :  2393
 total energy-change (2. order) :-0.8380082E-05  (-0.5541766E-06)
 number of electron     255.9999997 magnetization 
 augmentation part      -14.7563702 magnetization 

 Broyden mixing:
  rms(total) = 0.22048E-02    rms(broyden)= 0.22048E-02
  rms(prec ) = 0.22488E-02
  weight for this iteration     100.00

 eigenvalues of (default mixing * dielectric matrix)
  average eigenvalue GAMMA=   1.6347
  2.1096  2.8656  2.8656  1.7343  1.7343  2.4773  2.1712  0.9779  0.9779  1.0318
  1.0318  0.8991  0.3746

 Free energy of the ion-electron system (eV)
  ---------------------------------------------------
  alpha Z        PSCENC =       116.03591873
  Ewald energy   TEWEN  =     -7499.13722509
  -Hartree energ DENC   =      -440.42775324
  -exchange      EXHF   =         0.00000000
  -V(xc)+E(xc)   XCENC  =      -528.61388476
  PAW double counting   =     32741.77350278   -31644.19751203
  entropy T*S    EENTRO =         0.02981630
  eigenvalues    EBANDS =       324.63718932
  atomic energy  EATOM  =      6564.79586099
  Solvation  Ediel_sol  =         0.00000000
  ---------------------------------------------------
  free energy    TOTEN  =      -365.10408700 eV

  energy without entropy =     -365.13390330  energy(sigma->0) =     -365.11402576


--------------------------------------------------------------------------------------------------------




--------------------------------------- Iteration      1(  19)  ---------------------------------------


    POTLOK:  cpu time      0.0722: real time      0.0884
    SETDIJ:  cpu time      0.0745: real time      0.0747
    EDDIAG:  cpu time      0.1314: real time      0.1318
  RMM-DIIS:  cpu time      0.4499: real time      0.4513
    ORTHCH:  cpu time      0.0191: real time      0.0191
       DOS:  cpu time      0.0027: real time      0.0027
    CHARGE:  cpu time      0.2333: real time      0.2339
    MIXING:  cpu time      0.0091: real time      0.0091
    --------------------------------------------
      LOOP:  cpu time      0.9923: real time      1.0110

 eigenvalue-minimisations  :  1569
 total energy-change (2. order) :-0.1562236E-05  (-0.1561322E-06)
 number of electron     255.9999997 magnetization 
 augmentation part      -14.7562574 magnetization 

 Broyden mixing:
  rms(total) = 0.43502E-03    rms(broyden)= 0.43487E-03
  rms(prec ) = 0.44836E-03
  weight for this iteration     100.00

 eigenvalues of (default mixing * dielectric matrix)
  average eigenvalue GAMMA=   1.9010
  6.6962  2.9180  2.3538  2.3538  2.1961  1.6955  1.6955  1.4001  0.3746  1.1410
  0.9511  0.9511  0.9954  0.8923

 Free energy of the ion-electron system (eV)
  ---------------------------------------------------
  alpha Z        PSCENC =       116.03591873
  Ewald energy   TEWEN  =     -7499.13722509
  -Hartree energ DENC   =      -440.44533234
  -exchange      EXHF   =         0.00000000
  -V(xc)+E(xc)   XCENC  =      -528.61273829
  PAW double counting   =     32739.21719892   -31641.64122416
  entropy T*S    EENTRO =         0.02981809
  eigenvalues    EBANDS =       324.65363458
  atomic energy  EATOM  =      6564.79586099
  Solvation  Ediel_sol  =         0.00000000
  ---------------------------------------------------
  free energy    TOTEN  =      -365.10408856 eV

  energy without entropy =     -365.13390665  energy(sigma->0) =     -365.11402792


--------------------------------------------------------------------------------------------------------




--------------------------------------- Iteration      1(  20)  ---------------------------------------


    POTLOK:  cpu time      0.0769: real time      0.0936
    SETDIJ:  cpu time      0.0738: real time      0.0739
    EDDIAG:  cpu time      0.1308: real time      0.1311
  RMM-DIIS:  cpu time      0.4445: real time      0.4459
    ORTHCH:  cpu time      0.0191: real time      0.0191
       DOS:  cpu time      0.0030: real time      0.0030
    --------------------------------------------
      LOOP:  cpu time      0.7481: real time      0.7667

 eigenvalue-minimisations  :  1553
 total energy-change (2. order) :-0.1498038E-06  (-0.3324195E-07)
 number of electron     255.9999997 magnetization 
 augmentation part      -14.7562574 magnetization 

 Free energy of the ion-electron system (eV)
  ---------------------------------------------------
  alpha Z        PSCENC =       116.03591873
  Ewald energy   TEWEN  =     -7499.13722509
  -Hartree energ DENC   =      -440.45299790
  -exchange      EXHF   =         0.00000000
  -V(xc)+E(xc)   XCENC  =      -528.61181856
  PAW double counting   =     32744.94920958   -31647.37295139
  entropy T*S    EENTRO =         0.02981831
  eigenvalues    EBANDS =       324.66009661
  atomic energy  EATOM  =      6564.79586099
  Solvation  Ediel_sol  =         0.00000000
  ---------------------------------------------------
  free energy    TOTEN  =      -365.10408871 eV

  energy without entropy =     -365.13390702  energy(sigma->0) =     -365.11402815


--------------------------------------------------------------------------------------------------------




 average (electrostatic) potential at core
  the test charge radii are     0.9892
  (the norm of the test charge is              1.0000)
       1 -82.1677       2 -82.1677       3 -82.1677       4 -82.1677       5 -82.1677
       6 -82.1677       7 -82.1677       8 -82.1677       9 -82.1677      10 -82.1677
      11 -82.1677      12 -82.1677      13 -82.1677      14 -82.1677      15 -82.1677
      16 -82.1677      17 -82.1677      18 -82.1677      19 -82.1677      20 -82.1677
      21 -82.1677      22 -82.1677      23 -82.1677      24 -82.1677      25 -82.1677
      26 -82.1677      27 -82.1677      28 -82.1677      29 -82.1677      30 -82.1677
      31 -82.1677      32 -82.1677      33 -82.1677      34 -82.1677      35 -82.1677
      36 -82.1677      37 -82.1677      38 -82.1677      39 -82.1677      40 -82.1677
      41 -82.1677      42 -82.1677      43 -82.1677      44 -82.1677      45 -82.1677
      46 -82.1677      47 -82.1677      48 -82.1677      49 -82.1677      50 -82.1677
      51 -82.1677      52 -82.1677      53 -82.1677      54 -82.1677      55 -82.1677
      56 -82.1677      57 -82.1677      58 -82.1677      59 -82.1677      60 -82.1677
      61 -82.1677      62 -82.1677      63 -82.1677      64 -82.1677
 
 
 
 E-fermi :   6.7790     XC(G=0):  -9.8443     alpha+bet :-12.9178

 val. band max:        6.6116359589   @ k =   0.0000   0.0000   0.0000
 cond. band min:       6.9218067060   @ k =   0.0000   0.0000   0.5000
 fundamental gap:      0.3101707471
 Fermi energy:         6.7789579678

 k-point     1 :       0.0000    0.0000    0.0000
  band No.  band energies     occupation 
      1      -5.9460      2.00000
      2      -4.8010      2.00000
      3      -4.8010      2.00000
      4      -4.7812      2.00000
      5      -4.7812      2.00000
      6      -4.7810      2.00000
      7      -4.7810      2.00000
      8      -3.7793      2.00000
      9      -3.7793      2.00000
     10      -3.7491      2.00000
     11      -3.7491      2.00000
     12      -3.7491      2.00000
     13      -3.7491      2.00000
     14      -3.7346      2.00000
     15      -3.7346      2.00000
     16      -3.7346      2.00000
     17      -3.7346      2.00000
     18      -3.7184      2.00000
     19      -3.7184      2.00000
     20      -3.4321      2.00000
     21      -3.4321      2.00000
     22      -3.3616      2.00000
     23      -3.3616      2.00000
     24      -1.5471      2.00000
     25      -1.5471      2.00000
     26      -1.5225      2.00000
     27      -1.4812      2.00000
     28      -1.4812      2.00000
     29      -1.4407      2.00000
     30      -1.3502      2.00000
     31      -1.3502      2.00000
     32      -1.3272      2.00000
     33      -1.3272      2.00000
     34      -1.3027      2.00000
     35      -1.3027      2.00000
     36      -1.3027      2.00000
     37      -1.3027      2.00000
     38      -1.2552      2.00000
     39      -1.2552      2.00000
     40      -1.2328      2.00000
     41      -1.2328      2.00000
     42      -0.8151      2.00000
     43      -0.8151      2.00000
     44      -0.8028      2.00000
     45      -0.8028      2.00000
     46       0.9140      2.00000
     47       0.9140      2.00000
     48       0.9140      2.00000
     49       0.9140      2.00000
     50       0.9353      2.00000
     51       0.9353      2.00000
     52       0.9537      2.00000
     53       0.9537      2.00000
     54       0.9537      2.00000
     55       0.9537      2.00000
     56       0.9713      2.00000
     57       0.9713      2.00000
     58       2.3381      2.00000
     59       2.3381      2.00000
     60       2.3394      2.00000
     61       2.3394      2.00000
     62       2.3394      2.00000
     63       2.3394      2.00000
     64       2.3400      2.00000
     65       2.3400      2.00000
     66       2.3438      2.00000
     67       2.3438      2.00000
     68       2.3462      2.00000
     69       2.3462      2.00000
     70       2.4389      2.00000
     71       2.4389      2.00000
     72       2.4389      2.00000
     73       2.4389      2.00000
     74       2.4854      2.00000
     75       2.4854      2.00000
     76       2.4981      2.00000
     77       2.4981      2.00000
     78       2.4981      2.00000
     79       2.4981      2.00000
     80       2.5102      2.00000
     81       2.5102      2.00000
     82       3.0195      2.00000
     83       3.0195      2.00000
     84       3.0965      2.00000
     85       3.0966      2.00000
     86       3.0981      2.00000
     87       3.0982      2.00000
     88       3.4198      2.00000
     89       3.4779      2.00000
     90       3.4780      2.00000
     91       3.5365      2.00000
     92       3.5597      2.00000
     93       3.5597      2.00000
     94       4.4560      2.00000
     95       4.4560      2.00000
     96       4.4966      2.00000
     97       4.4966      2.00000
     98       4.5191      2.00000
     99       4.5191      2.00000
    100       4.5609      2.00000
    101       4.5609      2.00000
    102       4.5713      2.00000
    103       4.5714      2.00000
    104       4.5714      2.00000
    105       4.5714      2.00000
    106       5.1029      2.00000
    107       5.1029      2.00000
    108       5.1306      2.00000
    109       5.1306      2.00000
    110       5.1306      2.00000
    111       5.1306      2.00000
    112       5.1592      2.00000
    113       5.1592      2.00000
    114       5.2169      2.00000
    115       5.2169      2.00000
    116       5.2169      2.00000
    117       5.2169      2.00000
    118       5.2363      2.00000
    119       5.2363      2.00000
    120       5.2884      2.00000
    121       5.2884      2.00000
    122       5.3388      2.00000
    123       5.3388      2.00000
    124       5.3915      2.00000
    125       5.3915      2.00000
    126       6.5324      2.07090
    127       6.6073      2.00700
    128       6.6116      1.99766
    129       6.9242      0.06253
    130       6.9846     -0.05561
    131       6.9846     -0.05561
    132       7.0458     -0.06773
    133       7.0676     -0.06020
    134       7.0676     -0.06020
    135       7.5130     -0.00000
    136       7.5130     -0.00000
    137       7.5130     -0.00000
    138       7.5130     -0.00000
    139       7.5941     -0.00000
    140       7.5941     -0.00000
    141       8.2589     -0.00000
    142       8.2589     -0.00000
    143       8.3622     -0.00000
    144       8.3622     -0.00000
    145       8.9081     -0.00000
    146       8.9083     -0.00000
    147       8.9409     -0.00000
    148       8.9411     -0.00000
    149       8.9413     -0.00000
    150       8.9423     -0.00000
    151       8.9762     -0.00000
    152       8.9765     -0.00000
    153       9.0380     -0.00000
    154       9.0382     -0.00000
    155       9.0385     -0.00000
    156       9.0400     -0.00000
    157       9.0506     -0.00000
    158       9.1094     -0.00000
    159       9.2223     -0.00000
    160       9.5598     -0.00000
    161       9.5960     -0.00000
    162       9.6410     -0.00000

 k-point     2 :       0.5000   -0.0000    0.0000
  band No.  band energies     occupation 
      1      -5.6574      2.00000
      2      -5.6574      2.00000
      3      -4.5314      2.00000
      4      -4.5314      2.00000
      5      -4.5164      2.00000
      6      -4.5164      2.00000
      7      -4.5164      2.00000
      8      -4.5164      2.00000
      9      -4.5010      2.00000
     10      -4.5010      2.00000
     11      -3.6059      2.00000
     12      -3.6059      2.00000
     13      -3.6059      2.00000
     14      -3.6059      2.00000
     15      -3.5638      2.00000
     16      -3.5638      2.00000
     17      -3.5638      2.00000
     18      -3.5638      2.00000
     19      -3.4088      2.00000
     20      -3.4088      2.00000
     21      -2.6320      2.00000
     22      -2.6320      2.00000
     23      -2.5882      2.00000
     24      -2.5882      2.00000
     25      -2.5882      2.00000
     26      -2.5882      2.00000
     27      -2.5438      2.00000
     28      -2.5438      2.00000
     29      -1.4313      2.00000
     30      -1.4313      2.00000
     31      -1.4163      2.00000
     32      -1.4163      2.00000
     33      -1.3566      2.00000
     34      -1.3566      2.00000
     35      -1.3424      2.00000
     36      -1.3424      2.00000
     37      -0.2045      2.00000
     38      -0.2045      2.00000
     39      -0.1706      2.00000
     40      -0.1706      2.00000
     41      -0.1706      2.00000
     42      -0.1706      2.00000
[...]
 -0.000  -0.000   4.168   0.000   0.000   7.764   0.000   0.000
  0.001   0.001   0.000   4.168   0.000   0.000   7.764   0.000
 -0.000  -0.000   0.000   0.000   4.168   0.000   0.000   7.764
 -0.000  -0.000   7.764   0.000   0.000  14.473   0.000   0.000
  0.001   0.002   0.000   7.764   0.000   0.000  14.473   0.000
 -0.000  -0.000   0.000   0.000   7.764   0.000   0.000  14.473
 total augmentation occupancy for first ion, spin component:           1
  6.592  -2.649   0.000  -0.027   0.000  -0.000   0.010  -0.000
 -2.649   1.172   0.000   0.014  -0.000   0.000  -0.005   0.000
  0.000   0.000   3.218   0.000  -0.001  -0.740   0.000  -0.001
 -0.027   0.014   0.000   3.219   0.000   0.000  -0.740   0.000
  0.000  -0.000  -0.001   0.000   3.239  -0.001   0.000  -0.748
 -0.000   0.000  -0.740   0.000  -0.001   0.180   0.000   0.000
  0.010  -0.005   0.000  -0.740   0.000  -0.000   0.180  -0.000
 -0.000   0.000  -0.001   0.000  -0.748   0.000  -0.000   0.182


------------------------ aborting loop because EDIFF is reached ----------------------------------------


    CHARGE:  cpu time      0.2452: real time      0.2459
    FORLOC:  cpu time      0.0225: real time      0.0226
    FORNL :  cpu time      0.6956: real time      0.6981
    STRESS:  cpu time      2.1541: real time      2.1610
    FORCOR:  cpu time      0.0857: real time      0.0859
    FORHAR:  cpu time      0.0344: real time      0.0345
    MIXING:  cpu time      0.0089: real time      0.0089
    OFIELD:  cpu time      0.0001: real time      0.0001

  FORCE on cell =-STRESS in cart. coord.  units (eV):
  Direction    XX          YY          ZZ          XY          YZ          ZX
  --------------------------------------------------------------------------------------
  Alpha Z   116.03592   116.03592   116.03592
  Ewald   -2477.00932 -2511.20820 -2511.16702    -4.29478     0.00000     0.00000
  Hartree   150.26730   145.04090   144.98223    -3.94990    -0.00000    -0.00000
  E(xc)    -833.01918  -832.68516  -832.70062     0.01403    -0.00000    -0.00000
  Local    -925.01916  -884.36646  -884.57838     9.29758     0.00000     0.00000
  n-local  2538.62055  2533.09094  2533.35759     0.14615     0.00000    -0.00000
  augment  -370.04304  -370.05706  -370.07488     0.33146     0.00000     0.00000
  Kinetic  1860.05954  1870.61423  1870.35566    -6.85603     0.00000     0.00000
  Fock        0.00000     0.00000     0.00000     0.00000     0.00000     0.00000
  -------------------------------------------------------------------------------------
  Total      59.89261    66.46511    66.21050    -5.31149     0.00000     0.00000
  in kB      80.75358    89.61532    89.27203    -7.16152     0.00000     0.00000
  external pressure =       86.55 kB  Pullay stress =        0.00 kB


 VOLUME and BASIS-vectors are now :
 -----------------------------------------------------------------------------
  energy-cutoff  :      400.00
  volume of cell :     1188.29
      direct lattice vectors                 reciprocal lattice vectors
    10.662486575  0.052785008  0.000000000     0.093789075 -0.000468949  0.000000000
     0.052785008 10.556917559  0.000000000    -0.000468949  0.094726964  0.000000000
     0.000000000  0.000000000 10.556917559     0.000000000  0.000000000  0.094724620

  length of vectors
    10.662617231 10.557049522 10.556917559     0.093790247  0.094728125  0.094724620


 FORCES acting on ions
    electron-ion (+dipol)            ewald-force                    non-local-force                 convergence-correction
 -----------------------------------------------------------------------------------------------
   -.176E-08 -.134E-08 -.836E+00   -.377E-14 0.202E-13 0.593E+00   -.182E-21 0.803E-20 0.244E+00   -.281E-13 -.870E-13 0.157E-04
   -.176E-08 -.134E-08 -.836E+00   0.160E-13 0.164E-13 0.593E+00   -.640E-21 -.590E-20 0.244E+00   0.312E-13 -.109E-13 0.157E-04
   -.176E-08 -.134E-08 -.836E+00   -.133E-14 0.164E-13 0.593E+00   0.519E-20 0.295E-20 0.244E+00   -.596E-13 0.877E-13 0.157E-04
   -.176E-08 -.134E-08 -.836E+00   -.444E-14 0.235E-13 0.593E+00   -.151E-19 -.831E-20 0.244E+00   0.654E-13 0.116E-13 0.157E-04
   -.176E-08 -.134E-08 -.836E+00   -.511E-14 0.173E-13 0.593E+00   0.481E-20 0.177E-20 0.244E+00   0.287E-13 -.410E-13 0.157E-04
   -.176E-08 -.134E-08 -.836E+00   0.111E-13 0.169E-13 0.593E+00   -.862E-20 -.979E-20 0.244E+00   -.260E-13 -.126E-13 0.157E-04
   -.176E-08 -.134E-08 -.836E+00   0.222E-14 0.244E-13 0.593E+00   0.301E-20 0.860E-20 0.244E+00   0.618E-13 0.389E-13 0.157E-04
   -.176E-08 -.134E-08 -.836E+00   -.355E-14 0.178E-13 0.593E+00   -.396E-20 -.347E-20 0.244E+00   -.618E-13 0.145E-13 0.157E-04
   0.298E-08 0.272E-08 0.836E+00   0.191E-13 0.178E-13 -.593E+00   0.140E-19 -.462E-20 -.244E+00   0.457E-13 0.790E-15 -.157E-04
   0.298E-08 0.272E-08 0.836E+00   0.142E-13 0.142E-13 -.593E+00   0.770E-20 0.341E-20 -.244E+00   -.195E-13 0.398E-13 -.157E-04
   0.298E-08 0.272E-08 0.836E+00   0.191E-13 0.107E-13 -.593E+00   -.668E-20 -.383E-21 -.244E+00   0.450E-13 -.648E-14 -.157E-04
   0.298E-08 0.272E-08 0.836E+00   0.195E-13 0.124E-13 -.593E+00   -.134E-20 0.155E-20 -.244E+00   -.238E-13 -.413E-13 -.157E-04
   0.298E-08 0.272E-08 0.836E+00   0.195E-13 0.977E-14 -.593E+00   -.497E-20 -.899E-21 -.244E+00   -.373E-13 0.792E-13 -.157E-04
   0.298E-08 0.272E-08 0.836E+00   0.178E-13 0.124E-13 -.593E+00   -.680E-20 0.483E-21 -.244E+00   0.276E-13 0.268E-14 -.157E-04
   0.298E-08 0.272E-08 0.836E+00   0.369E-13 0.169E-13 -.593E+00   0.673E-20 -.267E-20 -.244E+00   -.305E-13 -.860E-13 -.157E-04
   0.298E-08 0.272E-08 0.836E+00   0.249E-13 0.711E-14 -.593E+00   0.605E-20 0.604E-20 -.244E+00   0.295E-13 -.804E-14 -.157E-04
   -.176E-08 -.134E-08 -.836E+00   0.000E+00 0.135E-13 0.593E+00   -.717E-22 0.359E-21 0.244E+00   0.565E-13 0.279E-13 0.157E-04
   -.176E-08 -.134E-08 -.836E+00   0.133E-14 0.173E-13 0.593E+00   0.807E-20 -.154E-20 0.244E+00   -.350E-13 -.316E-14 0.157E-04
   -.176E-08 -.134E-08 -.836E+00   0.933E-14 0.127E-13 0.593E+00   -.139E-19 0.462E-20 0.244E+00   0.196E-14 -.332E-13 0.157E-04
   -.176E-08 -.134E-08 -.836E+00   0.124E-13 0.977E-14 0.593E+00   -.931E-21 -.676E-20 0.244E+00   -.446E-15 0.336E-14 0.157E-04
   -.176E-08 -.134E-08 -.836E+00   0.171E-13 0.151E-13 0.593E+00   -.672E-20 -.735E-21 0.244E+00   -.536E-13 0.111E-13 0.157E-04
   -.176E-08 -.134E-08 -.836E+00   0.120E-13 0.151E-13 0.593E+00   -.603E-20 -.941E-20 0.244E+00   0.363E-13 0.276E-15 0.157E-04
   -.176E-08 -.134E-08 -.836E+00   0.533E-14 0.138E-13 0.593E+00   0.499E-20 -.250E-20 0.244E+00   0.254E-14 -.114E-13 0.157E-04
   -.176E-08 -.134E-08 -.836E+00   0.107E-13 0.107E-13 0.593E+00   0.918E-22 -.387E-20 0.244E+00   0.239E-14 0.533E-14 0.157E-04
   0.298E-08 0.272E-08 0.836E+00   0.160E-13 0.803E-14 -.593E+00   0.665E-20 0.493E-20 -.244E+00   0.349E-14 0.296E-13 -.157E-04
   0.298E-08 0.272E-08 0.836E+00   0.195E-13 0.116E-14 -.593E+00   -.687E-20 -.294E-20 -.244E+00   0.314E-13 -.589E-13 -.157E-04
   0.298E-08 0.272E-08 0.836E+00   0.266E-13 0.158E-13 -.593E+00   0.235E-20 0.248E-20 -.244E+00   0.424E-14 -.275E-13 -.157E-04
   0.298E-08 0.272E-08 0.836E+00   0.195E-13 0.169E-13 -.593E+00   0.865E-20 -.804E-20 -.244E+00   0.104E-13 0.613E-13 -.157E-04
   0.298E-08 0.272E-08 0.836E+00   0.266E-13 0.626E-14 -.593E+00   0.569E-20 0.348E-20 -.244E+00   0.160E-14 -.142E-13 -.157E-04
   0.298E-08 0.272E-08 0.836E+00   0.195E-13 0.981E-14 -.593E+00   0.549E-20 -.861E-20 -.244E+00   -.234E-13 -.383E-13 -.157E-04
   0.298E-08 0.272E-08 0.836E+00   0.124E-13 0.145E-13 -.593E+00   0.697E-20 0.640E-20 -.244E+00   0.372E-14 0.213E-13 -.157E-04
   0.298E-08 0.272E-08 0.836E+00   0.195E-13 0.185E-13 -.593E+00   -.133E-19 -.515E-20 -.244E+00   -.394E-15 0.311E-13 -.157E-04
   -.176E-08 -.134E-08 -.836E+00   -.211E-13 -.977E-14 0.593E+00   -.573E-20 -.108E-20 0.244E+00   0.723E-13 0.166E-13 0.157E-04
   -.176E-08 -.134E-08 -.836E+00   -.249E-13 -.888E-14 0.593E+00   -.890E-22 0.328E-20 0.244E+00   -.343E-13 -.845E-13 0.157E-04
   -.176E-08 -.134E-08 -.836E+00   -.302E-13 -.162E-13 0.593E+00   0.272E-20 -.227E-20 0.244E+00   0.515E-13 -.139E-13 0.157E-04
   -.176E-08 -.134E-08 -.836E+00   -.284E-13 -.933E-14 0.593E+00   0.706E-20 0.464E-20 0.244E+00   -.337E-13 0.769E-13 0.157E-04
   -.176E-08 -.134E-08 -.836E+00   -.115E-13 -.755E-14 0.593E+00   0.587E-20 -.293E-20 0.244E+00   -.784E-13 -.413E-13 0.157E-04
   -.176E-08 -.134E-08 -.836E+00   -.187E-13 -.355E-14 0.593E+00   0.890E-20 0.652E-20 0.244E+00   0.279E-13 -.462E-13 0.157E-04
   -.176E-08 -.134E-08 -.836E+00   -.178E-13 0.000E+00 0.593E+00   -.682E-20 0.751E-22 0.244E+00   -.618E-13 0.403E-13 0.157E-04
   -.176E-08 -.134E-08 -.836E+00   -.249E-13 -.355E-14 0.593E+00   -.586E-20 0.951E-21 0.244E+00   0.266E-13 0.461E-13 0.157E-04
   0.298E-08 0.272E-08 0.836E+00   -.593E-14 -.107E-13 -.593E+00   -.137E-19 -.835E-20 -.244E+00   0.952E-13 0.512E-14 -.157E-04
   0.298E-08 0.272E-08 0.836E+00   0.178E-13 -.711E-14 -.593E+00   -.294E-21 0.274E-20 -.244E+00   -.606E-13 0.672E-13 -.157E-04
   0.298E-08 0.272E-08 0.836E+00   0.608E-14 -.711E-14 -.593E+00   -.692E-20 -.633E-20 -.244E+00   0.499E-13 -.124E-13 -.157E-04
   0.298E-08 0.272E-08 0.836E+00   0.253E-14 -.142E-13 -.593E+00   -.153E-21 0.740E-20 -.244E+00   -.363E-13 -.670E-13 -.157E-04
   0.298E-08 0.272E-08 0.836E+00   0.497E-14 -.711E-14 -.593E+00   -.838E-20 -.485E-20 -.244E+00   -.945E-13 0.393E-14 -.157E-04
   0.298E-08 0.272E-08 0.836E+00   0.297E-14 -.142E-13 -.593E+00   0.410E-20 0.717E-20 -.244E+00   0.602E-13 0.439E-13 -.157E-04
   0.298E-08 0.272E-08 0.836E+00   -.177E-13 -.142E-13 -.593E+00   -.303E-21 -.855E-20 -.244E+00   -.480E-13 -.129E-13 -.157E-04
   0.298E-08 0.272E-08 0.836E+00   -.170E-14 -.178E-13 -.593E+00   0.613E-20 0.501E-20 -.244E+00   0.345E-13 -.461E-13 -.157E-04
   -.176E-08 -.134E-08 -.836E+00   -.666E-14 -.577E-14 0.593E+00   -.646E-20 -.276E-20 0.244E+00   0.295E-13 0.212E-14 0.157E-04
   -.176E-08 -.134E-08 -.836E+00   -.147E-13 -.222E-14 0.593E+00   0.692E-20 0.836E-20 0.244E+00   0.105E-13 0.158E-13 0.157E-04
   -.176E-08 -.134E-08 -.836E+00   -.115E-13 -.127E-13 0.593E+00   0.153E-21 -.738E-20 0.244E+00   -.184E-13 0.563E-15 0.157E-04
   -.176E-08 -.134E-08 -.836E+00   -.204E-13 -.133E-13 0.593E+00   0.692E-20 0.296E-20 0.244E+00   0.146E-13 -.168E-13 0.157E-04
   -.176E-08 -.134E-08 -.836E+00   -.258E-13 -.169E-13 0.593E+00   0.772E-20 -.718E-20 0.244E+00   -.349E-13 0.330E-13 0.157E-04
   -.176E-08 -.134E-08 -.836E+00   -.275E-13 -.204E-13 0.593E+00   0.134E-19 0.146E-20 0.244E+00   -.217E-13 -.207E-13 0.157E-04
   -.176E-08 -.134E-08 -.836E+00   -.195E-13 -.164E-13 0.593E+00   -.449E-20 -.163E-20 0.244E+00   0.105E-13 -.341E-13 0.157E-04
   -.176E-08 -.134E-08 -.836E+00   -.142E-13 -.178E-13 0.593E+00   0.874E-20 0.515E-20 0.244E+00   -.223E-13 0.173E-13 0.157E-04
   0.298E-08 0.272E-08 0.836E+00   -.792E-14 -.195E-13 -.593E+00   0.564E-20 -.231E-20 -.244E+00   0.632E-13 -.124E-13 -.157E-04
   0.298E-08 0.272E-08 0.836E+00   0.696E-16 -.230E-13 -.593E+00   0.661E-20 0.735E-22 -.244E+00   -.134E-13 -.330E-13 -.157E-04
   0.298E-08 0.272E-08 0.836E+00   -.657E-14 -.153E-13 -.593E+00   -.923E-20 0.229E-20 -.244E+00   -.173E-13 0.122E-13 -.157E-04
   0.298E-08 0.272E-08 0.836E+00   -.835E-14 -.147E-13 -.593E+00   -.217E-21 -.803E-20 -.244E+00   0.211E-13 0.330E-13 -.157E-04
   0.298E-08 0.272E-08 0.836E+00   0.478E-14 -.120E-13 -.593E+00   -.603E-20 -.386E-20 -.244E+00   -.666E-13 -.486E-14 -.157E-04
   0.298E-08 0.272E-08 0.836E+00   0.136E-13 -.191E-13 -.593E+00   -.165E-20 -.655E-20 -.244E+00   0.141E-13 -.296E-13 -.157E-04
   0.298E-08 0.272E-08 0.836E+00   0.573E-14 -.187E-13 -.593E+00   0.632E-20 -.582E-22 -.244E+00   0.100E-13 0.120E-13 -.157E-04
   0.298E-08 0.272E-08 0.836E+00   0.379E-15 -.102E-13 -.593E+00   0.596E-20 -.433E-20 -.244E+00   -.204E-13 0.297E-13 -.157E-04
 -----------------------------------------------------------------------------------------------
   0.388E-07 0.443E-07 0.561E-06   0.103E-12 0.639E-13 -.240E-13   0.272E-19 -.508E-19 -.341E-14   0.192E-13 -.334E-13 -.126E-09
 
 
 POSITION                                       TOTAL-FORCE (eV/Angst)
 -----------------------------------------------------------------------------------
      0.00000      0.00000      0.00448        -0.000000      0.000000      0.000209
      0.00000      0.00000      5.28294        -0.000000     -0.000000      0.000209
      0.02639      5.27846      0.00448         0.000000      0.000000      0.000209
      0.02639      5.27846      5.28294        -0.000000      0.000000      0.000209
      5.33124      0.02639      0.00448         0.000000      0.000000      0.000209
      5.33124      0.02639      5.28294         0.000000     -0.000000      0.000209
      5.35764      5.30485      0.00448         0.000000      0.000000      0.000209
      5.35764      5.30485      5.28294         0.000000      0.000000      0.000209
      4.01823      3.97864      1.31514         0.000000     -0.000000     -0.000209
      4.01823      3.97864      6.59360         0.000000     -0.000000     -0.000209
      4.04462      9.25710      1.31514         0.000000     -0.000000     -0.000209
      4.04462      9.25710      6.59360         0.000000     -0.000000     -0.000209
      9.34947      4.00503      1.31514        -0.000000     -0.000000     -0.000209
      9.34947      4.00503      6.59360        -0.000000     -0.000000     -0.000209
      9.37586      9.28349      1.31514        -0.000000      0.000000     -0.000209
      9.37586      9.28349      6.59360        -0.000000      0.000000     -0.000209
      0.01320      2.63923      2.64371        -0.000000      0.000000      0.000209
      0.01320      2.63923      7.92216        -0.000000     -0.000000      0.000209
      0.03959      7.91769      2.64371        -0.000000      0.000000      0.000209
      0.03959      7.91769      7.92216        -0.000000     -0.000000      0.000209
      5.34444      2.66562      2.64371         0.000000      0.000000      0.000209
      5.34444      2.66562      7.92216         0.000000      0.000000      0.000209
      5.37083      7.94408      2.64371         0.000000      0.000000      0.000209
      5.37083      7.94408      7.92216         0.000000     -0.000000      0.000209
      4.00503      1.33941      3.95437        -0.000000      0.000000     -0.000209
      4.00503      1.33941      9.23283        -0.000000     -0.000000     -0.000209
      4.03142      6.61787      3.95437         0.000000     -0.000000     -0.000209
      4.03142      6.61787      9.23283        -0.000000     -0.000000     -0.000209
      9.33627      1.36580      3.95437        -0.000000      0.000000     -0.000209
      9.33627      1.36580      9.23283        -0.000000     -0.000000     -0.000209
      9.36267      6.64426      3.95437         0.000000      0.000000     -0.000209
      9.36267      6.64426      9.23283        -0.000000     -0.000000     -0.000209
      2.66562      0.01320      2.64371         0.000000     -0.000000      0.000209
      2.66562      0.01320      7.92216         0.000000     -0.000000      0.000209
      2.69201      5.29166      2.64371        -0.000000     -0.000000      0.000209
      2.69201      5.29166      7.92216        -0.000000     -0.000000      0.000209
      7.99686      0.03959      2.64371        -0.000000      0.000000      0.000209
      7.99686      0.03959      7.92216         0.000000      0.000000      0.000209
      8.02326      5.31805      2.64371        -0.000000     -0.000000      0.000209
      8.02326      5.31805      7.92216        -0.000000     -0.000000      0.000209
      1.35261      3.96544      3.95437        -0.000000      0.000000     -0.000209
      1.35261      3.96544      9.23283        -0.000000      0.000000     -0.000209
      1.37900      9.24390      3.95437        -0.000000      0.000000     -0.000209
      1.37900      9.24390      9.23283        -0.000000      0.000000     -0.000209
      6.68385      3.99183      3.95437         0.000000     -0.000000     -0.000209
      6.68385      3.99183      9.23283         0.000000      0.000000     -0.000209
      6.71024      9.27029      3.95437         0.000000     -0.000000     -0.000209
      6.71024      9.27029      9.23283         0.000000     -0.000000     -0.000209
      2.67882      2.65243      0.00448         0.000000     -0.000000      0.000209
      2.67882      2.65243      5.28294         0.000000      0.000000      0.000209
      2.70521      7.93088      0.00448        -0.000000     -0.000000      0.000209
      2.70521      7.93088      5.28294        -0.000000     -0.000000      0.000209
      8.01006      2.67882      0.00448        -0.000000     -0.000000      0.000209
      8.01006      2.67882      5.28294        -0.000000     -0.000000      0.000209
      8.03645      7.95728      0.00448        -0.000000     -0.000000      0.000209
      8.03645      7.95728      5.28294        -0.000000     -0.000000      0.000209
      1.33941      1.32621      1.31514        -0.000000      0.000000     -0.000209
      1.33941      1.32621      6.59360         0.000000      0.000000     -0.000209
      1.36580      6.60467      1.31514        -0.000000      0.000000     -0.000209
      1.36580      6.60467      6.59360        -0.000000      0.000000     -0.000209
      6.67065      1.35261      1.31514         0.000000     -0.000000     -0.000209
      6.67065      1.35261      6.59360         0.000000     -0.000000     -0.000209
      6.69704      6.63106      1.31514         0.000000      0.000000     -0.000209
      6.69704      6.63106      6.59360         0.000000      0.000000     -0.000209
 -----------------------------------------------------------------------------------
    total drift:                                0.000000      0.000000      0.000001


--------------------------------------------------------------------------------------------------------



  FREE ENERGIE OF THE ION-ELECTRON SYSTEM (eV)
  ---------------------------------------------------
  free  energy   TOTEN  =      -365.12372249 eV

  energy  without entropy=     -365.15018073  energy(sigma->0) =     -365.13254190
 
 d Force = 0.4466933E-02[-0.286E-04, 0.896E-02]  d Energy = 0.4493912E-02-0.270E-04
 d Force =-0.7383526E-01[-0.814E-01,-0.663E-01]  d Ewald  =-0.7383509E-01-0.176E-06


--------------------------------------------------------------------------------------------------------


    POTLOK:  cpu time      0.1444: real time      0.1449


--------------------------------------------------------------------------------------------------------




--------------------------------------------------------------------------------------------------------


  
 reached required accuracy - stopping structural energy minimisation
     LOOP+:  cpu time     12.8664: real time     13.0549
    4ORBIT:  cpu time      0.0000: real time      0.0000

 total amount of memory used by VASP MPI-rank0    78883. kBytes
=======================================================================

   base      :      30000. kBytes
   nonlr-proj:       4771. kBytes
   fftplans  :      17991. kBytes
   grid      :       6881. kBytes
   one-center:         18. kBytes
   wavefun   :      19222. kBytes
 
  
  
 General timing and accounting informations for this job:
 ========================================================
  
                  Total CPU time used (sec):       60.959
                            User time (sec):       57.357
                          System time (sec):        3.602
                         Elapsed time (sec):       64.309
  
                   Maximum memory used (kb):      406820.
                   Average memory used (kb):          N/A
  
                          Minor page faults:        91073
                          Major page faults:            0
                 Voluntary context switches:         9038
