WARNING: $PATH does not agree with $PATH_modshare counter. The following directories' usage counters were adjusted to match. Note that this may mean that module unloading may not work correctly.
 /public1/home/sc80607/atat/bin/
 running   96 mpi-ranks, on    1 nodes
 distrk:  each k-point on   24 cores,    4 groups
 distr:  one band on   12 cores,    2 groups
 vasp.6.4.3 19Mar24 (build Oct 21 2024 22:36:34) complex                        
  
 POSCAR found type information on POSCAR Si
 POSCAR found :  1 types and      64 ions
 scaLAPACK will be used
 -----------------------------------------------------------------------------
|                                                                             |
|               ----> ADVICE to this user running VASP <----                  |
|                                                                             |
|     You enforced a specific xc type in the INCAR file but a different       |
|     type was found in the POTCAR file.                                      |
|     I HOPE YOU KNOW WHAT YOU ARE DOING!                                     |
|                                                                             |
 -----------------------------------------------------------------------------

 LDA part: xc-table for (Slater+PW92), standard interpolation
 POSCAR, INCAR and KPOINTS ok, starting setup
 FFT: planning ... GRIDC
 FFT: planning ... GRID_SOFT
 FFT: planning ... GRID
 WAVECAR not read
 entering main loop
       N       E                     dE             d eps       ncg     rms          rms(c)
DAV:   1     0.578080070027E+03    0.57808E+03   -0.85293E+04  2592   0.107E+03
DAV:   2    -0.308277928557E+03   -0.88636E+03   -0.83920E+03  3088   0.175E+02
DAV:   3    -0.372209974800E+03   -0.63932E+02   -0.62673E+02  3144   0.416E+01
DAV:   4    -0.373862546502E+03   -0.16526E+01   -0.16408E+01  3120   0.807E+00
DAV:   5    -0.373913476012E+03   -0.50930E-01   -0.50792E-01  3142   0.132E+00    0.310E+01
RMM:   6    -0.367720975398E+03    0.61925E+01   -0.32708E+00  2592   0.285E+00    0.187E+01
RMM:   7    -0.365049039242E+03    0.26719E+01   -0.82518E+00  2658   0.450E+00    0.121E+00
RMM:   8    -0.365080496264E+03   -0.31457E-01   -0.74978E-01  2612   0.171E+00    0.546E-01
RMM:   9    -0.365104060576E+03   -0.23564E-01   -0.22813E-01  2672   0.833E-01    0.617E-01
RMM:  10    -0.365108484911E+03   -0.44243E-02   -0.40304E-02  2730   0.392E-01    0.822E-01
RMM:  11    -0.365103683503E+03    0.48014E-02   -0.14168E-02  2592   0.238E-01    0.658E-01
RMM:  12    -0.365103853623E+03   -0.17012E-03   -0.19300E-03  2614   0.104E-01    0.654E-01
RMM:  13    -0.365103929282E+03   -0.75659E-04   -0.37398E-04  2734   0.428E-02    0.734E-01
RMM:  14    -0.365103899535E+03    0.29746E-04   -0.10457E-04  2603   0.255E-02    0.303E-01
RMM:  15    -0.365103999851E+03   -0.10032E-03   -0.45793E-05  2628   0.142E-02    0.301E-01
RMM:  16    -0.365104063312E+03   -0.63461E-04   -0.28180E-05  2592   0.120E-02    0.242E-01
RMM:  17    -0.365104078617E+03   -0.15306E-04   -0.10312E-05  2592   0.808E-03    0.793E-02
RMM:  18    -0.365104086997E+03   -0.83801E-05   -0.55418E-06  2393   0.550E-03    0.220E-02
RMM:  19    -0.365104088560E+03   -0.15622E-05   -0.15613E-06  1569   0.290E-03    0.435E-03
RMM:  20    -0.365104088709E+03   -0.14980E-06   -0.33242E-07  1553   0.121E-03
   1 F= -.36510409E+03 E0= -.36511403E+03  d E =-.365104E+03
 curvature:   0.00 expect dE= 0.000E+00 dE for cont linesearch  0.000E+00
 trial: gam= 0.00000 g(F)=  0.582E-01 g(S)=  0.000E+00 ort = 0.000E+00 (trialstep = 0.100E+01)
 search vector abs. value=  0.582E-01
 bond charge predicted
       N       E                     dE             d eps       ncg     rms          rms(c)
DAV:   1    -0.365115117580E+03   -0.11029E-01   -0.77668E-01  2960   0.170E+00    0.410E-01
RMM:   2    -0.365118804412E+03   -0.36868E-02   -0.38263E-02  2592   0.419E-01    0.166E-01
RMM:   3    -0.365119237596E+03   -0.43318E-03   -0.58865E-03  2636   0.184E-01    0.687E-02
RMM:   4    -0.365119217960E+03    0.19636E-04   -0.79619E-04  2630   0.762E-02    0.257E-02
RMM:   5    -0.365119224663E+03   -0.67028E-05   -0.14961E-04  2677   0.301E-02    0.509E-03
RMM:   6    -0.365119228096E+03   -0.34332E-05   -0.34480E-05  2727   0.133E-02    0.111E-03
RMM:   7    -0.365119228529E+03   -0.43289E-06   -0.45652E-06  1907   0.479E-03    0.989E-04
RMM:   8    -0.365119228575E+03   -0.45486E-07   -0.88821E-07  1553   0.205E-03
   2 F= -.36511923E+03 E0= -.36512721E+03  d E =-.151399E-01
 trial-energy change:   -0.015140  1 .order   -0.015266   -0.058187    0.027654
 step:   0.6759(harm=  0.6778)  dis= 0.00448  next Energy=  -365.123714 (dE=-0.196E-01)
 bond charge predicted
       N       E                     dE             d eps       ncg     rms          rms(c)
DAV:   1    -0.365123303566E+03   -0.40750E-02   -0.81594E-02  2912   0.551E-01    0.133E-01
RMM:   2    -0.365123681339E+03   -0.37777E-03   -0.39101E-03  2592   0.135E-01    0.539E-02
RMM:   3    -0.365123723451E+03   -0.42112E-04   -0.58547E-04  2637   0.590E-02    0.219E-02
RMM:   4    -0.365123721455E+03    0.19960E-05   -0.78061E-05  2618   0.243E-02    0.818E-03
RMM:   5    -0.365123722135E+03   -0.68035E-06   -0.15082E-05  2598   0.961E-03    0.168E-03
RMM:   6    -0.365123722403E+03   -0.26783E-06   -0.31621E-06  1790   0.422E-03    0.317E-04
RMM:   7    -0.365123722461E+03   -0.58096E-07   -0.55412E-07  1499   0.170E-03    0.361E-04
RMM:   8    -0.365123722487E+03   -0.25914E-07   -0.13633E-07  1082   0.854E-04
   3 F= -.36512372E+03 E0= -.36513254E+03  d E =-.196338E-01
 curvature:  -0.34 expect dE=-0.455E-07 dE for cont linesearch -0.455E-07
 trial: gam=-0.00152 g(F)=  0.134E-06 g(S)=  0.000E+00 ort = 0.884E-04 (trialstep = 0.935E+00)
 search vector abs. value=  0.100E-09
 reached required accuracy - stopping structural energy minimisation
