Si64                                    
           1
    10.662487    0.052785    0.000000
     0.052785   10.556918    0.000000
     0.000000    0.000000   10.556918
   Si
    64
Direct configuration=     1
   0.00000000  0.00000000  0.00000000
   0.00000000  0.00000000  0.50000000
   0.00000000  0.50000000  0.00000000
   0.00000000  0.50000000  0.50000000
   0.50000000  0.00000000  0.00000000
   0.50000000  0.00000000  0.50000000
   0.50000000  0.50000000  0.00000000
   0.50000000  0.50000000  0.50000000
   0.37500000  0.37500000  0.12500000
   0.37500000  0.37500000  0.62500000
   0.37500000  0.87500000  0.12500000
   0.37500000  0.87500000  0.62500000
   0.87500000  0.37500000  0.12500000
   0.87500000  0.37500000  0.62500000
   0.87500000  0.87500000  0.12500000
   0.87500000  0.87500000  0.62500000
   0.00000000  0.25000000  0.25000000
   0.00000000  0.25000000  0.75000000
   0.00000000  0.75000000  0.25000000
   0.00000000  0.75000000  0.75000000
   0.50000000  0.25000000  0.25000000
   0.50000000  0.25000000  0.75000000
   0.50000000  0.75000000  0.25000000
   0.50000000  0.75000000  0.75000000
   0.37500000  0.12500000  0.37500000
   0.37500000  0.12500000  0.87500000
   0.37500000  0.62500000  0.37500000
   0.37500000  0.62500000  0.87500000
   0.87500000  0.12500000  0.37500000
   0.87500000  0.12500000  0.87500000
   0.87500000  0.62500000  0.37500000
   0.87500000  0.62500000  0.87500000
   0.25000000  0.00000000  0.25000000
   0.25000000  0.00000000  0.75000000
   0.25000000  0.50000000  0.25000000
   0.25000000  0.50000000  0.75000000
   0.75000000  0.00000000  0.25000000
   0.75000000  0.00000000  0.75000000
   0.75000000  0.50000000  0.25000000
   0.75000000  0.50000000  0.75000000
   0.12500000  0.37500000  0.37500000
   0.12500000  0.37500000  0.87500000
   0.12500000  0.87500000  0.37500000
   0.12500000  0.87500000  0.87500000
   0.62500000  0.37500000  0.37500000
   0.62500000  0.37500000  0.87500000
   0.62500000  0.87500000  0.37500000
   0.62500000  0.87500000  0.87500000
   0.25000000  0.25000000  0.00000000
   0.25000000  0.25000000  0.50000000
   0.25000000  0.75000000  0.00000000
   0.25000000  0.75000000  0.50000000
   0.75000000  0.25000000  0.00000000
   0.75000000  0.25000000  0.50000000
   0.75000000  0.75000000  0.00000000
   0.75000000  0.75000000  0.50000000
   0.12500000  0.12500000  0.12500000
   0.12500000  0.12500000  0.62500000
   0.12500000  0.62500000  0.12500000
   0.12500000  0.62500000  0.62500000
   0.62500000  0.12500000  0.12500000
   0.62500000  0.12500000  0.62500000
   0.62500000  0.62500000  0.12500000
   0.62500000  0.62500000  0.62500000
Direct configuration=     2
   0.00000000  1.00000000  0.00062734
   0.00000000  1.00000000  0.50062734
   1.00000000  0.50000000  0.00062734
   1.00000000  0.50000000  0.50062734
   0.50000000  0.00000000  0.00062734
   0.50000000  0.00000000  0.50062734
   0.50000000  0.50000000  0.00062734
   0.50000000  0.50000000  0.50062734
   0.37500000  0.37500000  0.12437266
   0.37500000  0.37500000  0.62437266
   0.37500000  0.87500000  0.12437266
   0.37500000  0.87500000  0.62437266
   0.87500000  0.37500000  0.12437266
   0.87500000  0.37500000  0.62437266
   0.87500000  0.87500000  0.12437266
   0.87500000  0.87500000  0.62437266
   1.00000000  0.25000000  0.25062734
   0.00000000  0.25000000  0.75062734
   0.00000000  0.75000000  0.25062734
   0.00000000  0.75000000  0.75062734
   0.50000000  0.25000000  0.25062734
   0.50000000  0.25000000  0.75062734
   0.50000000  0.75000000  0.25062734
   0.50000000  0.75000000  0.75062734
   0.37500000  0.12500000  0.37437266
   0.37500000  0.12500000  0.87437266
   0.37500000  0.62500000  0.37437266
   0.37500000  0.62500000  0.87437266
   0.87500000  0.12500000  0.37437266
   0.87500000  0.12500000  0.87437266
   0.87500000  0.62500000  0.37437266
   0.87500000  0.62500000  0.87437266
   0.25000000  1.00000000  0.25062734
   0.25000000  1.00000000  0.75062734
   0.25000000  0.50000000  0.25062734
   0.25000000  0.50000000  0.75062734
   0.75000000  1.00000000  0.25062734
   0.75000000  0.00000000  0.75062734
   0.75000000  0.50000000  0.25062734
   0.75000000  0.50000000  0.75062734
   0.12500000  0.37500000  0.37437266
   0.12500000  0.37500000  0.87437266
   0.12500000  0.87500000  0.37437266
   0.12500000  0.87500000  0.87437266
   0.62500000  0.37500000  0.37437266
   0.62500000  0.37500000  0.87437266
   0.62500000  0.87500000  0.37437266
   0.62500000  0.87500000  0.87437266
   0.25000000  0.25000000  0.00062734
   0.25000000  0.25000000  0.50062734
   0.25000000  0.75000000  0.00062734
   0.25000000  0.75000000  0.50062734
   0.75000000  0.25000000  0.00062734
   0.75000000  0.25000000  0.50062734
   0.75000000  0.75000000  0.00062734
   0.75000000  0.75000000  0.50062734
   0.12500000  0.12500000  0.12437266
   0.12500000  0.12500000  0.62437266
   0.12500000  0.62500000  0.12437266
   0.12500000  0.62500000  0.62437266
   0.62500000  0.12500000  0.12437266
   0.62500000  0.12500000  0.62437266
   0.62500000  0.62500000  0.12437266
   0.62500000  0.62500000  0.62437266
Direct configuration=     3
   0.00000000  0.00000000  0.00042402
   0.00000000  0.00000000  0.50042402
   0.00000000  0.50000000  0.00042402
   0.00000000  0.50000000  0.50042402
   0.50000000  0.00000000  0.00042402
   0.50000000  0.00000000  0.50042402
   0.50000000  0.50000000  0.00042402
   0.50000000  0.50000000  0.50042402
   0.37500000  0.37500000  0.12457598
   0.37500000  0.37500000  0.62457598
   0.37500000  0.87500000  0.12457598
   0.37500000  0.87500000  0.62457598
   0.87500000  0.37500000  0.12457598
   0.87500000  0.37500000  0.62457598
   0.87500000  0.87500000  0.12457598
   0.87500000  0.87500000  0.62457598
   0.00000000  0.25000000  0.25042402
   0.00000000  0.25000000  0.75042402
   0.00000000  0.75000000  0.25042402
   0.00000000  0.75000000  0.75042402
   0.50000000  0.25000000  0.25042402
   0.50000000  0.25000000  0.75042402
   0.50000000  0.75000000  0.25042402
   0.50000000  0.75000000  0.75042402
   0.37500000  0.12500000  0.37457598
   0.37500000  0.12500000  0.87457598
   0.37500000  0.62500000  0.37457598
   0.37500000  0.62500000  0.87457598
   0.87500000  0.12500000  0.37457598
   0.87500000  0.12500000  0.87457598
   0.87500000  0.62500000  0.37457598
   0.87500000  0.62500000  0.87457598
   0.25000000  0.00000000  0.25042402
   0.25000000  0.00000000  0.75042402
   0.25000000  0.50000000  0.25042402
   0.25000000  0.50000000  0.75042402
   0.75000000  0.00000000  0.25042402
   0.75000000  0.00000000  0.75042402
   0.75000000  0.50000000  0.25042402
   0.75000000  0.50000000  0.75042402
   0.12500000  0.37500000  0.37457598
   0.12500000  0.37500000  0.87457598
   0.12500000  0.87500000  0.37457598
   0.12500000  0.87500000  0.87457598
   0.62500000  0.37500000  0.37457598
   0.62500000  0.37500000  0.87457598
   0.62500000  0.87500000  0.37457598
   0.62500000  0.87500000  0.87457598
   0.25000000  0.25000000  0.00042402
   0.25000000  0.25000000  0.50042402
   0.25000000  0.75000000  0.00042402
   0.25000000  0.75000000  0.50042402
   0.75000000  0.25000000  0.00042402
   0.75000000  0.25000000  0.50042402
   0.75000000  0.75000000  0.00042402
   0.75000000  0.75000000  0.50042402
   0.12500000  0.12500000  0.12457598
   0.12500000  0.12500000  0.62457598
   0.12500000  0.62500000  0.12457598
   0.12500000  0.62500000  0.62457598
   0.62500000  0.12500000  0.12457598
   0.62500000  0.12500000  0.62457598
   0.62500000  0.62500000  0.12457598
   0.62500000  0.62500000  0.62457598
