  64  64   0   0
  0.1996751E+02  0.1096054E-08  0.1079857E-08  0.1079826E-08  0.5000000E-15
  1.000000000000000E-004
  CAR 
 Si64                                    
     11.25261869     -8.18949947  301      6.11068586      1.00000000
     -8.189  0.0000E+00  0.0000E+00
     -8.125  0.0000E+00  0.0000E+00
     -8.060  0.0000E+00  0.0000E+00
     -7.995  0.0000E+00  0.0000E+00
     -7.930  0.0000E+00  0.0000E+00
     -7.865  0.0000E+00  0.0000E+00
     -7.801 -0.9568E-29 -0.6201E-30
     -7.736 -0.1521E-26 -0.9916E-28
     -7.671 -0.1965E-24 -0.1283E-25
     -7.606 -0.2053E-22 -0.1343E-23
     -7.541 -0.1735E-20 -0.1138E-21
     -7.477 -0.1185E-18 -0.7790E-20
     -7.412 -0.6536E-17 -0.4314E-18
     -7.347 -0.2841E-15 -0.1884E-16
     -7.282 -0.1013E-13 -0.6751E-15
     -7.217 -0.2926E-12 -0.1964E-13
     -7.153 -0.6807E-11 -0.4608E-12
     -7.088 -0.1273E-09 -0.8712E-11
     -7.023 -0.1912E-08 -0.1326E-09
     -6.958 -0.2300E-07 -0.1623E-08
     -6.893 -0.2210E-06 -0.1594E-07
     -6.829 -0.1688E-05 -0.1253E-06
     -6.764 -0.1019E-04 -0.7855E-06
     -6.699 -0.4811E-04 -0.3903E-05
     -6.634 -0.1749E-03 -0.1524E-04
     -6.569 -0.4745E-03 -0.4598E-04
     -6.505 -0.8957E-03 -0.1040E-03
     -6.440 -0.9204E-03 -0.1637E-03
     -6.375  0.4666E-03 -0.1334E-03
     -6.310  0.3775E-02  0.1112E-03
     -6.245  0.7840E-02  0.6193E-03
     -6.180  0.1153E-01  0.1366E-02
     -6.116  0.1818E-01  0.2544E-02
     -6.051  0.3489E-01  0.4805E-02
     -5.986  0.6201E-01  0.8824E-02
     -5.921  0.8741E-01  0.1449E-01
     -5.856  0.1019E+00  0.2109E-01
     -5.792  0.1168E+00  0.2866E-01
     -5.727  0.1490E+00  0.3832E-01
     -5.662  0.1881E+00  0.5051E-01
     -5.597  0.2022E+00  0.6361E-01
     -5.532  0.1820E+00  0.7541E-01
     -5.468  0.1537E+00  0.8537E-01
     -5.403  0.1378E+00  0.9430E-01
     -5.338  0.1251E+00  0.1024E+00
     -5.273  0.1026E+00  0.1091E+00
     -5.208  0.7921E-01  0.1142E+00
     -5.144  0.7174E-01  0.1188E+00
     -5.079  0.8852E-01  0.1246E+00
     -5.014  0.1392E+00  0.1336E+00
     -4.949  0.2326E+00  0.1487E+00
     -4.884  0.3467E+00  0.1711E+00
     -4.820  0.4313E+00  0.1991E+00
     -4.755  0.4643E+00  0.2292E+00
     -4.690  0.4688E+00  0.2596E+00
     -4.625  0.4545E+00  0.2890E+00
     -4.560  0.3894E+00  0.3143E+00
     -4.495  0.2580E+00  0.3310E+00
     -4.431  0.1063E+00  0.3379E+00
     -4.366  0.3528E-02  0.3381E+00
     -4.301 -0.1278E-01  0.3373E+00
     -4.236  0.5852E-01  0.3411E+00
     -4.171  0.1976E+00  0.3539E+00
     -4.107  0.3630E+00  0.3774E+00
     -4.042  0.4914E+00  0.4092E+00
     -3.977  0.5256E+00  0.4433E+00
     -3.912  0.4564E+00  0.4729E+00
     -3.847  0.3353E+00  0.4946E+00
     -3.783  0.2412E+00  0.5102E+00
     -3.718  0.2352E+00  0.5255E+00
     -3.653  0.3320E+00  0.5470E+00
     -3.588  0.4929E+00  0.5789E+00
     -3.523  0.6439E+00  0.6207E+00
     -3.459  0.7230E+00  0.6675E+00
     -3.394  0.7149E+00  0.7139E+00
     -3.329  0.6420E+00  0.7555E+00
     -3.264  0.5398E+00  0.7905E+00
     -3.199  0.4512E+00  0.8197E+00
     -3.135  0.4124E+00  0.8464E+00
     -3.070  0.4138E+00  0.8732E+00
     -3.005  0.3934E+00  0.8987E+00
     -2.940  0.3028E+00  0.9183E+00
     -2.875  0.1650E+00  0.9290E+00
     -2.811  0.4499E-01  0.9320E+00
     -2.746 -0.1830E-01  0.9308E+00
     -2.681 -0.2779E-01  0.9290E+00
     -2.616  0.2511E-02  0.9291E+00
     -2.551  0.6456E-01  0.9333E+00
     -2.486  0.1400E+00  0.9424E+00
     -2.422  0.1895E+00  0.9547E+00
     -2.357  0.1779E+00  0.9662E+00
     -2.292  0.1121E+00  0.9735E+00
     -2.227  0.4325E-01  0.9763E+00
     -2.162  0.3496E-01  0.9785E+00
     -2.098  0.1262E+00  0.9867E+00
     -2.033  0.3054E+00  0.1007E+01
     -1.968  0.5005E+00  0.1039E+01
     -1.903  0.6080E+00  0.1078E+01
     -1.838  0.5631E+00  0.1115E+01
     -1.774  0.3926E+00  0.1140E+01
     -1.709  0.1940E+00  0.1153E+01
     -1.644  0.6200E-01  0.1157E+01
     -1.579  0.3351E-01  0.1159E+01
     -1.514  0.8326E-01  0.1164E+01
     -1.450  0.1518E+00  0.1174E+01
     -1.385  0.1841E+00  0.1186E+01
     -1.320  0.1647E+00  0.1197E+01
     -1.255  0.1266E+00  0.1205E+01
     -1.190  0.1260E+00  0.1213E+01
     -1.126  0.1954E+00  0.1226E+01
     -1.061  0.3084E+00  0.1246E+01
     -0.996  0.3941E+00  0.1271E+01
     -0.931  0.4106E+00  0.1298E+01
     -0.866  0.4029E+00  0.1324E+01
     -0.801  0.4613E+00  0.1354E+01
     -0.737  0.6252E+00  0.1395E+01
     -0.672  0.8318E+00  0.1448E+01
     -0.607  0.9474E+00  0.1510E+01
     -0.542  0.8606E+00  0.1566E+01
     -0.477  0.5852E+00  0.1604E+01
     -0.413  0.2704E+00  0.1621E+01
     -0.348  0.8539E-01  0.1627E+01
     -0.283  0.9459E-01  0.1633E+01
     -0.218  0.2319E+00  0.1648E+01
     -0.153  0.3660E+00  0.1672E+01
     -0.089  0.3965E+00  0.1697E+01
     -0.024  0.3173E+00  0.1718E+01
      0.041  0.1983E+00  0.1731E+01
      0.106  0.1125E+00  0.1738E+01
      0.171  0.9012E-01  0.1744E+01
      0.235  0.1282E+00  0.1752E+01
      0.300  0.2119E+00  0.1766E+01
      0.365  0.3191E+00  0.1786E+01
      0.430  0.4163E+00  0.1813E+01
      0.495  0.4589E+00  0.1843E+01
      0.559  0.4116E+00  0.1870E+01
      0.624  0.2846E+00  0.1888E+01
      0.689  0.1371E+00  0.1897E+01
      0.754  0.3106E-01  0.1899E+01
      0.819 -0.1451E-01  0.1898E+01
      0.883 -0.1992E-01  0.1897E+01
      0.948 -0.1302E-01  0.1896E+01
      1.013 -0.1013E-01  0.1895E+01
      1.078 -0.1748E-01  0.1894E+01
      1.143 -0.3471E-01  0.1892E+01
      1.208 -0.4524E-01  0.1889E+01
      1.272 -0.4576E-03  0.1889E+01
      1.337  0.1672E+00  0.1900E+01
      1.402  0.4739E+00  0.1931E+01
      1.467  0.8080E+00  0.1983E+01
      1.532  0.9703E+00  0.2046E+01
      1.596  0.8471E+00  0.2101E+01
      1.661  0.5370E+00  0.2136E+01
      1.726  0.2661E+00  0.2153E+01
      1.791  0.1844E+00  0.2165E+01
      1.856  0.2628E+00  0.2182E+01
      1.920  0.3636E+00  0.2205E+01
      1.985  0.3844E+00  0.2230E+01
      2.050  0.3502E+00  0.2253E+01
      2.115  0.3902E+00  0.2278E+01
      2.180  0.6158E+00  0.2318E+01
      2.244  0.9948E+00  0.2383E+01
      2.309  0.1337E+01  0.2469E+01
      2.374  0.1426E+01  0.2562E+01
      2.439  0.1189E+01  0.2639E+01
      2.504  0.7508E+00  0.2687E+01
      2.568  0.3216E+00  0.2708E+01
      2.633  0.4136E-01  0.2711E+01
      2.698 -0.7781E-01  0.2706E+01
      2.763 -0.8515E-01  0.2700E+01
      2.828  0.3088E-02  0.2701E+01
      2.893  0.2219E+00  0.2715E+01
      2.957  0.5826E+00  0.2753E+01
      3.022  0.9951E+00  0.2817E+01
      3.087  0.1299E+01  0.2901E+01
      3.152  0.1389E+01  0.2992E+01
      3.217  0.1285E+01  0.3075E+01
      3.281  0.1081E+01  0.3145E+01
      3.346  0.8657E+00  0.3201E+01
      3.411  0.6965E+00  0.3246E+01
      3.476  0.6195E+00  0.3286E+01
      3.541  0.6439E+00  0.3328E+01
      3.605  0.7058E+00  0.3374E+01
      3.670  0.7026E+00  0.3419E+01
      3.735  0.5996E+00  0.3458E+01
      3.800  0.4763E+00  0.3489E+01
      3.865  0.4346E+00  0.3517E+01
      3.929  0.4823E+00  0.3548E+01
      3.994  0.5435E+00  0.3584E+01
      4.059  0.5648E+00  0.3620E+01
      4.124  0.5674E+00  0.3657E+01
      4.189  0.5997E+00  0.3696E+01
      4.253  0.6789E+00  0.3740E+01
      4.318  0.7861E+00  0.3791E+01
      4.383  0.8849E+00  0.3848E+01
      4.448  0.9342E+00  0.3909E+01
      4.513  0.8991E+00  0.3967E+01
      4.577  0.7682E+00  0.4017E+01
      4.642  0.5643E+00  0.4053E+01
      4.707  0.3430E+00  0.4076E+01
      4.772  0.1749E+00  0.4087E+01
      4.837  0.1122E+00  0.4094E+01
      4.902  0.1598E+00  0.4104E+01
      4.966  0.2697E+00  0.4122E+01
      5.031  0.3643E+00  0.4146E+01
      5.096  0.3786E+00  0.4170E+01
      5.161  0.2995E+00  0.4190E+01
      5.226  0.1733E+00  0.4201E+01
      5.290  0.7061E-01  0.4205E+01
      5.355  0.3776E-01  0.4208E+01
      5.420  0.7316E-01  0.4213E+01
      5.485  0.1369E+00  0.4221E+01
      5.550  0.1798E+00  0.4233E+01
      5.614  0.1746E+00  0.4244E+01
      5.679  0.1307E+00  0.4253E+01
      5.744  0.8012E-01  0.4258E+01
      5.809  0.4721E-01  0.4261E+01
      5.874  0.3255E-01  0.4263E+01
      5.938  0.2318E-01  0.4265E+01
      6.003  0.1233E-01  0.4265E+01
      6.068  0.7315E-02  0.4266E+01
      6.133  0.2095E-01  0.4267E+01
      6.198  0.5712E-01  0.4271E+01
      6.262  0.1039E+00  0.4278E+01
      6.327  0.1407E+00  0.4287E+01
      6.392  0.1512E+00  0.4297E+01
      6.457  0.1318E+00  0.4305E+01
      6.522  0.9170E-01  0.4311E+01
      6.587  0.5201E-01  0.4315E+01
      6.651  0.3923E-01  0.4317E+01
      6.716  0.6884E-01  0.4322E+01
      6.781  0.1304E+00  0.4330E+01
      6.846  0.1920E+00  0.4342E+01
      6.911  0.2252E+00  0.4357E+01
      6.975  0.2301E+00  0.4372E+01
      7.040  0.2385E+00  0.4387E+01
      7.105  0.2869E+00  0.4406E+01
      7.170  0.3757E+00  0.4430E+01
      7.235  0.4522E+00  0.4460E+01
      7.299  0.4521E+00  0.4489E+01
      7.364  0.3681E+00  0.4513E+01
      7.429  0.2718E+00  0.4530E+01
      7.494  0.2564E+00  0.4547E+01
      7.559  0.3557E+00  0.4570E+01
      7.623  0.5219E+00  0.4604E+01
      7.688  0.6722E+00  0.4647E+01
      7.753  0.7473E+00  0.4696E+01
      7.818  0.7392E+00  0.4744E+01
      7.883  0.6913E+00  0.4789E+01
      7.947  0.6745E+00  0.4832E+01
      8.012  0.7344E+00  0.4880E+01
      8.077  0.8497E+00  0.4935E+01
      8.142  0.9513E+00  0.4997E+01
      8.207  0.9841E+00  0.5060E+01
      8.271  0.9404E+00  0.5121E+01
      8.336  0.8403E+00  0.5176E+01
      8.401  0.7036E+00  0.5221E+01
      8.466  0.5515E+00  0.5257E+01
      8.531  0.4168E+00  0.5284E+01
      8.596  0.3300E+00  0.5306E+01
      8.660  0.2970E+00  0.5325E+01
      8.725  0.2933E+00  0.5344E+01
      8.790  0.2811E+00  0.5362E+01
      8.855  0.2341E+00  0.5377E+01
      8.920  0.1558E+00  0.5387E+01
      8.984  0.7443E-01  0.5392E+01
      9.049  0.2002E-01  0.5393E+01
      9.114  0.3059E-02  0.5394E+01
      9.179  0.1204E-01  0.5394E+01
      9.244  0.2616E-01  0.5396E+01
      9.308  0.3034E-01  0.5398E+01
      9.373  0.2258E-01  0.5399E+01
      9.438  0.1047E-01  0.5400E+01
      9.503  0.1734E-02  0.5400E+01
      9.568 -0.1585E-02  0.5400E+01
      9.632 -0.1627E-02  0.5400E+01
      9.697 -0.8462E-03  0.5400E+01
      9.762 -0.3040E-03  0.5400E+01
      9.827 -0.8154E-04  0.5400E+01
      9.892 -0.1686E-04  0.5400E+01
      9.956 -0.2730E-05  0.5400E+01
     10.021 -0.3499E-06  0.5400E+01
     10.086 -0.3570E-07  0.5400E+01
     10.151 -0.2911E-08  0.5400E+01
     10.216 -0.1903E-09  0.5400E+01
     10.281 -0.9996E-11  0.5400E+01
     10.345 -0.4226E-12  0.5400E+01
     10.410 -0.1440E-13  0.5400E+01
     10.475 -0.3997E-15  0.5400E+01
     10.540  0.0000E+00  0.5400E+01
     10.605  0.0000E+00  0.5400E+01
     10.669  0.0000E+00  0.5400E+01
     10.734  0.0000E+00  0.5400E+01
     10.799  0.0000E+00  0.5400E+01
     10.864  0.0000E+00  0.5400E+01
     10.929  0.0000E+00  0.5400E+01
     10.993  0.0000E+00  0.5400E+01
     11.058  0.0000E+00  0.5400E+01
     11.123  0.0000E+00  0.5400E+01
     11.188  0.0000E+00  0.5400E+01
     11.253  0.0000E+00  0.5400E+01
