       N       E                     dE             d eps       ncg     rms          rms(c)
DAV:   1     0.556628788440E+03    0.55663E+03   -0.83717E+04  2592   0.106E+03
DAV:   2    -0.309925768908E+03   -0.86655E+03   -0.82264E+03  3080   0.172E+02
DAV:   3    -0.373046465197E+03   -0.63121E+02   -0.61992E+02  3136   0.409E+01
DAV:   4    -0.374687077636E+03   -0.16406E+01   -0.16283E+01  3128   0.802E+00
DAV:   5    -0.374738153188E+03   -0.51076E-01   -0.50957E-01  3104   0.133E+00    0.282E+01
RMM:   6    -0.369708152216E+03    0.50300E+01   -0.25105E+00  2592   0.247E+00    0.170E+01
RMM:   7    -0.367404910656E+03    0.23032E+01   -0.64191E+00  2627   0.398E+00    0.938E-01
RMM:   8    -0.367451486950E+03   -0.46576E-01   -0.64791E-01  2634   0.153E+00    0.495E-01
RMM:   9    -0.367470833968E+03   -0.19347E-01   -0.17941E-01  2664   0.750E-01    0.571E-01
RMM:  10    -0.367474363002E+03   -0.35290E-02   -0.31857E-02  2745   0.351E-01    0.779E-01
RMM:  11    -0.367472089605E+03    0.22734E-02   -0.10981E-02  2592   0.211E-01    0.613E-01
RMM:  12    -0.367472228211E+03   -0.13861E-03   -0.17290E-03  2606   0.980E-02    0.591E-01
RMM:  13    -0.367472276588E+03   -0.48377E-04   -0.32028E-04  2782   0.395E-02    0.683E-01
RMM:  14    -0.367472317123E+03   -0.40535E-04   -0.88202E-05  2600   0.233E-02    0.305E-01
RMM:  15    -0.367472372511E+03   -0.55389E-04   -0.29815E-05  2642   0.120E-02    0.235E-01
RMM:  16    -0.367472405011E+03   -0.32500E-04   -0.19522E-05  2592   0.102E-02    0.130E-01
RMM:  17    -0.367472415231E+03   -0.10219E-04   -0.10513E-05  2593   0.750E-03    0.321E-02
RMM:  18    -0.367472416193E+03   -0.96183E-06   -0.27712E-06  1746   0.370E-03
   1 F= -.36747242E+03 E0= -.36748177E+03  d E =-.367472E+03
       N       E                     dE             d eps       ncg     rms          rms(c)
DAV:   1    -0.367491467384E+03   -0.19052E-01   -0.89925E-01  2960   0.181E+00    0.405E-01
RMM:   2    -0.367496029362E+03   -0.45620E-02   -0.47918E-02  2593   0.455E-01    0.164E-01
RMM:   3    -0.367496799634E+03   -0.77027E-03   -0.78499E-03  2643   0.207E-01    0.704E-02
RMM:   4    -0.367496814382E+03   -0.14748E-04   -0.10927E-03  2687   0.864E-02    0.251E-02
RMM:   5    -0.367496821481E+03   -0.70993E-05   -0.17642E-04  2659   0.339E-02    0.550E-03
RMM:   6    -0.367496825993E+03   -0.45116E-05   -0.44854E-05  2782   0.152E-02    0.133E-03
RMM:   7    -0.367496826513E+03   -0.51982E-06   -0.54105E-06  1983   0.533E-03    0.110E-03
RMM:   8    -0.367496826617E+03   -0.10421E-06   -0.11890E-06  1599   0.238E-03
   2 F= -.36749683E+03 E0= -.36750559E+03  d E =-.244104E-01
       N       E                     dE             d eps       ncg     rms          rms(c)
DAV:   1    -0.367498994510E+03   -0.21680E-02   -0.48883E-02  2960   0.422E-01    0.944E-02
RMM:   2    -0.367499238186E+03   -0.24368E-03   -0.25402E-03  2592   0.105E-01    0.386E-02
RMM:   3    -0.367499278602E+03   -0.40417E-04   -0.40844E-04  2643   0.477E-02    0.162E-02
RMM:   4    -0.367499279622E+03   -0.10196E-05   -0.56179E-05  2680   0.199E-02    0.577E-03
RMM:   5    -0.367499280083E+03   -0.46161E-06   -0.92478E-06  2385   0.778E-03    0.125E-03
RMM:   6    -0.367499280280E+03   -0.19676E-06   -0.21281E-06  1719   0.348E-03    0.282E-04
RMM:   7    -0.367499280316E+03   -0.35951E-07   -0.38372E-07  1475   0.142E-03    0.206E-04
RMM:   8    -0.367499280330E+03   -0.13582E-07   -0.99123E-08  1039   0.738E-04
   3 F= -.36749928E+03 E0= -.36750830E+03  d E =-.268641E-01
