  64  64   0   0
  0.1810685E+02  0.1039887E-08  0.1055721E-08  0.1055692E-08  0.5000000E-15
  1.000000000000000E-004
  CAR 
 Si64                                    
     12.35503888     -7.85801299  301      7.00757034      1.00000000
     -7.858  0.0000E+00  0.0000E+00
     -7.791  0.0000E+00  0.0000E+00
     -7.723  0.0000E+00  0.0000E+00
     -7.656  0.0000E+00  0.0000E+00
     -7.589  0.0000E+00  0.0000E+00
     -7.521 -0.1351E-30 -0.9101E-32
     -7.454 -0.3124E-28 -0.2114E-29
     -7.386 -0.5766E-26 -0.3906E-27
     -7.319 -0.8463E-24 -0.5741E-25
     -7.252 -0.9874E-22 -0.6710E-23
     -7.184 -0.9155E-20 -0.6235E-21
     -7.117 -0.6743E-18 -0.4606E-19
     -7.049 -0.3944E-16 -0.2703E-17
     -6.982 -0.1772E-14 -0.1221E-15
     -6.915 -0.6502E-13 -0.4503E-14
     -6.847 -0.1887E-11 -0.1317E-12
     -6.780 -0.4332E-10 -0.3050E-11
     -6.713 -0.7848E-09 -0.5593E-10
     -6.645 -0.1120E-07 -0.8105E-09
     -6.578 -0.1255E-06 -0.9264E-08
     -6.510 -0.1099E-05 -0.8331E-07
     -6.443 -0.7475E-05 -0.5870E-06
     -6.376 -0.3909E-04 -0.3221E-05
     -6.308 -0.1544E-03 -0.1362E-04
     -6.241 -0.4455E-03 -0.4364E-04
     -6.174 -0.8655E-03 -0.1020E-03
     -6.106 -0.8207E-03 -0.1573E-03
     -6.039  0.9065E-03 -0.9617E-04
     -5.971  0.4866E-02  0.2317E-03
     -5.904  0.9212E-02  0.8524E-03
     -5.837  0.1167E-01  0.1639E-02
     -5.769  0.1577E-01  0.2702E-02
     -5.702  0.3111E-01  0.4798E-02
     -5.635  0.5977E-01  0.8825E-02
     -5.567  0.8606E-01  0.1462E-01
     -5.500  0.9464E-01  0.2100E-01
     -5.432  0.9846E-01  0.2763E-01
     -5.365  0.1258E+00  0.3611E-01
     -5.298  0.1727E+00  0.4775E-01
     -5.230  0.1971E+00  0.6103E-01
     -5.163  0.1761E+00  0.7290E-01
     -5.096  0.1398E+00  0.8231E-01
     -5.028  0.1251E+00  0.9075E-01
     -4.961  0.1248E+00  0.9915E-01
     -4.893  0.1104E+00  0.1066E+00
     -4.826  0.8280E-01  0.1122E+00
     -4.759  0.6622E-01  0.1166E+00
     -4.691  0.6944E-01  0.1213E+00
     -4.624  0.8861E-01  0.1273E+00
     -4.557  0.1391E+00  0.1367E+00
     -4.489  0.2379E+00  0.1527E+00
     -4.422  0.3509E+00  0.1763E+00
     -4.354  0.4121E+00  0.2041E+00
     -4.287  0.4132E+00  0.2319E+00
     -4.220  0.4099E+00  0.2595E+00
     -4.152  0.4188E+00  0.2878E+00
     -4.085  0.3820E+00  0.3135E+00
     -4.018  0.2627E+00  0.3312E+00
     -3.950  0.1108E+00  0.3387E+00
     -3.883  0.3091E-02  0.3389E+00
     -3.815 -0.2777E-01  0.3370E+00
     -3.748  0.1170E-01  0.3378E+00
     -3.681  0.1072E+00  0.3450E+00
     -3.613  0.2404E+00  0.3612E+00
     -3.546  0.3781E+00  0.3867E+00
     -3.479  0.4723E+00  0.4185E+00
     -3.411  0.4818E+00  0.4510E+00
     -3.344  0.4059E+00  0.4783E+00
     -3.276  0.2959E+00  0.4983E+00
     -3.209  0.2231E+00  0.5133E+00
     -3.142  0.2352E+00  0.5291E+00
     -3.074  0.3343E+00  0.5517E+00
     -3.007  0.4728E+00  0.5835E+00
     -2.940  0.5806E+00  0.6226E+00
     -2.872  0.6149E+00  0.6641E+00
     -2.805  0.5866E+00  0.7036E+00
     -2.737  0.5355E+00  0.7397E+00
     -2.670  0.4853E+00  0.7724E+00
     -2.603  0.4386E+00  0.8019E+00
     -2.535  0.4080E+00  0.8294E+00
     -2.468  0.4094E+00  0.8570E+00
     -2.400  0.4138E+00  0.8849E+00
     -2.333  0.3599E+00  0.9091E+00
     -2.266  0.2350E+00  0.9250E+00
     -2.198  0.9700E-01  0.9315E+00
     -2.131  0.6848E-02  0.9319E+00
     -2.064 -0.2635E-01  0.9302E+00
     -1.996 -0.2573E-01  0.9284E+00
     -1.929 -0.3996E-02  0.9282E+00
     -1.861  0.4487E-01  0.9312E+00
     -1.794  0.1181E+00  0.9392E+00
     -1.727  0.1812E+00  0.9514E+00
     -1.659  0.1881E+00  0.9640E+00
     -1.592  0.1309E+00  0.9729E+00
     -1.525  0.5692E-01  0.9767E+00
     -1.457  0.3461E-01  0.9790E+00
     -1.390  0.1060E+00  0.9862E+00
     -1.322  0.2622E+00  0.1004E+01
     -1.255  0.4413E+00  0.1034E+01
     -1.188  0.5543E+00  0.1071E+01
     -1.120  0.5389E+00  0.1107E+01
     -1.053  0.4035E+00  0.1134E+01
     -0.986  0.2220E+00  0.1149E+01
     -0.918  0.8553E-01  0.1155E+01
     -0.851  0.5020E-01  0.1159E+01
     -0.783  0.1076E+00  0.1166E+01
     -0.716  0.1914E+00  0.1179E+01
     -0.649  0.2296E+00  0.1194E+01
     -0.581  0.2140E+00  0.1209E+01
     -0.514  0.2108E+00  0.1223E+01
     -0.447  0.2746E+00  0.1241E+01
     -0.379  0.3592E+00  0.1265E+01
     -0.312  0.3581E+00  0.1290E+01
     -0.244  0.2463E+00  0.1306E+01
     -0.177  0.1444E+00  0.1316E+01
     -0.110  0.2158E+00  0.1330E+01
     -0.042  0.5003E+00  0.1364E+01
      0.025  0.8522E+00  0.1422E+01
      0.092  0.1046E+01  0.1492E+01
      0.160  0.9580E+00  0.1557E+01
      0.227  0.6542E+00  0.1601E+01
      0.295  0.3092E+00  0.1621E+01
      0.362  0.6334E-01  0.1626E+01
      0.429 -0.4315E-01  0.1623E+01
      0.497 -0.3221E-01  0.1621E+01
      0.564  0.6923E-01  0.1625E+01
      0.631  0.2260E+00  0.1641E+01
      0.699  0.3641E+00  0.1665E+01
      0.766  0.4011E+00  0.1692E+01
      0.834  0.3218E+00  0.1714E+01
      0.901  0.1972E+00  0.1727E+01
      0.968  0.1212E+00  0.1735E+01
      1.036  0.1491E+00  0.1745E+01
      1.103  0.2770E+00  0.1764E+01
      1.170  0.4395E+00  0.1794E+01
      1.238  0.5350E+00  0.1830E+01
      1.305  0.4950E+00  0.1863E+01
      1.373  0.3411E+00  0.1886E+01
      1.440  0.1624E+00  0.1897E+01
      1.507  0.3666E-01  0.1899E+01
      1.575 -0.1860E-01  0.1898E+01
      1.642 -0.3167E-01  0.1896E+01
      1.709 -0.3272E-01  0.1894E+01
      1.777 -0.2362E-01  0.1892E+01
      1.844  0.2508E-01  0.1894E+01
      1.912  0.1467E+00  0.1904E+01
      1.979  0.3288E+00  0.1926E+01
      2.046  0.4879E+00  0.1959E+01
      2.114  0.5216E+00  0.1994E+01
      2.181  0.4095E+00  0.2022E+01
      2.249  0.2569E+00  0.2039E+01
      2.316  0.2144E+00  0.2053E+01
      2.383  0.3396E+00  0.2076E+01
      2.451  0.5376E+00  0.2112E+01
      2.518  0.6521E+00  0.2156E+01
      2.585  0.6101E+00  0.2197E+01
      2.653  0.4624E+00  0.2229E+01
      2.720  0.3165E+00  0.2250E+01
      2.788  0.2755E+00  0.2268E+01
      2.855  0.4143E+00  0.2296E+01
      2.922  0.7308E+00  0.2346E+01
      2.990  0.1098E+01  0.2420E+01
      3.057  0.1312E+01  0.2508E+01
      3.124  0.1232E+01  0.2591E+01
      3.192  0.8981E+00  0.2652E+01
      3.259  0.4945E+00  0.2685E+01
      3.327  0.1929E+00  0.2698E+01
      3.394  0.3857E-01  0.2700E+01
      3.461 -0.1621E-01  0.2699E+01
      3.529 -0.5701E-02  0.2699E+01
      3.596  0.9863E-01  0.2706E+01
      3.663  0.3350E+00  0.2728E+01
      3.731  0.6607E+00  0.2773E+01
      3.798  0.9408E+00  0.2836E+01
      3.866  0.1057E+01  0.2907E+01
      3.933  0.1020E+01  0.2976E+01
      4.000  0.9382E+00  0.3039E+01
      4.068  0.8869E+00  0.3099E+01
      4.135  0.8483E+00  0.3156E+01
      4.202  0.7859E+00  0.3209E+01
      4.270  0.7290E+00  0.3258E+01
      4.337  0.7293E+00  0.3307E+01
      4.405  0.7609E+00  0.3359E+01
      4.472  0.7291E+00  0.3408E+01
      4.539  0.5865E+00  0.3447E+01
      4.607  0.3974E+00  0.3474E+01
      4.674  0.2749E+00  0.3493E+01
      4.741  0.2791E+00  0.3511E+01
      4.809  0.3845E+00  0.3537E+01
      4.876  0.5190E+00  0.3572E+01
      4.944  0.6184E+00  0.3614E+01
      5.011  0.6527E+00  0.3658E+01
      5.078  0.6322E+00  0.3701E+01
      5.146  0.6034E+00  0.3741E+01
      5.213  0.6180E+00  0.3783E+01
      5.280  0.6833E+00  0.3829E+01
      5.348  0.7529E+00  0.3880E+01
      5.415  0.7751E+00  0.3932E+01
      5.483  0.7305E+00  0.3981E+01
      5.550  0.6225E+00  0.4023E+01
      5.617  0.4654E+00  0.4054E+01
      5.685  0.2966E+00  0.4074E+01
      5.752  0.1792E+00  0.4086E+01
      5.819  0.1621E+00  0.4097E+01
      5.887  0.2335E+00  0.4113E+01
      5.954  0.3218E+00  0.4135E+01
      6.022  0.3528E+00  0.4158E+01
      6.089  0.3048E+00  0.4179E+01
      6.156  0.2093E+00  0.4193E+01
      6.224  0.1118E+00  0.4201E+01
      6.291  0.4608E-01  0.4204E+01
      6.359  0.3075E-01  0.4206E+01
      6.426  0.6578E-01  0.4210E+01
      6.493  0.1251E+00  0.4219E+01
      6.561  0.1681E+00  0.4230E+01
      6.628  0.1691E+00  0.4241E+01
      6.695  0.1344E+00  0.4250E+01
      6.763  0.8815E-01  0.4256E+01
      6.830  0.5041E-01  0.4260E+01
      6.898  0.3082E-01  0.4262E+01
      6.965  0.3483E-01  0.4264E+01
      7.032  0.6436E-01  0.4269E+01
      7.100  0.1107E+00  0.4276E+01
      7.167  0.1519E+00  0.4286E+01
      7.234  0.1637E+00  0.4297E+01
      7.302  0.1371E+00  0.4307E+01
      7.369  0.8571E-01  0.4312E+01
      7.437  0.3614E-01  0.4315E+01
      7.504  0.1348E-01  0.4316E+01
      7.571  0.3302E-01  0.4318E+01
      7.639  0.9238E-01  0.4324E+01
      7.706  0.1652E+00  0.4335E+01
      7.773  0.2143E+00  0.4350E+01
      7.841  0.2251E+00  0.4365E+01
      7.908  0.2263E+00  0.4380E+01
      7.976  0.2630E+00  0.4398E+01
      8.043  0.3404E+00  0.4421E+01
      8.110  0.4039E+00  0.4448E+01
      8.178  0.3909E+00  0.4474E+01
      8.245  0.2964E+00  0.4494E+01
      8.312  0.1805E+00  0.4506E+01
      8.380  0.1248E+00  0.4515E+01
      8.447  0.1798E+00  0.4527E+01
      8.515  0.3309E+00  0.4549E+01
      8.582  0.5081E+00  0.4583E+01
      8.649  0.6330E+00  0.4626E+01
      8.717  0.6548E+00  0.4670E+01
      8.784  0.5653E+00  0.4708E+01
      8.851  0.4152E+00  0.4736E+01
      8.919  0.3062E+00  0.4757E+01
      8.986  0.3296E+00  0.4779E+01
      9.054  0.5021E+00  0.4813E+01
      9.121  0.7676E+00  0.4865E+01
      9.188  0.1039E+01  0.4935E+01
      9.256  0.1226E+01  0.5017E+01
      9.323  0.1253E+01  0.5102E+01
      9.390  0.1101E+01  0.5176E+01
      9.458  0.8298E+00  0.5232E+01
      9.525  0.5469E+00  0.5269E+01
      9.593  0.3462E+00  0.5292E+01
      9.660  0.2684E+00  0.5310E+01
      9.727  0.2852E+00  0.5329E+01
      9.795  0.3159E+00  0.5351E+01
      9.862  0.2896E+00  0.5370E+01
      9.929  0.2018E+00  0.5384E+01
      9.997  0.1014E+00  0.5390E+01
     10.064  0.3168E-01  0.5393E+01
     10.132  0.1520E-02  0.5393E+01
     10.199 -0.1613E-03  0.5393E+01
     10.266  0.1300E-01  0.5394E+01
     10.334  0.2771E-01  0.5395E+01
     10.401  0.3267E-01  0.5398E+01
     10.468  0.2513E-01  0.5399E+01
     10.536  0.1213E-01  0.5400E+01
     10.603  0.2319E-02  0.5400E+01
     10.671 -0.1518E-02  0.5400E+01
     10.738 -0.1635E-02  0.5400E+01
     10.805 -0.8262E-03  0.5400E+01
     10.873 -0.2805E-03  0.5400E+01
     10.940 -0.6965E-04  0.5400E+01
     11.008 -0.1308E-04  0.5400E+01
     11.075 -0.1890E-05  0.5400E+01
     11.142 -0.2123E-06  0.5400E+01
     11.210 -0.1865E-07  0.5400E+01
     11.277 -0.1288E-08  0.5400E+01
     11.344 -0.7004E-10  0.5400E+01
     11.412 -0.3009E-11  0.5400E+01
     11.479 -0.1022E-12  0.5400E+01
     11.547 -0.2746E-14  0.5400E+01
     11.614 -0.6866E-16  0.5400E+01
     11.681  0.0000E+00  0.5400E+01
     11.749  0.0000E+00  0.5400E+01
     11.816  0.0000E+00  0.5400E+01
     11.883  0.0000E+00  0.5400E+01
     11.951  0.0000E+00  0.5400E+01
     12.018  0.0000E+00  0.5400E+01
     12.086  0.0000E+00  0.5400E+01
     12.153  0.0000E+00  0.5400E+01
     12.220  0.0000E+00  0.5400E+01
     12.288  0.0000E+00  0.5400E+01
     12.355  0.0000E+00  0.5400E+01
