       N       E                     dE             d eps       ncg     rms          rms(c)
DAV:   1     0.581568637906E+03    0.58157E+03   -0.85764E+04  2592   0.107E+03
DAV:   2    -0.307013362828E+03   -0.88858E+03   -0.84290E+03  3088   0.177E+02
DAV:   3    -0.370876564246E+03   -0.63863E+02   -0.62574E+02  3144   0.417E+01
DAV:   4    -0.372473632621E+03   -0.15971E+01   -0.15864E+01  3136   0.800E+00
DAV:   5    -0.372523471137E+03   -0.49839E-01   -0.49702E-01  3130   0.130E+00    0.320E+01
RMM:   6    -0.365877384705E+03    0.66461E+01   -0.35837E+00  2592   0.299E+00    0.194E+01
RMM:   7    -0.363066722478E+03    0.28107E+01   -0.89619E+00  2651   0.470E+00    0.134E+00
RMM:   8    -0.363091807184E+03   -0.25085E-01   -0.83324E-01  2614   0.179E+00    0.592E-01
RMM:   9    -0.363116924622E+03   -0.25117E-01   -0.25545E-01  2677   0.874E-01    0.647E-01
RMM:  10    -0.363122735017E+03   -0.58104E-02   -0.46391E-02  2687   0.414E-01    0.991E-01
RMM:  11    -0.363116132190E+03    0.66028E-02   -0.17956E-02  2592   0.260E-01    0.532E-01
RMM:  12    -0.363116353028E+03   -0.22084E-03   -0.19481E-03  2615   0.107E-01    0.497E-01
RMM:  13    -0.363116423442E+03   -0.70414E-04   -0.35249E-04  2686   0.435E-02    0.566E-01
RMM:  14    -0.363116412719E+03    0.10723E-04   -0.10119E-04  2637   0.237E-02    0.219E-01
RMM:  15    -0.363116449302E+03   -0.36584E-04   -0.42498E-05  2627   0.134E-02    0.108E-01
RMM:  16    -0.363116466979E+03   -0.17677E-04   -0.13628E-05  2496   0.787E-03    0.792E-02
RMM:  17    -0.363116476573E+03   -0.95937E-05   -0.88819E-06  2573   0.656E-03    0.218E-02
RMM:  18    -0.363116475162E+03    0.14110E-05   -0.19778E-06  1613   0.310E-03    0.501E-03
RMM:  19    -0.363116475204E+03   -0.42276E-07   -0.38797E-07  1549   0.136E-03
   1 F= -.36311648E+03 E0= -.36312323E+03  d E =-.363116E+03
       N       E                     dE             d eps       ncg     rms          rms(c)
DAV:   1    -0.363145046610E+03   -0.28571E-01   -0.22238E+00  2952   0.287E+00    0.723E-01
RMM:   2    -0.363154888603E+03   -0.98420E-02   -0.10439E-01  2593   0.702E-01    0.296E-01
RMM:   3    -0.363155582005E+03   -0.69340E-03   -0.15271E-02  2629   0.303E-01    0.119E-01
RMM:   4    -0.363155496324E+03    0.85681E-04   -0.22145E-03  2624   0.125E-01    0.479E-02
RMM:   5    -0.363155514992E+03   -0.18668E-04   -0.39266E-04  2684   0.483E-02    0.785E-03
RMM:   6    -0.363155523738E+03   -0.87464E-05   -0.90123E-05  2780   0.216E-02    0.207E-03
RMM:   7    -0.363155524971E+03   -0.12324E-05   -0.12519E-05  2254   0.787E-03    0.161E-03
RMM:   8    -0.363155525124E+03   -0.15337E-06   -0.23005E-06  1731   0.326E-03
   2 F= -.36315553E+03 E0= -.36315980E+03  d E =-.390499E-01
       N       E                     dE             d eps       ncg     rms          rms(c)
DAV:   1    -0.363168459624E+03   -0.12935E-01   -0.25681E-01  2912   0.976E-01    0.244E-01
RMM:   2    -0.363169568415E+03   -0.11088E-02   -0.11747E-02  2592   0.237E-01    0.101E-01
RMM:   3    -0.363169644959E+03   -0.76544E-04   -0.16985E-03  2628   0.102E-01    0.391E-02
RMM:   4    -0.363169636896E+03    0.80630E-05   -0.24326E-04  2620   0.421E-02    0.158E-02
RMM:   5    -0.363169638812E+03   -0.19161E-05   -0.43617E-05  2676   0.162E-02    0.268E-03
RMM:   6    -0.363169639706E+03   -0.89477E-06   -0.99391E-06  2195   0.737E-03    0.642E-04
RMM:   7    -0.363169639849E+03   -0.14285E-06   -0.13880E-06  1641   0.269E-03    0.654E-04
RMM:   8    -0.363169639915E+03   -0.65897E-07   -0.31790E-07  1369   0.124E-03
   3 F= -.36316964E+03 E0= -.36317490E+03  d E =-.531647E-01
