 vasp.6.4.3 19Mar24 (build Oct 21 2024 22:36:34) complex                        
  
 executed on             LinuxIFC date 2024.11.01  22:57:52
 running   96 mpi-ranks, on    1 nodes
 distrk:  each k-point on   24 cores,    4 groups
 distr:  one band on NCORE=  12 cores,    2 groups


--------------------------------------------------------------------------------------------------------


 INCAR:
   SYSTEM = Si64
   ISTART = 0
   ICHARG = 2
   LREAL = Auto
   PREC = Accurate
   LWAVE = .False.
   LCHARG = .False.
   ADDGRID = .True.
   ENCUT = 400
   GGA = PS
   GGA_COMPAT = .FALSE.
   ISMEAR = 1
   SIGMA = 0.2
   NELM = 60
   NELMIN = 8
   EDIFF = 1e-06
   EDIFFG = -0.01
   NSW = 60
   IBRION = 2
   ISIF = 2
   KPAR = 4
   NPAR = 2
   ALGO = Fast

 POTCAR:    PAW_PBE Si 05Jan2001                  
 POTCAR:    PAW_PBE Si 05Jan2001                  
   VRHFIN =Si: s2p2                                                                                 
   LEXCH  = PE                                                                                      
   EATOM  =   103.0669 eV,    7.5752 Ry                                                             
                                                                                                    
   TITEL  = PAW_PBE Si 05Jan2001                                                                    
   LULTRA =        F    use ultrasoft PP ?                                                          
   IUNSCR =        1    unscreen: 0-lin 1-nonlin 2-no                                               
   RPACOR =    1.500    partial core radius                                                         
   POMASS =   28.085; ZVAL   =    4.000    mass and valenz                                          
   RCORE  =    1.900    outmost cutoff radius                                                       
   RWIGS  =    2.480; RWIGS  =    1.312    wigner-seitz radius (au A)                               
   ENMAX  =  245.345; ENMIN  =  184.009 eV                                                          
   ICORE  =        2    local potential                                                             
   LCOR   =        T    correct aug charges                                                         
   LPAW   =        T    paw PP                                                                      
   EAUG   =  322.069                                                                                
   DEXC   =    0.000                                                                                
   RMAX   =    1.950    core radius for proj-oper                                                   
   RAUG   =    1.300    factor for augmentation sphere                                              
   RDEP   =    1.993    radius for radial grids                                                     
   RDEPT  =    1.837    core radius for aug-charge                                                  
                                                                                                    
   Atomic configuration                                                                             
    6 entries                                                                                       
     n  l   j            E        occ.                                                              
     1  0  0.50     -1785.8828   2.0000                                                             
     2  0  0.50      -139.4969   2.0000                                                             
     2  1  1.50       -95.5546   6.0000                                                             
     3  0  0.50       -10.8127   2.0000                                                             
     3  1  0.50        -4.0811   2.0000                                                             
     3  2  1.50        -4.0817   0.0000                                                             
   Description                                                                                      
     l       E           TYP  RCUT    TYP  RCUT                                                     
     0    -10.8127223     23  1.900                                                                 
     0     -7.6451159     23  1.900                                                                 
     1     -4.0811372     23  1.900                                                                 
     1      2.4879257     23  1.900                                                                 
     2     -4.0817478      7  1.900                                                                 
  local pseudopotential read in
  partial core-charges read in
  partial kinetic energy density read in
  atomic valenz-charges read in
  non local Contribution for L=           0  read in
    real space projection operators read in
  non local Contribution for L=           0  read in
    real space projection operators read in
  non local Contribution for L=           1  read in
    real space projection operators read in
  non local Contribution for L=           1  read in
    real space projection operators read in
    PAW grid and wavefunctions read in
 
   number of l-projection  operators is LMAX  =           4
   number of lm-projection operators is LMMAX =           8
 
 Optimization of the real space projectors (new method)

 maximal supplied QI-value         = 19.84
 optimisation between [QCUT,QGAM] = [ 10.12, 20.44] = [ 28.68,116.96] Ry 
 Optimized for a Real-space Cutoff    1.38 Angstroem

   l    n(q)    QCUT    max X(q) W(low)/X(q) W(high)/X(q)  e(spline) 
   0      8    10.119   159.560    0.58E-04    0.11E-03    0.54E-07
   0      8    10.119   115.863    0.56E-04    0.11E-03    0.54E-07
   1      8    10.119    88.339    0.22E-03    0.17E-03    0.19E-06
   1      8    10.119    48.592    0.22E-03    0.17E-03    0.18E-06
 -----------------------------------------------------------------------------
|                                                                             |
|               ----> ADVICE to this user running VASP <----                  |
|                                                                             |
|     You enforced a specific xc type in the INCAR file but a different       |
|     type was found in the POTCAR file.                                      |
|     I HOPE YOU KNOW WHAT YOU ARE DOING!                                     |
|                                                                             |
 -----------------------------------------------------------------------------

  PAW_PBE Si 05Jan2001                  :
 energy of atom  1       EATOM= -103.0669
 kinetic energy error for atom=    0.0012 (will be added to EATOM!!)
 
 
 POSCAR: Si8
  positions in direct lattice
  velocities in cartesian coordinates


 exchange-correlation table for PS
   RHO(1)=    0.500       N(1)  =     2000
   RHO(2)=  100.500       N(2)  =     4000
 


--------------------------------------------------------------------------------------------------------


 ion  position               nearest neighbor table
   1  0.000  0.000  0.000-  15 2.26  57 2.26  44 2.29  30 2.29
   2  0.000  0.000  0.500-  16 2.26  58 2.26  43 2.29  29 2.29
   3  0.000  0.500  0.000-  13 2.26  59 2.26  42 2.29  32 2.29
   4  0.000  0.500  0.500-  14 2.26  60 2.26  41 2.29  31 2.29
   5  0.500  0.000  0.000-  11 2.26  61 2.26  48 2.29  26 2.29
   6  0.500  0.000  0.500-  12 2.26  62 2.26  47 2.29  25 2.29
   7  0.500  0.500  0.000-   9 2.26  63 2.26  46 2.29  28 2.29
   8  0.500  0.500  0.500-  10 2.26  64 2.26  45 2.29  27 2.29
   9  0.375  0.375  0.125-   7 2.26  49 2.26  35 2.29  21 2.29
  10  0.375  0.375  0.625-   8 2.26  50 2.26  36 2.29  22 2.29
  11  0.375  0.875  0.125-   5 2.26  51 2.26  33 2.29  23 2.29
  12  0.375  0.875  0.625-   6 2.26  52 2.26  34 2.29  24 2.29
  13  0.875  0.375  0.125-   3 2.26  53 2.26  39 2.29  17 2.29
  14  0.875  0.375  0.625-   4 2.26  54 2.26  40 2.29  18 2.29
  15  0.875  0.875  0.125-   1 2.26  55 2.26  37 2.29  19 2.29
  16  0.875  0.875  0.625-   2 2.26  56 2.26  38 2.29  20 2.29
  17  0.000  0.250  0.250-  29 2.26  41 2.26  13 2.29  57 2.29
  18  0.000  0.250  0.750-  30 2.26  42 2.26  14 2.29  58 2.29
  19  0.000  0.750  0.250-  31 2.26  43 2.26  15 2.29  59 2.29
  20  0.000  0.750  0.750-  32 2.26  44 2.26  16 2.29  60 2.29
  21  0.500  0.250  0.250-  25 2.26  45 2.26   9 2.29  61 2.29
  22  0.500  0.250  0.750-  26 2.26  46 2.26  10 2.29  62 2.29
  23  0.500  0.750  0.250-  27 2.26  47 2.26  11 2.29  63 2.29
  24  0.500  0.750  0.750-  28 2.26  48 2.26  12 2.29  64 2.29
  25  0.375  0.125  0.375-  21 2.26  33 2.26   6 2.29  50 2.29
  26  0.375  0.125  0.875-  22 2.26  34 2.26   5 2.29  49 2.29
  27  0.375  0.625  0.375-  23 2.26  35 2.26   8 2.29  52 2.29
  28  0.375  0.625  0.875-  24 2.26  36 2.26   7 2.29  51 2.29
  29  0.875  0.125  0.375-  17 2.26  37 2.26   2 2.29  54 2.29
  30  0.875  0.125  0.875-  18 2.26  38 2.26   1 2.29  53 2.29
  31  0.875  0.625  0.375-  19 2.26  39 2.26   4 2.29  56 2.29
  32  0.875  0.625  0.875-  20 2.26  40 2.26   3 2.29  55 2.29
  33  0.250  0.000  0.250-  25 2.26  43 2.26  11 2.29  57 2.29
  34  0.250  0.000  0.750-  26 2.26  44 2.26  12 2.29  58 2.29
  35  0.250  0.500  0.250-  27 2.26  41 2.26   9 2.29  59 2.29
  36  0.250  0.500  0.750-  28 2.26  42 2.26  10 2.29  60 2.29
  37  0.750  0.000  0.250-  29 2.26  47 2.26  15 2.29  61 2.29
  38  0.750  0.000  0.750-  30 2.26  48 2.26  16 2.29  62 2.29
  39  0.750  0.500  0.250-  31 2.26  45 2.26  13 2.29  63 2.29
  40  0.750  0.500  0.750-  32 2.26  46 2.26  14 2.29  64 2.29
  41  0.125  0.375  0.375-  17 2.26  35 2.26   4 2.29  50 2.29
  42  0.125  0.375  0.875-  18 2.26  36 2.26   3 2.29  49 2.29
  43  0.125  0.875  0.375-  19 2.26  33 2.26   2 2.29  52 2.29
  44  0.125  0.875  0.875-  20 2.26  34 2.26   1 2.29  51 2.29
  45  0.625  0.375  0.375-  21 2.26  39 2.26   8 2.29  54 2.29
  46  0.625  0.375  0.875-  22 2.26  40 2.26   7 2.29  53 2.29
  47  0.625  0.875  0.375-  23 2.26  37 2.26   6 2.29  56 2.29
  48  0.625  0.875  0.875-  24 2.26  38 2.26   5 2.29  55 2.29
  49  0.250  0.250  0.000-   9 2.26  57 2.26  42 2.29  26 2.29
  50  0.250  0.250  0.500-  10 2.26  58 2.26  41 2.29  25 2.29
  51  0.250  0.750  0.000-  11 2.26  59 2.26  44 2.29  28 2.29
  52  0.250  0.750  0.500-  12 2.26  60 2.26  43 2.29  27 2.29
  53  0.750  0.250  0.000-  13 2.26  61 2.26  46 2.29  30 2.29
  54  0.750  0.250  0.500-  14 2.26  62 2.26  45 2.29  29 2.29
  55  0.750  0.750  0.000-  15 2.26  63 2.26  48 2.29  32 2.29
  56  0.750  0.750  0.500-  16 2.26  64 2.26  47 2.29  31 2.29
  57  0.125  0.125  0.125-   1 2.26  49 2.26  33 2.29  17 2.29
  58  0.125  0.125  0.625-   2 2.26  50 2.26  34 2.29  18 2.29
  59  0.125  0.625  0.125-   3 2.26  51 2.26  35 2.29  19 2.29
  60  0.125  0.625  0.625-   4 2.26  52 2.26  36 2.29  20 2.29
  61  0.625  0.125  0.125-   5 2.26  53 2.26  37 2.29  21 2.29
  62  0.625  0.125  0.625-   6 2.26  54 2.26  38 2.29  22 2.29
  63  0.625  0.625  0.125-   7 2.26  55 2.26  39 2.29  23 2.29
  64  0.625  0.625  0.625-   8 2.26  56 2.26  40 2.29  24 2.29
 
  LATTYP: Found a simple monoclinic cell.
 ALAT       =    10.3988649671
 B/A-ratio  =     1.0151990234
 C/A-ratio  =     1.0152275756
 COS(beta)  =    -0.0151133750
  
  Lattice vectors:
  
 A1 = (  10.3985635357,  -0.0791770117,   0.0000000000)
 A2 = (   0.0000000000,   0.0000000000, -10.5569175591)
 A3 = (  -0.0791770117,  10.5569175591,   0.0000000000)


Analysis of symmetry for initial positions (statically):
=====================================================================
 Subroutine PRICEL returns following result:
 
  LATTYP: Found a base centered monoclinic cell.
 ALAT       =     5.1994324836
 B/A-ratio  =     1.0151990234
 C/A-ratio  =     0.7071067812
 COS(beta)  =    -0.6962572776
  
  Lattice vectors:
  
 A1 = (  -2.5996408839,   0.0197942529,  -2.6392293898)
 A2 = (  -2.5996408839,   0.0197942529,   2.6392293898)
 A3 = (   2.5798466310,   2.6194351368,   0.0000000000)
 
  32 primitive cells build up your supercell.
 

 Routine SETGRP: Setting up the symmetry group for a 
 simple monoclinic supercell.


 Subroutine GETGRP returns: Found  4 space group operations
 (whereof  2 operations were pure point group operations)
 out of a pool of  4 trial point group operations.


The static configuration has the point symmetry C_2 .
 The point group associated with its full space group is C_2h.


Analysis of symmetry for dynamics (positions and initial velocities):
=====================================================================
 Subroutine PRICEL returns following result:
 
  LATTYP: Found a base centered monoclinic cell.
 ALAT       =     5.1994324836
 B/A-ratio  =     1.0151990234
 C/A-ratio  =     0.7071067812
 COS(beta)  =    -0.6962572776
  
  Lattice vectors:
  
 A1 = (  -2.5996408839,   0.0197942529,  -2.6392293898)
 A2 = (  -2.5996408839,   0.0197942529,   2.6392293898)
 A3 = (   2.5798466310,   2.6194351368,   0.0000000000)
 
  32 primitive cells build up your supercell.
 

 Routine SETGRP: Setting up the symmetry group for a 
 simple monoclinic supercell.


 Subroutine GETGRP returns: Found  4 space group operations
 (whereof  2 operations were pure point group operations)
 out of a pool of  4 trial point group operations.


The dynamic configuration has the point symmetry C_2 .
 The point group associated with its full space group is C_2h.


 Subroutine INISYM returns: Found  4 space group operations
 (whereof  2 operations are pure point group operations),
 and found    32 'primitive' translations


----------------------------------------------------------------------------------------

                                     Primitive cell                                     

  volume of cell :      36.2137

  direct lattice vectors                    reciprocal lattice vectors
    -2.599640884  0.019794253 -2.639229390    -0.190902650  0.188017467 -0.189449239
    -2.599640884  0.019794253  2.639229390    -0.190902650  0.188017467  0.189449239
     2.579846631  2.619435137  0.000000000     0.002885183  0.378920117 -0.000000000

  length of vectors
     3.704599345  3.704599345  3.676553967     0.328154543  0.328154543  0.378931101

  position of ions in fractional coordinates (direct lattice)
     0.000000000  0.000000000  0.000000000
     0.750000000  0.250000000  0.500000000

  ion indices of the primitive-cell ions
   primitive index   ion index
                 1           1
                 2          15

----------------------------------------------------------------------------------------

 
 
 KPOINTS: Automatic mesh                          

Automatic generation of k-mesh.
 Grid dimensions read from file:
 generate k-points for:    2    2    2

 Generating k-lattice:

  Cartesian coordinates                     Fractional coordinates (reciprocal lattice)
     0.048086311  0.000360648  0.000000000     0.500000000  0.000000000  0.000000000
     0.000360648  0.047365015  0.000000000     0.000000000  0.500000000  0.000000000
     0.000000000  0.000000000  0.047362310     0.000000000  0.000000000  0.500000000

  Length of vectors
     0.048087663  0.047366388  0.047362310

  Shift w.r.t. Gamma in fractional coordinates (k-lattice)
     0.000000000  0.000000000  0.000000000

 
 Subroutine IBZKPT returns following result:
 ===========================================
 
 Found      8 irreducible k-points:
 
 Following reciprocal coordinates:
            Coordinates               Weight
  0.000000  0.000000  0.000000      1.000000
  0.500000  0.000000  0.000000      1.000000
  0.000000  0.500000  0.000000      1.000000
  0.500000  0.500000  0.000000      1.000000
  0.000000  0.000000  0.500000      1.000000
  0.500000  0.000000  0.500000      1.000000
  0.000000  0.500000  0.500000      1.000000
  0.500000  0.500000  0.500000      1.000000
 
 Following cartesian coordinates:
            Coordinates               Weight
  0.000000  0.000000  0.000000      1.000000
  0.048086  0.000361  0.000000      1.000000
  0.000361  0.047365  0.000000      1.000000
  0.048447  0.047726  0.000000      1.000000
  0.000000  0.000000  0.047362      1.000000
  0.048086  0.000361  0.047362      1.000000
  0.000361  0.047365  0.047362      1.000000
  0.048447  0.047726  0.047362      1.000000
 


--------------------------------------------------------------------------------------------------------




 Dimension of arrays:
   k-points           NKPTS =      8   k-points in BZ     NKDIM =      8   number of bands    NBANDS=    162
   number of dos      NEDOS =    301   number of ions     NIONS =     64
   non local maximal  LDIM  =      4   non local SUM 2l+1 LMDIM =      8
   total plane-waves  NPLWV = 343000
   max r-space proj   IRMAX =   3312   max aug-charges    IRDMAX=  79360
   dimension x,y,z NGX =    70 NGY =   70 NGZ =   70
   dimension x,y,z NGXF=   140 NGYF=  140 NGZF=  140
   support grid    NGXF=   280 NGYF=  280 NGZF=  280
   ions per type =              64
   NGX,Y,Z   is equivalent  to a cutoff of  11.19, 11.02, 11.02 a.u.
   NGXF,Y,Z  is equivalent  to a cutoff of  22.38, 22.05, 22.05 a.u.

 SYSTEM =  Si64                                    
 POSCAR =  Si8                                     

 Startparameter for this run:
   NWRITE =      2    write-flag & timer
   PREC   = accura    normal or accurate (medium, high low for compatibility)
   ISTART =      0    job   : 0-new  1-cont  2-samecut
   ICHARG =      2    charge: 1-file 2-atom 10-const
   ISPIN  =      1    spin polarized calculation?
   LNONCOLLINEAR =      F non collinear calculations
   LSORBIT =      F    spin-orbit coupling
   INIWAV =      1    electr: 0-lowe 1-rand  2-diag
   LASPH  =      F    aspherical Exc in radial PAW
 Electronic Relaxation 1
   ENCUT  =  400.0 eV  29.40 Ry    5.42 a.u.  16.96 17.22 17.22*2*pi/ulx,y,z
   ENINI  =  400.0     initial cutoff
   ENAUG  =  322.1 eV  augmentation charge cutoff
   NELM   =     60;   NELMIN=  8; NELMDL= -5     # of ELM steps 
   EDIFF  = 0.1E-05   stopping-criterion for ELM
   LREAL  =      T    real-space projection
   NLSPLINE    = F    spline interpolate recip. space projectors
   LCOMPAT=      F    compatible to vasp.4.4
   GGA_COMPAT  = F    GGA compatible to vasp.4.4-vasp.4.6
   LMAXPAW     = -100 max onsite density
   LMAXMIX     =    2 max onsite mixed and CHGCAR
   VOSKOWN=      0    Vosko Wilk Nusair interpolation
   ROPT   =   -0.00025
 Ionic relaxation
   EDIFFG = -.1E-01   stopping-criterion for IOM
   NSW    =     60    number of steps for IOM
   NBLOCK =      1;   KBLOCK =     60    inner block; outer block 
   IBRION =      2    ionic relax: 0-MD 1-quasi-New 2-CG
   NFREE  =      1    steps in history (QN), initial steepest desc. (CG)
   ISIF   =      2    stress and relaxation
   IWAVPR =     11    prediction:  0-non 1-charg 2-wave 3-comb
   ISYM   =      2    0-nonsym 1-usesym 2-fastsym
   LCORR  =      T    Harris-Foulkes like correction to forces

   POTIM  = 0.5000    time-step for ionic-motion
   TEIN   =    0.0    initial temperature
   TEBEG  =    0.0;   TEEND  =   0.0 temperature during run
   SMASS  =  -3.00    Nose mass-parameter (am)
   estimated Nose-frequenzy (Omega)   =  0.10E-29 period in steps = 0.13E+47 mass=  -0.247E-26a.u.
   SCALEE = 1.0000    scale energy and forces
   NPACO  =    256;   APACO  = 10.0  distance and # of slots for P.C.
   PSTRESS=    0.0 pullay stress

  Mass of Ions in am
   POMASS =  28.09
  Ionic Valenz
   ZVAL   =   4.00
  Atomic Wigner-Seitz radii
   RWIGS  =  -1.00
  virtual crystal weights 
   VCA    =   1.00
   NELECT =     256.0000    total number of electrons
   NUPDOWN=      -1.0000    fix difference up-down

 DOS related values:
   EMIN   =  10.00;   EMAX   =-10.00  energy-range for DOS
   EFERMI =   0.00;   METHOD = LEGACY      
   ISMEAR =     1;   SIGMA  =   0.20  broadening in eV -4-tet -1-fermi 0-gaus

 Electronic relaxation 2 (details)
   IALGO  =     68    algorithm
   LDIAG  =      T    sub-space diagonalisation (order eigenvalues)
   LSUBROT=      F    optimize rotation matrix (better conditioning)
   TURBO    =      0    0=normal 1=particle mesh
   IRESTART =      0    0=no restart 2=restart with 2 vectors
   NREBOOT  =      0    no. of reboots
   NMIN     =      0    reboot dimension
   EREF     =   0.00    reference energy to select bands
   IMIX   =      4    mixing-type and parameters
     AMIX     =   0.40;   BMIX     =  1.00
     AMIX_MAG =   1.60;   BMIX_MAG =  1.00
     AMIN     =   0.10
     WC   =   100.;   INIMIX=   1;  MIXPRE=   1;  MAXMIX= -45

 Intra band minimization:
   WEIMIN = 0.0010     energy-eigenvalue tresh-hold
   EBREAK =  0.15E-08  absolut break condition
   DEPER  =   0.30     relativ break condition  

   TIME   =   0.40     timestep for ELM

  volume/ion in A,a.u.               =      18.11       122.19
  Fermi-wavevector in a.u.,A,eV,Ry     =   0.989648  1.870163 13.325577  0.979402
  Thomas-Fermi vector in A             =   2.121261
 
 Write flags
   LWAVE        =      F    write WAVECAR
   LDOWNSAMPLE  =      F    k-point downsampling of WAVECAR
   LCHARG       =      F    write CHGCAR
   LVTOT        =      F    write LOCPOT, total local potential
   LVHAR        =      F    write LOCPOT, Hartree potential only
   WRT_POTENTIAL= false  ! write potential to hdf5 file
   LELF         =      F    write electronic localiz. function (ELF)
   LORBIT       =      0    0 simple, 1 ext, 2 COOP (PROOUT), +10 PAW based schemes


 Dipole corrections
   LMONO      =      F    monopole corrections only (constant potential shift)
   LDIPOL     =      F    correct potential (dipole corrections)
   IDIPOL     =      0    1-x, 2-y, 3-z, 4-all directions 
   EPSILON    =  1.0000000 bulk dielectric constant
   LVACPOTAV  =      F  vacuum potentials using an averaging scheme for the charge density
   VACPOTFLAT =  0.1000000 required flatness to determine vacuum potential
 Exchange correlation treatment:
   GGA     = PS    functional components
   XC_C    = 1    coefficients multiplying the functional components
   LIBXC   =     F    Libxc                    
   VOSKOWN =     0    Vosko Wilk Nusair interpolation
   LHFCALC =     F    Hartree Fock is set to
   LHFONE  =     F    Hartree Fock one center treatment
   AEXX    =    0.0000 exact exchange contribution

 Parameters of functionals:
   PS:
     No parameter
 
 Van der Waals corrections
   IVDW    =     0    specifies the selected vdW correction

 Linear response parameters
   LEPSILON=     F    determine dielectric tensor
   LRPA    =     F    only Hartree local field effects (RPA)
   LNABLA  =     F    use nabla operator in PAW spheres
   LVEL    =     F    velocity operator in full k-point grid
   CSHIFT  =0.1000    complex shift for real part using Kramers Kronig
   OMEGAMAX=  -1.0    maximum frequency
   DEG_THRESHOLD= 0.2000000E-02 threshold for treating states as degnerate
   RTIME   =   -0.100 relaxation time in fs
  (WPLASMAI=    0.000 imaginary part of plasma frequency in eV, 0.658/RTIME)
   DFIELD  = 0.0000000 0.0000000 0.0000000 field for delta impulse in time
 
  Optional k-point grid parameters
   LKPOINTS_OPT  =     F    use optional k-point grid
   KPOINTS_OPT_MODE=     1    mode for optional k-point grid
 
 Orbital magnetization related:
   ORBITALMAG=     F  switch on orbital magnetization
   LCHIMAG   =     F  perturbation theory with respect to B field
   DQ        =  0.001000  dq finite difference perturbation B field
   LLRAUG    =     F  two centre corrections for induced B field
   LBONE     =     F  B-component reconstruction in AE one-centre
   LVGVCALC  =     T  calculate vGv susceptibility
   LVGVAPPL  =     F  apply vGv susceptibility instead of pGv for G=0

 Random number generation:
   RANDOM_GENERATOR = DEFAULT
   PCG_SEED         = not used


--------------------------------------------------------------------------------------------------------


 conjugate gradient relaxation of ions
 charge density and potential will be updated during run
 non-spin polarized calculation
 RMM-DIIS sequential band-by-band and
  variant of blocked Davidson during initial phase
 perform sub-space diagonalisation
    before iterative eigenvector-optimisation
 modified Broyden-mixing scheme, WC =      100.0
 initial mixing is a Kerker type mixing with AMIX =  0.4000 and BMIX =      1.0000
 Hartree-type preconditioning will be used
 using additional bands           34
 real space projection scheme for non local part
 use partial core corrections
 calculate Harris-corrections to forces 
   (improved forces if not selfconsistent)
 use gradient corrections 
 use of overlap-Matrix (Vanderbilt PP)
 Methfessel and Paxton  Order N= 1 SIGMA  =   0.20


--------------------------------------------------------------------------------------------------------


  energy-cutoff  :      400.00
  volume of cell :     1158.84
      direct lattice vectors                 reciprocal lattice vectors
    10.398563536 -0.079177012  0.000000000     0.096172621  0.000721296  0.000000000
    -0.079177012 10.556917559  0.000000000     0.000721296  0.094730029  0.000000000
     0.000000000  0.000000000 10.556917559     0.000000000  0.000000000  0.094724620

  length of vectors
    10.398864967 10.557214469 10.556917559     0.096175326  0.094732775  0.094724620


 
 k-points in units of 2pi/SCALE and weight: Automatic mesh                          
   0.00000000  0.00000000  0.00000000       0.125
   0.04808632  0.00036065  0.00000000       0.125
   0.00036065  0.04736502  0.00000000       0.125
   0.04844697  0.04772567  0.00000000       0.125
   0.00000000  0.00000000  0.04736232       0.125
   0.04808632  0.00036065  0.04736232       0.125
   0.00036065  0.04736502  0.04736232       0.125
   0.04844697  0.04772567  0.04736232       0.125
 
 k-points in reciprocal lattice and weights: Automatic mesh                          
   0.00000000  0.00000000  0.00000000       0.125
   0.50000000  0.00000000  0.00000000       0.125
   0.00000000  0.50000000  0.00000000       0.125
   0.50000000  0.50000000  0.00000000       0.125
   0.00000000  0.00000000  0.50000000       0.125
   0.50000000  0.00000000  0.50000000       0.125
   0.00000000  0.50000000  0.50000000       0.125
   0.50000000  0.50000000  0.50000000       0.125
 
 position of ions in fractional coordinates (direct lattice) 
   0.00000000  0.00000000  0.00000000
   0.00000000  0.00000000  0.50000000
   0.00000000  0.50000000  0.00000000
   0.00000000  0.50000000  0.50000000
   0.50000000  0.00000000  0.00000000
   0.50000000  0.00000000  0.50000000
   0.50000000  0.50000000  0.00000000
   0.50000000  0.50000000  0.50000000
   0.37500000  0.37500000  0.12500000
   0.37500000  0.37500000  0.62500000
   0.37500000  0.87500000  0.12500000
   0.37500000  0.87500000  0.62500000
   0.87500000  0.37500000  0.12500000
   0.87500000  0.37500000  0.62500000
   0.87500000  0.87500000  0.12500000
   0.87500000  0.87500000  0.62500000
   0.00000000  0.25000000  0.25000000
   0.00000000  0.25000000  0.75000000
   0.00000000  0.75000000  0.25000000
   0.00000000  0.75000000  0.75000000
   0.50000000  0.25000000  0.25000000
   0.50000000  0.25000000  0.75000000
   0.50000000  0.75000000  0.25000000
   0.50000000  0.75000000  0.75000000
   0.37500000  0.12500000  0.37500000
   0.37500000  0.12500000  0.87500000
   0.37500000  0.62500000  0.37500000
   0.37500000  0.62500000  0.87500000
   0.87500000  0.12500000  0.37500000
   0.87500000  0.12500000  0.87500000
   0.87500000  0.62500000  0.37500000
   0.87500000  0.62500000  0.87500000
   0.25000000  0.00000000  0.25000000
   0.25000000  0.00000000  0.75000000
   0.25000000  0.50000000  0.25000000
   0.25000000  0.50000000  0.75000000
   0.75000000  0.00000000  0.25000000
   0.75000000  0.00000000  0.75000000
   0.75000000  0.50000000  0.25000000
   0.75000000  0.50000000  0.75000000
   0.12500000  0.37500000  0.37500000
   0.12500000  0.37500000  0.87500000
   0.12500000  0.87500000  0.37500000
   0.12500000  0.87500000  0.87500000
   0.62500000  0.37500000  0.37500000
   0.62500000  0.37500000  0.87500000
   0.62500000  0.87500000  0.37500000
   0.62500000  0.87500000  0.87500000
   0.25000000  0.25000000  0.00000000
   0.25000000  0.25000000  0.50000000
   0.25000000  0.75000000  0.00000000
   0.25000000  0.75000000  0.50000000
   0.75000000  0.25000000  0.00000000
   0.75000000  0.25000000  0.50000000
   0.75000000  0.75000000  0.00000000
   0.75000000  0.75000000  0.50000000
   0.12500000  0.12500000  0.12500000
   0.12500000  0.12500000  0.62500000
   0.12500000  0.62500000  0.12500000
   0.12500000  0.62500000  0.62500000
   0.62500000  0.12500000  0.12500000
   0.62500000  0.12500000  0.62500000
   0.62500000  0.62500000  0.12500000
   0.62500000  0.62500000  0.62500000
 
 position of ions in cartesian coordinates  (Angst):
   0.00000000  0.00000000  0.00000000
   0.00000000  0.00000000  5.27845878
  -0.03958851  5.27845878  0.00000000
  -0.03958851  5.27845878  5.27845878
   5.19928177 -0.03958851  0.00000000
   5.19928177 -0.03958851  5.27845878
   5.15969326  5.23887027  0.00000000
   5.15969326  5.23887027  5.27845878
   3.86976995  3.92915271  1.31961469
   3.86976995  3.92915271  6.59807347
   3.83018144  9.20761148  1.31961469
   3.83018144  9.20761148  6.59807347
   9.06905171  3.88956420  1.31961469
   9.06905171  3.88956420  6.59807347
   9.02946321  9.16802298  1.31961469
   9.02946321  9.16802298  6.59807347
  -0.01979425  2.63922939  2.63922939
  -0.01979425  2.63922939  7.91768817
  -0.05938276  7.91768817  2.63922939
  -0.05938276  7.91768817  7.91768817
   5.17948751  2.59964088  2.63922939
   5.17948751  2.59964088  7.91768817
   5.13989901  7.87809966  2.63922939
   5.13989901  7.87809966  7.91768817
   3.88956420  1.28992332  3.95884408
   3.88956420  1.28992332  9.23730286
   3.84997569  6.56838210  3.95884408
   3.84997569  6.56838210  9.23730286
   9.08884597  1.25033481  3.95884408
   9.08884597  1.25033481  9.23730286
   9.04925746  6.52879359  3.95884408
   9.04925746  6.52879359  9.23730286
   2.59964088 -0.01979425  2.63922939
   2.59964088 -0.01979425  7.91768817
   2.56005238  5.25866453  2.63922939
   2.56005238  5.25866453  7.91768817
   7.79892265 -0.05938276  2.63922939
   7.79892265 -0.05938276  7.91768817
   7.75933415  5.21907602  2.63922939
   7.75933415  5.21907602  7.91768817
   1.27012906  3.94894696  3.95884408
   1.27012906  3.94894696  9.23730286
   1.23054056  9.22740574  3.95884408
   1.23054056  9.22740574  9.23730286
   6.46941083  3.90935845  3.95884408
   6.46941083  3.90935845  9.23730286
   6.42982232  9.18781723  3.95884408
   6.42982232  9.18781723  9.23730286
   2.57984663  2.61943514  0.00000000
   2.57984663  2.61943514  5.27845878
   2.54025813  7.89789392  0.00000000
   2.54025813  7.89789392  5.27845878
   7.77912840  2.57984663  0.00000000
   7.77912840  2.57984663  5.27845878
   7.73953989  7.85830541  0.00000000
   7.73953989  7.85830541  5.27845878
   1.28992332  1.30971757  1.31961469
   1.28992332  1.30971757  6.59807347
   1.25033481  6.58817635  1.31961469
   1.25033481  6.58817635  6.59807347
   6.48920508  1.27012906  1.31961469
   6.48920508  1.27012906  6.59807347
   6.44961658  6.54858784  1.31961469
   6.44961658  6.54858784  6.59807347
 


--------------------------------------------------------------------------------------------------------


 k-point     1 :   0.0000 0.0000 0.0000  plane waves:   21027
 k-point     2 :   0.5000 0.0000 0.0000  plane waves:   21072
 k-point     3 :   0.0000 0.5000 0.0000  plane waves:   21034
 k-point     4 :   0.5000 0.5000 0.0000  plane waves:   21022
 k-point     5 :   0.0000 0.0000 0.5000  plane waves:   21022
 k-point     6 :   0.5000 0.0000 0.5000  plane waves:   21072
 k-point     7 :   0.0000 0.5000 0.5000  plane waves:   21036
 k-point     8 :   0.5000 0.5000 0.5000  plane waves:   21076

 maximum and minimum number of plane-waves per node :      1790     1711

 maximum number of plane-waves:     21076
 maximum index in each direction: 
   IXMAX=   16   IYMAX=   17   IZMAX=   17
   IXMIN=  -17   IYMIN=  -17   IZMIN=  -17


 real space projection operators:
  total allocation   :      12667.50 KBytes
  max/ min on nodes  :       1097.75        916.50


 parallel 3D FFT for wavefunctions:
    minimum data exchange during FFTs selected (reduces bandwidth)
 parallel 3D FFT for charge:
    minimum data exchange during FFTs selected (reduces bandwidth)


 total amount of memory used by VASP MPI-rank0    78510. kBytes
=======================================================================

   base      :      30000. kBytes
   nonlr-proj:       4896. kBytes
   fftplans  :      17991. kBytes
   grid      :       6881. kBytes
   one-center:         18. kBytes
   wavefun   :      18724. kBytes
 
     INWAV:  cpu time      0.0000: real time      0.0000
 Broyden mixing: mesh for mixing (old mesh)
   NGX = 33   NGY = 35   NGZ = 35
  (NGX  =140   NGY  =140   NGZ  =140)
  gives a total of  40425 points

 initial charge density was supplied:
 charge density of overlapping atoms calculated
 number of electron     256.0000000 magnetization 
 keeping initial charge density in first step


--------------------------------------------------------------------------------------------------------


 Maximum index for non-local projection operator          296
 Maximum index for augmentation-charges         3950 (set IRDMAX)


--------------------------------------------------------------------------------------------------------


 First call to EWALD:  gamma=   0.169
 Maximum number of real-space cells 3x 3x 3
 Maximum number of reciprocal cells 3x 3x 3

    FEWALD:  cpu time      0.0052: real time      0.0052


--------------------------------------- Ionic step        1  -------------------------------------------




--------------------------------------- Iteration      1(   1)  ---------------------------------------


    POTLOK:  cpu time      0.0814: real time      0.0835
    SETDIJ:  cpu time      0.0835: real time      0.0840
     EDDAV:  cpu time      1.2262: real time      1.2800
       DOS:  cpu time      0.0033: real time      0.0033
    --------------------------------------------
      LOOP:  cpu time      1.3944: real time      1.4509

 eigenvalue-minimisations  :  2592
 total energy-change (2. order) : 0.5815686E+03  (-0.8576409E+04)
 number of electron     256.0000000 magnetization 
 augmentation part      256.0000000 magnetization 

 Free energy of the ion-electron system (eV)
  ---------------------------------------------------
  alpha Z        PSCENC =       118.98484372
  Ewald energy   TEWEN  =     -7562.10029060
  -Hartree energ DENC   =      -305.67186691
  -exchange      EXHF   =         0.00000000
  -V(xc)+E(xc)   XCENC  =      -546.51400995
  PAW double counting   =      5598.62625415    -4492.17844134
  entropy T*S    EENTRO =        -0.00685044
  eigenvalues    EBANDS =      1205.63313829
  atomic energy  EATOM  =      6564.79586099
  Solvation  Ediel_sol  =         0.00000000
  ---------------------------------------------------
  free energy    TOTEN  =       581.56863791 eV

  energy without entropy =      581.57548835  energy(sigma->0) =      581.57092139


--------------------------------------------------------------------------------------------------------




--------------------------------------- Iteration      1(   2)  ---------------------------------------


     EDDAV:  cpu time      1.3639: real time      1.3690
       DOS:  cpu time      0.0018: real time      0.0018
    --------------------------------------------
      LOOP:  cpu time      1.3656: real time      1.3707

 eigenvalue-minimisations  :  3088
 total energy-change (2. order) :-0.8885820E+03  (-0.8428992E+03)
 number of electron     256.0000000 magnetization 
 augmentation part      256.0000000 magnetization 

 Free energy of the ion-electron system (eV)
  ---------------------------------------------------
  alpha Z        PSCENC =       118.98484372
  Ewald energy   TEWEN  =     -7562.10029060
  -Hartree energ DENC   =      -305.67186691
  -exchange      EXHF   =         0.00000000
  -V(xc)+E(xc)   XCENC  =      -546.51400995
  PAW double counting   =      5598.62625415    -4492.17844134
  entropy T*S    EENTRO =         0.01862626
  eigenvalues    EBANDS =       317.02566086
  atomic energy  EATOM  =      6564.79586099
  Solvation  Ediel_sol  =         0.00000000
  ---------------------------------------------------
  free energy    TOTEN  =      -307.01336283 eV

  energy without entropy =     -307.03198908  energy(sigma->0) =     -307.01957158


--------------------------------------------------------------------------------------------------------




--------------------------------------- Iteration      1(   3)  ---------------------------------------


     EDDAV:  cpu time      1.3450: real time      1.3592
       DOS:  cpu time      0.0019: real time      0.0019
    --------------------------------------------
      LOOP:  cpu time      1.3469: real time      1.3611

 eigenvalue-minimisations  :  3144
 total energy-change (2. order) :-0.6386320E+02  (-0.6257390E+02)
 number of electron     256.0000000 magnetization 
 augmentation part      256.0000000 magnetization 

 Free energy of the ion-electron system (eV)
  ---------------------------------------------------
  alpha Z        PSCENC =       118.98484372
  Ewald energy   TEWEN  =     -7562.10029060
  -Hartree energ DENC   =      -305.67186691
  -exchange      EXHF   =         0.00000000
  -V(xc)+E(xc)   XCENC  =      -546.51400995
  PAW double counting   =      5598.62625415    -4492.17844134
  entropy T*S    EENTRO =         0.00838348
  eigenvalues    EBANDS =       253.17270222
  atomic energy  EATOM  =      6564.79586099
  Solvation  Ediel_sol  =         0.00000000
  ---------------------------------------------------
  free energy    TOTEN  =      -370.87656425 eV

  energy without entropy =     -370.88494772  energy(sigma->0) =     -370.87935874


--------------------------------------------------------------------------------------------------------




--------------------------------------- Iteration      1(   4)  ---------------------------------------


     EDDAV:  cpu time      1.3172: real time      1.3286
       DOS:  cpu time      0.0014: real time      0.0014
    --------------------------------------------
      LOOP:  cpu time      1.3186: real time      1.3300

 eigenvalue-minimisations  :  3136
 total energy-change (2. order) :-0.1597068E+01  (-0.1586433E+01)
 number of electron     256.0000000 magnetization 
 augmentation part      256.0000000 magnetization 

 Free energy of the ion-electron system (eV)
  ---------------------------------------------------
  alpha Z        PSCENC =       118.98484372
  Ewald energy   TEWEN  =     -7562.10029060
  -Hartree energ DENC   =      -305.67186691
  -exchange      EXHF   =         0.00000000
  -V(xc)+E(xc)   XCENC  =      -546.51400995
  PAW double counting   =      5598.62625415    -4492.17844134
  entropy T*S    EENTRO =         0.00850319
  eigenvalues    EBANDS =       251.57551413
  atomic energy  EATOM  =      6564.79586099
  Solvation  Ediel_sol  =         0.00000000
  ---------------------------------------------------
  free energy    TOTEN  =      -372.47363262 eV

  energy without entropy =     -372.48213581  energy(sigma->0) =     -372.47646702


--------------------------------------------------------------------------------------------------------




--------------------------------------- Iteration      1(   5)  ---------------------------------------


     EDDAV:  cpu time      1.3481: real time      1.3864
       DOS:  cpu time      0.0013: real time      0.0013
    CHARGE:  cpu time      0.2476: real time      0.2494
    MIXING:  cpu time      0.0084: real time      0.0084
    --------------------------------------------
      LOOP:  cpu time      1.6056: real time      1.6456

 eigenvalue-minimisations  :  3130
 total energy-change (2. order) :-0.4983852E-01  (-0.4970203E-01)
 number of electron     255.9999998 magnetization 
 augmentation part      -15.2206257 magnetization 

 Broyden mixing:
  rms(total) = 0.32032E+01    rms(broyden)= 0.32032E+01
  rms(prec ) = 0.35225E+01
  weight for this iteration     100.00

 Free energy of the ion-electron system (eV)
  ---------------------------------------------------
  alpha Z        PSCENC =       118.98484372
  Ewald energy   TEWEN  =     -7562.10029060
  -Hartree energ DENC   =      -305.67186691
  -exchange      EXHF   =         0.00000000
  -V(xc)+E(xc)   XCENC  =      -546.51400995
  PAW double counting   =      5598.62625415    -4492.17844134
  entropy T*S    EENTRO =         0.00850517
  eigenvalues    EBANDS =       251.52567363
  atomic energy  EATOM  =      6564.79586099
  Solvation  Ediel_sol  =         0.00000000
  ---------------------------------------------------
  free energy    TOTEN  =      -372.52347114 eV

  energy without entropy =     -372.53197631  energy(sigma->0) =     -372.52630620


--------------------------------------------------------------------------------------------------------




--------------------------------------- Iteration      1(   6)  ---------------------------------------


    POTLOK:  cpu time      0.0725: real time      0.0890
    SETDIJ:  cpu time      0.0756: real time      0.0758
    EDDIAG:  cpu time      0.1348: real time      0.1353
  RMM-DIIS:  cpu time      0.6967: real time      0.6994
    ORTHCH:  cpu time      0.0195: real time      0.0195
       DOS:  cpu time      0.0015: real time      0.0015
    CHARGE:  cpu time      0.2384: real time      0.2390
    MIXING:  cpu time      0.0062: real time      0.0101
    --------------------------------------------
      LOOP:  cpu time      1.2453: real time      1.2696

 eigenvalue-minimisations  :  2592
 total energy-change (2. order) : 0.6646086E+01  (-0.3583667E+00)
 number of electron     255.9999998 magnetization 
 augmentation part      -15.0186902 magnetization 

 Broyden mixing:
  rms(total) = 0.19370E+01    rms(broyden)= 0.19370E+01
  rms(prec ) = 0.21135E+01
  weight for this iteration     100.00

 eigenvalues of (default mixing * dielectric matrix)
  average eigenvalue GAMMA=   2.5224
  2.5224

 Free energy of the ion-electron system (eV)
  ---------------------------------------------------
  alpha Z        PSCENC =       118.98484372
  Ewald energy   TEWEN  =     -7562.10029060
  -Hartree energ DENC   =      -356.84407026
  -exchange      EXHF   =         0.00000000
  -V(xc)+E(xc)   XCENC  =      -538.38623083
  PAW double counting   =     13846.86003701   -12744.83719139
  entropy T*S    EENTRO =         0.02670537
  eigenvalues    EBANDS =       305.62295129
  atomic energy  EATOM  =      6564.79586099
  Solvation  Ediel_sol  =         0.00000000
  ---------------------------------------------------
  free energy    TOTEN  =      -365.87738471 eV

  energy without entropy =     -365.90409008  energy(sigma->0) =     -365.88628650


--------------------------------------------------------------------------------------------------------




--------------------------------------- Iteration      1(   7)  ---------------------------------------


    POTLOK:  cpu time      0.0733: real time      0.0878
    SETDIJ:  cpu time      0.0763: real time      0.0765
    EDDIAG:  cpu time      0.1305: real time      0.1309
  RMM-DIIS:  cpu time      0.7029: real time      0.7050
    ORTHCH:  cpu time      0.0198: real time      0.0200
       DOS:  cpu time      0.0013: real time      0.0013
    CHARGE:  cpu time      0.2385: real time      0.2390
    MIXING:  cpu time      0.0066: real time      0.0080
    --------------------------------------------
      LOOP:  cpu time      1.2491: real time      1.2685

 eigenvalue-minimisations  :  2651
 total energy-change (2. order) : 0.2810662E+01  (-0.8961896E+00)
 number of electron     255.9999998 magnetization 
 augmentation part      -14.7339141 magnetization 

 Broyden mixing:
  rms(total) = 0.13356E+00    rms(broyden)= 0.13356E+00
  rms(prec ) = 0.16759E+00
  weight for this iteration     100.00

 eigenvalues of (default mixing * dielectric matrix)
  average eigenvalue GAMMA=   2.3301
  2.3301  2.3301

 Free energy of the ion-electron system (eV)
  ---------------------------------------------------
  alpha Z        PSCENC =       118.98484372
  Ewald energy   TEWEN  =     -7562.10029060
  -Hartree energ DENC   =      -440.92663853
  -exchange      EXHF   =         0.00000000
  -V(xc)+E(xc)   XCENC  =      -524.43349233
  PAW double counting   =     34708.59940209   -33612.85366288
  entropy T*S    EENTRO =         0.01458101
  eigenvalues    EBANDS =       384.85267406
  atomic energy  EATOM  =      6564.79586099
  Solvation  Ediel_sol  =         0.00000000
  ---------------------------------------------------
  free energy    TOTEN  =      -363.06672248 eV

  energy without entropy =     -363.08130349  energy(sigma->0) =     -363.07158281


--------------------------------------------------------------------------------------------------------




--------------------------------------- Iteration      1(   8)  ---------------------------------------


    POTLOK:  cpu time      0.0754: real time      0.0884
    SETDIJ:  cpu time      0.0789: real time      0.0791
    EDDIAG:  cpu time      0.1331: real time      0.1335
  RMM-DIIS:  cpu time      0.7028: real time      0.7049
    ORTHCH:  cpu time      0.0197: real time      0.0197
       DOS:  cpu time      0.0019: real time      0.0019
    CHARGE:  cpu time      0.2393: real time      0.2400
    MIXING:  cpu time      0.0073: real time      0.0080
    --------------------------------------------
      LOOP:  cpu time      1.2583: real time      1.2755

 eigenvalue-minimisations  :  2614
 total energy-change (2. order) :-0.2508471E-01  (-0.8332393E-01)
 number of electron     255.9999998 magnetization 
 augmentation part      -14.7995164 magnetization 

 Broyden mixing:
  rms(total) = 0.59178E-01    rms(broyden)= 0.59178E-01
  rms(prec ) = 0.64232E-01
  weight for this iteration     100.00

 eigenvalues of (default mixing * dielectric matrix)
  average eigenvalue GAMMA=   2.0507
  2.5642  1.7939  1.7939

 Free energy of the ion-electron system (eV)
  ---------------------------------------------------
  alpha Z        PSCENC =       118.98484372
  Ewald energy   TEWEN  =     -7562.10029060
  -Hartree energ DENC   =      -429.92690827
  -exchange      EXHF   =         0.00000000
  -V(xc)+E(xc)   XCENC  =      -525.39330493
  PAW double counting   =     34533.89976328   -33436.89980064
  entropy T*S    EENTRO =         0.02021552
  eigenvalues    EBANDS =       373.52781373
  atomic energy  EATOM  =      6564.79586099
  Solvation  Ediel_sol  =         0.00000000
  ---------------------------------------------------
  free energy    TOTEN  =      -363.09180718 eV

  energy without entropy =     -363.11202270  energy(sigma->0) =     -363.09854569


--------------------------------------------------------------------------------------------------------




--------------------------------------- Iteration      1(   9)  ---------------------------------------


    POTLOK:  cpu time      0.0817: real time      0.0919
    SETDIJ:  cpu time      0.0796: real time      0.0798
    EDDIAG:  cpu time      0.1313: real time      0.1317
  RMM-DIIS:  cpu time      0.7163: real time      0.7188
    ORTHCH:  cpu time      0.0195: real time      0.0195
       DOS:  cpu time      0.0020: real time      0.0020
    CHARGE:  cpu time      0.2385: real time      0.2392
    MIXING:  cpu time      0.0077: real time      0.0077
    --------------------------------------------
      LOOP:  cpu time      1.2766: real time      1.2906

 eigenvalue-minimisations  :  2677
 total energy-change (2. order) :-0.2511744E-01  (-0.2554450E-01)
 number of electron     255.9999998 magnetization 
 augmentation part      -14.7808149 magnetization 

 Broyden mixing:
  rms(total) = 0.64661E-01    rms(broyden)= 0.64661E-01
  rms(prec ) = 0.74231E-01
  weight for this iteration     100.00

 eigenvalues of (default mixing * dielectric matrix)
  average eigenvalue GAMMA=   1.7158
  2.5596  2.0164  2.0164  0.2708

 Free energy of the ion-electron system (eV)
  ---------------------------------------------------
  alpha Z        PSCENC =       118.98484372
  Ewald energy   TEWEN  =     -7562.10029060
  -Hartree energ DENC   =      -434.23044184
  -exchange      EXHF   =         0.00000000
  -V(xc)+E(xc)   XCENC  =      -524.82890278
  PAW double counting   =     35081.36063335   -33984.75206265
  entropy T*S    EENTRO =         0.01852283
  eigenvalues    EBANDS =       377.63491236
  atomic energy  EATOM  =      6564.79586099
  Solvation  Ediel_sol  =         0.00000000
  ---------------------------------------------------
  free energy    TOTEN  =      -363.11692462 eV

  energy without entropy =     -363.13544745  energy(sigma->0) =     -363.12309890


--------------------------------------------------------------------------------------------------------




--------------------------------------- Iteration      1(  10)  ---------------------------------------


    POTLOK:  cpu time      0.0818: real time      0.0972
    SETDIJ:  cpu time      0.0783: real time      0.0785
    EDDIAG:  cpu time      0.1331: real time      0.1336
  RMM-DIIS:  cpu time      0.7182: real time      0.7208
    ORTHCH:  cpu time      0.0197: real time      0.0198
       DOS:  cpu time      0.0013: real time      0.0013
    CHARGE:  cpu time      0.2374: real time      0.2382
    MIXING:  cpu time      0.0077: real time      0.0077
    --------------------------------------------
      LOOP:  cpu time      1.2775: real time      1.2971

 eigenvalue-minimisations  :  2687
 total energy-change (2. order) :-0.5810395E-02  (-0.4639126E-02)
 number of electron     255.9999998 magnetization 
 augmentation part      -14.7862501 magnetization 

 Broyden mixing:
  rms(total) = 0.99082E-01    rms(broyden)= 0.99082E-01
  rms(prec ) = 0.10799E+00
  weight for this iteration     100.00

 eigenvalues of (default mixing * dielectric matrix)
  average eigenvalue GAMMA=   1.6720
  2.6715  2.3687  1.7784  0.7707  0.7707

 Free energy of the ion-electron system (eV)
  ---------------------------------------------------
  alpha Z        PSCENC =       118.98484372
  Ewald energy   TEWEN  =     -7562.10029060
  -Hartree energ DENC   =      -434.57374033
  -exchange      EXHF   =         0.00000000
  -V(xc)+E(xc)   XCENC  =      -524.79244437
  PAW double counting   =     35170.59807921   -34074.00193149
  entropy T*S    EENTRO =         0.01831938
  eigenvalues    EBANDS =       377.94856848
  atomic energy  EATOM  =      6564.79586099
  Solvation  Ediel_sol  =         0.00000000
  ---------------------------------------------------
  free energy    TOTEN  =      -363.12273502 eV

  energy without entropy =     -363.14105440  energy(sigma->0) =     -363.12884148


--------------------------------------------------------------------------------------------------------




--------------------------------------- Iteration      1(  11)  ---------------------------------------


    POTLOK:  cpu time      0.0785: real time      0.0956
    SETDIJ:  cpu time      0.0764: real time      0.0767
    EDDIAG:  cpu time      0.1323: real time      0.1327
  RMM-DIIS:  cpu time      0.6909: real time      0.6934
    ORTHCH:  cpu time      0.0196: real time      0.0196
       DOS:  cpu time      0.0014: real time      0.0014
    CHARGE:  cpu time      0.2374: real time      0.2381
    MIXING:  cpu time      0.0076: real time      0.0077
    --------------------------------------------
      LOOP:  cpu time      1.2441: real time      1.2652

 eigenvalue-minimisations  :  2592
 total energy-change (2. order) : 0.6602826E-02  (-0.1795634E-02)
 number of electron     255.9999998 magnetization 
 augmentation part      -14.8029417 magnetization 

 Broyden mixing:
  rms(total) = 0.53206E-01    rms(broyden)= 0.53206E-01
  rms(prec ) = 0.53641E-01
  weight for this iteration     100.00

 eigenvalues of (default mixing * dielectric matrix)
  average eigenvalue GAMMA=   1.5243
  2.6058  2.6058  1.6434  1.1825  0.7897  0.3188

 Free energy of the ion-electron system (eV)
  ---------------------------------------------------
  alpha Z        PSCENC =       118.98484372
  Ewald energy   TEWEN  =     -7562.10029060
  -Hartree energ DENC   =      -431.31107626
  -exchange      EXHF   =         0.00000000
  -V(xc)+E(xc)   XCENC  =      -525.06158504
  PAW double counting   =     34995.73606349   -33898.84856095
  entropy T*S    EENTRO =         0.02014434
  eigenvalues    EBANDS =       374.66846812
  atomic energy  EATOM  =      6564.79586099
  Solvation  Ediel_sol  =         0.00000000
  ---------------------------------------------------
  free energy    TOTEN  =      -363.11613219 eV

  energy without entropy =     -363.13627653  energy(sigma->0) =     -363.12284697


--------------------------------------------------------------------------------------------------------




--------------------------------------- Iteration      1(  12)  ---------------------------------------


    POTLOK:  cpu time      0.0738: real time      0.0883
    SETDIJ:  cpu time      0.0763: real time      0.0767
    EDDIAG:  cpu time      0.1310: real time      0.1314
  RMM-DIIS:  cpu time      0.7021: real time      0.7046
    ORTHCH:  cpu time      0.0195: real time      0.0195
       DOS:  cpu time      0.0020: real time      0.0020
    CHARGE:  cpu time      0.2382: real time      0.2390
    MIXING:  cpu time      0.0079: real time      0.0079
    --------------------------------------------
      LOOP:  cpu time      1.2508: real time      1.2694

 eigenvalue-minimisations  :  2615
 total energy-change (2. order) :-0.2208377E-03  (-0.1948144E-03)
 number of electron     255.9999998 magnetization 
 augmentation part      -14.8055999 magnetization 

 Broyden mixing:
  rms(total) = 0.49657E-01    rms(broyden)= 0.49657E-01
  rms(prec ) = 0.49911E-01
  weight for this iteration     100.00

 eigenvalues of (default mixing * dielectric matrix)
  average eigenvalue GAMMA=   1.4695
  2.6077  2.6077  1.9851  1.0412  0.8911  0.4663  0.6871

 Free energy of the ion-electron system (eV)
  ---------------------------------------------------
  alpha Z        PSCENC =       118.98484372
  Ewald energy   TEWEN  =     -7562.10029060
  -Hartree energ DENC   =      -431.24107957
  -exchange      EXHF   =         0.00000000
  -V(xc)+E(xc)   XCENC  =      -525.07794074
  PAW double counting   =     34915.19876141   -33818.32281040
  entropy T*S    EENTRO =         0.02016826
  eigenvalues    EBANDS =       374.62613390
  atomic energy  EATOM  =      6564.79586099
  Solvation  Ediel_sol  =         0.00000000
  ---------------------------------------------------
  free energy    TOTEN  =      -363.11635303 eV

  energy without entropy =     -363.13652128  energy(sigma->0) =     -363.12307578


--------------------------------------------------------------------------------------------------------




--------------------------------------- Iteration      1(  13)  ---------------------------------------


    POTLOK:  cpu time      0.0788: real time      0.0941
    SETDIJ:  cpu time      0.0721: real time      0.0723
    EDDIAG:  cpu time      0.1309: real time      0.1316
  RMM-DIIS:  cpu time      0.7395: real time      0.7421
    ORTHCH:  cpu time      0.0196: real time      0.0196
       DOS:  cpu time      0.0021: real time      0.0021
    CHARGE:  cpu time      0.2395: real time      0.2402
    MIXING:  cpu time      0.0071: real time      0.0072
    --------------------------------------------
      LOOP:  cpu time      1.2896: real time      1.3091

 eigenvalue-minimisations  :  2686
 total energy-change (2. order) :-0.7041376E-04  (-0.3524925E-04)
 number of electron     255.9999998 magnetization 
 augmentation part      -14.8062743 magnetization 

 Broyden mixing:
  rms(total) = 0.56555E-01    rms(broyden)= 0.56555E-01
  rms(prec ) = 0.56775E-01
  weight for this iteration     100.00

 eigenvalues of (default mixing * dielectric matrix)
  average eigenvalue GAMMA=   1.6989
  2.7798  2.7798  2.3290  2.3290  0.9613  0.9482  0.9482  0.5161

 Free energy of the ion-electron system (eV)
  ---------------------------------------------------
  alpha Z        PSCENC =       118.98484372
  Ewald energy   TEWEN  =     -7562.10029060
  -Hartree energ DENC   =      -431.29375724
  -exchange      EXHF   =         0.00000000
  -V(xc)+E(xc)   XCENC  =      -525.06289662
  PAW double counting   =     34982.15550587   -33885.28387841
  entropy T*S    EENTRO =         0.02016972
  eigenvalues    EBANDS =       374.66801914
  atomic energy  EATOM  =      6564.79586099
  Solvation  Ediel_sol  =         0.00000000
  ---------------------------------------------------
  free energy    TOTEN  =      -363.11642344 eV

  energy without entropy =     -363.13659316  energy(sigma->0) =     -363.12314668


--------------------------------------------------------------------------------------------------------




--------------------------------------- Iteration      1(  14)  ---------------------------------------


    POTLOK:  cpu time      0.0752: real time      0.0943
    SETDIJ:  cpu time      0.0751: real time      0.0757
    EDDIAG:  cpu time      0.1357: real time      0.1369
  RMM-DIIS:  cpu time      0.7029: real time      0.7094
    ORTHCH:  cpu time      0.0194: real time      0.0195
       DOS:  cpu time      0.0012: real time      0.0013
    CHARGE:  cpu time      0.2371: real time      0.2394
    MIXING:  cpu time      0.0068: real time      0.0068
    --------------------------------------------
      LOOP:  cpu time      1.2534: real time      1.2834

 eigenvalue-minimisations  :  2637
 total energy-change (2. order) : 0.1072327E-04  (-0.1011895E-04)
 number of electron     255.9999998 magnetization 
 augmentation part      -14.8061720 magnetization 

 Broyden mixing:
  rms(total) = 0.21942E-01    rms(broyden)= 0.21942E-01
  rms(prec ) = 0.22203E-01
  weight for this iteration     100.00

 eigenvalues of (default mixing * dielectric matrix)
  average eigenvalue GAMMA=   1.5600
  2.7333  2.7333  2.5103  2.1313  0.9680  0.9215  0.9215  0.5607  0.5607

 Free energy of the ion-electron system (eV)
  ---------------------------------------------------
  alpha Z        PSCENC =       118.98484372
  Ewald energy   TEWEN  =     -7562.10029060
  -Hartree energ DENC   =      -431.16278335
  -exchange      EXHF   =         0.00000000
  -V(xc)+E(xc)   XCENC  =      -525.10485364
  PAW double counting   =     34651.53128008   -33554.67627736
  entropy T*S    EENTRO =         0.02017653
  eigenvalues    EBANDS =       374.59563092
  atomic energy  EATOM  =      6564.79586099
  Solvation  Ediel_sol  =         0.00000000
  ---------------------------------------------------
  free energy    TOTEN  =      -363.11641272 eV

  energy without entropy =     -363.13658924  energy(sigma->0) =     -363.12313823


--------------------------------------------------------------------------------------------------------




--------------------------------------- Iteration      1(  15)  ---------------------------------------


    POTLOK:  cpu time      0.0880: real time      0.0959
    SETDIJ:  cpu time      0.0720: real time      0.0722
    EDDIAG:  cpu time      0.1307: real time      0.1315
  RMM-DIIS:  cpu time      0.7110: real time      0.7133
    ORTHCH:  cpu time      0.0195: real time      0.0196
       DOS:  cpu time      0.0015: real time      0.0015
    CHARGE:  cpu time      0.2378: real time      0.2387
    MIXING:  cpu time      0.0082: real time      0.0083
    --------------------------------------------
      LOOP:  cpu time      1.2687: real time      1.2809

 eigenvalue-minimisations  :  2627
 total energy-change (2. order) :-0.3658358E-04  (-0.4249777E-05)
 number of electron     255.9999998 magnetization 
 augmentation part      -14.8064891 magnetization 

 Broyden mixing:
  rms(total) = 0.10763E-01    rms(broyden)= 0.10763E-01
  rms(prec ) = 0.10957E-01
  weight for this iteration     100.00

 eigenvalues of (default mixing * dielectric matrix)
  average eigenvalue GAMMA=   1.4992
  2.7562  2.7562  2.3218  2.1400  1.0005  1.0005  0.8835  0.8057  0.8057  0.5220

 Free energy of the ion-electron system (eV)
  ---------------------------------------------------
  alpha Z        PSCENC =       118.98484372
  Ewald energy   TEWEN  =     -7562.10029060
  -Hartree energ DENC   =      -431.11068797
  -exchange      EXHF   =         0.00000000
  -V(xc)+E(xc)   XCENC  =      -525.10928079
  PAW double counting   =     34589.68034330   -33492.82547502
  entropy T*S    EENTRO =         0.02022848
  eigenvalues    EBANDS =       374.54800860
  atomic energy  EATOM  =      6564.79586099
  Solvation  Ediel_sol  =         0.00000000
  ---------------------------------------------------
  free energy    TOTEN  =      -363.11644930 eV

  energy without entropy =     -363.13667778  energy(sigma->0) =     -363.12319213


--------------------------------------------------------------------------------------------------------




--------------------------------------- Iteration      1(  16)  ---------------------------------------


    POTLOK:  cpu time      0.0770: real time      0.0941
    SETDIJ:  cpu time      0.0711: real time      0.0715
    EDDIAG:  cpu time      0.1307: real time      0.1311
  RMM-DIIS:  cpu time      0.6891: real time      0.6913
    ORTHCH:  cpu time      0.0197: real time      0.0200
       DOS:  cpu time      0.0027: real time      0.0027
    CHARGE:  cpu time      0.2415: real time      0.2422
    MIXING:  cpu time      0.0079: real time      0.0082
    --------------------------------------------
      LOOP:  cpu time      1.2397: real time      1.2612

 eigenvalue-minimisations  :  2496
 total energy-change (2. order) :-0.1767682E-04  (-0.1362775E-05)
 number of electron     255.9999998 magnetization 
 augmentation part      -14.8064566 magnetization 

 Broyden mixing:
  rms(total) = 0.79199E-02    rms(broyden)= 0.79199E-02
  rms(prec ) = 0.80260E-02
  weight for this iteration     100.00

 eigenvalues of (default mixing * dielectric matrix)
  average eigenvalue GAMMA=   1.4100
  2.7434  2.7434  2.3344  2.0771  0.8534  0.8534  1.0174  1.0174  0.8851  0.5256
  0.4593

 Free energy of the ion-electron system (eV)
  ---------------------------------------------------
  alpha Z        PSCENC =       118.98484372
  Ewald energy   TEWEN  =     -7562.10029060
  -Hartree energ DENC   =      -431.14974852
  -exchange      EXHF   =         0.00000000
  -V(xc)+E(xc)   XCENC  =      -525.10336007
  PAW double counting   =     34597.34836709   -33500.49292308
  entropy T*S    EENTRO =         0.02023995
  eigenvalues    EBANDS =       374.58054355
  atomic energy  EATOM  =      6564.79586099
  Solvation  Ediel_sol  =         0.00000000
  ---------------------------------------------------
  free energy    TOTEN  =      -363.11646698 eV

  energy without entropy =     -363.13670692  energy(sigma->0) =     -363.12321363


--------------------------------------------------------------------------------------------------------




--------------------------------------- Iteration      1(  17)  ---------------------------------------


    POTLOK:  cpu time      0.0849: real time      0.0950
    SETDIJ:  cpu time      0.0706: real time      0.0712
    EDDIAG:  cpu time      0.1324: real time      0.1329
  RMM-DIIS:  cpu time      0.6861: real time      0.6885
    ORTHCH:  cpu time      0.0196: real time      0.0196
       DOS:  cpu time      0.0025: real time      0.0025
    CHARGE:  cpu time      0.2388: real time      0.2397
    MIXING:  cpu time      0.0087: real time      0.0087
    --------------------------------------------
      LOOP:  cpu time      1.2436: real time      1.2581

 eigenvalue-minimisations  :  2573
 total energy-change (2. order) :-0.9593656E-05  (-0.8881945E-06)
 number of electron     255.9999998 magnetization 
 augmentation part      -14.8062461 magnetization 

 Broyden mixing:
  rms(total) = 0.21762E-02    rms(broyden)= 0.21761E-02
  rms(prec ) = 0.22055E-02
  weight for this iteration     100.00

 eigenvalues of (default mixing * dielectric matrix)
  average eigenvalue GAMMA=   1.6894
  3.6207  2.9063  2.3751  2.3751  1.8827  1.8827  0.9872  0.9872  0.9467  0.9467
  0.8320  0.5310

 Free energy of the ion-electron system (eV)
  ---------------------------------------------------
  alpha Z        PSCENC =       118.98484372
  Ewald energy   TEWEN  =     -7562.10029060
  -Hartree energ DENC   =      -431.21819027
  -exchange      EXHF   =         0.00000000
  -V(xc)+E(xc)   XCENC  =      -525.09669709
  PAW double counting   =     34587.70089434   -33490.84483473
  entropy T*S    EENTRO =         0.02024568
  eigenvalues    EBANDS =       374.64169139
  atomic energy  EATOM  =      6564.79586099
  Solvation  Ediel_sol  =         0.00000000
  ---------------------------------------------------
  free energy    TOTEN  =      -363.11647657 eV

  energy without entropy =     -363.13672225  energy(sigma->0) =     -363.12322513


--------------------------------------------------------------------------------------------------------




--------------------------------------- Iteration      1(  18)  ---------------------------------------


    POTLOK:  cpu time      0.0803: real time      0.0944
    SETDIJ:  cpu time      0.0705: real time      0.0710
    EDDIAG:  cpu time      0.1333: real time      0.1337
  RMM-DIIS:  cpu time      0.4612: real time      0.4627
    ORTHCH:  cpu time      0.0200: real time      0.0201
       DOS:  cpu time      0.0015: real time      0.0015
    CHARGE:  cpu time      0.2388: real time      0.2397
    MIXING:  cpu time      0.0075: real time      0.0075
    --------------------------------------------
      LOOP:  cpu time      1.0131: real time      1.0306

 eigenvalue-minimisations  :  1613
 total energy-change (2. order) : 0.1410992E-05  (-0.1977832E-06)
 number of electron     255.9999998 magnetization 
 augmentation part      -14.8062497 magnetization 

 Broyden mixing:
  rms(total) = 0.50119E-03    rms(broyden)= 0.50106E-03
  rms(prec ) = 0.50584E-03
  weight for this iteration     100.00

 eigenvalues of (default mixing * dielectric matrix)
  average eigenvalue GAMMA=   1.6445
  3.1659  3.1659  2.2084  2.2084  2.4017  2.1224  1.0280  1.0280  0.9898  0.9898
  0.9343  0.5322  0.6038

 Free energy of the ion-electron system (eV)
  ---------------------------------------------------
  alpha Z        PSCENC =       118.98484372
  Ewald energy   TEWEN  =     -7562.10029060
  -Hartree energ DENC   =      -431.21237759
  -exchange      EXHF   =         0.00000000
  -V(xc)+E(xc)   XCENC  =      -525.09894181
  PAW double counting   =     34573.12259316   -33476.26527980
  entropy T*S    EENTRO =         0.02025354
  eigenvalues    EBANDS =       374.63686322
  atomic energy  EATOM  =      6564.79586099
  Solvation  Ediel_sol  =         0.00000000
  ---------------------------------------------------
  free energy    TOTEN  =      -363.11647516 eV

  energy without entropy =     -363.13672871  energy(sigma->0) =     -363.12322634


--------------------------------------------------------------------------------------------------------




--------------------------------------- Iteration      1(  19)  ---------------------------------------


    POTLOK:  cpu time      0.0730: real time      0.0887
    SETDIJ:  cpu time      0.0765: real time      0.0767
    EDDIAG:  cpu time      0.1344: real time      0.1348
  RMM-DIIS:  cpu time      0.4458: real time      0.4474
    ORTHCH:  cpu time      0.0192: real time      0.0193
       DOS:  cpu time      0.0020: real time      0.0020
    --------------------------------------------
      LOOP:  cpu time      0.7509: real time      0.7689

 eigenvalue-minimisations  :  1549
 total energy-change (2. order) :-0.4227604E-07  (-0.3879659E-07)
 number of electron     255.9999998 magnetization 
 augmentation part      -14.8062497 magnetization 

 Free energy of the ion-electron system (eV)
  ---------------------------------------------------
  alpha Z        PSCENC =       118.98484372
  Ewald energy   TEWEN  =     -7562.10029060
  -Hartree energ DENC   =      -431.21082912
  -exchange      EXHF   =         0.00000000
  -V(xc)+E(xc)   XCENC  =      -525.09914588
  PAW double counting   =     34575.08350214   -33478.22620560
  entropy T*S    EENTRO =         0.02025370
  eigenvalues    EBANDS =       374.63553545
  atomic energy  EATOM  =      6564.79586099
  Solvation  Ediel_sol  =         0.00000000
  ---------------------------------------------------
  free energy    TOTEN  =      -363.11647520 eV

  energy without entropy =     -363.13672890  energy(sigma->0) =     -363.12322644


--------------------------------------------------------------------------------------------------------




 average (electrostatic) potential at core
  the test charge radii are     0.9892
  (the norm of the test charge is              1.0000)
       1 -81.8732       2 -81.8732       3 -81.8732       4 -81.8732       5 -81.8732
       6 -81.8732       7 -81.8732       8 -81.8732       9 -81.8732      10 -81.8732
      11 -81.8732      12 -81.8732      13 -81.8732      14 -81.8732      15 -81.8732
      16 -81.8732      17 -81.8732      18 -81.8732      19 -81.8732      20 -81.8732
      21 -81.8732      22 -81.8732      23 -81.8732      24 -81.8732      25 -81.8732
      26 -81.8732      27 -81.8732      28 -81.8732      29 -81.8732      30 -81.8732
      31 -81.8732      32 -81.8732      33 -81.8732      34 -81.8732      35 -81.8732
      36 -81.8732      37 -81.8732      38 -81.8732      39 -81.8732      40 -81.8732
      41 -81.8732      42 -81.8732      43 -81.8732      44 -81.8732      45 -81.8732
      46 -81.8732      47 -81.8732      48 -81.8732      49 -81.8732      50 -81.8732
      51 -81.8732      52 -81.8732      53 -81.8732      54 -81.8732      55 -81.8732
      56 -81.8732      57 -81.8732      58 -81.8732      59 -81.8732      60 -81.8732
      61 -81.8732      62 -81.8732      63 -81.8732      64 -81.8732
 
 
 
 E-fermi :   7.0001     XC(G=0):  -9.9432     alpha+bet :-13.2461

 val. band max:        6.9388210278   @ k =   0.0000   0.0000   0.0000
 cond. band min:       7.0881079862   @ k =   0.5000   0.0000   0.0000
 fundamental gap:      0.1492869584
 Fermi energy:         7.0000688650

 k-point     1 :       0.0000    0.0000    0.0000
  band No.  band energies     occupation 
      1      -5.8584      2.00000
      2      -4.6861      2.00000
      3      -4.6861      2.00000
      4      -4.6857      2.00000
      5      -4.6857      2.00000
      6      -4.6543      2.00000
      7      -4.6543      2.00000
      8      -3.6451      2.00000
      9      -3.6451      2.00000
     10      -3.6215      2.00000
     11      -3.6215      2.00000
     12      -3.6215      2.00000
     13      -3.6215      2.00000
     14      -3.5982      2.00000
     15      -3.5982      2.00000
     16      -3.5982      2.00000
     17      -3.5982      2.00000
     18      -3.5501      2.00000
     19      -3.5501      2.00000
     20      -3.2945      2.00000
     21      -3.2945      2.00000
     22      -3.1845      2.00000
     23      -3.1845      2.00000
     24      -1.4144      2.00000
     25      -1.3530      2.00000
     26      -1.3530      2.00000
     27      -1.2938      2.00000
     28      -1.2496      2.00000
     29      -1.2496      2.00000
     30      -1.1918      2.00000
     31      -1.1918      2.00000
     32      -1.1577      2.00000
     33      -1.1577      2.00000
     34      -1.0856      2.00000
     35      -1.0856      2.00000
     36      -1.0856      2.00000
     37      -1.0856      2.00000
     38      -1.0461      2.00000
     39      -1.0461      2.00000
     40      -1.0135      2.00000
     41      -1.0135      2.00000
     42      -0.6754      2.00000
     43      -0.6754      2.00000
     44      -0.6597      2.00000
     45      -0.6597      2.00000
     46       1.1142      2.00000
     47       1.1142      2.00000
     48       1.1397      2.00000
     49       1.1397      2.00000
     50       1.1397      2.00000
     51       1.1397      2.00000
     52       1.1637      2.00000
     53       1.1637      2.00000
     54       1.2032      2.00000
     55       1.2032      2.00000
     56       1.2032      2.00000
     57       1.2032      2.00000
     58       2.4900      2.00000
     59       2.4900      2.00000
     60       2.4940      2.00000
     61       2.4940      2.00000
     62       2.5018      2.00000
     63       2.5018      2.00000
     64       2.5052      2.00000
     65       2.5052      2.00000
     66       2.5052      2.00000
     67       2.5052      2.00000
     68       2.5071      2.00000
     69       2.5071      2.00000
     70       2.5997      2.00000
     71       2.5997      2.00000
     72       2.6201      2.00000
     73       2.6201      2.00000
     74       2.6201      2.00000
     75       2.6201      2.00000
     76       2.6386      2.00000
     77       2.6386      2.00000
     78       2.7127      2.00000
     79       2.7127      2.00000
     80       2.7127      2.00000
     81       2.7127      2.00000
     82       3.3033      2.00000
     83       3.3033      2.00000
     84       3.3071      2.00000
     85       3.3071      2.00000
     86       3.4269      2.00000
     87       3.4269      2.00000
     88       3.6259      2.00000
     89       3.6259      2.00000
     90       3.6607      2.00000
     91       3.7533      2.00000
     92       3.7533      2.00000
     93       3.8470      2.00000
     94       4.6879      2.00000
     95       4.6879      2.00000
     96       4.6880      2.00000
     97       4.6880      2.00000
     98       4.7037      2.00000
     99       4.7038      2.00000
    100       4.7697      2.00000
    101       4.7697      2.00000
    102       4.8031      2.00000
    103       4.8031      2.00000
    104       4.8721      2.00000
    105       4.8721      2.00000
    106       5.3168      2.00000
    107       5.3168      2.00000
    108       5.3168      2.00000
    109       5.3168      2.00000
    110       5.4031      2.00000
    111       5.4031      2.00000
    112       5.4461      2.00000
    113       5.4461      2.00000
    114       5.4477      2.00000
    115       5.4477      2.00000
    116       5.4477      2.00000
    117       5.4477      2.00000
    118       5.4951      2.00000
    119       5.4951      2.00000
    120       5.5292      2.00000
    121       5.5292      2.00000
    122       5.6060      2.00000
    123       5.6060      2.00000
    124       5.6857      2.00000
    125       5.6857      2.00000
    126       6.8163      2.02903
    127       6.8204      2.02225
    128       6.9388      1.49236
    129       7.1444      0.06573
    130       7.1444      0.06573
    131       7.1777     -0.01866
    132       7.2728     -0.06603
    133       7.2728     -0.06603
    134       7.3701     -0.02516
    135       7.7047     -0.00001
    136       7.7047     -0.00001
    137       7.8292     -0.00000
    138       7.8292     -0.00000
    139       7.8299     -0.00000
    140       7.8299     -0.00000
    141       8.5946     -0.00000
    142       8.5946     -0.00000
    143       8.7380     -0.00000
    144       8.7380     -0.00000
    145       9.1505     -0.00000
    146       9.1508     -0.00000
    147       9.1512     -0.00000
    148       9.1516     -0.00000
    149       9.2505     -0.00000
    150       9.2511     -0.00000
    151       9.2731     -0.00000
    152       9.2999     -0.00000
    153       9.3004     -0.00000
    154       9.3012     -0.00000
    155       9.3075     -0.00000
    156       9.3571     -0.00000
    157       9.3589     -0.00000
    158       9.4152     -0.00000
    159       9.5659     -0.00000
    160       9.8137     -0.00000
    161       9.8420     -0.00000
    162       9.8734     -0.00000

 k-point     2 :       0.5000    0.0000    0.0000
  band No.  band energies     occupation 
      1      -5.5547      2.00000
      2      -5.5547      2.00000
      3      -4.4298      2.00000
      4      -4.4298      2.00000
      5      -4.4066      2.00000
      6      -4.4066      2.00000
      7      -4.4066      2.00000
      8      -4.4066      2.00000
      9      -4.3824      2.00000
     10      -4.3824      2.00000
     11      -3.4865      2.00000
     12      -3.4865      2.00000
     13      -3.4865      2.00000
     14      -3.4865      2.00000
     15      -3.4218      2.00000
     16      -3.4218      2.00000
     17      -3.4218      2.00000
     18      -3.4218      2.00000
     19      -3.1935      2.00000
     20      -3.1935      2.00000
     21      -2.4539      2.00000
     22      -2.4539      2.00000
     23      -2.3858      2.00000
     24      -2.3858      2.00000
     25      -2.3858      2.00000
     26      -2.3858      2.00000
     27      -2.3163      2.00000
     28      -2.3163      2.00000
     29      -1.3111      2.00000
     30      -1.3111      2.00000
     31      -1.2900      2.00000
     32      -1.2900      2.00000
     33      -1.1972      2.00000
     34      -1.1972      2.00000
     35      -1.1782      2.00000
     36      -1.1782      2.00000
     37      -0.0326      2.00000
     38      -0.0326      2.00000
     39       0.0165      2.00000
     40       0.0165      2.00000
     41       0.0165      2.00000
     42       0.0165      2.00000
     43       0.0447      2.00000
     44       0.0447      2.00000
     45       0.0447      2.00000
     46       0.0447      2.00000
     47       0.0621      2.00000
     48       0.0621      2.00000
     49       0.0664      2.00000
     50       0.0664      2.00000
     51       0.0664      2.00000
     52       0.0664      2.00000
     53       1.0319      2.00000
     54       1.0319      2.00000
     55       2.0639      2.00000
     56       2.0639      2.00000
     57       2.0663      2.00000
     58       2.0663      2.00000
     59       2.0664      2.00000
     60       2.0664      2.00000
     61       2.0690      2.00000
     62       2.0690      2.00000
     63       2.4146      2.00000
     64       2.4146      2.00000
     65       2.4278      2.00000
     66       2.4278      2.00000
     67       2.4278      2.00000
     68       2.4278      2.00000
     69       2.4466      2.00000
     70       2.4466      2.00000
     71       2.9819      2.00000
     72       2.9819      2.00000
     73       3.0209      2.00000
     74       3.0209      2.00000
     75       3.0484      2.00000
     76       3.0484      2.00000
     77       3.0887      2.00000
     78       3.0887      2.00000
     79       3.7742      2.00000
     80       3.7742      2.00000
     81       3.8103      2.00000
     82       3.8103      2.00000
     83       3.8103      2.00000
     84       3.8103      2.00000
     85       3.8393      2.00000
     86       3.8393      2.00000
     87       3.8962      2.00000
     88       3.8962      2.00000
     89       3.8967      2.00000
     90       3.8967      2.00000
     91       3.9881      2.00000
     92       3.9881      2.00000
     93       4.0205      2.00000
     94       4.0205      2.00000
     95       4.0205      2.00000
     96       4.0205      2.00000
     97       4.0521      2.00000
     98       4.0521      2.00000
     99       4.2165      2.00000
    100       4.2165      2.00000
    101       4.2165      2.00000
    102       4.2165      2.00000
    103       4.3039      2.00000
    104       4.3039      2.00000
[...]
  0.000   0.000   4.165   0.000   0.000   7.758   0.000   0.000
 -0.001  -0.001   0.000   4.165   0.000   0.000   7.758   0.000
  0.000   0.000   0.000   0.000   4.165   0.000   0.000   7.758
  0.000   0.000   7.758   0.000   0.000  14.461   0.000  -0.000
 -0.002  -0.002   0.000   7.758   0.000   0.000  14.461   0.000
  0.000   0.000   0.000   0.000   7.758  -0.000   0.000  14.462
 total augmentation occupancy for first ion, spin component:           1
  6.829  -2.782  -0.000   0.039   0.000   0.000  -0.015   0.000
 -2.782   1.240   0.000  -0.020  -0.000   0.000   0.007   0.000
 -0.000   0.000   3.335   0.000  -0.003  -0.777   0.000   0.003
  0.039  -0.020   0.000   3.337  -0.000   0.000  -0.777   0.000
  0.000  -0.000  -0.003  -0.000   3.302   0.003   0.000  -0.765
  0.000   0.000  -0.777   0.000   0.003   0.191   0.000  -0.001
 -0.015   0.007   0.000  -0.777   0.000   0.000   0.191   0.000
  0.000   0.000   0.003   0.000  -0.765  -0.001   0.000   0.187


------------------------ aborting loop because EDIFF is reached ----------------------------------------


    CHARGE:  cpu time      0.2398: real time      0.2407
    FORLOC:  cpu time      0.0224: real time      0.0225
    FORNL :  cpu time      0.6990: real time      0.7013
    STRESS:  cpu time      2.1567: real time      2.1628
    FORCOR:  cpu time      0.0853: real time      0.0858
    FORHAR:  cpu time      0.0344: real time      0.0345
    MIXING:  cpu time      0.0312: real time      0.0313
    OFIELD:  cpu time      0.0000: real time      0.0000

  FORCE on cell =-STRESS in cart. coord.  units (eV):
  Direction    XX          YY          ZZ          XY          YZ          ZX
  --------------------------------------------------------------------------------------
  Alpha Z   118.98484   118.98484   118.98484
  Ewald   -2555.81913 -2503.42380 -2503.40297     3.88864    -0.00000    -0.00000
  Hartree   138.45226   146.24312   146.11074     5.85491    -0.00000    -0.00000
  E(xc)    -837.62341  -838.13928  -838.16411     0.06454    -0.00000    -0.00000
  Local    -846.44742  -908.00343  -908.19618   -10.86073     0.00000     0.00000
  n-local  2548.53398  2556.94427  2557.35659    -1.61109     0.00000     0.00000
  augment  -370.93457  -370.97569  -371.01719    -0.39805     0.00000     0.00000
  Kinetic  1896.89386  1882.60831  1882.35351    10.79831    -0.00001    -0.00001
  Fock        0.00000     0.00000     0.00000     0.00000     0.00000     0.00000
  -------------------------------------------------------------------------------------
  Total      92.04041    84.23835    84.02523     7.73652     0.00000     0.00000
  in kB     127.25250   116.46558   116.17094    10.69629     0.00000     0.00000
  external pressure =      119.96 kB  Pullay stress =        0.00 kB


 VOLUME and BASIS-vectors are now :
 -----------------------------------------------------------------------------
  energy-cutoff  :      400.00
  volume of cell :     1158.84
      direct lattice vectors                 reciprocal lattice vectors
    10.398563536 -0.079177012  0.000000000     0.096172621  0.000721296  0.000000000
    -0.079177012 10.556917559  0.000000000     0.000721296  0.094730029  0.000000000
     0.000000000  0.000000000 10.556917559     0.000000000  0.000000000  0.094724620

  length of vectors
    10.398864967 10.557214469 10.556917559     0.096175326  0.094732775  0.094724620


 FORCES acting on ions
    electron-ion (+dipol)            ewald-force                    non-local-force                 convergence-correction
 -----------------------------------------------------------------------------------------------
   -.307E-08 -.238E-08 0.123E+01   0.211E-13 -.178E-14 -.874E+00   -.556E-20 0.866E-20 -.359E+00   0.378E-13 0.745E-14 -.190E-04
   -.307E-08 -.238E-08 0.123E+01   0.622E-14 0.000E+00 -.874E+00   0.840E-20 -.113E-19 -.359E+00   -.368E-13 0.484E-13 -.190E-04
   -.307E-08 -.238E-08 0.123E+01   0.444E-15 0.400E-14 -.874E+00   -.104E-19 0.136E-19 -.359E+00   0.117E-13 -.167E-13 -.190E-04
   -.307E-08 -.238E-08 0.123E+01   0.711E-14 0.577E-14 -.874E+00   0.152E-20 -.101E-19 -.359E+00   -.102E-13 -.504E-13 -.190E-04
   -.307E-08 -.238E-08 0.123E+01   0.220E-13 -.355E-14 -.874E+00   -.899E-20 0.898E-20 -.359E+00   -.291E-13 0.584E-13 -.190E-04
   -.307E-08 -.238E-08 0.123E+01   0.147E-13 0.000E+00 -.874E+00   0.309E-20 -.157E-19 -.359E+00   0.198E-13 -.297E-13 -.190E-04
   -.307E-08 -.238E-08 0.123E+01   0.142E-13 -.888E-14 -.874E+00   -.620E-22 0.126E-19 -.359E+00   -.122E-13 -.637E-13 -.190E-04
   -.307E-08 -.238E-08 0.123E+01   0.142E-13 -.355E-14 -.874E+00   0.551E-20 -.126E-19 -.359E+00   0.189E-14 0.380E-13 -.190E-04
   0.480E-08 0.384E-08 -.123E+01   0.000E+00 -.755E-14 0.874E+00   -.119E-20 -.696E-20 0.359E+00   -.311E-13 -.254E-13 0.190E-04
   0.480E-08 0.384E-08 -.123E+01   0.124E-13 -.142E-13 0.874E+00   0.852E-20 0.129E-19 0.359E+00   -.668E-14 0.139E-13 0.190E-04
   0.480E-08 0.384E-08 -.123E+01   0.111E-13 -.218E-13 0.874E+00   0.201E-21 -.136E-19 0.359E+00   -.222E-14 0.248E-13 0.190E-04
   0.480E-08 0.384E-08 -.123E+01   0.142E-13 -.142E-13 0.874E+00   -.322E-20 0.168E-19 0.359E+00   -.336E-14 -.209E-13 0.190E-04
   0.480E-08 0.384E-08 -.123E+01   0.222E-14 -.888E-14 0.874E+00   -.116E-20 -.107E-19 0.359E+00   0.205E-13 0.780E-13 0.190E-04
   0.480E-08 0.384E-08 -.123E+01   0.142E-13 -.124E-13 0.874E+00   -.313E-20 0.139E-19 0.359E+00   -.435E-14 -.967E-13 0.190E-04
   0.480E-08 0.384E-08 -.123E+01   0.342E-13 -.160E-13 0.874E+00   -.164E-20 -.581E-20 0.359E+00   -.934E-14 -.804E-13 0.190E-04
   0.480E-08 0.384E-08 -.123E+01   0.888E-14 -.160E-13 0.874E+00   0.805E-20 0.126E-19 0.359E+00   -.150E-13 0.895E-13 0.190E-04
   -.307E-08 -.238E-08 0.123E+01   0.622E-14 0.111E-14 -.874E+00   -.183E-20 0.274E-20 -.359E+00   0.100E-12 0.362E-13 -.190E-04
   -.307E-08 -.238E-08 0.123E+01   0.102E-13 0.400E-14 -.874E+00   0.221E-20 0.955E-20 -.359E+00   -.935E-13 0.110E-13 -.190E-04
   -.307E-08 -.238E-08 0.123E+01   0.173E-13 0.200E-14 -.874E+00   0.372E-20 -.511E-20 -.359E+00   0.190E-13 -.265E-13 -.190E-04
   -.307E-08 -.238E-08 0.123E+01   0.142E-13 0.266E-14 -.874E+00   0.516E-20 0.954E-20 -.359E+00   -.303E-13 0.191E-14 -.190E-04
   -.307E-08 -.238E-08 0.123E+01   0.162E-13 0.133E-14 -.874E+00   0.486E-20 -.411E-20 -.359E+00   -.103E-12 -.347E-13 -.190E-04
   -.307E-08 -.238E-08 0.123E+01   0.302E-13 0.444E-14 -.874E+00   0.407E-20 0.806E-20 -.359E+00   0.867E-13 0.543E-13 -.190E-04
   -.307E-08 -.238E-08 0.123E+01   0.244E-13 0.266E-14 -.874E+00   -.487E-20 0.613E-21 -.359E+00   -.176E-13 0.373E-13 -.190E-04
   -.307E-08 -.238E-08 0.123E+01   0.107E-13 0.355E-14 -.874E+00   0.401E-20 0.473E-20 -.359E+00   0.254E-13 -.468E-13 -.190E-04
   0.480E-08 0.384E-08 -.123E+01   0.107E-13 -.193E-13 0.874E+00   0.122E-20 0.108E-19 0.359E+00   -.262E-13 -.546E-13 0.190E-04
   0.480E-08 0.384E-08 -.123E+01   0.000E+00 -.686E-14 0.874E+00   0.180E-21 -.809E-20 0.359E+00   0.897E-14 0.938E-13 0.190E-04
   0.480E-08 0.384E-08 -.123E+01   0.000E+00 -.749E-14 0.874E+00   -.176E-20 -.689E-21 0.359E+00   0.288E-13 0.556E-13 0.190E-04
   0.480E-08 0.384E-08 -.123E+01   0.142E-13 -.216E-14 0.874E+00   -.200E-20 -.116E-19 0.359E+00   -.356E-13 -.815E-13 0.190E-04
   0.480E-08 0.384E-08 -.123E+01   0.133E-13 -.287E-14 0.874E+00   -.576E-20 0.417E-20 0.359E+00   0.149E-13 -.156E-13 0.190E-04
   0.480E-08 0.384E-08 -.123E+01   0.204E-13 -.287E-14 0.874E+00   -.147E-20 -.942E-20 0.359E+00   -.223E-13 0.748E-13 0.190E-04
   0.480E-08 0.384E-08 -.123E+01   -.533E-14 -.106E-13 0.874E+00   0.107E-20 0.512E-20 0.359E+00   -.466E-13 0.248E-13 0.190E-04
   0.480E-08 0.384E-08 -.123E+01   0.888E-14 -.527E-14 0.874E+00   0.148E-20 -.950E-20 0.359E+00   0.191E-13 -.726E-13 0.190E-04
   -.307E-08 -.238E-08 0.123E+01   -.258E-13 0.755E-14 -.874E+00   0.530E-20 0.538E-20 -.359E+00   0.961E-13 -.149E-13 -.190E-04
   -.307E-08 -.238E-08 0.123E+01   -.120E-13 0.577E-14 -.874E+00   -.158E-20 -.111E-19 -.359E+00   -.800E-13 0.673E-13 -.190E-04
   -.307E-08 -.238E-08 0.123E+01   -.138E-13 0.187E-13 -.874E+00   -.504E-20 -.165E-20 -.359E+00   0.271E-13 0.198E-13 -.190E-04
   -.307E-08 -.238E-08 0.123E+01   -.107E-13 0.107E-13 -.874E+00   -.924E-20 -.490E-20 -.359E+00   -.341E-13 -.738E-13 -.190E-04
   -.307E-08 -.238E-08 0.123E+01   -.182E-13 0.444E-14 -.874E+00   -.491E-20 0.670E-21 -.359E+00   -.913E-13 -.104E-12 -.190E-04
   -.307E-08 -.238E-08 0.123E+01   -.111E-13 0.151E-13 -.874E+00   -.923E-20 -.704E-20 -.359E+00   0.905E-13 0.132E-12 -.190E-04
   -.307E-08 -.238E-08 0.123E+01   -.138E-13 0.844E-14 -.874E+00   0.731E-20 0.757E-21 -.359E+00   -.259E-13 0.963E-13 -.190E-04
   -.307E-08 -.238E-08 0.123E+01   -.711E-14 0.711E-14 -.874E+00   0.971E-21 -.400E-20 -.359E+00   0.441E-13 -.132E-12 -.190E-04
   0.480E-08 0.384E-08 -.123E+01   -.595E-14 0.000E+00 0.874E+00   -.184E-20 -.641E-21 0.359E+00   0.310E-13 -.143E-14 0.190E-04
   0.480E-08 0.384E-08 -.123E+01   -.573E-14 -.355E-14 0.874E+00   -.365E-20 0.708E-20 0.359E+00   -.383E-13 -.209E-13 0.190E-04
   0.480E-08 0.384E-08 -.123E+01   -.108E-13 -.711E-14 0.874E+00   0.414E-20 -.815E-21 0.359E+00   0.684E-13 -.382E-14 0.190E-04
   0.480E-08 0.384E-08 -.123E+01   -.905E-14 -.711E-14 0.874E+00   0.502E-20 0.109E-19 0.359E+00   -.495E-13 0.163E-13 0.190E-04
   0.480E-08 0.384E-08 -.123E+01   -.527E-15 0.000E+00 0.874E+00   0.762E-21 -.547E-20 0.359E+00   -.252E-13 0.588E-13 0.190E-04
   0.480E-08 0.384E-08 -.123E+01   -.763E-14 -.355E-14 0.874E+00   0.495E-20 0.431E-20 0.359E+00   0.418E-13 -.656E-13 0.190E-04
   0.480E-08 0.384E-08 -.123E+01   -.134E-13 -.355E-14 0.874E+00   -.971E-21 0.835E-20 0.359E+00   -.585E-13 -.596E-13 0.190E-04
   0.480E-08 0.384E-08 -.123E+01   -.205E-13 0.000E+00 0.874E+00   -.560E-20 0.117E-19 0.359E+00   0.583E-13 0.580E-13 0.190E-04
   -.307E-08 -.238E-08 0.123E+01   0.466E-14 0.162E-13 -.874E+00   0.425E-20 -.400E-20 -.359E+00   0.272E-13 0.180E-13 -.190E-04
   -.307E-08 -.238E-08 0.123E+01   -.888E-15 0.977E-14 -.874E+00   -.165E-20 0.829E-20 -.359E+00   -.397E-13 0.920E-14 -.190E-04
   -.307E-08 -.238E-08 0.123E+01   0.000E+00 0.977E-14 -.874E+00   0.534E-20 -.179E-19 -.359E+00   -.196E-13 -.795E-14 -.190E-04
   -.307E-08 -.238E-08 0.123E+01   -.107E-13 0.977E-14 -.874E+00   -.836E-20 0.133E-19 -.359E+00   0.388E-13 -.116E-13 -.190E-04
   -.307E-08 -.238E-08 0.123E+01   -.377E-14 0.173E-13 -.874E+00   0.263E-20 -.107E-19 -.359E+00   -.294E-13 0.409E-13 -.190E-04
   -.307E-08 -.238E-08 0.123E+01   -.160E-13 0.142E-13 -.874E+00   -.822E-20 0.163E-19 -.359E+00   0.630E-13 -.965E-14 -.190E-04
   -.307E-08 -.238E-08 0.123E+01   -.888E-14 0.182E-13 -.874E+00   0.511E-20 -.683E-20 -.359E+00   0.240E-13 -.284E-13 -.190E-04
   -.307E-08 -.238E-08 0.123E+01   -.107E-13 0.178E-13 -.874E+00   -.176E-20 0.147E-19 -.359E+00   -.276E-13 0.144E-13 -.190E-04
   0.480E-08 0.384E-08 -.123E+01   -.117E-13 0.542E-14 0.874E+00   0.253E-20 0.108E-19 0.359E+00   0.125E-12 0.311E-14 0.190E-04
   0.480E-08 0.384E-08 -.123E+01   -.133E-13 -.238E-14 0.874E+00   -.304E-22 -.830E-20 0.359E+00   -.121E-12 0.638E-13 0.190E-04
   0.480E-08 0.384E-08 -.123E+01   -.212E-13 0.185E-13 0.874E+00   -.365E-20 0.112E-19 0.359E+00   0.271E-13 -.304E-14 0.190E-04
   0.480E-08 0.384E-08 -.123E+01   -.141E-13 0.436E-14 0.874E+00   -.349E-20 -.133E-19 0.359E+00   -.138E-13 -.558E-13 0.190E-04
   0.480E-08 0.384E-08 -.123E+01   -.106E-13 -.304E-14 0.874E+00   -.429E-20 0.107E-19 0.359E+00   -.130E-12 -.243E-13 0.190E-04
   0.480E-08 0.384E-08 -.123E+01   -.196E-13 0.456E-16 0.874E+00   -.533E-20 -.162E-19 0.359E+00   0.135E-12 0.570E-13 0.190E-04
   0.480E-08 0.384E-08 -.123E+01   -.125E-13 0.988E-14 0.874E+00   0.333E-20 0.136E-19 0.359E+00   -.139E-13 0.259E-13 0.190E-04
   0.480E-08 0.384E-08 -.123E+01   -.178E-13 0.328E-14 0.874E+00   -.162E-20 -.793E-20 0.359E+00   0.179E-13 -.485E-13 0.190E-04
 -----------------------------------------------------------------------------------------------
   0.554E-07 0.469E-07 0.266E-04   0.357E-13 0.473E-13 -.389E-14   -.186E-19 0.475E-19 -.278E-14   -.228E-13 0.472E-13 0.109E-10
 
 
 POSITION                                       TOTAL-FORCE (eV/Angst)
 -----------------------------------------------------------------------------------
     -0.00000      0.00000     10.54966         0.000000     -0.000000     -0.000200
      0.00000      0.00000      5.27120         0.000000      0.000000     -0.000200
     -0.03959      5.27846     10.54966        -0.000000      0.000000     -0.000200
     -0.03959      5.27846      5.27120        -0.000000      0.000000     -0.000200
      5.19928     -0.03959     10.54966        -0.000000     -0.000000     -0.000200
      5.19928     -0.03959      5.27120         0.000000     -0.000000     -0.000200
      5.15969      5.23887     10.54966        -0.000000      0.000000     -0.000200
      5.15969      5.23887      5.27120         0.000000      0.000000     -0.000200
      3.86977      3.92915      1.32688         0.000000     -0.000000      0.000200
      3.86977      3.92915      6.60533        -0.000000     -0.000000      0.000200
      3.83018      9.20761      1.32688         0.000000      0.000000      0.000200
      3.83018      9.20761      6.60533        -0.000000     -0.000000      0.000200
      9.06905      3.88956      1.32688         0.000000     -0.000000      0.000200
      9.06905      3.88956      6.60533        -0.000000     -0.000000      0.000200
      9.02946      9.16802      1.32688         0.000000     -0.000000      0.000200
      9.02946      9.16802      6.60533         0.000000      0.000000      0.000200
     -0.01979      2.63923      2.63197        -0.000000     -0.000000     -0.000200
     -0.01979      2.63923      7.91043        -0.000000     -0.000000     -0.000200
     -0.05938      7.91769      2.63197        -0.000000     -0.000000     -0.000200
     -0.05938      7.91769      7.91043         0.000000     -0.000000     -0.000200
      5.17949      2.59964      2.63197        -0.000000      0.000000     -0.000200
      5.17949      2.59964      7.91043         0.000000     -0.000000     -0.000200
      5.13990      7.87810      2.63197        -0.000000     -0.000000     -0.000200
      5.13990      7.87810      7.91043        -0.000000      0.000000     -0.000200
      3.88956      1.28992      3.96611        -0.000000      0.000000      0.000200
      3.88956      1.28992      9.24456        -0.000000      0.000000      0.000200
      3.84998      6.56838      3.96611         0.000000     -0.000000      0.000200
      3.84998      6.56838      9.24456         0.000000     -0.000000      0.000200
      9.08885      1.25033      3.96611        -0.000000      0.000000      0.000200
      9.08885      1.25033      9.24456         0.000000      0.000000      0.000200
      9.04926      6.52879      3.96611         0.000000      0.000000      0.000200
      9.04926      6.52879      9.24456         0.000000     -0.000000      0.000200
      2.59964     -0.01979      2.63197        -0.000000     -0.000000     -0.000200
      2.59964     -0.01979      7.91043         0.000000     -0.000000     -0.000200
      2.56005      5.25866      2.63197         0.000000      0.000000     -0.000200
      2.56005      5.25866      7.91043         0.000000      0.000000     -0.000200
      7.79892     -0.05938      2.63197         0.000000     -0.000000     -0.000200
      7.79892     -0.05938      7.91043         0.000000     -0.000000     -0.000200
      7.75933      5.21908      2.63197        -0.000000      0.000000     -0.000200
      7.75933      5.21908      7.91043        -0.000000      0.000000     -0.000200
      1.27013      3.94895      3.96611        -0.000000     -0.000000      0.000200
      1.27013      3.94895      9.24456        -0.000000     -0.000000      0.000200
      1.23054      9.22741      3.96611         0.000000     -0.000000      0.000200
      1.23054      9.22741      9.24456        -0.000000     -0.000000      0.000200
      6.46941      3.90936      3.96611        -0.000000     -0.000000      0.000200
      6.46941      3.90936      9.24456         0.000000     -0.000000      0.000200
      6.42982      9.18782      3.96611        -0.000000      0.000000      0.000200
      6.42982      9.18782      9.24456        -0.000000     -0.000000      0.000200
      2.57985      2.61944     10.54966         0.000000     -0.000000     -0.000200
      2.57985      2.61944      5.27120         0.000000     -0.000000     -0.000200
      2.54026      7.89789     10.54966        -0.000000      0.000000     -0.000200
      2.54026      7.89789      5.27120         0.000000      0.000000     -0.000200
      7.77913      2.57985     10.54966         0.000000     -0.000000     -0.000200
      7.77913      2.57985      5.27120        -0.000000     -0.000000     -0.000200
      7.73954      7.85831     10.54966        -0.000000     -0.000000     -0.000200
      7.73954      7.85831      5.27120         0.000000     -0.000000     -0.000200
      1.28992      1.30972      1.32688         0.000000      0.000000      0.000200
      1.28992      1.30972      6.60533        -0.000000      0.000000      0.000200
      1.25033      6.58818      1.32688         0.000000     -0.000000      0.000200
      1.25033      6.58818      6.60533         0.000000     -0.000000      0.000200
      6.48921      1.27013      1.32688        -0.000000      0.000000      0.000200
      6.48921      1.27013      6.60533        -0.000000      0.000000      0.000200
      6.44962      6.54859      1.32688         0.000000      0.000000      0.000200
      6.44962      6.54859      6.60533         0.000000     -0.000000      0.000200
 -----------------------------------------------------------------------------------
    total drift:                                0.000000      0.000000      0.000027


--------------------------------------------------------------------------------------------------------



  FREE ENERGIE OF THE ION-ELECTRON SYSTEM (eV)
  ---------------------------------------------------
  free  energy   TOTEN  =      -363.16963992 eV

  energy  without entropy=     -363.18541517  energy(sigma->0) =     -363.17489833
 
 d Force = 0.1414585E-01[-0.481E-04, 0.283E-01]  d Energy = 0.1411479E-01 0.311E-04
 d Force =-0.1853698E+00[-0.210E+00,-0.161E+00]  d Ewald  =-0.1853679E+00-0.186E-05


--------------------------------------------------------------------------------------------------------


    POTLOK:  cpu time      0.1463: real time      0.1470


--------------------------------------------------------------------------------------------------------




--------------------------------------------------------------------------------------------------------


  
 reached required accuracy - stopping structural energy minimisation
     LOOP+:  cpu time     13.0337: real time     13.2386
    4ORBIT:  cpu time      0.0000: real time      0.0000

 total amount of memory used by VASP MPI-rank0    78510. kBytes
=======================================================================

   base      :      30000. kBytes
   nonlr-proj:       4896. kBytes
   fftplans  :      17991. kBytes
   grid      :       6881. kBytes
   one-center:         18. kBytes
   wavefun   :      18724. kBytes
 
  
  
 General timing and accounting informations for this job:
 ========================================================
  
                  Total CPU time used (sec):       59.868
                            User time (sec):       56.623
                          System time (sec):        3.245
                         Elapsed time (sec):       63.350
  
                   Maximum memory used (kb):      401388.
                   Average memory used (kb):          N/A
  
                          Minor page faults:        86811
                          Major page faults:            0
                 Voluntary context switches:         9115
