<?xml version="1.0" encoding="ISO-8859-1"?>
<modeling>
 <generator>
  <i name="program" type="string">vasp </i>
  <i name="version" type="string">6.4.3  </i>
  <i name="subversion" type="string">19Mar24 (build Oct 21 2024 22:36:34) complex                          parallel </i>
  <i name="platform" type="string">LinuxIFC </i>
  <i name="date" type="string">2024 11 01 </i>
  <i name="time" type="string">22:57:52 </i>
 </generator>
 <incar>
  <i type="string" name="SYSTEM">Si64</i>
  <i type="int" name="ISTART">     0</i>
  <i type="string" name="PREC">Accurate</i>
  <i type="string" name="ALGO">Fast</i>
  <i type="logical" name="ADDGRID"> T  </i>
  <i type="int" name="ICHARG">     2</i>
  <i type="int" name="NELM">    60</i>
  <i type="int" name="NELMIN">     8</i>
  <i type="int" name="IBRION">     2</i>
  <i name="EDIFF">      0.00000100</i>
  <i name="EDIFFG">     -0.01000000</i>
  <i type="int" name="NSW">    60</i>
  <i type="int" name="ISIF">     2</i>
  <i name="ENCUT">    400.00000000</i>
  <i type="string" name="LREAL">Auto</i>
  <i type="int" name="ISMEAR">     1</i>
  <i name="SIGMA">      0.20000000</i>
  <i type="logical" name="LWAVE"> F  </i>
  <i type="logical" name="LCHARG"> F  </i>
  <i type="logical" name="GGA_COMPAT"> F  </i>
  <i type="string" name="GGA">PS</i>
 </incar>
 <primitive_cell>
  <structure name="primitive_cell" >
   <crystal>
    <varray name="basis" >
     <v>      -2.59964088       0.01979425      -2.63922939 </v>
     <v>      -2.59964088       0.01979425       2.63922939 </v>
     <v>       2.57984663       2.61943514       0.00000000 </v>
    </varray>
    <i name="volume">     36.21369418 </i>
    <varray name="rec_basis" >
     <v>      -0.19090265       0.18801747      -0.18944924 </v>
     <v>      -0.19090265       0.18801747       0.18944924 </v>
     <v>       0.00288518       0.37892012      -0.00000000 </v>
    </varray>
   </crystal>
   <varray name="positions" >
    <v>       0.00000000       0.00000000       0.00000000 </v>
    <v>       0.75000000       0.25000000       0.50000000 </v>
   </varray>
  </structure>
  <varray name="primitive_index" >
   <v type="int" >        1 </v>
   <v type="int" >       15 </v>
  </varray>
 </primitive_cell>
 <kpoints>
  <generation param="Gamma">
   <v type="int" name="divisions">       2        2        2 </v>
   <v name="usershift">      0.00000000       0.00000000       0.00000000 </v>
   <v name="genvec1">      0.50000000       0.00000000       0.00000000 </v>
   <v name="genvec2">      0.00000000       0.50000000       0.00000000 </v>
   <v name="genvec3">      0.00000000       0.00000000       0.50000000 </v>
   <v name="shift">      0.00000000       0.00000000       0.00000000 </v>
  </generation>
  <varray name="kpointlist" >
   <v>       0.00000000       0.00000000       0.00000000 </v>
   <v>       0.50000000       0.00000000       0.00000000 </v>
   <v>       0.00000000       0.50000000       0.00000000 </v>
   <v>       0.50000000       0.50000000       0.00000000 </v>
   <v>       0.00000000       0.00000000       0.50000000 </v>
   <v>       0.50000000       0.00000000       0.50000000 </v>
   <v>       0.00000000       0.50000000       0.50000000 </v>
   <v>       0.50000000       0.50000000       0.50000000 </v>
  </varray>
  <varray name="weights" >
   <v>       0.12500000 </v>
   <v>       0.12500000 </v>
   <v>       0.12500000 </v>
   <v>       0.12500000 </v>
   <v>       0.12500000 </v>
   <v>       0.12500000 </v>
   <v>       0.12500000 </v>
   <v>       0.12500000 </v>
  </varray>
 </kpoints>
 <parameters>
  <separator name="general" >
   <i type="string" name="SYSTEM">Si64</i>
   <i type="logical" name="LCOMPAT"> F  </i>
  </separator>
  <separator name="electronic" >
   <i type="string" name="PREC">accura</i>
   <i name="ENMAX">    400.00000000</i>
   <i name="ENAUG">    322.06900000</i>
   <i name="EDIFF">      0.00000100</i>
   <i type="int" name="IALGO">    68</i>
   <i type="int" name="IWAVPR">    11</i>
   <i type="int" name="NBANDS">   162</i>
   <i type="int" name="NBANDSLOW">    -1</i>
   <i type="int" name="NBANDSHIGH">    -1</i>
   <i name="NELECT">    256.00000000</i>
   <i type="int" name="TURBO">     0</i>
   <i type="int" name="IRESTART">     0</i>
   <i type="int" name="NREBOOT">     0</i>
   <i type="int" name="NMIN">     0</i>
   <i name="EREF">      0.00000000</i>
   <separator name="electronic smearing" >
    <i type="int" name="ISMEAR">     1</i>
    <i name="SIGMA">      0.20000000</i>
    <i name="KSPACING">      0.50000000</i>
    <i type="logical" name="KGAMMA"> T  </i>
    <i type="logical" name="KBLOWUP"> T  </i>
   </separator>
   <separator name="electronic projectors" >
    <i type="logical" name="LREAL"> T  </i>
    <v name="ROPT">     -0.00025000</v>
    <i type="int" name="LMAXPAW">  -100</i>
    <i type="int" name="LMAXMIX">     2</i>
    <i type="logical" name="NLSPLINE"> F  </i>
   </separator>
   <separator name="electronic startup" >
    <i type="int" name="ISTART">     0</i>
    <i type="int" name="ICHARG">     2</i>
    <i type="int" name="INIWAV">     1</i>
   </separator>
   <separator name="electronic spin" >
    <i type="int" name="ISPIN">     1</i>
    <i type="logical" name="LNONCOLLINEAR"> F  </i>
    <v name="MAGMOM">      1.00000000      1.00000000      1.00000000      1.00000000      1.00000000      1.00000000      1.00000000      1.00000000      1.00000000      1.00000000      1.00000000      1.00000000      1.00000000      1.00000000      1.00000000      1.00000000      1.00000000      1.00000000      1.00000000      1.00000000
      1.00000000      1.00000000      1.00000000      1.00000000      1.00000000      1.00000000      1.00000000      1.00000000      1.00000000      1.00000000      1.00000000      1.00000000      1.00000000      1.00000000      1.00000000      1.00000000      1.00000000      1.00000000      1.00000000      1.00000000
      1.00000000      1.00000000      1.00000000      1.00000000      1.00000000      1.00000000      1.00000000      1.00000000      1.00000000      1.00000000      1.00000000      1.00000000      1.00000000      1.00000000      1.00000000      1.00000000      1.00000000      1.00000000      1.00000000      1.00000000
      1.00000000      1.00000000      1.00000000      1.00000000</v>
    <i name="NUPDOWN">     -1.00000000</i>
    <i type="logical" name="LSORBIT"> F  </i>
    <v name="SAXIS">      0.00000000      0.00000000      1.00000000</v>
    <i type="logical" name="LSPIRAL"> F  </i>
    <v name="QSPIRAL">      0.00000000      0.00000000      0.00000000</v>
    <i type="logical" name="LZEROZ"> F  </i>
   </separator>
   <separator name="electronic exchange-correlation" >
    <i type="logical" name="LASPH"> F  </i>
   </separator>
   <separator name="electronic convergence" >
    <i type="int" name="NELM">    60</i>
    <i type="int" name="NELMDL">    -5</i>
    <i type="int" name="NELMIN">     8</i>
    <i name="ENINI">    400.00000000</i>
    <separator name="electronic convergence detail" >
     <i type="logical" name="LDIAG"> T  </i>
     <i type="logical" name="LSUBROT"> F  </i>
     <i name="WEIMIN">      0.00100000</i>
     <i name="EBREAK">      0.00000000</i>
     <i name="DEPER">      0.30000000</i>
     <i type="int" name="NRMM">     4</i>
     <i name="TIME">      0.40000000</i>
    </separator>
   </separator>
   <separator name="electronic mixer" >
    <i name="AMIX">      0.40000000</i>
    <i name="BMIX">      1.00000000</i>
    <i name="AMIN">      0.10000000</i>
    <i name="AMIX_MAG">      1.60000000</i>
    <i name="BMIX_MAG">      1.00000000</i>
    <separator name="electronic mixer details" >
     <i type="int" name="IMIX">     4</i>
     <i type="logical" name="MIXFIRST"> F  </i>
     <i type="int" name="MAXMIX">   -45</i>
     <i name="WC">    100.00000000</i>
     <i type="int" name="INIMIX">     1</i>
     <i type="int" name="MIXPRE">     1</i>
     <i type="int" name="MREMOVE">     5</i>
    </separator>
   </separator>
   <separator name="electronic dipolcorrection" >
    <i type="logical" name="LDIPOL"> F  </i>
    <i type="logical" name="LMONO"> F  </i>
    <i type="int" name="IDIPOL">     0</i>
    <i name="EPSILON">      1.00000000</i>
    <v name="DIPOL">   -100.00000000   -100.00000000   -100.00000000</v>
    <i name="EFIELD">      0.00000000</i>
    <i type="logical" name="LVACPOTAV"> F  </i>
   </separator>
  </separator>
  <separator name="grids" >
   <i type="int" name="NGX">    70</i>
   <i type="int" name="NGY">    70</i>
   <i type="int" name="NGZ">    70</i>
   <i type="int" name="NGXF">   140</i>
   <i type="int" name="NGYF">   140</i>
   <i type="int" name="NGZF">   140</i>
   <i type="logical" name="ADDGRID"> T  </i>
  </separator>
  <separator name="ionic" >
   <i type="int" name="NSW">    60</i>
   <i type="int" name="IBRION">     2</i>
   <i type="int" name="MDALGO">     0</i>
   <i type="int" name="ISIF">     2</i>
   <i name="PSTRESS">      0.00000000</i>
   <i name="EDIFFG">     -0.01000000</i>
   <i type="int" name="NFREE">     1</i>
   <i name="POTIM">      0.50000000</i>
   <i name="SMASS">     -3.00000000</i>
   <i name="SCALEE">      1.00000000</i>
  </separator>
  <separator name="ionic md" >
   <i name="TEBEG">      0.00010000</i>
   <i name="TEEND">      0.00010000</i>
   <i type="int" name="NBLOCK">     1</i>
   <i type="int" name="KBLOCK">    60</i>
   <i type="int" name="NPACO">   256</i>
   <i name="APACO">     10.00000000</i>
  </separator>
  <separator name="symmetry" >
   <i type="int" name="ISYM">     2</i>
   <i name="SYMPREC">      0.00001000</i>
  </separator>
  <separator name="dos" >
   <i type="int" name="LORBIT">     0</i>
   <v name="RWIGS">     -1.00000000</v>
   <i type="int" name="NEDOS">   301</i>
   <i name="EMIN">     10.00000000</i>
   <i name="EMAX">    -10.00000000</i>
   <i name="EFERMI">      0.00000000</i>
  </separator>
  <separator name="writing" >
   <i type="int" name="NWRITE">     2</i>
   <i type="logical" name="LWAVE"> F  </i>
   <i type="logical" name="LDOWNSAMPLE"> F  </i>
   <i type="logical" name="LCHARG"> F  </i>
   <i type="logical" name="LPARD"> F  </i>
   <i type="logical" name="LVTOT"> F  </i>
   <i type="logical" name="LVHAR"> F  </i>
   <i type="logical" name="LELF"> F  </i>
   <i type="logical" name="LOPTICS"> F  </i>
   <v name="STM">      0.00000000      0.00000000      0.00000000      0.00000000      0.00000000      0.00000000      0.00000000</v>
  </separator>
  <separator name="performance" >
   <i type="int" name="NPAR">     2</i>
   <i type="int" name="NSIM">     4</i>
   <i type="int" name="NBLK">    -1</i>
   <i type="logical" name="LPLANE"> T  </i>
   <i type="logical" name="LSCALAPACK"> T  </i>
   <i type="logical" name="LSCAAWARE"> F  </i>
   <i type="logical" name="LSCALU"> F  </i>
   <i type="logical" name="LASYNC"> F  </i>
   <i type="logical" name="LORBITALREAL"> F  </i>
  </separator>
  <separator name="miscellaneous" >
   <i type="int" name="IDIOT">     3</i>
   <i type="int" name="PHON_NSTRUCT">    -1</i>
   <i type="logical" name="LMUSIC"> F  </i>
   <v name="POMASS">     28.08500000</v>
   <v name="DARWINR">      0.00000000</v>
   <v name="DARWINV">      1.00000000</v>
   <i type="logical" name="LCORR"> T  </i>
  </separator>
  <i type="logical" name="GGA_COMPAT"> F  </i>
  <i type="logical" name="LBERRY"> F  </i>
  <i type="int" name="ICORELEVEL">     0</i>
  <i type="logical" name="LDAU"> F  </i>
  <i type="int" name="I_CONSTRAINED_M">     0</i>
  <separator name="electronic exchange-correlation" >
   <i type="string" name="GGA    ">PS</i>
   <i type="string" name="XC_C">1</i>
   <i type="int" name="VOSKOWN">     0</i>
   <i type="logical" name="LHFCALC"> F  </i>
   <i type="string" name="PRECFOCK"></i>
   <i type="logical" name="LSYMGRAD"> F  </i>
   <i type="logical" name="LHFONE"> F  </i>
   <i type="logical" name="LRHFCALC"> F  </i>
   <i type="logical" name="LTHOMAS"> F  </i>
   <i type="logical" name="LMODELHF"> F  </i>
   <i type="logical" name="LFOCKACE"> F  </i>
   <i name="ENCUT4O">     -1.00000000</i>
   <i type="int" name="EXXOEP">     0</i>
   <i type="int" name="FOURORBIT">     0</i>
   <i name="AEXX">      0.00000000</i>
   <i name="HFALPHA">      0.00000000</i>
   <i name="MCALPHA">      0.00000000</i>
   <i name="ALDAX">      1.00000000</i>
   <i name="AGGAX">      1.00000000</i>
   <i name="AMGGAX">      1.00000000</i>
   <i name="ALDAC">      1.00000000</i>
   <i name="AGGAC">      1.00000000</i>
   <i name="AMGGAC">      1.00000000</i>
   <i type="int" name="NKREDX">     1</i>
   <i type="int" name="NKREDY">     1</i>
   <i type="int" name="NKREDZ">     1</i>
   <i type="logical" name="SHIFTRED"> F  </i>
   <i type="logical" name="ODDONLY"> F  </i>
   <i type="logical" name="EVENONLY"> F  </i>
   <i type="int" name="LMAXFOCK">     0</i>
   <i type="int" name="NMAXFOCKAE">     0</i>
   <i type="logical" name="LFOCKAEDFT"> F  </i>
   <i name="HFSCREEN">      0.00000000</i>
   <i name="HFSCREENC">      0.00000000</i>
   <i type="int" name="NBANDSGWLOW">     0</i>
  </separator>
  <separator name="vdW DFT" >
   <i type="logical" name="LUSE_VDW"> F  </i>
   <i type="int" name="IVDW_NL">    -1</i>
   <i type="logical" name="LSPIN_VDW"> F  </i>
   <i name="ZAB_VDW">     -0.84910000</i>
   <i name="GAMMA_VDW">      1.39626340</i>
   <i name="ALPHA_VDW">      0.00000000</i>
   <i name="PARAM1">      0.12340000</i>
   <i name="PARAM2">      1.00000000</i>
   <i name="BPARAM">      6.30000000</i>
   <i name="CPARAM">      0.00930000</i>
  </separator>
  <separator name="model GW" >
   <i type="int" name="MODEL_GW">     0</i>
   <i name="MODEL_EPS0">     10.86410825</i>
   <i name="MODEL_ALPHA">      1.00000000</i>
  </separator>
  <separator name="linear response parameters" >
   <i type="logical" name="LEPSILON"> F  </i>
   <i type="logical" name="LRPA"> F  </i>
   <i type="logical" name="LNABLA"> F  </i>
   <i type="logical" name="LVEL"> F  </i>
   <i name="CSHIFT">      0.10000000</i>
   <i name="OMEGAMAX">     -1.00000000</i>
   <i name="DEG_THRESHOLD">      0.00200000</i>
   <i name="RTIME">     -0.10000000</i>
   <i name="WPLASMAI">      0.00000000</i>
   <v name="DFIELD">      0.00000000      0.00000000      0.00000000</v>
   <v name="WPLASMA">      0.00000000      0.00000000      0.00000000      0.00000000      0.00000000      0.00000000      0.00000000      0.00000000      0.00000000</v>
  </separator>
  <separator name="orbital magnetization" >
   <i type="logical" name="NUCIND"> F  </i>
   <v name="MAGPOS">      0.00000000      0.00000000      0.00000000</v>
   <i type="logical" name="LNICSALL"> T  </i>
   <i type="logical" name="ORBITALMAG"> F  </i>
   <i type="logical" name="LMAGBLOCH"> F  </i>
   <i type="logical" name="LCHIMAG"> F  </i>
   <i type="logical" name="LGAUGE"> T  </i>
   <i type="int" name="MAGATOM">     0</i>
   <v name="MAGDIPOL">      0.00000000      0.00000000      0.00000000</v>
   <v name="AVECCONST">      0.00000000      0.00000000      0.00000000</v>
  </separator>
  <separator name="response functions" >
   <i type="logical" name="LALL_IN_ONE"> F  </i>
   <i type="int" name="IALL_IN_ONE">    -1</i>
   <i type="int" name="NBANDS_WAVE">    -1</i>
   <i type="logical" name="LFINITE_TEMPERATURE"> F  </i>
   <i type="logical" name="LADDER"> F  </i>
   <i type="logical" name="LRPAFORCE"> F  </i>
   <i type="logical" name="LFXC"> F  </i>
   <i type="logical" name="LHARTREE"> T  </i>
   <i type="int" name="IBSE">     0</i>
   <v type="int" name="KPOINT">    -1     0     0     0</v>
   <i type="logical" name="LTCTC"> F  </i>
   <i type="logical" name="LTCTE"> F  </i>
   <i type="logical" name="LTETE"> F  </i>
   <i type="logical" name="LTRIPLET"> F  </i>
   <i type="logical" name="LFXCEPS"> F  </i>
   <i type="logical" name="LFXHEG"> F  </i>
   <i type="int" name="NATURALO">     2</i>
   <i type="logical" name="LHOLEGF"> F  </i>
   <i type="logical" name="L2ORDER"> F  </i>
   <i type="logical" name="LDMP1"> F  </i>
   <i type="logical" name="LMP2LT"> F  </i>
   <i type="logical" name="LSMP2LT"> F  </i>
   <i type="logical" name="LGWLF"> F  </i>
   <i name="ENCUTGW">     -1.60000002</i>
   <i name="ENCUTGWSOFT">     -1.60000002</i>
   <i name="ENCUTLF">     -1.00000000</i>
   <i type="logical" name="ESF_SPLINES"> F  </i>
   <i name="ESF_CONV">      0.01000000</i>
   <i type="int" name="ESF_NINTER">    15</i>
   <i type="int" name="LMAXMP2">    -1</i>
   <i name="SCISSOR">      0.00000000</i>
   <i type="int" name="NOMEGA">     0</i>
   <i type="int" name="NOMEGAR">     0</i>
   <i type="int" name="NBANDSGW">    -1</i>
   <i type="int" name="NBANDSO">    -1</i>
   <i type="int" name="NBANDSV">    -1</i>
   <i type="int" name="NELMGW">     1</i>
   <i type="int" name="NELMHF">     1</i>
   <i type="int" name="DIM">     3</i>
   <i type="int" name="IESPILON">     4</i>
   <i type="int" name="ANTIRES">     0</i>
   <i name="OMEGAMAX">    -30.00000000</i>
   <i name="OMEGAMIN">    -30.00000000</i>
   <i name="OMEGATL">   -200.00000000</i>
   <i type="int" name="OMEGAGRID">     0</i>
   <i name="CSHIFT">     -0.10000000</i>
   <i type="logical" name="LSELFENERGY"> F  </i>
   <i type="logical" name="LSPECTRAL"> F  </i>
   <i type="logical" name="LSPECTRALGW"> F  </i>
   <i type="logical" name="LSINGLES"> F  </i>
   <i type="logical" name="LFERMIGW"> F  </i>
   <i type="logical" name="ODDONLYGW"> F  </i>
   <i type="logical" name="EVENONLYGW"> F  </i>
   <i type="int" name="NKREDLFX">     1</i>
   <i type="int" name="NKREDLFY">     1</i>
   <i type="int" name="NKREDLFZ">     1</i>
   <i type="int" name="MAXMEM">  2800</i>
   <i type="int" name="TELESCOPE">     0</i>
   <i type="int" name="NTAUPAR">    -1</i>
   <i type="int" name="NOMEGAPAR">    -1</i>
   <i name="DAMP_NEWTON">      0.80000001</i>
   <i name="LAMBDA">      1.00000000</i>
  </separator>
  <separator name="External order field" >
   <i name="OFIELD_KAPPA">      0.00000000</i>
   <v name="OFIELD_K">      0.00000000      0.00000000      0.00000000</v>
   <i name="OFIELD_Q6_NEAR">      0.00000000</i>
   <i name="OFIELD_Q6_FAR">      0.00000000</i>
   <i name="OFIELD_A">      0.00000000</i>
  </separator>
  <separator name="optional k-points parameters" >
   <i type="int" name="KPOINTS_OPT_MODE">     1</i>
   <i type="logical" name="LKPOINTS_OPT"> F  </i>
  </separator>
 </parameters>
 <atominfo>
  <atoms>      64 </atoms>
  <types>       1 </types>
  <array name="atoms" >
   <dimension dim="1">ion</dimension>
   <field type="string">element</field>
   <field type="int">atomtype</field>
   <set>
    <rc><c>Si</c><c>   1</c></rc>
    <rc><c>Si</c><c>   1</c></rc>
    <rc><c>Si</c><c>   1</c></rc>
    <rc><c>Si</c><c>   1</c></rc>
    <rc><c>Si</c><c>   1</c></rc>
    <rc><c>Si</c><c>   1</c></rc>
    <rc><c>Si</c><c>   1</c></rc>
    <rc><c>Si</c><c>   1</c></rc>
    <rc><c>Si</c><c>   1</c></rc>
    <rc><c>Si</c><c>   1</c></rc>
    <rc><c>Si</c><c>   1</c></rc>
    <rc><c>Si</c><c>   1</c></rc>
    <rc><c>Si</c><c>   1</c></rc>
    <rc><c>Si</c><c>   1</c></rc>
    <rc><c>Si</c><c>   1</c></rc>
    <rc><c>Si</c><c>   1</c></rc>
    <rc><c>Si</c><c>   1</c></rc>
    <rc><c>Si</c><c>   1</c></rc>
    <rc><c>Si</c><c>   1</c></rc>
    <rc><c>Si</c><c>   1</c></rc>
    <rc><c>Si</c><c>   1</c></rc>
    <rc><c>Si</c><c>   1</c></rc>
    <rc><c>Si</c><c>   1</c></rc>
    <rc><c>Si</c><c>   1</c></rc>
    <rc><c>Si</c><c>   1</c></rc>
    <rc><c>Si</c><c>   1</c></rc>
    <rc><c>Si</c><c>   1</c></rc>
    <rc><c>Si</c><c>   1</c></rc>
    <rc><c>Si</c><c>   1</c></rc>
    <rc><c>Si</c><c>   1</c></rc>
    <rc><c>Si</c><c>   1</c></rc>
    <rc><c>Si</c><c>   1</c></rc>
    <rc><c>Si</c><c>   1</c></rc>
    <rc><c>Si</c><c>   1</c></rc>
    <rc><c>Si</c><c>   1</c></rc>
    <rc><c>Si</c><c>   1</c></rc>
    <rc><c>Si</c><c>   1</c></rc>
    <rc><c>Si</c><c>   1</c></rc>
    <rc><c>Si</c><c>   1</c></rc>
    <rc><c>Si</c><c>   1</c></rc>
    <rc><c>Si</c><c>   1</c></rc>
    <rc><c>Si</c><c>   1</c></rc>
    <rc><c>Si</c><c>   1</c></rc>
    <rc><c>Si</c><c>   1</c></rc>
    <rc><c>Si</c><c>   1</c></rc>
    <rc><c>Si</c><c>   1</c></rc>
    <rc><c>Si</c><c>   1</c></rc>
    <rc><c>Si</c><c>   1</c></rc>
    <rc><c>Si</c><c>   1</c></rc>
    <rc><c>Si</c><c>   1</c></rc>
    <rc><c>Si</c><c>   1</c></rc>
    <rc><c>Si</c><c>   1</c></rc>
    <rc><c>Si</c><c>   1</c></rc>
    <rc><c>Si</c><c>   1</c></rc>
    <rc><c>Si</c><c>   1</c></rc>
    <rc><c>Si</c><c>   1</c></rc>
    <rc><c>Si</c><c>   1</c></rc>
    <rc><c>Si</c><c>   1</c></rc>
    <rc><c>Si</c><c>   1</c></rc>
    <rc><c>Si</c><c>   1</c></rc>
    <rc><c>Si</c><c>   1</c></rc>
    <rc><c>Si</c><c>   1</c></rc>
    <rc><c>Si</c><c>   1</c></rc>
    <rc><c>Si</c><c>   1</c></rc>
   </set>
  </array>
  <array name="atomtypes" >
   <dimension dim="1">type</dimension>
   <field type="int">atomspertype</field>
   <field type="string">element</field>
   <field>mass</field>
   <field>valence</field>
   <field type="string">pseudopotential</field>
   <set>
    <rc><c>  64</c><c>Si</c><c>     28.08500000</c><c>      4.00000000</c><c>  PAW_PBE Si 05Jan2001                  </c></rc>
   </set>
  </array>
 </atominfo>
 <structure name="initialpos" >
  <crystal>
   <varray name="basis" >
    <v>      10.39856354      -0.07917701       0.00000000 </v>
    <v>      -0.07917701      10.55691756       0.00000000 </v>
    <v>       0.00000000       0.00000000      10.55691756 </v>
   </varray>
   <i name="volume">   1158.83821371 </i>
   <varray name="rec_basis" >
    <v>       0.09617262       0.00072130       0.00000000 </v>
    <v>       0.00072130       0.09473003       0.00000000 </v>
    <v>       0.00000000       0.00000000       0.09472462 </v>
   </varray>
  </crystal>
  <varray name="positions" >
   <v>       0.00000000       0.00000000       0.00000000 </v>
   <v>       0.00000000       0.00000000       0.50000000 </v>
   <v>       0.00000000       0.50000000       0.00000000 </v>
   <v>       0.00000000       0.50000000       0.50000000 </v>
   <v>       0.50000000       0.00000000       0.00000000 </v>
   <v>       0.50000000       0.00000000       0.50000000 </v>
   <v>       0.50000000       0.50000000       0.00000000 </v>
   <v>       0.50000000       0.50000000       0.50000000 </v>
   <v>       0.37500000       0.37500000       0.12500000 </v>
   <v>       0.37500000       0.37500000       0.62500000 </v>
   <v>       0.37500000       0.87500000       0.12500000 </v>
   <v>       0.37500000       0.87500000       0.62500000 </v>
   <v>       0.87500000       0.37500000       0.12500000 </v>
   <v>       0.87500000       0.37500000       0.62500000 </v>
   <v>       0.87500000       0.87500000       0.12500000 </v>
   <v>       0.87500000       0.87500000       0.62500000 </v>
   <v>       0.00000000       0.25000000       0.25000000 </v>
   <v>       0.00000000       0.25000000       0.75000000 </v>
   <v>       0.00000000       0.75000000       0.25000000 </v>
   <v>       0.00000000       0.75000000       0.75000000 </v>
   <v>       0.50000000       0.25000000       0.25000000 </v>
   <v>       0.50000000       0.25000000       0.75000000 </v>
   <v>       0.50000000       0.75000000       0.25000000 </v>
   <v>       0.50000000       0.75000000       0.75000000 </v>
   <v>       0.37500000       0.12500000       0.37500000 </v>
   <v>       0.37500000       0.12500000       0.87500000 </v>
   <v>       0.37500000       0.62500000       0.37500000 </v>
   <v>       0.37500000       0.62500000       0.87500000 </v>
   <v>       0.87500000       0.12500000       0.37500000 </v>
   <v>       0.87500000       0.12500000       0.87500000 </v>
   <v>       0.87500000       0.62500000       0.37500000 </v>
   <v>       0.87500000       0.62500000       0.87500000 </v>
   <v>       0.25000000       0.00000000       0.25000000 </v>
   <v>       0.25000000       0.00000000       0.75000000 </v>
   <v>       0.25000000       0.50000000       0.25000000 </v>
   <v>       0.25000000       0.50000000       0.75000000 </v>
   <v>       0.75000000       0.00000000       0.25000000 </v>
   <v>       0.75000000       0.00000000       0.75000000 </v>
   <v>       0.75000000       0.50000000       0.25000000 </v>
   <v>       0.75000000       0.50000000       0.75000000 </v>
   <v>       0.12500000       0.37500000       0.37500000 </v>
   <v>       0.12500000       0.37500000       0.87500000 </v>
   <v>       0.12500000       0.87500000       0.37500000 </v>
   <v>       0.12500000       0.87500000       0.87500000 </v>
   <v>       0.62500000       0.37500000       0.37500000 </v>
   <v>       0.62500000       0.37500000       0.87500000 </v>
   <v>       0.62500000       0.87500000       0.37500000 </v>
   <v>       0.62500000       0.87500000       0.87500000 </v>
   <v>       0.25000000       0.25000000       0.00000000 </v>
   <v>       0.25000000       0.25000000       0.50000000 </v>
   <v>       0.25000000       0.75000000       0.00000000 </v>
   <v>       0.25000000       0.75000000       0.50000000 </v>
   <v>       0.75000000       0.25000000       0.00000000 </v>
   <v>       0.75000000       0.25000000       0.50000000 </v>
   <v>       0.75000000       0.75000000       0.00000000 </v>
   <v>       0.75000000       0.75000000       0.50000000 </v>
   <v>       0.12500000       0.12500000       0.12500000 </v>
   <v>       0.12500000       0.12500000       0.62500000 </v>
   <v>       0.12500000       0.62500000       0.12500000 </v>
   <v>       0.12500000       0.62500000       0.62500000 </v>
   <v>       0.62500000       0.12500000       0.12500000 </v>
   <v>       0.62500000       0.12500000       0.62500000 </v>
   <v>       0.62500000       0.62500000       0.12500000 </v>
   <v>       0.62500000       0.62500000       0.62500000 </v>
  </varray>
 </structure>
 <calculation>
  <scstep>
   <time name="dav">    1.23    1.28</time>
   <time name="total">    1.39    1.45</time>
   <energy>
    <i name="alphaZ">    118.98484372 </i>
    <i name="ewald">  -7562.10029060 </i>
    <i name="hartreedc">   -305.67186691 </i>
    <i name="XCdc">   -546.51400995 </i>
    <i name="pawpsdc">   5598.62625415 </i>
    <i name="pawaedc">  -4492.17844134 </i>
    <i name="eentropy">     -0.00685044 </i>
    <i name="bandstr">   1205.63313829 </i>
    <i name="atom">   6564.79586099 </i>
    <i name="e_fr_energy">    581.56863791 </i>
    <i name="e_wo_entrp">    581.57548835 </i>
    <i name="e_0_energy">    581.57092139 </i>
   </energy>
  </scstep>
  <scstep>
   <time name="dav">    1.36    1.37</time>
   <time name="total">    1.37    1.37</time>
   <energy>
    <i name="e_fr_energy">   -307.01336283 </i>
    <i name="e_wo_entrp">   -307.03198908 </i>
    <i name="e_0_energy">   -307.01957158 </i>
   </energy>
  </scstep>
  <scstep>
   <time name="dav">    1.34    1.36</time>
   <time name="total">    1.35    1.36</time>
   <energy>
    <i name="e_fr_energy">   -370.87656425 </i>
    <i name="e_wo_entrp">   -370.88494772 </i>
    <i name="e_0_energy">   -370.87935874 </i>
   </energy>
  </scstep>
  <scstep>
   <time name="dav">    1.32    1.33</time>
   <time name="total">    1.32    1.33</time>
   <energy>
    <i name="e_fr_energy">   -372.47363262 </i>
    <i name="e_wo_entrp">   -372.48213581 </i>
    <i name="e_0_energy">   -372.47646702 </i>
   </energy>
  </scstep>
  <scstep>
   <time name="dav">    1.35    1.39</time>
   <time name="total">    1.61    1.65</time>
   <energy>
    <i name="e_fr_energy">   -372.52347114 </i>
    <i name="e_wo_entrp">   -372.53197631 </i>
    <i name="e_0_energy">   -372.52630620 </i>
   </energy>
  </scstep>
  <scstep>
   <time name="diag">    0.13    0.14</time>
   <time name="diis">    0.70    0.70</time>
   <time name="orth">    0.02    0.02</time>
   <time name="total">    1.25    1.27</time>
   <energy>
    <i name="e_fr_energy">   -365.87738471 </i>
    <i name="e_wo_entrp">   -365.90409008 </i>
    <i name="e_0_energy">   -365.88628650 </i>
   </energy>
  </scstep>
  <scstep>
   <time name="diag">    0.13    0.13</time>
   <time name="diis">    0.70    0.71</time>
   <time name="orth">    0.02    0.02</time>
   <time name="total">    1.25    1.27</time>
   <energy>
    <i name="e_fr_energy">   -363.06672248 </i>
    <i name="e_wo_entrp">   -363.08130349 </i>
    <i name="e_0_energy">   -363.07158281 </i>
   </energy>
  </scstep>
  <scstep>
   <time name="diag">    0.13    0.13</time>
   <time name="diis">    0.70    0.70</time>
   <time name="orth">    0.02    0.02</time>
   <time name="total">    1.26    1.28</time>
   <energy>
    <i name="e_fr_energy">   -363.09180718 </i>
    <i name="e_wo_entrp">   -363.11202270 </i>
    <i name="e_0_energy">   -363.09854569 </i>
   </energy>
  </scstep>
  <scstep>
   <time name="diag">    0.13    0.13</time>
   <time name="diis">    0.72    0.72</time>
   <time name="orth">    0.02    0.02</time>
   <time name="total">    1.28    1.29</time>
   <energy>
    <i name="e_fr_energy">   -363.11692462 </i>
    <i name="e_wo_entrp">   -363.13544745 </i>
    <i name="e_0_energy">   -363.12309890 </i>
   </energy>
  </scstep>
  <scstep>
   <time name="diag">    0.13    0.13</time>
   <time name="diis">    0.72    0.72</time>
   <time name="orth">    0.02    0.02</time>
   <time name="total">    1.28    1.30</time>
   <energy>
    <i name="e_fr_energy">   -363.12273502 </i>
    <i name="e_wo_entrp">   -363.14105440 </i>
    <i name="e_0_energy">   -363.12884148 </i>
   </energy>
  </scstep>
  <scstep>
   <time name="diag">    0.13    0.13</time>
   <time name="diis">    0.69    0.69</time>
   <time name="orth">    0.02    0.02</time>
   <time name="total">    1.24    1.27</time>
   <energy>
    <i name="e_fr_energy">   -363.11613219 </i>
    <i name="e_wo_entrp">   -363.13627653 </i>
    <i name="e_0_energy">   -363.12284697 </i>
   </energy>
  </scstep>
  <scstep>
   <time name="diag">    0.13    0.13</time>
   <time name="diis">    0.70    0.70</time>
   <time name="orth">    0.02    0.02</time>
   <time name="total">    1.25    1.27</time>
   <energy>
    <i name="e_fr_energy">   -363.11635303 </i>
    <i name="e_wo_entrp">   -363.13652128 </i>
    <i name="e_0_energy">   -363.12307578 </i>
   </energy>
  </scstep>
  <scstep>
   <time name="diag">    0.13    0.13</time>
   <time name="diis">    0.74    0.74</time>
   <time name="orth">    0.02    0.02</time>
   <time name="total">    1.29    1.31</time>
   <energy>
    <i name="e_fr_energy">   -363.11642344 </i>
    <i name="e_wo_entrp">   -363.13659316 </i>
    <i name="e_0_energy">   -363.12314668 </i>
   </energy>
  </scstep>
  <scstep>
   <time name="diag">    0.14    0.14</time>
   <time name="diis">    0.70    0.71</time>
   <time name="orth">    0.02    0.02</time>
   <time name="total">    1.25    1.28</time>
   <energy>
    <i name="e_fr_energy">   -363.11641272 </i>
    <i name="e_wo_entrp">   -363.13658924 </i>
    <i name="e_0_energy">   -363.12313823 </i>
   </energy>
  </scstep>
  <scstep>
   <time name="diag">    0.13    0.13</time>
   <time name="diis">    0.71    0.71</time>
   <time name="orth">    0.02    0.02</time>
   <time name="total">    1.27    1.28</time>
   <energy>
    <i name="e_fr_energy">   -363.11644930 </i>
    <i name="e_wo_entrp">   -363.13667778 </i>
    <i name="e_0_energy">   -363.12319213 </i>
   </energy>
  </scstep>
  <scstep>
   <time name="diag">    0.13    0.13</time>
   <time name="diis">    0.69    0.69</time>
   <time name="orth">    0.02    0.02</time>
   <time name="total">    1.24    1.26</time>
   <energy>
    <i name="e_fr_energy">   -363.11646698 </i>
    <i name="e_wo_entrp">   -363.13670692 </i>
    <i name="e_0_energy">   -363.12321363 </i>
   </energy>
  </scstep>
  <scstep>
   <time name="diag">    0.13    0.13</time>
   <time name="diis">    0.69    0.69</time>
   <time name="orth">    0.02    0.02</time>
   <time name="total">    1.24    1.26</time>
   <energy>
    <i name="e_fr_energy">   -363.11647657 </i>
    <i name="e_wo_entrp">   -363.13672225 </i>
    <i name="e_0_energy">   -363.12322513 </i>
   </energy>
  </scstep>
  <scstep>
   <time name="diag">    0.13    0.13</time>
   <time name="diis">    0.46    0.46</time>
   <time name="orth">    0.02    0.02</time>
   <time name="total">    1.01    1.03</time>
   <energy>
    <i name="e_fr_energy">   -363.11647516 </i>
    <i name="e_wo_entrp">   -363.13672871 </i>
    <i name="e_0_energy">   -363.12322634 </i>
   </energy>
  </scstep>
  <scstep>
   <time name="diag">    0.13    0.13</time>
   <time name="diis">    0.45    0.45</time>
   <time name="orth">    0.02    0.02</time>
   <time name="total">    0.75    0.77</time>
   <energy>
    <i name="alphaZ">    118.98484372 </i>
    <i name="ewald">  -7562.10029060 </i>
    <i name="hartreedc">   -431.21082912 </i>
    <i name="XCdc">   -525.09914588 </i>
    <i name="pawpsdc">  34575.08350214 </i>
    <i name="pawaedc"> -33478.22620560 </i>
    <i name="eentropy">      0.02025370 </i>
    <i name="bandstr">    374.63553545 </i>
    <i name="atom">   6564.79586099 </i>
    <i name="e_fr_energy">   -363.11647520 </i>
    <i name="e_wo_entrp">   -363.13672890 </i>
    <i name="e_0_energy">   -363.12322644 </i>
   </energy>
  </scstep>
  <structure>
   <crystal>
    <varray name="basis" >
     <v>      10.39856354      -0.07917701       0.00000000 </v>
     <v>      -0.07917701      10.55691756       0.00000000 </v>
     <v>       0.00000000       0.00000000      10.55691756 </v>
    </varray>
    <i name="volume">   1158.83821371 </i>
    <varray name="rec_basis" >
     <v>       0.09617262       0.00072130       0.00000000 </v>
     <v>       0.00072130       0.09473003       0.00000000 </v>
     <v>       0.00000000       0.00000000       0.09472462 </v>
    </varray>
   </crystal>
   <varray name="positions" >
    <v>       0.00000000       0.00000000       0.00000000 </v>
    <v>       0.00000000       0.00000000       0.50000000 </v>
    <v>       0.00000000       0.50000000       0.00000000 </v>
    <v>       0.00000000       0.50000000       0.50000000 </v>
    <v>       0.50000000       0.00000000       0.00000000 </v>
    <v>       0.50000000       0.00000000       0.50000000 </v>
    <v>       0.50000000       0.50000000       0.00000000 </v>
    <v>       0.50000000       0.50000000       0.50000000 </v>
    <v>       0.37500000       0.37500000       0.12500000 </v>
    <v>       0.37500000       0.37500000       0.62500000 </v>
    <v>       0.37500000       0.87500000       0.12500000 </v>
    <v>       0.37500000       0.87500000       0.62500000 </v>
    <v>       0.87500000       0.37500000       0.12500000 </v>
    <v>       0.87500000       0.37500000       0.62500000 </v>
    <v>       0.87500000       0.87500000       0.12500000 </v>
    <v>       0.87500000       0.87500000       0.62500000 </v>
    <v>       0.00000000       0.25000000       0.25000000 </v>
    <v>       0.00000000       0.25000000       0.75000000 </v>
    <v>       0.00000000       0.75000000       0.25000000 </v>
    <v>       0.00000000       0.75000000       0.75000000 </v>
    <v>       0.50000000       0.25000000       0.25000000 </v>
    <v>       0.50000000       0.25000000       0.75000000 </v>
    <v>       0.50000000       0.75000000       0.25000000 </v>
    <v>       0.50000000       0.75000000       0.75000000 </v>
    <v>       0.37500000       0.12500000       0.37500000 </v>
    <v>       0.37500000       0.12500000       0.87500000 </v>
    <v>       0.37500000       0.62500000       0.37500000 </v>
    <v>       0.37500000       0.62500000       0.87500000 </v>
    <v>       0.87500000       0.12500000       0.37500000 </v>
    <v>       0.87500000       0.12500000       0.87500000 </v>
    <v>       0.87500000       0.62500000       0.37500000 </v>
    <v>       0.87500000       0.62500000       0.87500000 </v>
    <v>       0.25000000       0.00000000       0.25000000 </v>
    <v>       0.25000000       0.00000000       0.75000000 </v>
    <v>       0.25000000       0.50000000       0.25000000 </v>
    <v>       0.25000000       0.50000000       0.75000000 </v>
    <v>       0.75000000       0.00000000       0.25000000 </v>
    <v>       0.75000000       0.00000000       0.75000000 </v>
    <v>       0.75000000       0.50000000       0.25000000 </v>
    <v>       0.75000000       0.50000000       0.75000000 </v>
    <v>       0.12500000       0.37500000       0.37500000 </v>
    <v>       0.12500000       0.37500000       0.87500000 </v>
    <v>       0.12500000       0.87500000       0.37500000 </v>
    <v>       0.12500000       0.87500000       0.87500000 </v>
    <v>       0.62500000       0.37500000       0.37500000 </v>
    <v>       0.62500000       0.37500000       0.87500000 </v>
    <v>       0.62500000       0.87500000       0.37500000 </v>
    <v>       0.62500000       0.87500000       0.87500000 </v>
    <v>       0.25000000       0.25000000       0.00000000 </v>
    <v>       0.25000000       0.25000000       0.50000000 </v>
    <v>       0.25000000       0.75000000       0.00000000 </v>
    <v>       0.25000000       0.75000000       0.50000000 </v>
    <v>       0.75000000       0.25000000       0.00000000 </v>
    <v>       0.75000000       0.25000000       0.50000000 </v>
    <v>       0.75000000       0.75000000       0.00000000 </v>
    <v>       0.75000000       0.75000000       0.50000000 </v>
    <v>       0.12500000       0.12500000       0.12500000 </v>
    <v>       0.12500000       0.12500000       0.62500000 </v>
    <v>       0.12500000       0.62500000       0.12500000 </v>
    <v>       0.12500000       0.62500000       0.62500000 </v>
    <v>       0.62500000       0.12500000       0.12500000 </v>
    <v>       0.62500000       0.12500000       0.62500000 </v>
    <v>       0.62500000       0.62500000       0.12500000 </v>
    <v>       0.62500000       0.62500000       0.62500000 </v>
   </varray>
  </structure>
  <varray name="forces" >
   <v>      -0.00000000       0.00000000      -0.22830671 </v>
   <v>      -0.00000000      -0.00000000      -0.22830671 </v>
   <v>       0.00000000       0.00000000      -0.22830671 </v>
   <v>       0.00000000       0.00000000      -0.22830671 </v>
   <v>      -0.00000000       0.00000000      -0.22830671 </v>
   <v>      -0.00000000       0.00000000      -0.22830671 </v>
   <v>       0.00000000       0.00000000      -0.22830671 </v>
   <v>       0.00000000       0.00000000      -0.22830671 </v>
   <v>       0.00000000      -0.00000000       0.22830671 </v>
   <v>      -0.00000000       0.00000000       0.22830671 </v>
   <v>       0.00000000      -0.00000000       0.22830671 </v>
   <v>       0.00000000      -0.00000000       0.22830671 </v>
   <v>      -0.00000000      -0.00000000       0.22830671 </v>
   <v>      -0.00000000      -0.00000000       0.22830671 </v>
   <v>      -0.00000000      -0.00000000       0.22830671 </v>
   <v>       0.00000000      -0.00000000       0.22830671 </v>
   <v>      -0.00000000      -0.00000000      -0.22830671 </v>
   <v>      -0.00000000      -0.00000000      -0.22830671 </v>
   <v>       0.00000000       0.00000000      -0.22830671 </v>
   <v>       0.00000000      -0.00000000      -0.22830671 </v>
   <v>       0.00000000       0.00000000      -0.22830671 </v>
   <v>       0.00000000       0.00000000      -0.22830671 </v>
   <v>       0.00000000       0.00000000      -0.22830671 </v>
   <v>       0.00000000      -0.00000000      -0.22830671 </v>
   <v>       0.00000000       0.00000000       0.22830671 </v>
   <v>       0.00000000       0.00000000       0.22830671 </v>
   <v>      -0.00000000      -0.00000000       0.22830671 </v>
   <v>      -0.00000000      -0.00000000       0.22830671 </v>
   <v>       0.00000000       0.00000000       0.22830671 </v>
   <v>       0.00000000       0.00000000       0.22830671 </v>
   <v>      -0.00000000      -0.00000000       0.22830671 </v>
   <v>      -0.00000000      -0.00000000       0.22830671 </v>
   <v>      -0.00000000       0.00000000      -0.22830671 </v>
   <v>      -0.00000000       0.00000000      -0.22830671 </v>
   <v>       0.00000000      -0.00000000      -0.22830671 </v>
   <v>       0.00000000       0.00000000      -0.22830671 </v>
   <v>      -0.00000000       0.00000000      -0.22830671 </v>
   <v>      -0.00000000      -0.00000000      -0.22830671 </v>
   <v>       0.00000000       0.00000000      -0.22830671 </v>
   <v>       0.00000000       0.00000000      -0.22830671 </v>
   <v>      -0.00000000      -0.00000000       0.22830671 </v>
   <v>      -0.00000000       0.00000000       0.22830671 </v>
   <v>      -0.00000000      -0.00000000       0.22830671 </v>
   <v>      -0.00000000      -0.00000000       0.22830671 </v>
   <v>      -0.00000000      -0.00000000       0.22830671 </v>
   <v>      -0.00000000       0.00000000       0.22830671 </v>
   <v>       0.00000000      -0.00000000       0.22830671 </v>
   <v>       0.00000000      -0.00000000       0.22830671 </v>
   <v>      -0.00000000       0.00000000      -0.22830671 </v>
   <v>      -0.00000000      -0.00000000      -0.22830671 </v>
   <v>       0.00000000      -0.00000000      -0.22830671 </v>
   <v>       0.00000000       0.00000000      -0.22830671 </v>
   <v>      -0.00000000      -0.00000000      -0.22830671 </v>
   <v>      -0.00000000      -0.00000000      -0.22830671 </v>
   <v>       0.00000000      -0.00000000      -0.22830671 </v>
   <v>      -0.00000000      -0.00000000      -0.22830671 </v>
   <v>       0.00000000       0.00000000       0.22830671 </v>
   <v>       0.00000000       0.00000000       0.22830671 </v>
   <v>      -0.00000000      -0.00000000       0.22830671 </v>
   <v>      -0.00000000      -0.00000000       0.22830671 </v>
   <v>       0.00000000       0.00000000       0.22830671 </v>
   <v>       0.00000000       0.00000000       0.22830671 </v>
   <v>      -0.00000000      -0.00000000       0.22830671 </v>
   <v>      -0.00000000       0.00000000       0.22830671 </v>
  </varray>
  <varray name="stress" >
   <v>     127.82271818      20.50922106       0.00000000 </v>
   <v>      20.50922094     116.85769715       0.00000000 </v>
   <v>       0.00000000       0.00000000     116.68328149 </v>
  </varray>
  <energy>
   <i name="e_fr_energy">   -363.11647520 </i>
   <i name="e_wo_entrp">   -363.13672890 </i>
   <i name="e_0_energy">   -363.12322644 </i>
  </energy>
  <time name="totalsc">   27.61   28.03</time>
 </calculation>
 <calculation>
  <scstep>
   <time name="dav">    1.24    1.25</time>
   <time name="total">    1.63    1.65</time>
   <energy>
    <i name="alphaZ">    118.98484372 </i>
    <i name="ewald">  -7562.78368679 </i>
    <i name="hartreedc">   -430.85092119 </i>
    <i name="XCdc">   -525.11314887 </i>
    <i name="pawpsdc">  34581.04682426 </i>
    <i name="pawaedc"> -33484.18924054 </i>
    <i name="eentropy">      0.01210268 </i>
    <i name="bandstr">    374.95231913 </i>
    <i name="atom">   6564.79586099 </i>
    <i name="e_fr_energy">   -363.14504661 </i>
    <i name="e_wo_entrp">   -363.15714928 </i>
    <i name="e_0_energy">   -363.14908083 </i>
   </energy>
  </scstep>
  <scstep>
   <time name="diag">    0.13    0.13</time>
   <time name="diis">    0.70    0.70</time>
   <time name="orth">    0.02    0.02</time>
   <time name="total">    1.25    1.26</time>
   <energy>
    <i name="e_fr_energy">   -363.15488860 </i>
    <i name="e_wo_entrp">   -363.16710474 </i>
    <i name="e_0_energy">   -363.15896065 </i>
   </energy>
  </scstep>
  <scstep>
   <time name="diag">    0.13    0.13</time>
   <time name="diis">    0.73    0.73</time>
   <time name="orth">    0.02    0.02</time>
   <time name="total">    1.29    1.31</time>
   <energy>
    <i name="e_fr_energy">   -363.15558201 </i>
    <i name="e_wo_entrp">   -363.16812154 </i>
    <i name="e_0_energy">   -363.15976185 </i>
   </energy>
  </scstep>
  <scstep>
   <time name="diag">    0.13    0.13</time>
   <time name="diis">    0.70    0.71</time>
   <time name="orth">    0.02    0.02</time>
   <time name="total">    1.27    1.28</time>
   <energy>
    <i name="e_fr_energy">   -363.15549632 </i>
    <i name="e_wo_entrp">   -363.16824754 </i>
    <i name="e_0_energy">   -363.15974673 </i>
   </energy>
  </scstep>
  <scstep>
   <time name="diag">    0.14    0.14</time>
   <time name="diis">    0.72    0.72</time>
   <time name="orth">    0.02    0.02</time>
   <time name="total">    1.27    1.29</time>
   <energy>
    <i name="e_fr_energy">   -363.15551499 </i>
    <i name="e_wo_entrp">   -363.16833489 </i>
    <i name="e_0_energy">   -363.15978829 </i>
   </energy>
  </scstep>
  <scstep>
   <time name="diag">    0.13    0.13</time>
   <time name="diis">    0.76    0.77</time>
   <time name="orth">    0.02    0.02</time>
   <time name="total">    1.31    1.33</time>
   <energy>
    <i name="e_fr_energy">   -363.15552374 </i>
    <i name="e_wo_entrp">   -363.16833931 </i>
    <i name="e_0_energy">   -363.15979560 </i>
   </energy>
  </scstep>
  <scstep>
   <time name="diag">    0.13    0.13</time>
   <time name="diis">    0.62    0.63</time>
   <time name="orth">    0.02    0.02</time>
   <time name="total">    1.16    1.19</time>
   <energy>
    <i name="e_fr_energy">   -363.15552497 </i>
    <i name="e_wo_entrp">   -363.16833933 </i>
    <i name="e_0_energy">   -363.15979642 </i>
   </energy>
  </scstep>
  <scstep>
   <time name="diag">    0.13    0.13</time>
   <time name="diis">    0.49    0.49</time>
   <time name="orth">    0.02    0.02</time>
   <time name="total">    0.80    0.82</time>
   <energy>
    <i name="alphaZ">    118.98484372 </i>
    <i name="ewald">  -7562.78368679 </i>
    <i name="hartreedc">   -430.56902514 </i>
    <i name="XCdc">   -525.15263583 </i>
    <i name="pawpsdc">  34538.16789121 </i>
    <i name="pawaedc"> -33441.28937984 </i>
    <i name="eentropy">      0.01281430 </i>
    <i name="bandstr">    374.67779226 </i>
    <i name="atom">   6564.79586099 </i>
    <i name="e_fr_energy">   -363.15552512 </i>
    <i name="e_wo_entrp">   -363.16833942 </i>
    <i name="e_0_energy">   -363.15979656 </i>
   </energy>
  </scstep>
  <structure>
   <crystal>
    <varray name="basis" >
     <v>      10.39856354      -0.07917701       0.00000000 </v>
     <v>      -0.07917701      10.55691756       0.00000000 </v>
     <v>       0.00000000       0.00000000      10.55691756 </v>
    </varray>
    <i name="volume">   1158.83821371 </i>
    <varray name="rec_basis" >
     <v>       0.09617262       0.00072130       0.00000000 </v>
     <v>       0.00072130       0.09473003       0.00000000 </v>
     <v>       0.00000000       0.00000000       0.09472462 </v>
    </varray>
   </crystal>
   <varray name="positions" >
    <v>       1.00000000       0.00000000       0.99895669 </v>
    <v>       1.00000000       1.00000000       0.49895669 </v>
    <v>       0.00000000       0.50000000       0.99895669 </v>
    <v>       0.00000000       0.50000000       0.49895669 </v>
    <v>       0.50000000       0.00000000       0.99895669 </v>
    <v>       0.50000000       0.00000000       0.49895669 </v>
    <v>       0.50000000       0.50000000       0.99895669 </v>
    <v>       0.50000000       0.50000000       0.49895669 </v>
    <v>       0.37500000       0.37500000       0.12604331 </v>
    <v>       0.37500000       0.37500000       0.62604331 </v>
    <v>       0.37500000       0.87500000       0.12604331 </v>
    <v>       0.37500000       0.87500000       0.62604331 </v>
    <v>       0.87500000       0.37500000       0.12604331 </v>
    <v>       0.87500000       0.37500000       0.62604331 </v>
    <v>       0.87500000       0.87500000       0.12604331 </v>
    <v>       0.87500000       0.87500000       0.62604331 </v>
    <v>       1.00000000       0.25000000       0.24895669 </v>
    <v>       1.00000000       0.25000000       0.74895669 </v>
    <v>       0.00000000       0.75000000       0.24895669 </v>
    <v>       0.00000000       0.75000000       0.74895669 </v>
    <v>       0.50000000       0.25000000       0.24895669 </v>
    <v>       0.50000000       0.25000000       0.74895669 </v>
    <v>       0.50000000       0.75000000       0.24895669 </v>
    <v>       0.50000000       0.75000000       0.74895669 </v>
    <v>       0.37500000       0.12500000       0.37604331 </v>
    <v>       0.37500000       0.12500000       0.87604331 </v>
    <v>       0.37500000       0.62500000       0.37604331 </v>
    <v>       0.37500000       0.62500000       0.87604331 </v>
    <v>       0.87500000       0.12500000       0.37604331 </v>
    <v>       0.87500000       0.12500000       0.87604331 </v>
    <v>       0.87500000       0.62500000       0.37604331 </v>
    <v>       0.87500000       0.62500000       0.87604331 </v>
    <v>       0.25000000       0.00000000       0.24895669 </v>
    <v>       0.25000000       0.00000000       0.74895669 </v>
    <v>       0.25000000       0.50000000       0.24895669 </v>
    <v>       0.25000000       0.50000000       0.74895669 </v>
    <v>       0.75000000       0.00000000       0.24895669 </v>
    <v>       0.75000000       1.00000000       0.74895669 </v>
    <v>       0.75000000       0.50000000       0.24895669 </v>
    <v>       0.75000000       0.50000000       0.74895669 </v>
    <v>       0.12500000       0.37500000       0.37604331 </v>
    <v>       0.12500000       0.37500000       0.87604331 </v>
    <v>       0.12500000       0.87500000       0.37604331 </v>
    <v>       0.12500000       0.87500000       0.87604331 </v>
    <v>       0.62500000       0.37500000       0.37604331 </v>
    <v>       0.62500000       0.37500000       0.87604331 </v>
    <v>       0.62500000       0.87500000       0.37604331 </v>
    <v>       0.62500000       0.87500000       0.87604331 </v>
    <v>       0.25000000       0.25000000       0.99895669 </v>
    <v>       0.25000000       0.25000000       0.49895669 </v>
    <v>       0.25000000       0.75000000       0.99895669 </v>
    <v>       0.25000000       0.75000000       0.49895669 </v>
    <v>       0.75000000       0.25000000       0.99895669 </v>
    <v>       0.75000000       0.25000000       0.49895669 </v>
    <v>       0.75000000       0.75000000       0.99895669 </v>
    <v>       0.75000000       0.75000000       0.49895669 </v>
    <v>       0.12500000       0.12500000       0.12604331 </v>
    <v>       0.12500000       0.12500000       0.62604331 </v>
    <v>       0.12500000       0.62500000       0.12604331 </v>
    <v>       0.12500000       0.62500000       0.62604331 </v>
    <v>       0.62500000       0.12500000       0.12604331 </v>
    <v>       0.62500000       0.12500000       0.62604331 </v>
    <v>       0.62500000       0.62500000       0.12604331 </v>
    <v>       0.62500000       0.62500000       0.62604331 </v>
   </varray>
  </structure>
  <varray name="forces" >
   <v>      -0.00000000      -0.00000000       0.11799395 </v>
   <v>      -0.00000000       0.00000000       0.11799395 </v>
   <v>       0.00000000      -0.00000000       0.11799395 </v>
   <v>       0.00000000      -0.00000000       0.11799395 </v>
   <v>      -0.00000000       0.00000000       0.11799395 </v>
   <v>      -0.00000000       0.00000000       0.11799395 </v>
   <v>       0.00000000      -0.00000000       0.11799395 </v>
   <v>       0.00000000      -0.00000000       0.11799395 </v>
   <v>      -0.00000000       0.00000000      -0.11799395 </v>
   <v>       0.00000000       0.00000000      -0.11799395 </v>
   <v>      -0.00000000      -0.00000000      -0.11799395 </v>
   <v>      -0.00000000      -0.00000000      -0.11799395 </v>
   <v>       0.00000000       0.00000000      -0.11799395 </v>
   <v>       0.00000000       0.00000000      -0.11799395 </v>
   <v>      -0.00000000       0.00000000      -0.11799395 </v>
   <v>      -0.00000000      -0.00000000      -0.11799395 </v>
   <v>       0.00000000       0.00000000       0.11799395 </v>
   <v>       0.00000000       0.00000000       0.11799395 </v>
   <v>      -0.00000000      -0.00000000       0.11799395 </v>
   <v>      -0.00000000       0.00000000       0.11799395 </v>
   <v>       0.00000000       0.00000000       0.11799395 </v>
   <v>       0.00000000       0.00000000       0.11799395 </v>
   <v>      -0.00000000       0.00000000       0.11799395 </v>
   <v>       0.00000000       0.00000000       0.11799395 </v>
   <v>      -0.00000000      -0.00000000      -0.11799395 </v>
   <v>      -0.00000000      -0.00000000      -0.11799395 </v>
   <v>       0.00000000       0.00000000      -0.11799395 </v>
   <v>       0.00000000       0.00000000      -0.11799395 </v>
   <v>      -0.00000000      -0.00000000      -0.11799395 </v>
   <v>      -0.00000000      -0.00000000      -0.11799395 </v>
   <v>       0.00000000       0.00000000      -0.11799395 </v>
   <v>       0.00000000       0.00000000      -0.11799395 </v>
   <v>      -0.00000000       0.00000000       0.11799395 </v>
   <v>      -0.00000000       0.00000000       0.11799395 </v>
   <v>       0.00000000      -0.00000000       0.11799395 </v>
   <v>       0.00000000      -0.00000000       0.11799395 </v>
   <v>      -0.00000000       0.00000000       0.11799395 </v>
   <v>      -0.00000000       0.00000000       0.11799395 </v>
   <v>       0.00000000      -0.00000000       0.11799395 </v>
   <v>       0.00000000      -0.00000000       0.11799395 </v>
   <v>       0.00000000       0.00000000      -0.11799395 </v>
   <v>       0.00000000       0.00000000      -0.11799395 </v>
   <v>       0.00000000       0.00000000      -0.11799395 </v>
   <v>       0.00000000       0.00000000      -0.11799395 </v>
   <v>       0.00000000       0.00000000      -0.11799395 </v>
   <v>       0.00000000       0.00000000      -0.11799395 </v>
   <v>      -0.00000000      -0.00000000      -0.11799395 </v>
   <v>      -0.00000000      -0.00000000      -0.11799395 </v>
   <v>       0.00000000       0.00000000       0.11799395 </v>
   <v>      -0.00000000       0.00000000       0.11799395 </v>
   <v>      -0.00000000       0.00000000       0.11799395 </v>
   <v>       0.00000000       0.00000000       0.11799395 </v>
   <v>       0.00000000       0.00000000       0.11799395 </v>
   <v>      -0.00000000      -0.00000000       0.11799395 </v>
   <v>       0.00000000       0.00000000       0.11799395 </v>
   <v>      -0.00000000      -0.00000000       0.11799395 </v>
   <v>      -0.00000000      -0.00000000      -0.11799395 </v>
   <v>      -0.00000000      -0.00000000      -0.11799395 </v>
   <v>       0.00000000       0.00000000      -0.11799395 </v>
   <v>       0.00000000       0.00000000      -0.11799395 </v>
   <v>      -0.00000000      -0.00000000      -0.11799395 </v>
   <v>      -0.00000000      -0.00000000      -0.11799395 </v>
   <v>       0.00000000       0.00000000      -0.11799395 </v>
   <v>       0.00000000       0.00000000      -0.11799395 </v>
  </varray>
  <varray name="stress" >
   <v>     127.03303504       5.60423791       0.00000000 </v>
   <v>       5.60423775     116.37951151       0.00000000 </v>
   <v>       0.00000000       0.00000000     115.85856989 </v>
  </varray>
  <energy>
   <i name="e_fr_energy">   -363.15552512 </i>
   <i name="e_wo_entrp">   -363.16833942 </i>
   <i name="e_0_energy">   -363.15979656 </i>
  </energy>
  <time name="totalsc">   13.68   13.87</time>
 </calculation>
 <calculation>
  <scstep>
   <time name="dav">    1.24    1.24</time>
   <time name="total">    1.63    1.63</time>
   <energy>
    <i name="alphaZ">    118.98484372 </i>
    <i name="ewald">  -7562.59831888 </i>
    <i name="hartreedc">   -430.68120057 </i>
    <i name="XCdc">   -525.14720790 </i>
    <i name="pawpsdc">  34537.35058957 </i>
    <i name="pawaedc"> -33440.47201394 </i>
    <i name="eentropy">      0.01605229 </i>
    <i name="bandstr">    374.58293509 </i>
    <i name="atom">   6564.79586099 </i>
    <i name="e_fr_energy">   -363.16845962 </i>
    <i name="e_wo_entrp">   -363.18451192 </i>
    <i name="e_0_energy">   -363.17381039 </i>
   </energy>
  </scstep>
  <scstep>
   <time name="diag">    0.13    0.13</time>
   <time name="diis">    0.70    0.70</time>
   <time name="orth">    0.02    0.02</time>
   <time name="total">    1.24    1.26</time>
   <energy>
    <i name="e_fr_energy">   -363.16956841 </i>
    <i name="e_wo_entrp">   -363.18556699 </i>
    <i name="e_0_energy">   -363.17490127 </i>
   </energy>
  </scstep>
  <scstep>
   <time name="diag">    0.13    0.13</time>
   <time name="diis">    0.71    0.71</time>
   <time name="orth">    0.02    0.02</time>
   <time name="total">    1.25    1.28</time>
   <energy>
    <i name="e_fr_energy">   -363.16964496 </i>
    <i name="e_wo_entrp">   -363.18551670 </i>
    <i name="e_0_energy">   -363.17493554 </i>
   </energy>
  </scstep>
  <scstep>
   <time name="diag">    0.13    0.13</time>
   <time name="diis">    0.72    0.72</time>
   <time name="orth">    0.02    0.02</time>
   <time name="total">    1.26    1.29</time>
   <energy>
    <i name="e_fr_energy">   -363.16963690 </i>
    <i name="e_wo_entrp">   -363.18543381 </i>
    <i name="e_0_energy">   -363.17490253 </i>
   </energy>
  </scstep>
  <scstep>
   <time name="diag">    0.13    0.13</time>
   <time name="diis">    0.71    0.71</time>
   <time name="orth">    0.02    0.02</time>
   <time name="total">    1.25    1.27</time>
   <energy>
    <i name="e_fr_energy">   -363.16963881 </i>
    <i name="e_wo_entrp">   -363.18541171 </i>
    <i name="e_0_energy">   -363.17489644 </i>
   </energy>
  </scstep>
  <scstep>
   <time name="diag">    0.13    0.13</time>
   <time name="diis">    0.60    0.60</time>
   <time name="orth">    0.02    0.02</time>
   <time name="total">    1.14    1.16</time>
   <energy>
    <i name="e_fr_energy">   -363.16963971 </i>
    <i name="e_wo_entrp">   -363.18541408 </i>
    <i name="e_0_energy">   -363.17489783 </i>
   </energy>
  </scstep>
  <scstep>
   <time name="diag">    0.13    0.13</time>
   <time name="diis">    0.47    0.47</time>
   <time name="orth">    0.02    0.02</time>
   <time name="total">    1.01    1.04</time>
   <energy>
    <i name="e_fr_energy">   -363.16963985 </i>
    <i name="e_wo_entrp">   -363.18541525 </i>
    <i name="e_0_energy">   -363.17489832 </i>
   </energy>
  </scstep>
  <scstep>
   <time name="diag">    0.13    0.13</time>
   <time name="diis">    0.43    0.44</time>
   <time name="orth">    0.02    0.02</time>
   <time name="total">    0.74    0.76</time>
   <energy>
    <i name="alphaZ">    118.98484372 </i>
    <i name="ewald">  -7562.59831888 </i>
    <i name="hartreedc">   -430.80623540 </i>
    <i name="XCdc">   -525.13118511 </i>
    <i name="pawpsdc">  34551.96475381 </i>
    <i name="pawaedc"> -33455.09306841 </i>
    <i name="eentropy">      0.01577525 </i>
    <i name="bandstr">    374.69793410 </i>
    <i name="atom">   6564.79586099 </i>
    <i name="e_fr_energy">   -363.16963992 </i>
    <i name="e_wo_entrp">   -363.18541517 </i>
    <i name="e_0_energy">   -363.17489833 </i>
   </energy>
  </scstep>
  <structure>
   <crystal>
    <varray name="basis" >
     <v>      10.39856354      -0.07917701       0.00000000 </v>
     <v>      -0.07917701      10.55691756       0.00000000 </v>
     <v>       0.00000000       0.00000000      10.55691756 </v>
    </varray>
    <i name="volume">   1158.83821371 </i>
    <varray name="rec_basis" >
     <v>       0.09617262       0.00072130       0.00000000 </v>
     <v>       0.00072130       0.09473003       0.00000000 </v>
     <v>       0.00000000       0.00000000       0.09472462 </v>
    </varray>
   </crystal>
   <varray name="positions" >
    <v>       0.00000000       0.00000000       0.99931217 </v>
    <v>       0.00000000       0.00000000       0.49931217 </v>
    <v>       0.00000000       0.50000000       0.99931217 </v>
    <v>       0.00000000       0.50000000       0.49931217 </v>
    <v>       0.50000000       0.00000000       0.99931217 </v>
    <v>       0.50000000       0.00000000       0.49931217 </v>
    <v>       0.50000000       0.50000000       0.99931217 </v>
    <v>       0.50000000       0.50000000       0.49931217 </v>
    <v>       0.37500000       0.37500000       0.12568783 </v>
    <v>       0.37500000       0.37500000       0.62568783 </v>
    <v>       0.37500000       0.87500000       0.12568783 </v>
    <v>       0.37500000       0.87500000       0.62568783 </v>
    <v>       0.87500000       0.37500000       0.12568783 </v>
    <v>       0.87500000       0.37500000       0.62568783 </v>
    <v>       0.87500000       0.87500000       0.12568783 </v>
    <v>       0.87500000       0.87500000       0.62568783 </v>
    <v>       0.00000000       0.25000000       0.24931217 </v>
    <v>       0.00000000       0.25000000       0.74931217 </v>
    <v>       0.00000000       0.75000000       0.24931217 </v>
    <v>       0.00000000       0.75000000       0.74931217 </v>
    <v>       0.50000000       0.25000000       0.24931217 </v>
    <v>       0.50000000       0.25000000       0.74931217 </v>
    <v>       0.50000000       0.75000000       0.24931217 </v>
    <v>       0.50000000       0.75000000       0.74931217 </v>
    <v>       0.37500000       0.12500000       0.37568783 </v>
    <v>       0.37500000       0.12500000       0.87568783 </v>
    <v>       0.37500000       0.62500000       0.37568783 </v>
    <v>       0.37500000       0.62500000       0.87568783 </v>
    <v>       0.87500000       0.12500000       0.37568783 </v>
    <v>       0.87500000       0.12500000       0.87568783 </v>
    <v>       0.87500000       0.62500000       0.37568783 </v>
    <v>       0.87500000       0.62500000       0.87568783 </v>
    <v>       0.25000000       0.00000000       0.24931217 </v>
    <v>       0.25000000       0.00000000       0.74931217 </v>
    <v>       0.25000000       0.50000000       0.24931217 </v>
    <v>       0.25000000       0.50000000       0.74931217 </v>
    <v>       0.75000000       0.00000000       0.24931217 </v>
    <v>       0.75000000       0.00000000       0.74931217 </v>
    <v>       0.75000000       0.50000000       0.24931217 </v>
    <v>       0.75000000       0.50000000       0.74931217 </v>
    <v>       0.12500000       0.37500000       0.37568783 </v>
    <v>       0.12500000       0.37500000       0.87568783 </v>
    <v>       0.12500000       0.87500000       0.37568783 </v>
    <v>       0.12500000       0.87500000       0.87568783 </v>
    <v>       0.62500000       0.37500000       0.37568783 </v>
    <v>       0.62500000       0.37500000       0.87568783 </v>
    <v>       0.62500000       0.87500000       0.37568783 </v>
    <v>       0.62500000       0.87500000       0.87568783 </v>
    <v>       0.25000000       0.25000000       0.99931217 </v>
    <v>       0.25000000       0.25000000       0.49931217 </v>
    <v>       0.25000000       0.75000000       0.99931217 </v>
    <v>       0.25000000       0.75000000       0.49931217 </v>
    <v>       0.75000000       0.25000000       0.99931217 </v>
    <v>       0.75000000       0.25000000       0.49931217 </v>
    <v>       0.75000000       0.75000000       0.99931217 </v>
    <v>       0.75000000       0.75000000       0.49931217 </v>
    <v>       0.12500000       0.12500000       0.12568783 </v>
    <v>       0.12500000       0.12500000       0.62568783 </v>
    <v>       0.12500000       0.62500000       0.12568783 </v>
    <v>       0.12500000       0.62500000       0.62568783 </v>
    <v>       0.62500000       0.12500000       0.12568783 </v>
    <v>       0.62500000       0.12500000       0.62568783 </v>
    <v>       0.62500000       0.62500000       0.12568783 </v>
    <v>       0.62500000       0.62500000       0.62568783 </v>
   </varray>
  </structure>
  <varray name="forces" >
   <v>       0.00000000      -0.00000000      -0.00020006 </v>
   <v>       0.00000000       0.00000000      -0.00020006 </v>
   <v>      -0.00000000       0.00000000      -0.00020006 </v>
   <v>      -0.00000000       0.00000000      -0.00020006 </v>
   <v>      -0.00000000      -0.00000000      -0.00020006 </v>
   <v>       0.00000000      -0.00000000      -0.00020006 </v>
   <v>      -0.00000000       0.00000000      -0.00020006 </v>
   <v>       0.00000000       0.00000000      -0.00020006 </v>
   <v>       0.00000000      -0.00000000       0.00020006 </v>
   <v>      -0.00000000      -0.00000000       0.00020006 </v>
   <v>       0.00000000       0.00000000       0.00020006 </v>
   <v>      -0.00000000      -0.00000000       0.00020006 </v>
   <v>       0.00000000      -0.00000000       0.00020006 </v>
   <v>      -0.00000000      -0.00000000       0.00020006 </v>
   <v>       0.00000000      -0.00000000       0.00020006 </v>
   <v>       0.00000000       0.00000000       0.00020006 </v>
   <v>      -0.00000000      -0.00000000      -0.00020006 </v>
   <v>      -0.00000000      -0.00000000      -0.00020006 </v>
   <v>      -0.00000000      -0.00000000      -0.00020006 </v>
   <v>       0.00000000      -0.00000000      -0.00020006 </v>
   <v>      -0.00000000       0.00000000      -0.00020006 </v>
   <v>       0.00000000      -0.00000000      -0.00020006 </v>
   <v>      -0.00000000      -0.00000000      -0.00020006 </v>
   <v>      -0.00000000       0.00000000      -0.00020006 </v>
   <v>      -0.00000000       0.00000000       0.00020006 </v>
   <v>      -0.00000000       0.00000000       0.00020006 </v>
   <v>       0.00000000      -0.00000000       0.00020006 </v>
   <v>       0.00000000      -0.00000000       0.00020006 </v>
   <v>      -0.00000000       0.00000000       0.00020006 </v>
   <v>       0.00000000       0.00000000       0.00020006 </v>
   <v>       0.00000000       0.00000000       0.00020006 </v>
   <v>       0.00000000      -0.00000000       0.00020006 </v>
   <v>      -0.00000000      -0.00000000      -0.00020006 </v>
   <v>       0.00000000      -0.00000000      -0.00020006 </v>
   <v>       0.00000000       0.00000000      -0.00020006 </v>
   <v>       0.00000000       0.00000000      -0.00020006 </v>
   <v>       0.00000000      -0.00000000      -0.00020006 </v>
   <v>       0.00000000      -0.00000000      -0.00020006 </v>
   <v>      -0.00000000       0.00000000      -0.00020006 </v>
   <v>      -0.00000000       0.00000000      -0.00020006 </v>
   <v>      -0.00000000      -0.00000000       0.00020006 </v>
   <v>      -0.00000000      -0.00000000       0.00020006 </v>
   <v>       0.00000000      -0.00000000       0.00020006 </v>
   <v>      -0.00000000      -0.00000000       0.00020006 </v>
   <v>      -0.00000000      -0.00000000       0.00020006 </v>
   <v>       0.00000000      -0.00000000       0.00020006 </v>
   <v>      -0.00000000       0.00000000       0.00020006 </v>
   <v>      -0.00000000      -0.00000000       0.00020006 </v>
   <v>       0.00000000      -0.00000000      -0.00020006 </v>
   <v>       0.00000000      -0.00000000      -0.00020006 </v>
   <v>      -0.00000000       0.00000000      -0.00020006 </v>
   <v>       0.00000000       0.00000000      -0.00020006 </v>
   <v>       0.00000000      -0.00000000      -0.00020006 </v>
   <v>      -0.00000000      -0.00000000      -0.00020006 </v>
   <v>      -0.00000000      -0.00000000      -0.00020006 </v>
   <v>       0.00000000      -0.00000000      -0.00020006 </v>
   <v>       0.00000000       0.00000000       0.00020006 </v>
   <v>      -0.00000000       0.00000000       0.00020006 </v>
   <v>       0.00000000      -0.00000000       0.00020006 </v>
   <v>       0.00000000      -0.00000000       0.00020006 </v>
   <v>      -0.00000000       0.00000000       0.00020006 </v>
   <v>      -0.00000000       0.00000000       0.00020006 </v>
   <v>       0.00000000       0.00000000       0.00020006 </v>
   <v>       0.00000000      -0.00000000       0.00020006 </v>
  </varray>
  <varray name="stress" >
   <v>     127.25250426      10.69629116       0.00000000 </v>
   <v>      10.69629097     116.46558197       0.00000000 </v>
   <v>       0.00000000       0.00000000     116.17094034 </v>
  </varray>
  <energy>
   <i name="e_fr_energy">   -363.16963992 </i>
   <i name="e_wo_entrp">   -363.18541517 </i>
   <i name="e_0_energy">   -363.17489833 </i>
  </energy>
  <time name="totalsc">   13.03   13.24</time>
  <eigenvalues>
   <array>
    <dimension dim="1">band</dimension>
    <dimension dim="2">kpoint</dimension>
    <dimension dim="3">spin</dimension>
    <field>eigene</field>
    <field>occ</field>
    <set>
     <set comment="spin 1">
      <set comment="kpoint 1">
       <r>   -5.8580    1.0000 </r>
       <r>   -4.6856    1.0000 </r>
       <r>   -4.6856    1.0000 </r>
       <r>   -4.6853    1.0000 </r>
       <r>   -4.6853    1.0000 </r>
       <r>   -4.6539    1.0000 </r>
       <r>   -4.6539    1.0000 </r>
       <r>   -3.6350    1.0000 </r>
       <r>   -3.6350    1.0000 </r>
       <r>   -3.6208    1.0000 </r>
       <r>   -3.6208    1.0000 </r>
       <r>   -3.6208    1.0000 </r>
       <r>   -3.6208    1.0000 </r>
       <r>   -3.5975    1.0000 </r>
       <r>   -3.5975    1.0000 </r>
       <r>   -3.5975    1.0000 </r>
       <r>   -3.5975    1.0000 </r>
       <r>   -3.5594    1.0000 </r>
       <r>   -3.5594    1.0000 </r>
       <r>   -3.2779    1.0000 </r>
       <r>   -3.2779    1.0000 </r>
       <r>   -3.2002    1.0000 </r>
       <r>   -3.2002    1.0000 </r>
       <r>   -1.3707    1.0000 </r>
       <r>   -1.3524    1.0000 </r>
       <r>   -1.3524    1.0000 </r>
       <r>   -1.3368    1.0000 </r>
       <r>   -1.2491    1.0000 </r>
       <r>   -1.2491    1.0000 </r>
       <r>   -1.1576    1.0000 </r>
       <r>   -1.1576    1.0000 </r>
       <r>   -1.1228    1.0000 </r>
       <r>   -1.1228    1.0000 </r>
       <r>   -1.0849    1.0000 </r>
       <r>   -1.0849    1.0000 </r>
       <r>   -1.0849    1.0000 </r>
       <r>   -1.0849    1.0000 </r>
       <r>   -1.0804    1.0000 </r>
       <r>   -1.0804    1.0000 </r>
       <r>   -1.0486    1.0000 </r>
       <r>   -1.0486    1.0000 </r>
       <r>   -0.6917    1.0000 </r>
       <r>   -0.6917    1.0000 </r>
       <r>   -0.6431    1.0000 </r>
       <r>   -0.6431    1.0000 </r>
       <r>    1.1193    1.0000 </r>
       <r>    1.1193    1.0000 </r>
       <r>    1.1382    1.0000 </r>
       <r>    1.1382    1.0000 </r>
       <r>    1.1382    1.0000 </r>
       <r>    1.1382    1.0000 </r>
       <r>    1.1595    1.0000 </r>
       <r>    1.1595    1.0000 </r>
       <r>    1.2017    1.0000 </r>
       <r>    1.2017    1.0000 </r>
       <r>    1.2017    1.0000 </r>
       <r>    1.2017    1.0000 </r>
       <r>    2.4701    1.0000 </r>
       <r>    2.4701    1.0000 </r>
       <r>    2.4809    1.0000 </r>
       <r>    2.4809    1.0000 </r>
       <r>    2.5047    1.0000 </r>
       <r>    2.5047    1.0000 </r>
       <r>    2.5047    1.0000 </r>
       <r>    2.5047    1.0000 </r>
       <r>    2.5148    1.0000 </r>
       <r>    2.5148    1.0000 </r>
       <r>    2.5290    1.0000 </r>
       <r>    2.5290    1.0000 </r>
       <r>    2.6042    1.0000 </r>
       <r>    2.6042    1.0000 </r>
       <r>    2.6218    1.0000 </r>
       <r>    2.6218    1.0000 </r>
       <r>    2.6218    1.0000 </r>
       <r>    2.6218    1.0000 </r>
       <r>    2.6337    1.0000 </r>
       <r>    2.6337    1.0000 </r>
       <r>    2.7145    1.0000 </r>
       <r>    2.7145    1.0000 </r>
       <r>    2.7145    1.0000 </r>
       <r>    2.7145    1.0000 </r>
       <r>    3.3037    1.0000 </r>
       <r>    3.3037    1.0000 </r>
       <r>    3.3060    1.0000 </r>
       <r>    3.3060    1.0000 </r>
       <r>    3.4253    1.0000 </r>
       <r>    3.4253    1.0000 </r>
       <r>    3.6256    1.0000 </r>
       <r>    3.6256    1.0000 </r>
       <r>    3.6369    1.0000 </r>
       <r>    3.7531    1.0000 </r>
       <r>    3.7531    1.0000 </r>
       <r>    3.8718    1.0000 </r>
       <r>    4.6743    1.0000 </r>
       <r>    4.6743    1.0000 </r>
       <r>    4.6884    1.0000 </r>
       <r>    4.6884    1.0000 </r>
       <r>    4.6902    1.0000 </r>
       <r>    4.6902    1.0000 </r>
       <r>    4.7701    1.0000 </r>
       <r>    4.7701    1.0000 </r>
       <r>    4.8050    1.0000 </r>
       <r>    4.8050    1.0000 </r>
       <r>    4.9029    1.0000 </r>
       <r>    4.9029    1.0000 </r>
       <r>    5.3165    1.0000 </r>
       <r>    5.3165    1.0000 </r>
       <r>    5.3165    1.0000 </r>
       <r>    5.3165    1.0000 </r>
       <r>    5.3623    1.0000 </r>
       <r>    5.3623    1.0000 </r>
       <r>    5.4475    1.0000 </r>
       <r>    5.4475    1.0000 </r>
       <r>    5.4475    1.0000 </r>
       <r>    5.4475    1.0000 </r>
       <r>    5.4485    1.0000 </r>
       <r>    5.4485    1.0000 </r>
       <r>    5.5128    1.0000 </r>
       <r>    5.5128    1.0000 </r>
       <r>    5.5368    1.0000 </r>
       <r>    5.5368    1.0000 </r>
       <r>    5.5873    1.0000 </r>
       <r>    5.5873    1.0000 </r>
       <r>    5.7191    1.0000 </r>
       <r>    5.7191    1.0000 </r>
       <r>    6.7644    1.0354 </r>
       <r>    6.8203    1.0172 </r>
       <r>    6.9916    0.5674 </r>
       <r>    7.1441    0.0463 </r>
       <r>    7.1441    0.0463 </r>
       <r>    7.1464    0.0421 </r>
       <r>    7.2725   -0.0341 </r>
       <r>    7.2725   -0.0341 </r>
       <r>    7.4002   -0.0090 </r>
       <r>    7.7042   -0.0000 </r>
       <r>    7.7042   -0.0000 </r>
       <r>    7.8251   -0.0000 </r>
       <r>    7.8251   -0.0000 </r>
       <r>    7.8294   -0.0000 </r>
       <r>    7.8294   -0.0000 </r>
       <r>    8.5902   -0.0000 </r>
       <r>    8.5902   -0.0000 </r>
       <r>    8.7418   -0.0000 </r>
       <r>    8.7418   -0.0000 </r>
       <r>    9.1511   -0.0000 </r>
       <r>    9.1511   -0.0000 </r>
       <r>    9.1511   -0.0000 </r>
       <r>    9.1511   -0.0000 </r>
       <r>    9.2131   -0.0000 </r>
       <r>    9.2131   -0.0000 </r>
       <r>    9.3003   -0.0000 </r>
       <r>    9.3003   -0.0000 </r>
       <r>    9.3003   -0.0000 </r>
       <r>    9.3003   -0.0000 </r>
       <r>    9.3117   -0.0000 </r>
       <r>    9.3891   -0.0000 </r>
       <r>    9.3891   -0.0000 </r>
       <r>    9.4134   -0.0000 </r>
       <r>    9.4935   -0.0000 </r>
       <r>    9.8000   -0.0000 </r>
       <r>    9.8047   -0.0000 </r>
       <r>    9.8105   -0.0000 </r>
      </set>
      <set comment="kpoint 2">
       <r>   -5.5543    1.0000 </r>
       <r>   -5.5543    1.0000 </r>
       <r>   -4.4254    1.0000 </r>
       <r>   -4.4254    1.0000 </r>
       <r>   -4.4060    1.0000 </r>
       <r>   -4.4060    1.0000 </r>
       <r>   -4.4060    1.0000 </r>
       <r>   -4.4060    1.0000 </r>
       <r>   -4.3860    1.0000 </r>
       <r>   -4.3860    1.0000 </r>
       <r>   -3.4771    1.0000 </r>
       <r>   -3.4771    1.0000 </r>
       <r>   -3.4771    1.0000 </r>
       <r>   -3.4771    1.0000 </r>
       <r>   -3.4299    1.0000 </r>
       <r>   -3.4299    1.0000 </r>
       <r>   -3.4299    1.0000 </r>
       <r>   -3.4299    1.0000 </r>
       <r>   -3.1930    1.0000 </r>
       <r>   -3.1930    1.0000 </r>
       <r>   -2.4337    1.0000 </r>
       <r>   -2.4337    1.0000 </r>
       <r>   -2.3850    1.0000 </r>
       <r>   -2.3850    1.0000 </r>
       <r>   -2.3850    1.0000 </r>
       <r>   -2.3850    1.0000 </r>
       <r>   -2.3359    1.0000 </r>
       <r>   -2.3359    1.0000 </r>
       <r>   -1.2737    1.0000 </r>
       <r>   -1.2737    1.0000 </r>
       <r>   -1.2683    1.0000 </r>
       <r>   -1.2683    1.0000 </r>
       <r>   -1.2206    1.0000 </r>
       <r>   -1.2206    1.0000 </r>
       <r>   -1.2128    1.0000 </r>
       <r>   -1.2128    1.0000 </r>
       <r>    0.0108    1.0000 </r>
       <r>    0.0108    1.0000 </r>
       <r>    0.0161    1.0000 </r>
       <r>    0.0161    1.0000 </r>
       <r>    0.0161    1.0000 </r>
       <r>    0.0161    1.0000 </r>
       <r>    0.0192    1.0000 </r>
       <r>    0.0192    1.0000 </r>
       <r>    0.0196    1.0000 </r>
       <r>    0.0196    1.0000 </r>
       <r>    0.0196    1.0000 </r>
       <r>    0.0196    1.0000 </r>
       <r>    0.0913    1.0000 </r>
       <r>    0.0913    1.0000 </r>
       <r>    0.0913    1.0000 </r>
       <r>    0.0913    1.0000 </r>
       <r>    1.0322    1.0000 </r>
       <r>    1.0322    1.0000 </r>
       <r>    2.0587    1.0000 </r>
       <r>    2.0587    1.0000 </r>
       <r>    2.0671    1.0000 </r>
       <r>    2.0671    1.0000 </r>
       <r>    2.0671    1.0000 </r>
       <r>    2.0671    1.0000 </r>
       <r>    2.0743    1.0000 </r>
       <r>    2.0743    1.0000 </r>
       <r>    2.4025    1.0000 </r>
       <r>    2.4025    1.0000 </r>
       <r>    2.4265    1.0000 </r>
       <r>    2.4265    1.0000 </r>
       <r>    2.4265    1.0000 </r>
       <r>    2.4265    1.0000 </r>
       <r>    2.4590    1.0000 </r>
       <r>    2.4590    1.0000 </r>
       <r>    2.9566    1.0000 </r>
       <r>    2.9566    1.0000 </r>
       <r>    3.0273    1.0000 </r>
       <r>    3.0273    1.0000 </r>
       <r>    3.0420    1.0000 </r>
       <r>    3.0420    1.0000 </r>
       <r>    3.1148    1.0000 </r>
       <r>    3.1148    1.0000 </r>
       <r>    3.7824    1.0000 </r>
       <r>    3.7824    1.0000 </r>
       <r>    3.8108    1.0000 </r>
       <r>    3.8108    1.0000 </r>
       <r>    3.8108    1.0000 </r>
       <r>    3.8108    1.0000 </r>
       <r>    3.8310    1.0000 </r>
       <r>    3.8310    1.0000 </r>
       <r>    3.8962    1.0000 </r>
       <r>    3.8962    1.0000 </r>
       <r>    3.8966    1.0000 </r>
       <r>    3.8966    1.0000 </r>
       <r>    3.9560    1.0000 </r>
       <r>    3.9560    1.0000 </r>
       <r>    4.0198    1.0000 </r>
       <r>    4.0198    1.0000 </r>
       <r>    4.0198    1.0000 </r>
       <r>    4.0198    1.0000 </r>
       <r>    4.0851    1.0000 </r>
       <r>    4.0851    1.0000 </r>
       <r>    4.1957    1.0000 </r>
       <r>    4.1957    1.0000 </r>
       <r>    4.1957    1.0000 </r>
       <r>    4.1957    1.0000 </r>
       <r>    4.3251    1.0000 </r>
       <r>    4.3251    1.0000 </r>
       <r>    4.3251    1.0000 </r>
       <r>    4.3251    1.0000 </r>
       <r>    5.2546    1.0000 </r>
       <r>    5.2546    1.0000 </r>
       <r>    5.3016    1.0000 </r>
       <r>    5.3016    1.0000 </r>
       <r>    5.3016    1.0000 </r>
       <r>    5.3016    1.0000 </r>
       <r>    5.3510    1.0000 </r>
       <r>    5.3510    1.0000 </r>
       <r>    5.3774    1.0000 </r>
       <r>    5.3774    1.0000 </r>
       <r>    5.3774    1.0000 </r>
       <r>    5.3774    1.0000 </r>
       <r>    5.4190    1.0000 </r>
       <r>    5.4190    1.0000 </r>
       <r>    5.4190    1.0000 </r>
       <r>    5.4190    1.0000 </r>
       <r>    5.6447    1.0000 </r>
       <r>    5.6447    1.0000 </r>
       <r>    5.8949    1.0000 </r>
       <r>    5.8949    1.0000 </r>
       <r>    5.9236    1.0000 </r>
       <r>    5.9236    1.0000 </r>
       <r>    7.0877    0.1893 </r>
       <r>    7.0877    0.1893 </r>
       <r>    8.0282   -0.0000 </r>
       <r>    8.0282   -0.0000 </r>
       <r>    8.5707   -0.0000 </r>
       <r>    8.5707   -0.0000 </r>
       <r>    8.7074   -0.0000 </r>
       <r>    8.7074   -0.0000 </r>
       <r>    8.7288   -0.0000 </r>
       <r>    8.7288   -0.0000 </r>
       <r>    8.7438   -0.0000 </r>
       <r>    8.7438   -0.0000 </r>
       <r>    8.8821   -0.0000 </r>
       <r>    8.8821   -0.0000 </r>
       <r>    9.1981   -0.0000 </r>
       <r>    9.1981   -0.0000 </r>
       <r>    9.1981   -0.0000 </r>
       <r>    9.1982   -0.0000 </r>
       <r>    9.2722   -0.0000 </r>
       <r>    9.2723   -0.0000 </r>
       <r>    9.2769   -0.0000 </r>
       <r>    9.2769   -0.0000 </r>
       <r>    9.2770   -0.0000 </r>
       <r>    9.2777   -0.0000 </r>
       <r>    9.3115   -0.0000 </r>
       <r>    9.3116   -0.0000 </r>
       <r>    9.3117   -0.0000 </r>
[...]
      </set>
     </set>
    </set>
   </array>
  </eigenvalues>
  <separator name="orbital magnetization" >
   <v name="MAGDIPOLOUT">      0.00000000      0.00000000      0.00000000</v>
  </separator>
  <dos>
   <i name="efermi">      7.00757034 </i>
   <total>
    <array>
     <dimension dim="1">gridpoints</dimension>
     <dimension dim="2">spin</dimension>
     <field>energy</field>
     <field>total</field>
     <field>integrated</field>
     <set>
      <set comment="spin 1">
       <r>    -7.8580     0.0000     0.0000 </r>
       <r>    -7.7906     0.0000     0.0000 </r>
       <r>    -7.7233     0.0000     0.0000 </r>
       <r>    -7.6559     0.0000     0.0000 </r>
       <r>    -7.5885     0.0000     0.0000 </r>
       <r>    -7.5211    -0.0000    -0.0000 </r>
       <r>    -7.4538    -0.0000    -0.0000 </r>
       <r>    -7.3864    -0.0000    -0.0000 </r>
       <r>    -7.3190    -0.0000    -0.0000 </r>
       <r>    -7.2516    -0.0000    -0.0000 </r>
       <r>    -7.1842    -0.0000    -0.0000 </r>
       <r>    -7.1169    -0.0000    -0.0000 </r>
       <r>    -7.0495    -0.0000    -0.0000 </r>
       <r>    -6.9821    -0.0000    -0.0000 </r>
       <r>    -6.9147    -0.0000    -0.0000 </r>
       <r>    -6.8474    -0.0000    -0.0000 </r>
       <r>    -6.7800    -0.0000    -0.0000 </r>
       <r>    -6.7126    -0.0000    -0.0000 </r>
       <r>    -6.6452    -0.0000    -0.0000 </r>
       <r>    -6.5779    -0.0000    -0.0000 </r>
       <r>    -6.5105    -0.0001    -0.0000 </r>
       <r>    -6.4431    -0.0004    -0.0000 </r>
       <r>    -6.3757    -0.0023    -0.0002 </r>
       <r>    -6.3083    -0.0093    -0.0008 </r>
       <r>    -6.2410    -0.0267    -0.0026 </r>
       <r>    -6.1736    -0.0519    -0.0061 </r>
       <r>    -6.1062    -0.0492    -0.0094 </r>
       <r>    -6.0388     0.0544    -0.0058 </r>
       <r>    -5.9715     0.2920     0.0139 </r>
       <r>    -5.9041     0.5527     0.0511 </r>
       <r>    -5.8367     0.7003     0.0983 </r>
       <r>    -5.7693     0.9464     0.1621 </r>
       <r>    -5.7020     1.8668     0.2879 </r>
       <r>    -5.6346     3.5860     0.5295 </r>
       <r>    -5.5672     5.1635     0.8774 </r>
       <r>    -5.4998     5.6785     1.2600 </r>
       <r>    -5.4324     5.9076     1.6580 </r>
       <r>    -5.3651     7.5482     2.1666 </r>
       <r>    -5.2977    10.3648     2.8649 </r>
       <r>    -5.2303    11.8284     3.6619 </r>
       <r>    -5.1629    10.5655     4.3738 </r>
       <r>    -5.0956     8.3865     4.9388 </r>
       <r>    -5.0282     7.5087     5.4447 </r>
       <r>    -4.9608     7.4882     5.9493 </r>
       <r>    -4.8934     6.6247     6.3956 </r>
       <r>    -4.8261     4.9680     6.7303 </r>
       <r>    -4.7587     3.9732     6.9980 </r>
       <r>    -4.6913     4.1664     7.2788 </r>
       <r>    -4.6239     5.3166     7.6370 </r>
       <r>    -4.5565     8.3441     8.1992 </r>
       <r>    -4.4892    14.2759     9.1610 </r>
       <r>    -4.4218    21.0557    10.5797 </r>
       <r>    -4.3544    24.7271    12.2457 </r>
       <r>    -4.2870    24.7903    13.9160 </r>
       <r>    -4.2197    24.5919    15.5730 </r>
       <r>    -4.1523    25.1303    17.2662 </r>
       <r>    -4.0849    22.9172    18.8102 </r>
       <r>    -4.0175    15.7641    19.8724 </r>
       <r>    -3.9502     6.6509    20.3205 </r>
       <r>    -3.8828     0.1854    20.3330 </r>
       <r>    -3.8154    -1.6663    20.2207 </r>
       <r>    -3.7480     0.7018    20.2680 </r>
       <r>    -3.6806     6.4323    20.7014 </r>
       <r>    -3.6133    14.4256    21.6733 </r>
       <r>    -3.5459    22.6843    23.2017 </r>
       <r>    -3.4785    28.3386    25.1111 </r>
       <r>    -3.4111    28.9075    27.0588 </r>
       <r>    -3.3438    24.3512    28.6995 </r>
       <r>    -3.2764    17.7561    29.8959 </r>
       <r>    -3.2090    13.3853    30.7977 </r>
       <r>    -3.1416    14.1145    31.7487 </r>
       <r>    -3.0743    20.0560    33.1000 </r>
       <r>    -3.0069    28.3678    35.0114 </r>
       <r>    -2.9395    34.8377    37.3586 </r>
       <r>    -2.8721    36.8910    39.8442 </r>
       <r>    -2.8048    35.1946    42.2155 </r>
       <r>    -2.7374    32.1290    44.3803 </r>
       <r>    -2.6700    29.1164    46.3420 </r>
       <r>    -2.6026    26.3131    48.1149 </r>
       <r>    -2.5352    24.4803    49.7643 </r>
       <r>    -2.4679    24.5653    51.4195 </r>
       <r>    -2.4005    24.8262    53.0922 </r>
       <r>    -2.3331    21.5958    54.5472 </r>
       <r>    -2.2657    14.0974    55.4971 </r>
       <r>    -2.1984     5.8199    55.8892 </r>
       <r>    -2.1310     0.4109    55.9169 </r>
       <r>    -2.0636    -1.5812    55.8103 </r>
       <r>    -1.9962    -1.5439    55.7063 </r>
       <r>    -1.9289    -0.2397    55.6902 </r>
       <r>    -1.8615     2.6921    55.8715 </r>
       <r>    -1.7941     7.0865    56.3490 </r>
       <r>    -1.7267    10.8705    57.0814 </r>
       <r>    -1.6593    11.2883    57.8420 </r>
       <r>    -1.5920     7.8514    58.3710 </r>
       <r>    -1.5246     3.4153    58.6011 </r>
       <r>    -1.4572     2.0769    58.7411 </r>
       <r>    -1.3898     6.3607    59.1696 </r>
       <r>    -1.3225    15.7320    60.2296 </r>
       <r>    -1.2551    26.4768    62.0135 </r>
       <r>    -1.1877    33.2563    64.2542 </r>
       <r>    -1.1203    32.3321    66.4327 </r>
       <r>    -1.0530    24.2119    68.0640 </r>
       <r>    -0.9856    13.3216    68.9615 </r>
       <r>    -0.9182     5.1317    69.3073 </r>
       <r>    -0.8508     3.0119    69.5102 </r>
       <r>    -0.7834     6.4535    69.9451 </r>
       <r>    -0.7161    11.4830    70.7187 </r>
       <r>    -0.6487    13.7766    71.6470 </r>
       <r>    -0.5813    12.8401    72.5121 </r>
       <r>    -0.5139    12.6476    73.3642 </r>
       <r>    -0.4466    16.4757    74.4743 </r>
       <r>    -0.3792    21.5539    75.9266 </r>
       <r>    -0.3118    21.4880    77.3744 </r>
       <r>    -0.2444    14.7751    78.3699 </r>
       <r>    -0.1771     8.6653    78.9537 </r>
       <r>    -0.1097    12.9450    79.8259 </r>
       <r>    -0.0423    30.0155    81.8482 </r>
       <r>     0.0251    51.1320    85.2934 </r>
       <r>     0.0925    62.7495    89.5212 </r>
       <r>     0.1598    57.4776    93.3939 </r>
       <r>     0.2272    39.2543    96.0387 </r>
       <r>     0.2946    18.5510    97.2886 </r>
       <r>     0.3620     3.8003    97.5447 </r>
       <r>     0.4293    -2.5888    97.3702 </r>
       <r>     0.4967    -1.9325    97.2400 </r>
       <r>     0.5641     4.1540    97.5199 </r>
       <r>     0.6315    13.5583    98.4334 </r>
       <r>     0.6988    21.8486    99.9055 </r>
       <r>     0.7662    24.0641   101.5269 </r>
       <r>     0.8336    19.3069   102.8277 </r>
       <r>     0.9010    11.8325   103.6250 </r>
       <r>     0.9684     7.2733   104.1150 </r>
       <r>     1.0357     8.9460   104.7178 </r>
       <r>     1.1031    16.6203   105.8376 </r>
       <r>     1.1705    26.3697   107.6143 </r>
       <r>     1.2379    32.0980   109.7770 </r>
       <r>     1.3052    29.6971   111.7779 </r>
       <r>     1.3726    20.4666   113.1568 </r>
       <r>     1.4400     9.7423   113.8132 </r>
       <r>     1.5074     2.1998   113.9614 </r>
       <r>     1.5747    -1.1158   113.8863 </r>
       <r>     1.6421    -1.9001   113.7582 </r>
       <r>     1.7095    -1.9630   113.6260 </r>
       <r>     1.7769    -1.4170   113.5305 </r>
       <r>     1.8443     1.5048   113.6319 </r>
       <r>     1.9116     8.8030   114.2250 </r>
       <r>     1.9790    19.7290   115.5543 </r>
       <r>     2.0464    29.2747   117.5267 </r>
       <r>     2.1138    31.2935   119.6352 </r>
       <r>     2.1811    24.5710   121.2907 </r>
       <r>     2.2485    15.4132   122.3292 </r>
       <r>     2.3159    12.8645   123.1960 </r>
       <r>     2.3833    20.3744   124.5687 </r>
       <r>     2.4506    32.2535   126.7419 </r>
       <r>     2.5180    39.1280   129.3782 </r>
       <r>     2.5854    36.6036   131.8444 </r>
       <r>     2.6528    27.7430   133.7137 </r>
       <r>     2.7202    18.9872   134.9930 </r>
       <r>     2.7875    16.5330   136.1069 </r>
       <r>     2.8549    24.8595   137.7819 </r>
       <r>     2.9223    43.8453   140.7360 </r>
       <r>     2.9897    65.8964   145.1759 </r>
       <r>     3.0570    78.7207   150.4799 </r>
       <r>     3.1244    73.9202   155.4604 </r>
       <r>     3.1918    53.8858   159.0910 </r>
       <r>     3.2592    29.6700   161.0901 </r>
       <r>     3.3265    11.5719   161.8698 </r>
       <r>     3.3939     2.3144   162.0257 </r>
       <r>     3.4613    -0.9725   161.9602 </r>
       <r>     3.5287    -0.3420   161.9371 </r>
       <r>     3.5960     5.9178   162.3359 </r>
       <r>     3.6634    20.0995   163.6901 </r>
       <r>     3.7308    39.6430   166.3611 </r>
       <r>     3.7982    56.4508   170.1646 </r>
       <r>     3.8656    63.4458   174.4394 </r>
       <r>     3.9329    61.2214   178.5643 </r>
       <r>     4.0003    56.2891   182.3569 </r>
       <r>     4.0677    53.2120   185.9421 </r>
       <r>     4.1351    50.8968   189.3714 </r>
       <r>     4.2024    47.1543   192.5485 </r>
       <r>     4.2698    43.7410   195.4956 </r>
       <r>     4.3372    43.7598   198.4440 </r>
       <r>     4.4046    45.6547   201.5201 </r>
       <r>     4.4719    43.7456   204.4675 </r>
       <r>     4.5393    35.1880   206.8384 </r>
       <r>     4.6067    23.8437   208.4449 </r>
       <r>     4.6741    16.4926   209.5561 </r>
       <r>     4.7415    16.7489   210.6846 </r>
       <r>     4.8088    23.0699   212.2390 </r>
       <r>     4.8762    31.1418   214.3372 </r>
       <r>     4.9436    37.1022   216.8371 </r>
       <r>     5.0110    39.1605   219.4756 </r>
       <r>     5.0783    37.9329   222.0314 </r>
       <r>     5.1457    36.2018   224.4705 </r>
       <r>     5.2131    37.0804   226.9689 </r>
       <r>     5.2805    40.9991   229.7313 </r>
       <r>     5.3478    45.1732   232.7749 </r>
       <r>     5.4152    46.5040   235.9082 </r>
       <r>     5.4826    43.8283   238.8612 </r>
       <r>     5.5500    37.3529   241.3779 </r>
       <r>     5.6174    27.9230   243.2593 </r>
       <r>     5.6847    17.7975   244.4585 </r>
       <r>     5.7521    10.7506   245.1828 </r>
       <r>     5.8195     9.7265   245.8381 </r>
       <r>     5.8869    14.0115   246.7822 </r>
       <r>     5.9542    19.3102   248.0832 </r>
       <r>     6.0216    21.1676   249.5095 </r>
       <r>     6.0890    18.2907   250.7418 </r>
       <r>     6.1564    12.5590   251.5880 </r>
       <r>     6.2237     6.7101   252.0401 </r>
       <r>     6.2911     2.7648   252.2264 </r>
       <r>     6.3585     1.8451   252.3507 </r>
       <r>     6.4259     3.9470   252.6166 </r>
       <r>     6.4933     7.5088   253.1226 </r>
       <r>     6.5606    10.0878   253.8022 </r>
       <r>     6.6280    10.1481   254.4860 </r>
       <r>     6.6954     8.0624   255.0292 </r>
       <r>     6.7628     5.2887   255.3856 </r>
       <r>     6.8301     3.0247   255.5893 </r>
       <r>     6.8975     1.8494   255.7140 </r>
       <r>     6.9649     2.0900   255.8548 </r>
       <r>     7.0323     3.8617   256.1150 </r>
       <r>     7.0996     6.6413   256.5624 </r>
       <r>     7.1670     9.1142   257.1765 </r>
       <r>     7.2344     9.8231   257.8384 </r>
       <r>     7.3018     8.2256   258.3926 </r>
       <r>     7.3692     5.1424   258.7391 </r>
       <r>     7.4365     2.1686   258.8852 </r>
       <r>     7.5039     0.8089   258.9397 </r>
       <r>     7.5713     1.9811   259.0732 </r>
       <r>     7.6387     5.5429   259.4466 </r>
       <r>     7.7060     9.9127   260.1145 </r>
       <r>     7.7734    12.8564   260.9807 </r>
       <r>     7.8408    13.5051   261.8907 </r>
       <r>     7.9082    13.5765   262.8054 </r>
       <r>     7.9755    15.7819   263.8687 </r>
       <r>     8.0429    20.4263   265.2450 </r>
       <r>     8.1103    24.2334   266.8778 </r>
       <r>     8.1777    23.4560   268.4582 </r>
       <r>     8.2451    17.7869   269.6566 </r>
       <r>     8.3124    10.8299   270.3863 </r>
       <r>     8.3798     7.4866   270.8907 </r>
       <r>     8.4472    10.7858   271.6174 </r>
       <r>     8.5146    19.8516   272.9549 </r>
       <r>     8.5819    30.4859   275.0090 </r>
       <r>     8.6493    37.9773   277.5678 </r>
       <r>     8.7167    39.2868   280.2148 </r>
       <r>     8.7841    33.9196   282.5002 </r>
       <r>     8.8514    24.9095   284.1785 </r>
       <r>     8.9188    18.3721   285.4164 </r>
       <r>     8.9862    19.7731   286.7486 </r>
       <r>     9.0536    30.1254   288.7784 </r>
       <r>     9.1210    46.0565   291.8815 </r>
       <r>     9.1883    62.3379   296.0816 </r>
       <r>     9.2557    73.5323   301.0360 </r>
       <r>     9.3231    75.1638   306.1003 </r>
       <r>     9.3905    66.0520   310.5507 </r>
       <r>     9.4578    49.7906   313.9054 </r>
       <r>     9.5252    32.8117   316.1162 </r>
       <r>     9.5926    20.7696   317.5156 </r>
       <r>     9.6600    16.1054   318.6007 </r>
       <r>     9.7273    17.1118   319.7536 </r>
       <r>     9.7947    18.9542   321.0307 </r>
       <r>     9.8621    17.3751   322.2014 </r>
       <r>     9.9295    12.1098   323.0173 </r>
       <r>     9.9968     6.0858   323.4273 </r>
       <r>    10.0642     1.9011   323.5554 </r>
       <r>    10.1316     0.0912   323.5616 </r>
       <r>    10.1990    -0.0097   323.5609 </r>
       <r>    10.2664     0.7801   323.6135 </r>
       <r>    10.3337     1.6626   323.7255 </r>
       <r>    10.4011     1.9601   323.8576 </r>
       <r>    10.4685     1.5077   323.9591 </r>
       <r>    10.5359     0.7280   324.0082 </r>
       <r>    10.6032     0.1391   324.0176 </r>
       <r>    10.6706    -0.0911   324.0114 </r>
       <r>    10.7380    -0.0981   324.0048 </r>
       <r>    10.8054    -0.0496   324.0015 </r>
       <r>    10.8727    -0.0168   324.0003 </r>
       <r>    10.9401    -0.0042   324.0001 </r>
       <r>    11.0075    -0.0008   324.0000 </r>
       <r>    11.0749    -0.0001   324.0000 </r>
       <r>    11.1423    -0.0000   324.0000 </r>
       <r>    11.2096    -0.0000   324.0000 </r>
       <r>    11.2770    -0.0000   324.0000 </r>
       <r>    11.3444    -0.0000   324.0000 </r>
       <r>    11.4118    -0.0000   324.0000 </r>
       <r>    11.4791    -0.0000   324.0000 </r>
       <r>    11.5465    -0.0000   324.0000 </r>
       <r>    11.6139    -0.0000   324.0000 </r>
       <r>    11.6813     0.0000   324.0000 </r>
       <r>    11.7486     0.0000   324.0000 </r>
       <r>    11.8160     0.0000   324.0000 </r>
       <r>    11.8834     0.0000   324.0000 </r>
       <r>    11.9508     0.0000   324.0000 </r>
       <r>    12.0182     0.0000   324.0000 </r>
       <r>    12.0855     0.0000   324.0000 </r>
       <r>    12.1529     0.0000   324.0000 </r>
       <r>    12.2203     0.0000   324.0000 </r>
       <r>    12.2877     0.0000   324.0000 </r>
       <r>    12.3550     0.0000   324.0000 </r>
      </set>
     </set>
    </array>
   </total>
  </dos>
 </calculation>
 <structure name="finalpos" >
  <crystal>
   <varray name="basis" >
    <v>      10.39856354      -0.07917701       0.00000000 </v>
    <v>      -0.07917701      10.55691756       0.00000000 </v>
    <v>       0.00000000       0.00000000      10.55691756 </v>
   </varray>
   <i name="volume">   1158.83821371 </i>
   <varray name="rec_basis" >
    <v>       0.09617262       0.00072130       0.00000000 </v>
    <v>       0.00072130       0.09473003       0.00000000 </v>
    <v>       0.00000000       0.00000000       0.09472462 </v>
   </varray>
  </crystal>
  <varray name="positions" >
   <v>       0.00000000       0.00000000       0.99931217 </v>
   <v>       0.00000000       0.00000000       0.49931217 </v>
   <v>       0.00000000       0.50000000       0.99931217 </v>
   <v>       0.00000000       0.50000000       0.49931217 </v>
   <v>       0.50000000       0.00000000       0.99931217 </v>
   <v>       0.50000000       0.00000000       0.49931217 </v>
   <v>       0.50000000       0.50000000       0.99931217 </v>
   <v>       0.50000000       0.50000000       0.49931217 </v>
   <v>       0.37500000       0.37500000       0.12568783 </v>
   <v>       0.37500000       0.37500000       0.62568783 </v>
   <v>       0.37500000       0.87500000       0.12568783 </v>
   <v>       0.37500000       0.87500000       0.62568783 </v>
   <v>       0.87500000       0.37500000       0.12568783 </v>
   <v>       0.87500000       0.37500000       0.62568783 </v>
   <v>       0.87500000       0.87500000       0.12568783 </v>
   <v>       0.87500000       0.87500000       0.62568783 </v>
   <v>       0.00000000       0.25000000       0.24931217 </v>
   <v>       0.00000000       0.25000000       0.74931217 </v>
   <v>       0.00000000       0.75000000       0.24931217 </v>
   <v>       0.00000000       0.75000000       0.74931217 </v>
   <v>       0.50000000       0.25000000       0.24931217 </v>
   <v>       0.50000000       0.25000000       0.74931217 </v>
   <v>       0.50000000       0.75000000       0.24931217 </v>
   <v>       0.50000000       0.75000000       0.74931217 </v>
   <v>       0.37500000       0.12500000       0.37568783 </v>
   <v>       0.37500000       0.12500000       0.87568783 </v>
   <v>       0.37500000       0.62500000       0.37568783 </v>
   <v>       0.37500000       0.62500000       0.87568783 </v>
   <v>       0.87500000       0.12500000       0.37568783 </v>
   <v>       0.87500000       0.12500000       0.87568783 </v>
   <v>       0.87500000       0.62500000       0.37568783 </v>
   <v>       0.87500000       0.62500000       0.87568783 </v>
   <v>       0.25000000       0.00000000       0.24931217 </v>
   <v>       0.25000000       0.00000000       0.74931217 </v>
   <v>       0.25000000       0.50000000       0.24931217 </v>
   <v>       0.25000000       0.50000000       0.74931217 </v>
   <v>       0.75000000       0.00000000       0.24931217 </v>
   <v>       0.75000000       0.00000000       0.74931217 </v>
   <v>       0.75000000       0.50000000       0.24931217 </v>
   <v>       0.75000000       0.50000000       0.74931217 </v>
   <v>       0.12500000       0.37500000       0.37568783 </v>
   <v>       0.12500000       0.37500000       0.87568783 </v>
   <v>       0.12500000       0.87500000       0.37568783 </v>
   <v>       0.12500000       0.87500000       0.87568783 </v>
   <v>       0.62500000       0.37500000       0.37568783 </v>
   <v>       0.62500000       0.37500000       0.87568783 </v>
   <v>       0.62500000       0.87500000       0.37568783 </v>
   <v>       0.62500000       0.87500000       0.87568783 </v>
   <v>       0.25000000       0.25000000       0.99931217 </v>
   <v>       0.25000000       0.25000000       0.49931217 </v>
   <v>       0.25000000       0.75000000       0.99931217 </v>
   <v>       0.25000000       0.75000000       0.49931217 </v>
   <v>       0.75000000       0.25000000       0.99931217 </v>
   <v>       0.75000000       0.25000000       0.49931217 </v>
   <v>       0.75000000       0.75000000       0.99931217 </v>
   <v>       0.75000000       0.75000000       0.49931217 </v>
   <v>       0.12500000       0.12500000       0.12568783 </v>
   <v>       0.12500000       0.12500000       0.62568783 </v>
   <v>       0.12500000       0.62500000       0.12568783 </v>
   <v>       0.12500000       0.62500000       0.62568783 </v>
   <v>       0.62500000       0.12500000       0.12568783 </v>
   <v>       0.62500000       0.12500000       0.62568783 </v>
   <v>       0.62500000       0.62500000       0.12568783 </v>
   <v>       0.62500000       0.62500000       0.62568783 </v>
  </varray>
 </structure>
</modeling>
