  64  64   0   0
  0.1957502E+02  0.1074431E-08  0.1079830E-08  0.1079826E-08  0.5000000E-15
  1.000000000000000E-004
  CAR 
 Si64                                    
     11.49182301     -8.12503846  301      6.33043129      1.00000000
     -8.125  0.0000E+00  0.0000E+00
     -8.060  0.0000E+00  0.0000E+00
     -7.994  0.0000E+00  0.0000E+00
     -7.929  0.0000E+00  0.0000E+00
     -7.863  0.0000E+00  0.0000E+00
     -7.798  0.0000E+00  0.0000E+00
     -7.733 -0.1253E-28 -0.8197E-30
     -7.667 -0.2060E-26 -0.1355E-27
     -7.602 -0.2740E-24 -0.1805E-25
     -7.537 -0.2937E-22 -0.1939E-23
     -7.471 -0.2536E-20 -0.1678E-21
     -7.406 -0.1763E-18 -0.1170E-19
     -7.340 -0.9864E-17 -0.6567E-18
     -7.275 -0.4298E-15 -0.2876E-16
     -7.210 -0.1553E-13 -0.1044E-14
     -7.144 -0.4494E-12 -0.3043E-13
     -7.079 -0.1043E-10 -0.7126E-12
     -7.013 -0.1939E-09 -0.1339E-10
     -6.948 -0.2882E-08 -0.2019E-09
     -6.883 -0.3416E-07 -0.2436E-08
     -6.817 -0.3218E-06 -0.2348E-07
     -6.752 -0.2399E-05 -0.1803E-06
     -6.686 -0.1404E-04 -0.1099E-05
     -6.621 -0.6389E-04 -0.5276E-05
     -6.556 -0.2215E-03 -0.1976E-04
     -6.490 -0.5640E-03 -0.5664E-04
     -6.425 -0.9608E-03 -0.1195E-03
     -6.360 -0.7274E-03 -0.1670E-03
     -6.294  0.1207E-02 -0.8811E-04
     -6.229  0.4991E-02  0.2383E-03
     -6.163  0.8974E-02  0.8251E-03
     -6.098  0.1250E-01  0.1643E-02
     -6.033  0.2047E-01  0.2982E-02
     -5.967  0.4008E-01  0.5602E-02
     -5.902  0.6855E-01  0.1008E-01
     -5.836  0.9126E-01  0.1605E-01
     -5.771  0.1023E+00  0.2274E-01
     -5.706  0.1185E+00  0.3049E-01
     -5.640  0.1549E+00  0.4062E-01
     -5.575  0.1927E+00  0.5322E-01
     -5.509  0.1987E+00  0.6622E-01
     -5.444  0.1724E+00  0.7749E-01
     -5.379  0.1455E+00  0.8700E-01
     -5.313  0.1338E+00  0.9575E-01
     -5.248  0.1214E+00  0.1037E+00
     -5.183  0.9730E-01  0.1101E+00
     -5.117  0.7508E-01  0.1150E+00
     -5.052  0.7071E-01  0.1196E+00
     -4.986  0.8951E-01  0.1254E+00
     -4.921  0.1424E+00  0.1348E+00
     -4.856  0.2397E+00  0.1504E+00
     -4.790  0.3542E+00  0.1736E+00
     -4.725  0.4312E+00  0.2018E+00
     -4.659  0.4547E+00  0.2315E+00
     -4.594  0.4577E+00  0.2614E+00
     -4.529  0.4484E+00  0.2908E+00
     -4.463  0.3848E+00  0.3159E+00
     -4.398  0.2496E+00  0.3323E+00
     -4.332  0.9574E-01  0.3385E+00
     -4.267 -0.5020E-02  0.3382E+00
     -4.202 -0.1972E-01  0.3369E+00
     -4.136  0.4894E-01  0.3401E+00
     -4.071  0.1835E+00  0.3521E+00
     -4.005  0.3486E+00  0.3749E+00
     -3.940  0.4842E+00  0.4066E+00
     -3.875  0.5286E+00  0.4411E+00
     -3.809  0.4649E+00  0.4715E+00
     -3.744  0.3410E+00  0.4938E+00
     -3.679  0.2381E+00  0.5094E+00
     -3.613  0.2206E+00  0.5238E+00
     -3.548  0.3089E+00  0.5440E+00
     -3.482  0.4677E+00  0.5746E+00
     -3.417  0.6210E+00  0.6152E+00
     -3.352  0.7020E+00  0.6611E+00
     -3.286  0.6982E+00  0.7068E+00
     -3.221  0.6365E+00  0.7484E+00
     -3.155  0.5455E+00  0.7840E+00
     -3.090  0.4555E+00  0.8138E+00
     -3.025  0.4074E+00  0.8405E+00
     -2.959  0.4110E+00  0.8673E+00
     -2.894  0.4085E+00  0.8941E+00
     -2.828  0.3328E+00  0.9158E+00
     -2.763  0.1927E+00  0.9284E+00
     -2.698  0.5974E-01  0.9323E+00
     -2.632 -0.1500E-01  0.9313E+00
     -2.567 -0.3335E-01  0.9292E+00
     -2.502 -0.1426E-01  0.9282E+00
     -2.436  0.3695E-01  0.9307E+00
     -2.371  0.1140E+00  0.9381E+00
     -2.305  0.1835E+00  0.9501E+00
     -2.240  0.1976E+00  0.9630E+00
     -2.175  0.1415E+00  0.9723E+00
     -2.109  0.5639E-01  0.9760E+00
     -2.044  0.1249E-01  0.9768E+00
     -1.978  0.6695E-01  0.9812E+00
     -1.913  0.2314E+00  0.9963E+00
     -1.848  0.4496E+00  0.1026E+01
     -1.782  0.6093E+00  0.1066E+01
     -1.717  0.6133E+00  0.1106E+01
     -1.651  0.4596E+00  0.1136E+01
     -1.586  0.2422E+00  0.1152E+01
     -1.521  0.7470E-01  0.1156E+01
     -1.455  0.1655E-01  0.1157E+01
     -1.390  0.5784E-01  0.1161E+01
     -1.325  0.1412E+00  0.1171E+01
     -1.259  0.1981E+00  0.1183E+01
     -1.194  0.1935E+00  0.1196E+01
     -1.128  0.1516E+00  0.1206E+01
     -1.063  0.1369E+00  0.1215E+01
     -0.998  0.1955E+00  0.1228E+01
     -0.932  0.3031E+00  0.1248E+01
     -0.867  0.3766E+00  0.1272E+01
     -0.801  0.3663E+00  0.1296E+01
     -0.736  0.3320E+00  0.1318E+01
     -0.671  0.3924E+00  0.1344E+01
     -0.605  0.5945E+00  0.1382E+01
     -0.540  0.8515E+00  0.1438E+01
     -0.474  0.9985E+00  0.1503E+01
     -0.409  0.9140E+00  0.1563E+01
     -0.344  0.6203E+00  0.1604E+01
     -0.278  0.2752E+00  0.1622E+01
     -0.213  0.5100E-01  0.1625E+01
     -0.148  0.2245E-01  0.1627E+01
     -0.082  0.1496E+00  0.1636E+01
     -0.017  0.3191E+00  0.1657E+01
      0.049  0.4103E+00  0.1684E+01
      0.114  0.3736E+00  0.1708E+01
      0.179  0.2575E+00  0.1725E+01
      0.245  0.1470E+00  0.1735E+01
      0.310  0.9282E-01  0.1741E+01
      0.376  0.1056E+00  0.1748E+01
      0.441  0.1808E+00  0.1760E+01
      0.506  0.3011E+00  0.1779E+01
      0.572  0.4254E+00  0.1807E+01
      0.637  0.4912E+00  0.1839E+01
      0.703  0.4483E+00  0.1869E+01
      0.768  0.3072E+00  0.1889E+01
      0.833  0.1416E+00  0.1898E+01
      0.899  0.2607E-01  0.1900E+01
      0.964 -0.1956E-01  0.1898E+01
      1.029 -0.2210E-01  0.1897E+01
      1.095 -0.1401E-01  0.1896E+01
      1.160 -0.1216E-01  0.1895E+01
      1.226 -0.2070E-01  0.1894E+01
      1.291 -0.3403E-01  0.1892E+01
      1.356 -0.2820E-01  0.1890E+01
      1.422  0.4493E-01  0.1893E+01
      1.487  0.2329E+00  0.1908E+01
      1.553  0.5228E+00  0.1942E+01
      1.618  0.8001E+00  0.1994E+01
      1.683  0.9036E+00  0.2054E+01
      1.749  0.7632E+00  0.2103E+01
      1.814  0.4840E+00  0.2135E+01
      1.880  0.2677E+00  0.2153E+01
      1.945  0.2350E+00  0.2168E+01
      2.010  0.3334E+00  0.2190E+01
      2.076  0.4124E+00  0.2217E+01
      2.141  0.3826E+00  0.2242E+01
      2.207  0.3074E+00  0.2262E+01
      2.272  0.3519E+00  0.2285E+01
      2.337  0.6324E+00  0.2326E+01
      2.403  0.1081E+01  0.2397E+01
      2.468  0.1449E+01  0.2492E+01
      2.533  0.1481E+01  0.2588E+01
      2.599  0.1132E+01  0.2663E+01
      2.664  0.6099E+00  0.2702E+01
      2.730  0.1767E+00  0.2714E+01
      2.795 -0.4999E-01  0.2711E+01
      2.860 -0.1117E+00  0.2703E+01
      2.926 -0.7819E-01  0.2698E+01
      2.991  0.4612E-01  0.2701E+01
      3.057  0.2957E+00  0.2721E+01
      3.122  0.6549E+00  0.2763E+01
      3.187  0.1021E+01  0.2830E+01
      3.253  0.1270E+01  0.2913E+01
      3.318  0.1341E+01  0.3001E+01
      3.384  0.1257E+01  0.3083E+01
      3.449  0.1074E+01  0.3153E+01
      3.514  0.8532E+00  0.3209E+01
      3.580  0.6676E+00  0.3253E+01
      3.645  0.6028E+00  0.3292E+01
      3.710  0.6734E+00  0.3336E+01
      3.776  0.7587E+00  0.3386E+01
      3.841  0.7059E+00  0.3432E+01
      3.907  0.5171E+00  0.3466E+01
      3.972  0.3571E+00  0.3489E+01
      4.037  0.3566E+00  0.3513E+01
      4.103  0.4724E+00  0.3543E+01
      4.168  0.5723E+00  0.3581E+01
      4.234  0.6014E+00  0.3620E+01
      4.299  0.6068E+00  0.3660E+01
      4.364  0.6323E+00  0.3701E+01
      4.430  0.6681E+00  0.3745E+01
      4.495  0.7062E+00  0.3791E+01
      4.561  0.7718E+00  0.3842E+01
      4.626  0.8688E+00  0.3898E+01
      4.691  0.9317E+00  0.3959E+01
      4.757  0.8674E+00  0.4016E+01
      4.822  0.6479E+00  0.4058E+01
      4.887  0.3536E+00  0.4081E+01
      4.953  0.1171E+00  0.4089E+01
      5.018  0.3289E-01  0.4091E+01
      5.084  0.1114E+00  0.4099E+01
      5.149  0.2816E+00  0.4117E+01
      5.214  0.4233E+00  0.4145E+01
      5.280  0.4375E+00  0.4173E+01
      5.345  0.3186E+00  0.4194E+01
      5.411  0.1510E+00  0.4204E+01
      5.476  0.3035E-01  0.4206E+01
      5.541  0.3552E-03  0.4206E+01
      5.607  0.4988E-01  0.4209E+01
      5.672  0.1337E+00  0.4218E+01
      5.738  0.1934E+00  0.4231E+01
      5.803  0.1909E+00  0.4243E+01
      5.868  0.1383E+00  0.4252E+01
      5.934  0.8123E-01  0.4257E+01
      5.999  0.5012E-01  0.4261E+01
      6.064  0.3863E-01  0.4263E+01
      6.130  0.2701E-01  0.4265E+01
      6.195  0.9795E-02  0.4266E+01
      6.261 -0.7327E-03  0.4266E+01
      6.326  0.1331E-01  0.4267E+01
      6.391  0.6091E-01  0.4271E+01
      6.457  0.1289E+00  0.4279E+01
      6.522  0.1813E+00  0.4291E+01
      6.588  0.1836E+00  0.4303E+01
      6.653  0.1327E+00  0.4311E+01
      6.718  0.5977E-01  0.4315E+01
      6.784  0.6052E-02  0.4316E+01
      6.849  0.1947E-02  0.4316E+01
      6.915  0.5979E-01  0.4320E+01
      6.980  0.1615E+00  0.4330E+01
      7.045  0.2510E+00  0.4347E+01
      7.111  0.2695E+00  0.4364E+01
      7.176  0.2232E+00  0.4379E+01
      7.242  0.1975E+00  0.4392E+01
      7.307  0.2711E+00  0.4410E+01
      7.372  0.4152E+00  0.4437E+01
      7.438  0.5057E+00  0.4470E+01
      7.503  0.4491E+00  0.4499E+01
      7.568  0.2799E+00  0.4518E+01
      7.634  0.1321E+00  0.4526E+01
      7.699  0.1385E+00  0.4535E+01
      7.765  0.3400E+00  0.4557E+01
      7.830  0.6398E+00  0.4599E+01
      7.895  0.8499E+00  0.4655E+01
      7.961  0.8409E+00  0.4710E+01
      8.026  0.6613E+00  0.4753E+01
      8.092  0.4847E+00  0.4785E+01
      8.157  0.4535E+00  0.4814E+01
      8.222  0.5944E+00  0.4853E+01
      8.288  0.8444E+00  0.4909E+01
      8.353  0.1093E+01  0.4980E+01
      8.419  0.1218E+01  0.5060E+01
      8.484  0.1147E+01  0.5135E+01
      8.549  0.9109E+00  0.5194E+01
      8.615  0.6179E+00  0.5235E+01
      8.680  0.3764E+00  0.5259E+01
      8.745  0.2360E+00  0.5275E+01
      8.811  0.1853E+00  0.5287E+01
      8.876  0.1959E+00  0.5300E+01
      8.942  0.2526E+00  0.5316E+01
      9.007  0.3264E+00  0.5337E+01
      9.072  0.3548E+00  0.5361E+01
      9.138  0.2923E+00  0.5380E+01
      9.203  0.1675E+00  0.5391E+01
      9.269  0.5463E-01  0.5394E+01
      9.334  0.7852E-03  0.5394E+01
      9.399 -0.6275E-03  0.5394E+01
      9.465  0.1767E-01  0.5395E+01
      9.530  0.2926E-01  0.5397E+01
      9.596  0.2612E-01  0.5399E+01
      9.661  0.1451E-01  0.5400E+01
      9.726  0.3993E-02  0.5400E+01
      9.792 -0.1034E-02  0.5400E+01
      9.857 -0.1802E-02  0.5400E+01
      9.922 -0.1081E-02  0.5400E+01
      9.988 -0.4236E-03  0.5400E+01
     10.053 -0.1213E-03  0.5400E+01
     10.119 -0.2646E-04  0.5400E+01
     10.184 -0.4482E-05  0.5400E+01
     10.249 -0.5966E-06  0.5400E+01
     10.315 -0.6284E-07  0.5400E+01
     10.380 -0.5262E-08  0.5400E+01
     10.446 -0.3514E-09  0.5400E+01
     10.511 -0.1876E-10  0.5400E+01
     10.576 -0.8025E-12  0.5400E+01
     10.642 -0.2755E-13  0.5400E+01
     10.707 -0.7357E-15  0.5400E+01
     10.773 -0.2830E-16  0.5400E+01
     10.838  0.0000E+00  0.5400E+01
     10.903  0.0000E+00  0.5400E+01
     10.969  0.0000E+00  0.5400E+01
     11.034  0.0000E+00  0.5400E+01
     11.099  0.0000E+00  0.5400E+01
     11.165  0.0000E+00  0.5400E+01
     11.230  0.0000E+00  0.5400E+01
     11.296  0.0000E+00  0.5400E+01
     11.361  0.0000E+00  0.5400E+01
     11.426  0.0000E+00  0.5400E+01
     11.492  0.0000E+00  0.5400E+01
