 vasp.6.4.3 19Mar24 (build Oct 21 2024 22:36:34) complex                        
  
 executed on             LinuxIFC date 2024.11.01  22:47:42
 running   96 mpi-ranks, on    1 nodes
 distrk:  each k-point on   24 cores,    4 groups
 distr:  one band on NCORE=  12 cores,    2 groups


--------------------------------------------------------------------------------------------------------


 INCAR:
   SYSTEM = Si64
   ISTART = 0
   ICHARG = 2
   LREAL = Auto
   PREC = Accurate
   LWAVE = .False.
   LCHARG = .False.
   ADDGRID = .True.
   ENCUT = 400
   GGA = PS
   GGA_COMPAT = .FALSE.
   ISMEAR = 1
   SIGMA = 0.2
   NELM = 60
   NELMIN = 8
   EDIFF = 1e-06
   EDIFFG = -0.01
   NSW = 60
   IBRION = 2
   ISIF = 2
   KPAR = 4
   NPAR = 2
   ALGO = Fast

 POTCAR:    PAW_PBE Si 05Jan2001                  
 POTCAR:    PAW_PBE Si 05Jan2001                  
   VRHFIN =Si: s2p2                                                                                 
   LEXCH  = PE                                                                                      
   EATOM  =   103.0669 eV,    7.5752 Ry                                                             
                                                                                                    
   TITEL  = PAW_PBE Si 05Jan2001                                                                    
   LULTRA =        F    use ultrasoft PP ?                                                          
   IUNSCR =        1    unscreen: 0-lin 1-nonlin 2-no                                               
   RPACOR =    1.500    partial core radius                                                         
   POMASS =   28.085; ZVAL   =    4.000    mass and valenz                                          
   RCORE  =    1.900    outmost cutoff radius                                                       
   RWIGS  =    2.480; RWIGS  =    1.312    wigner-seitz radius (au A)                               
   ENMAX  =  245.345; ENMIN  =  184.009 eV                                                          
   ICORE  =        2    local potential                                                             
   LCOR   =        T    correct aug charges                                                         
   LPAW   =        T    paw PP                                                                      
   EAUG   =  322.069                                                                                
   DEXC   =    0.000                                                                                
   RMAX   =    1.950    core radius for proj-oper                                                   
   RAUG   =    1.300    factor for augmentation sphere                                              
   RDEP   =    1.993    radius for radial grids                                                     
   RDEPT  =    1.837    core radius for aug-charge                                                  
                                                                                                    
   Atomic configuration                                                                             
    6 entries                                                                                       
     n  l   j            E        occ.                                                              
     1  0  0.50     -1785.8828   2.0000                                                             
     2  0  0.50      -139.4969   2.0000                                                             
     2  1  1.50       -95.5546   6.0000                                                             
     3  0  0.50       -10.8127   2.0000                                                             
     3  1  0.50        -4.0811   2.0000                                                             
     3  2  1.50        -4.0817   0.0000                                                             
   Description                                                                                      
     l       E           TYP  RCUT    TYP  RCUT                                                     
     0    -10.8127223     23  1.900                                                                 
     0     -7.6451159     23  1.900                                                                 
     1     -4.0811372     23  1.900                                                                 
     1      2.4879257     23  1.900                                                                 
     2     -4.0817478      7  1.900                                                                 
  local pseudopotential read in
  partial core-charges read in
  partial kinetic energy density read in
  atomic valenz-charges read in
  non local Contribution for L=           0  read in
    real space projection operators read in
  non local Contribution for L=           0  read in
    real space projection operators read in
  non local Contribution for L=           1  read in
    real space projection operators read in
  non local Contribution for L=           1  read in
    real space projection operators read in
    PAW grid and wavefunctions read in
 
   number of l-projection  operators is LMAX  =           4
   number of lm-projection operators is LMMAX =           8
 
 Optimization of the real space projectors (new method)

 maximal supplied QI-value         = 19.84
 optimisation between [QCUT,QGAM] = [ 10.12, 20.44] = [ 28.68,116.96] Ry 
 Optimized for a Real-space Cutoff    1.38 Angstroem

   l    n(q)    QCUT    max X(q) W(low)/X(q) W(high)/X(q)  e(spline) 
   0      8    10.119   159.560    0.58E-04    0.11E-03    0.54E-07
   0      8    10.119   115.863    0.56E-04    0.11E-03    0.54E-07
   1      8    10.119    88.339    0.22E-03    0.17E-03    0.19E-06
   1      8    10.119    48.592    0.22E-03    0.17E-03    0.18E-06
 -----------------------------------------------------------------------------
|                                                                             |
|               ----> ADVICE to this user running VASP <----                  |
|                                                                             |
|     You enforced a specific xc type in the INCAR file but a different       |
|     type was found in the POTCAR file.                                      |
|     I HOPE YOU KNOW WHAT YOU ARE DOING!                                     |
|                                                                             |
 -----------------------------------------------------------------------------

  PAW_PBE Si 05Jan2001                  :
 energy of atom  1       EATOM= -103.0669
 kinetic energy error for atom=    0.0012 (will be added to EATOM!!)
 
 
 POSCAR: Si8
  positions in direct lattice
  velocities in cartesian coordinates


 exchange-correlation table for PS
   RHO(1)=    0.500       N(1)  =     2000
   RHO(2)=  100.500       N(2)  =     4000
 


--------------------------------------------------------------------------------------------------------


 ion  position               nearest neighbor table
   1  0.000  0.000  0.000-  15 2.33  57 2.33  44 2.34  30 2.34
   2  0.000  0.000  0.500-  16 2.33  58 2.33  43 2.34  29 2.34
   3  0.000  0.500  0.000-  13 2.33  59 2.33  42 2.34  32 2.34
   4  0.000  0.500  0.500-  14 2.33  60 2.33  41 2.34  31 2.34
   5  0.500  0.000  0.000-  11 2.33  61 2.33  48 2.34  26 2.34
   6  0.500  0.000  0.500-  12 2.33  62 2.33  47 2.34  25 2.34
   7  0.500  0.500  0.000-   9 2.33  63 2.33  46 2.34  28 2.34
   8  0.500  0.500  0.500-  10 2.33  64 2.33  45 2.34  27 2.34
   9  0.375  0.375  0.125-   7 2.33  49 2.33  35 2.34  21 2.34
  10  0.375  0.375  0.625-   8 2.33  50 2.33  36 2.34  22 2.34
  11  0.375  0.875  0.125-   5 2.33  51 2.33  33 2.34  23 2.34
  12  0.375  0.875  0.625-   6 2.33  52 2.33  34 2.34  24 2.34
  13  0.875  0.375  0.125-   3 2.33  53 2.33  39 2.34  17 2.34
  14  0.875  0.375  0.625-   4 2.33  54 2.33  40 2.34  18 2.34
  15  0.875  0.875  0.125-   1 2.33  55 2.33  37 2.34  19 2.34
  16  0.875  0.875  0.625-   2 2.33  56 2.33  38 2.34  20 2.34
  17  0.000  0.250  0.250-  29 2.33  41 2.33  13 2.34  57 2.34
  18  0.000  0.250  0.750-  30 2.33  42 2.33  14 2.34  58 2.34
  19  0.000  0.750  0.250-  31 2.33  43 2.33  15 2.34  59 2.34
  20  0.000  0.750  0.750-  32 2.33  44 2.33  16 2.34  60 2.34
  21  0.500  0.250  0.250-  25 2.33  45 2.33   9 2.34  61 2.34
  22  0.500  0.250  0.750-  26 2.33  46 2.33  10 2.34  62 2.34
  23  0.500  0.750  0.250-  27 2.33  47 2.33  11 2.34  63 2.34
  24  0.500  0.750  0.750-  28 2.33  48 2.33  12 2.34  64 2.34
  25  0.375  0.125  0.375-  21 2.33  33 2.33   6 2.34  50 2.34
  26  0.375  0.125  0.875-  22 2.33  34 2.33   5 2.34  49 2.34
  27  0.375  0.625  0.375-  23 2.33  35 2.33   8 2.34  52 2.34
  28  0.375  0.625  0.875-  24 2.33  36 2.33   7 2.34  51 2.34
  29  0.875  0.125  0.375-  17 2.33  37 2.33   2 2.34  54 2.34
  30  0.875  0.125  0.875-  18 2.33  38 2.33   1 2.34  53 2.34
  31  0.875  0.625  0.375-  19 2.33  39 2.33   4 2.34  56 2.34
  32  0.875  0.625  0.875-  20 2.33  40 2.33   3 2.34  55 2.34
  33  0.250  0.000  0.250-  25 2.33  43 2.33  11 2.34  57 2.34
  34  0.250  0.000  0.750-  26 2.33  44 2.33  12 2.34  58 2.34
  35  0.250  0.500  0.250-  27 2.33  41 2.33   9 2.34  59 2.34
  36  0.250  0.500  0.750-  28 2.33  42 2.33  10 2.34  60 2.34
  37  0.750  0.000  0.250-  29 2.33  47 2.33  15 2.34  61 2.34
  38  0.750  0.000  0.750-  30 2.33  48 2.33  16 2.34  62 2.34
  39  0.750  0.500  0.250-  31 2.33  45 2.33  13 2.34  63 2.34
  40  0.750  0.500  0.750-  32 2.33  46 2.33  14 2.34  64 2.34
  41  0.125  0.375  0.375-  17 2.33  35 2.33   4 2.34  50 2.34
  42  0.125  0.375  0.875-  18 2.33  36 2.33   3 2.34  49 2.34
  43  0.125  0.875  0.375-  19 2.33  33 2.33   2 2.34  52 2.34
  44  0.125  0.875  0.875-  20 2.33  34 2.33   1 2.34  51 2.34
  45  0.625  0.375  0.375-  21 2.33  39 2.33   8 2.34  54 2.34
  46  0.625  0.375  0.875-  22 2.33  40 2.33   7 2.34  53 2.34
  47  0.625  0.875  0.375-  23 2.33  37 2.33   6 2.34  56 2.34
  48  0.625  0.875  0.875-  24 2.33  38 2.33   5 2.34  55 2.34
  49  0.250  0.250  0.000-   9 2.33  57 2.33  42 2.34  26 2.34
  50  0.250  0.250  0.500-  10 2.33  58 2.33  41 2.34  25 2.34
  51  0.250  0.750  0.000-  11 2.33  59 2.33  44 2.34  28 2.34
  52  0.250  0.750  0.500-  12 2.33  60 2.33  43 2.34  27 2.34
  53  0.750  0.250  0.000-  13 2.33  61 2.33  46 2.34  30 2.34
  54  0.750  0.250  0.500-  14 2.33  62 2.33  45 2.34  29 2.34
  55  0.750  0.750  0.000-  15 2.33  63 2.33  48 2.34  32 2.34
  56  0.750  0.750  0.500-  16 2.33  64 2.33  47 2.34  31 2.34
  57  0.125  0.125  0.125-   1 2.33  49 2.33  33 2.34  17 2.34
  58  0.125  0.125  0.625-   2 2.33  50 2.33  34 2.34  18 2.34
  59  0.125  0.625  0.125-   3 2.33  51 2.33  35 2.34  19 2.34
  60  0.125  0.625  0.625-   4 2.33  52 2.33  36 2.34  20 2.34
  61  0.625  0.125  0.125-   5 2.33  53 2.33  37 2.34  21 2.34
  62  0.625  0.125  0.625-   6 2.33  54 2.33  38 2.34  22 2.34
  63  0.625  0.625  0.125-   7 2.33  55 2.33  39 2.34  23 2.34
  64  0.625  0.625  0.625-   8 2.33  56 2.33  40 2.34  24 2.34
 
  LATTYP: Found a simple monoclinic cell.
 ALAT       =    10.7443075017
 B/A-ratio  =     1.0050219237
 C/A-ratio  =     1.0050250645
 COS(beta)  =    -0.0050125948
  
  Lattice vectors:
  
 A1 = (  10.7442735867,  -0.0269960040,   0.0000000000)
 A2 = (   0.0000000000,   0.0000000000, -10.7982645947)
 A3 = (  -0.0269960040,  10.7982645947,   0.0000000000)


Analysis of symmetry for initial positions (statically):
=====================================================================
 Subroutine PRICEL returns following result:
 
  LATTYP: Found a base centered monoclinic cell.
 ALAT       =     5.3721537508
 B/A-ratio  =     1.0050219237
 C/A-ratio  =     0.7071067482
 COS(beta)  =    -0.7035445632
  
  Lattice vectors:
  
 A1 = (  -2.6860683967,   0.0067490010,  -2.6995661487)
 A2 = (  -2.6860683967,   0.0067490010,   2.6995661487)
 A3 = (   2.6793193957,   2.6928171477,  -0.0000000000)
 
  32 primitive cells build up your supercell.
 

 Routine SETGRP: Setting up the symmetry group for a 
 simple monoclinic supercell.


 Subroutine GETGRP returns: Found  4 space group operations
 (whereof  2 operations were pure point group operations)
 out of a pool of  4 trial point group operations.


The static configuration has the point symmetry C_2 .
 The point group associated with its full space group is C_2h.


Analysis of symmetry for dynamics (positions and initial velocities):
=====================================================================
 Subroutine PRICEL returns following result:
 
  LATTYP: Found a base centered monoclinic cell.
 ALAT       =     5.3721537508
 B/A-ratio  =     1.0050219237
 C/A-ratio  =     0.7071067482
 COS(beta)  =    -0.7035445632
  
  Lattice vectors:
  
 A1 = (  -2.6860683967,   0.0067490010,  -2.6995661487)
 A2 = (  -2.6860683967,   0.0067490010,   2.6995661487)
 A3 = (   2.6793193957,   2.6928171477,  -0.0000000000)
 
  32 primitive cells build up your supercell.
 

 Routine SETGRP: Setting up the symmetry group for a 
 simple monoclinic supercell.


 Subroutine GETGRP returns: Found  4 space group operations
 (whereof  2 operations were pure point group operations)
 out of a pool of  4 trial point group operations.


The dynamic configuration has the point symmetry C_2 .
 The point group associated with its full space group is C_2h.


 Subroutine INISYM returns: Found  4 space group operations
 (whereof  2 operations are pure point group operations),
 and found    32 'primitive' translations


----------------------------------------------------------------------------------------

                                     Primitive cell                                     

  volume of cell :      39.1500

  direct lattice vectors                    reciprocal lattice vectors
    -2.686068397  0.006749001 -2.699566149    -0.185681466  0.184750737 -0.185214947
    -2.686068397  0.006749001  2.699566149    -0.185681466  0.184750737  0.185214947
     2.679319396  2.692817148 -0.000000000     0.000930746  0.370432220 -0.000000000

  length of vectors
     3.808236649  3.808236649  3.798686170     0.320803706  0.320803706  0.370433389

  position of ions in fractional coordinates (direct lattice)
     0.000000000  0.000000000  0.000000000
     0.750000000  0.250000000  0.500000000

  ion indices of the primitive-cell ions
   primitive index   ion index
                 1           1
                 2          15

----------------------------------------------------------------------------------------

 
 
 KPOINTS: Automatic mesh                          

Automatic generation of k-mesh.
 Grid dimensions read from file:
 generate k-points for:    2    2    2

 Generating k-lattice:

  Cartesian coordinates                     Fractional coordinates (reciprocal lattice)
     0.046536710  0.000116343  0.000000000     0.500000000 -0.000000000  0.000000000
     0.000116343  0.046304028  0.000000000     0.000000000  0.500000000  0.000000000
     0.000000000  0.000000000  0.046303737     0.000000000  0.000000000  0.500000000

  Length of vectors
     0.046536855  0.046304174  0.046303737

  Shift w.r.t. Gamma in fractional coordinates (k-lattice)
     0.000000000  0.000000000  0.000000000

 
 Subroutine IBZKPT returns following result:
 ===========================================
 
 Found      8 irreducible k-points:
 
 Following reciprocal coordinates:
            Coordinates               Weight
  0.000000  0.000000  0.000000      1.000000
  0.500000  0.000000  0.000000      1.000000
 -0.000000  0.500000  0.000000      1.000000
  0.500000  0.500000  0.000000      1.000000
  0.000000  0.000000  0.500000      1.000000
  0.500000  0.000000  0.500000      1.000000
 -0.000000  0.500000  0.500000      1.000000
  0.500000  0.500000  0.500000      1.000000
 
 Following cartesian coordinates:
            Coordinates               Weight
  0.000000  0.000000  0.000000      1.000000
  0.046537  0.000116  0.000000      1.000000
  0.000116  0.046304  0.000000      1.000000
  0.046653  0.046420  0.000000      1.000000
  0.000000  0.000000  0.046304      1.000000
  0.046537  0.000116  0.046304      1.000000
  0.000116  0.046304  0.046304      1.000000
  0.046653  0.046420  0.046304      1.000000
 


--------------------------------------------------------------------------------------------------------




 Dimension of arrays:
   k-points           NKPTS =      8   k-points in BZ     NKDIM =      8   number of bands    NBANDS=    162
   number of dos      NEDOS =    301   number of ions     NIONS =     64
   non local maximal  LDIM  =      4   non local SUM 2l+1 LMDIM =      8
   total plane-waves  NPLWV = 343000
   max r-space proj   IRMAX =   3067   max aug-charges    IRDMAX=  73423
   dimension x,y,z NGX =    70 NGY =   70 NGZ =   70
   dimension x,y,z NGXF=   140 NGYF=  140 NGZF=  140
   support grid    NGXF=   280 NGYF=  280 NGZF=  280
   ions per type =              64
   NGX,Y,Z   is equivalent  to a cutoff of  10.83, 10.78, 10.78 a.u.
   NGXF,Y,Z  is equivalent  to a cutoff of  21.66, 21.55, 21.55 a.u.

 SYSTEM =  Si64                                    
 POSCAR =  Si8                                     

 Startparameter for this run:
   NWRITE =      2    write-flag & timer
   PREC   = accura    normal or accurate (medium, high low for compatibility)
   ISTART =      0    job   : 0-new  1-cont  2-samecut
   ICHARG =      2    charge: 1-file 2-atom 10-const
   ISPIN  =      1    spin polarized calculation?
   LNONCOLLINEAR =      F non collinear calculations
   LSORBIT =      F    spin-orbit coupling
   INIWAV =      1    electr: 0-lowe 1-rand  2-diag
   LASPH  =      F    aspherical Exc in radial PAW
 Electronic Relaxation 1
   ENCUT  =  400.0 eV  29.40 Ry    5.42 a.u.  17.52 17.61 17.61*2*pi/ulx,y,z
   ENINI  =  400.0     initial cutoff
   ENAUG  =  322.1 eV  augmentation charge cutoff
   NELM   =     60;   NELMIN=  8; NELMDL= -5     # of ELM steps 
   EDIFF  = 0.1E-05   stopping-criterion for ELM
   LREAL  =      T    real-space projection
   NLSPLINE    = F    spline interpolate recip. space projectors
   LCOMPAT=      F    compatible to vasp.4.4
   GGA_COMPAT  = F    GGA compatible to vasp.4.4-vasp.4.6
   LMAXPAW     = -100 max onsite density
   LMAXMIX     =    2 max onsite mixed and CHGCAR
   VOSKOWN=      0    Vosko Wilk Nusair interpolation
   ROPT   =   -0.00025
 Ionic relaxation
   EDIFFG = -.1E-01   stopping-criterion for IOM
   NSW    =     60    number of steps for IOM
   NBLOCK =      1;   KBLOCK =     60    inner block; outer block 
   IBRION =      2    ionic relax: 0-MD 1-quasi-New 2-CG
   NFREE  =      1    steps in history (QN), initial steepest desc. (CG)
   ISIF   =      2    stress and relaxation
   IWAVPR =     11    prediction:  0-non 1-charg 2-wave 3-comb
   ISYM   =      2    0-nonsym 1-usesym 2-fastsym
   LCORR  =      T    Harris-Foulkes like correction to forces

   POTIM  = 0.5000    time-step for ionic-motion
   TEIN   =    0.0    initial temperature
   TEBEG  =    0.0;   TEEND  =   0.0 temperature during run
   SMASS  =  -3.00    Nose mass-parameter (am)
   estimated Nose-frequenzy (Omega)   =  0.10E-29 period in steps = 0.13E+47 mass=  -0.264E-26a.u.
   SCALEE = 1.0000    scale energy and forces
   NPACO  =    256;   APACO  = 10.0  distance and # of slots for P.C.
   PSTRESS=    0.0 pullay stress

  Mass of Ions in am
   POMASS =  28.09
  Ionic Valenz
   ZVAL   =   4.00
  Atomic Wigner-Seitz radii
   RWIGS  =  -1.00
  virtual crystal weights 
   VCA    =   1.00
   NELECT =     256.0000    total number of electrons
   NUPDOWN=      -1.0000    fix difference up-down

 DOS related values:
   EMIN   =  10.00;   EMAX   =-10.00  energy-range for DOS
   EFERMI =   0.00;   METHOD = LEGACY      
   ISMEAR =     1;   SIGMA  =   0.20  broadening in eV -4-tet -1-fermi 0-gaus

 Electronic relaxation 2 (details)
   IALGO  =     68    algorithm
   LDIAG  =      T    sub-space diagonalisation (order eigenvalues)
   LSUBROT=      F    optimize rotation matrix (better conditioning)
   TURBO    =      0    0=normal 1=particle mesh
   IRESTART =      0    0=no restart 2=restart with 2 vectors
   NREBOOT  =      0    no. of reboots
   NMIN     =      0    reboot dimension
   EREF     =   0.00    reference energy to select bands
   IMIX   =      4    mixing-type and parameters
     AMIX     =   0.40;   BMIX     =  1.00
     AMIX_MAG =   1.60;   BMIX_MAG =  1.00
     AMIN     =   0.10
     WC   =   100.;   INIMIX=   1;  MIXPRE=   1;  MAXMIX= -45

 Intra band minimization:
   WEIMIN = 0.0010     energy-eigenvalue tresh-hold
   EBREAK =  0.15E-08  absolut break condition
   DEPER  =   0.30     relativ break condition  

   TIME   =   0.40     timestep for ELM

  volume/ion in A,a.u.               =      19.58       132.10
  Fermi-wavevector in a.u.,A,eV,Ry     =   0.964260  1.822187 12.650656  0.929797
  Thomas-Fermi vector in A             =   2.093876
 
 Write flags
   LWAVE        =      F    write WAVECAR
   LDOWNSAMPLE  =      F    k-point downsampling of WAVECAR
   LCHARG       =      F    write CHGCAR
   LVTOT        =      F    write LOCPOT, total local potential
   LVHAR        =      F    write LOCPOT, Hartree potential only
   WRT_POTENTIAL= false  ! write potential to hdf5 file
   LELF         =      F    write electronic localiz. function (ELF)
   LORBIT       =      0    0 simple, 1 ext, 2 COOP (PROOUT), +10 PAW based schemes


 Dipole corrections
   LMONO      =      F    monopole corrections only (constant potential shift)
   LDIPOL     =      F    correct potential (dipole corrections)
   IDIPOL     =      0    1-x, 2-y, 3-z, 4-all directions 
   EPSILON    =  1.0000000 bulk dielectric constant
   LVACPOTAV  =      F  vacuum potentials using an averaging scheme for the charge density
   VACPOTFLAT =  0.1000000 required flatness to determine vacuum potential
 Exchange correlation treatment:
   GGA     = PS    functional components
   XC_C    = 1    coefficients multiplying the functional components
   LIBXC   =     F    Libxc                    
   VOSKOWN =     0    Vosko Wilk Nusair interpolation
   LHFCALC =     F    Hartree Fock is set to
   LHFONE  =     F    Hartree Fock one center treatment
   AEXX    =    0.0000 exact exchange contribution

 Parameters of functionals:
   PS:
     No parameter
 
 Van der Waals corrections
   IVDW    =     0    specifies the selected vdW correction

 Linear response parameters
   LEPSILON=     F    determine dielectric tensor
   LRPA    =     F    only Hartree local field effects (RPA)
   LNABLA  =     F    use nabla operator in PAW spheres
   LVEL    =     F    velocity operator in full k-point grid
   CSHIFT  =0.1000    complex shift for real part using Kramers Kronig
   OMEGAMAX=  -1.0    maximum frequency
   DEG_THRESHOLD= 0.2000000E-02 threshold for treating states as degnerate
   RTIME   =   -0.100 relaxation time in fs
  (WPLASMAI=    0.000 imaginary part of plasma frequency in eV, 0.658/RTIME)
   DFIELD  = 0.0000000 0.0000000 0.0000000 field for delta impulse in time
 
  Optional k-point grid parameters
   LKPOINTS_OPT  =     F    use optional k-point grid
   KPOINTS_OPT_MODE=     1    mode for optional k-point grid
 
 Orbital magnetization related:
   ORBITALMAG=     F  switch on orbital magnetization
   LCHIMAG   =     F  perturbation theory with respect to B field
   DQ        =  0.001000  dq finite difference perturbation B field
   LLRAUG    =     F  two centre corrections for induced B field
   LBONE     =     F  B-component reconstruction in AE one-centre
   LVGVCALC  =     T  calculate vGv susceptibility
   LVGVAPPL  =     F  apply vGv susceptibility instead of pGv for G=0

 Random number generation:
   RANDOM_GENERATOR = DEFAULT
   PCG_SEED         = not used


--------------------------------------------------------------------------------------------------------


 conjugate gradient relaxation of ions
 charge density and potential will be updated during run
 non-spin polarized calculation
 RMM-DIIS sequential band-by-band and
  variant of blocked Davidson during initial phase
 perform sub-space diagonalisation
    before iterative eigenvector-optimisation
 modified Broyden-mixing scheme, WC =      100.0
 initial mixing is a Kerker type mixing with AMIX =  0.4000 and BMIX =      1.0000
 Hartree-type preconditioning will be used
 using additional bands           34
 real space projection scheme for non local part
 use partial core corrections
 calculate Harris-corrections to forces 
   (improved forces if not selfconsistent)
 use gradient corrections 
 use of overlap-Matrix (Vanderbilt PP)
 Methfessel and Paxton  Order N= 1 SIGMA  =   0.20


--------------------------------------------------------------------------------------------------------


  energy-cutoff  :      400.00
  volume of cell :     1252.80
      direct lattice vectors                 reciprocal lattice vectors
    10.744273587 -0.026996004  0.000000000     0.093073419  0.000232687  0.000000000
    -0.026996004 10.798264595  0.000000000     0.000232687  0.092608055  0.000000000
     0.000000000  0.000000000 10.798264595     0.000000000  0.000000000  0.092607473

  length of vectors
    10.744307502 10.798298340 10.798264595     0.093073710  0.092608347  0.092607473


 
 k-points in units of 2pi/SCALE and weight: Automatic mesh                          
   0.00000000  0.00000000  0.00000000       0.125
   0.04653672  0.00011634  0.00000000       0.125
   0.00011634  0.04630403  0.00000000       0.125
   0.04665306  0.04642038  0.00000000       0.125
   0.00000000  0.00000000  0.04630374       0.125
   0.04653672  0.00011634  0.04630374       0.125
   0.00011634  0.04630403  0.04630374       0.125
   0.04665306  0.04642038  0.04630374       0.125
 
 k-points in reciprocal lattice and weights: Automatic mesh                          
   0.00000000  0.00000000  0.00000000       0.125
   0.50000000  0.00000000  0.00000000       0.125
  -0.00000000  0.50000000  0.00000000       0.125
   0.50000000  0.50000000  0.00000000       0.125
   0.00000000  0.00000000  0.50000000       0.125
   0.50000000  0.00000000  0.50000000       0.125
  -0.00000000  0.50000000  0.50000000       0.125
   0.50000000  0.50000000  0.50000000       0.125
 
 position of ions in fractional coordinates (direct lattice) 
   0.00000000  0.00000000  0.00000000
   0.00000000  0.00000000  0.50000000
   0.00000000  0.50000000  0.00000000
   0.00000000  0.50000000  0.50000000
   0.50000000  0.00000000  0.00000000
   0.50000000  0.00000000  0.50000000
   0.50000000  0.50000000  0.00000000
   0.50000000  0.50000000  0.50000000
   0.37500000  0.37500000  0.12500000
   0.37500000  0.37500000  0.62500000
   0.37500000  0.87500000  0.12500000
   0.37500000  0.87500000  0.62500000
   0.87500000  0.37500000  0.12500000
   0.87500000  0.37500000  0.62500000
   0.87500000  0.87500000  0.12500000
   0.87500000  0.87500000  0.62500000
   0.00000000  0.25000000  0.25000000
   0.00000000  0.25000000  0.75000000
   0.00000000  0.75000000  0.25000000
   0.00000000  0.75000000  0.75000000
   0.50000000  0.25000000  0.25000000
   0.50000000  0.25000000  0.75000000
   0.50000000  0.75000000  0.25000000
   0.50000000  0.75000000  0.75000000
   0.37500000  0.12500000  0.37500000
   0.37500000  0.12500000  0.87500000
   0.37500000  0.62500000  0.37500000
   0.37500000  0.62500000  0.87500000
   0.87500000  0.12500000  0.37500000
   0.87500000  0.12500000  0.87500000
   0.87500000  0.62500000  0.37500000
   0.87500000  0.62500000  0.87500000
   0.25000000  0.00000000  0.25000000
   0.25000000  0.00000000  0.75000000
   0.25000000  0.50000000  0.25000000
   0.25000000  0.50000000  0.75000000
   0.75000000  0.00000000  0.25000000
   0.75000000  0.00000000  0.75000000
   0.75000000  0.50000000  0.25000000
   0.75000000  0.50000000  0.75000000
   0.12500000  0.37500000  0.37500000
   0.12500000  0.37500000  0.87500000
   0.12500000  0.87500000  0.37500000
   0.12500000  0.87500000  0.87500000
   0.62500000  0.37500000  0.37500000
   0.62500000  0.37500000  0.87500000
   0.62500000  0.87500000  0.37500000
   0.62500000  0.87500000  0.87500000
   0.25000000  0.25000000  0.00000000
   0.25000000  0.25000000  0.50000000
   0.25000000  0.75000000  0.00000000
   0.25000000  0.75000000  0.50000000
   0.75000000  0.25000000  0.00000000
   0.75000000  0.25000000  0.50000000
   0.75000000  0.75000000  0.00000000
   0.75000000  0.75000000  0.50000000
   0.12500000  0.12500000  0.12500000
   0.12500000  0.12500000  0.62500000
   0.12500000  0.62500000  0.12500000
   0.12500000  0.62500000  0.62500000
   0.62500000  0.12500000  0.12500000
   0.62500000  0.12500000  0.62500000
   0.62500000  0.62500000  0.12500000
   0.62500000  0.62500000  0.62500000
 
 position of ions in cartesian coordinates  (Angst):
   0.00000000  0.00000000  0.00000000
   0.00000000  0.00000000  5.39913230
  -0.01349800  5.39913230  0.00000000
  -0.01349800  5.39913230  5.39913230
   5.37213679 -0.01349800  0.00000000
   5.37213679 -0.01349800  5.39913230
   5.35863879  5.38563430  0.00000000
   5.35863879  5.38563430  5.39913230
   4.01897909  4.03922572  1.34978307
   4.01897909  4.03922572  6.74891537
   4.00548109  9.43835802  1.34978307
   4.00548109  9.43835802  6.74891537
   9.39111589  4.02572772  1.34978307
   9.39111589  4.02572772  6.74891537
   9.37761788  9.42486002  1.34978307
   9.37761788  9.42486002  6.74891537
  -0.00674900  2.69956615  2.69956615
  -0.00674900  2.69956615  8.09869845
  -0.02024700  8.09869845  2.69956615
  -0.02024700  8.09869845  8.09869845
   5.36538779  2.68606815  2.69956615
   5.36538779  2.68606815  8.09869845
   5.35188979  8.08520044  2.69956615
   5.35188979  8.08520044  8.09869845
   4.02572809  1.33965957  4.04934922
   4.02572809  1.33965957  9.44848152
   4.01223009  6.73879187  4.04934922
   4.01223009  6.73879187  9.44848152
   9.39786489  1.32616157  4.04934922
   9.39786489  1.32616157  9.44848152
   9.38436689  6.72529387  4.04934922
   9.38436689  6.72529387  9.44848152
   2.68606840 -0.00674900  2.69956615
   2.68606840 -0.00674900  8.09869845
   2.67257039  5.39238330  2.69956615
   2.67257039  5.39238330  8.09869845
   8.05820519 -0.02024700  2.69956615
   8.05820519 -0.02024700  8.09869845
   8.04470719  5.37888529  2.69956615
   8.04470719  5.37888529  8.09869845
   1.33291070  4.04597472  4.04934922
   1.33291070  4.04597472  9.44848152
   1.31941269  9.44510702  4.04934922
   1.31941269  9.44510702  9.44848152
   6.70504749  4.03247672  4.04934922
   6.70504749  4.03247672  9.44848152
   6.69154949  9.43160902  4.04934922
   6.69154949  9.43160902  9.44848152
   2.67931940  2.69281715  0.00000000
   2.67931940  2.69281715  5.39913230
   2.66582139  8.09194945  0.00000000
   2.66582139  8.09194945  5.39913230
   8.05145619  2.67931915  0.00000000
   8.05145619  2.67931915  5.39913230
   8.03795819  8.07845144  0.00000000
   8.03795819  8.07845144  5.39913230
   1.33965970  1.34640857  1.34978307
   1.33965970  1.34640857  6.74891537
   1.32616170  6.74554087  1.34978307
   1.32616170  6.74554087  6.74891537
   6.71179649  1.33291057  1.34978307
   6.71179649  1.33291057  6.74891537
   6.69829849  6.73204287  1.34978307
   6.69829849  6.73204287  6.74891537
 


--------------------------------------------------------------------------------------------------------


 k-point     1 :   0.0000 0.0000 0.0000  plane waves:   22831
 k-point     2 :   0.5000 0.0000 0.0000  plane waves:   22740
 k-point     3 :  -0.0000 0.5000 0.0000  plane waves:   22768
 k-point     4 :   0.5000 0.5000 0.0000  plane waves:   22756
 k-point     5 :   0.0000 0.0000 0.5000  plane waves:   22756
 k-point     6 :   0.5000 0.0000 0.5000  plane waves:   22764
 k-point     7 :  -0.0000 0.5000 0.5000  plane waves:   22784
 k-point     8 :   0.5000 0.5000 0.5000  plane waves:   22684

 maximum and minimum number of plane-waves per node :      1945     1873

 maximum number of plane-waves:     22831
 maximum index in each direction: 
   IXMAX=   17   IYMAX=   17   IZMAX=   17
   IXMIN=  -18   IYMIN=  -18   IZMIN=  -18


 real space projection operators:
  total allocation   :      11741.50 KBytes
  max/ min on nodes  :       1020.25        844.75


 parallel 3D FFT for wavefunctions:
    minimum data exchange during FFTs selected (reduces bandwidth)
 parallel 3D FFT for charge:
    minimum data exchange during FFTs selected (reduces bandwidth)


 total amount of memory used by VASP MPI-rank0    80092. kBytes
=======================================================================

   base      :      30000. kBytes
   nonlr-proj:       4527. kBytes
   fftplans  :      17993. kBytes
   grid      :       6881. kBytes
   one-center:         18. kBytes
   wavefun   :      20673. kBytes
 
     INWAV:  cpu time      0.0000: real time      0.0000
 Broyden mixing: mesh for mixing (old mesh)
   NGX = 35   NGY = 35   NGZ = 35
  (NGX  =140   NGY  =140   NGZ  =140)
  gives a total of  42875 points

 initial charge density was supplied:
 charge density of overlapping atoms calculated
 number of electron     256.0000000 magnetization 
 keeping initial charge density in first step


--------------------------------------------------------------------------------------------------------


 Maximum index for non-local projection operator          270
 Maximum index for augmentation-charges         3631 (set IRDMAX)


--------------------------------------------------------------------------------------------------------


 First call to EWALD:  gamma=   0.164
 Maximum number of real-space cells 3x 3x 3
 Maximum number of reciprocal cells 3x 3x 3

    FEWALD:  cpu time      0.0034: real time      0.0034


--------------------------------------- Ionic step        1  -------------------------------------------




--------------------------------------- Iteration      1(   1)  ---------------------------------------


    POTLOK:  cpu time      0.0804: real time      0.0844
    SETDIJ:  cpu time      0.0761: real time      0.0801
     EDDAV:  cpu time      1.2515: real time      1.3141
       DOS:  cpu time      0.0042: real time      0.0043
    --------------------------------------------
      LOOP:  cpu time      1.4122: real time      1.4830

 eigenvalue-minimisations  :  2592
 total energy-change (2. order) : 0.5602574E+03  (-0.8411683E+04)
 number of electron     256.0000000 magnetization 
 augmentation part      256.0000000 magnetization 

 Free energy of the ion-electron system (eV)
  ---------------------------------------------------
  alpha Z        PSCENC =       110.06068011
  Ewald energy   TEWEN  =     -7368.15918099
  -Hartree energ DENC   =      -341.49552534
  -exchange      EXHF   =         0.00000000
  -V(xc)+E(xc)   XCENC  =      -555.95507272
  PAW double counting   =      5598.62625415    -4492.17844134
  entropy T*S    EENTRO =        -0.00193589
  eigenvalues    EBANDS =      1044.56473983
  atomic energy  EATOM  =      6564.79586099
  Solvation  Ediel_sol  =         0.00000000
  ---------------------------------------------------
  free energy    TOTEN  =       560.25737880 eV

  energy without entropy =      560.25931470  energy(sigma->0) =      560.25802410


--------------------------------------------------------------------------------------------------------




--------------------------------------- Iteration      1(   2)  ---------------------------------------


     EDDAV:  cpu time      1.3350: real time      1.3443
       DOS:  cpu time      0.0012: real time      0.0012
    --------------------------------------------
      LOOP:  cpu time      1.3363: real time      1.3456

 eigenvalue-minimisations  :  3088
 total energy-change (2. order) :-0.8704013E+03  (-0.8261657E+03)
 number of electron     256.0000000 magnetization 
 augmentation part      256.0000000 magnetization 

 Free energy of the ion-electron system (eV)
  ---------------------------------------------------
  alpha Z        PSCENC =       110.06068011
  Ewald energy   TEWEN  =     -7368.15918099
  -Hartree energ DENC   =      -341.49552534
  -exchange      EXHF   =         0.00000000
  -V(xc)+E(xc)   XCENC  =      -555.95507272
  PAW double counting   =      5598.62625415    -4492.17844134
  entropy T*S    EENTRO =         0.00841652
  eigenvalues    EBANDS =       174.15307828
  atomic energy  EATOM  =      6564.79586099
  Solvation  Ediel_sol  =         0.00000000
  ---------------------------------------------------
  free energy    TOTEN  =      -310.14393034 eV

  energy without entropy =     -310.15234686  energy(sigma->0) =     -310.14673584


--------------------------------------------------------------------------------------------------------




--------------------------------------- Iteration      1(   3)  ---------------------------------------


     EDDAV:  cpu time      1.3473: real time      1.3611
       DOS:  cpu time      0.0013: real time      0.0013
    --------------------------------------------
      LOOP:  cpu time      1.3486: real time      1.3625

 eigenvalue-minimisations  :  3152
 total energy-change (2. order) :-0.6318499E+02  (-0.6180737E+02)
 number of electron     256.0000000 magnetization 
 augmentation part      256.0000000 magnetization 

 Free energy of the ion-electron system (eV)
  ---------------------------------------------------
  alpha Z        PSCENC =       110.06068011
  Ewald energy   TEWEN  =     -7368.15918099
  -Hartree energ DENC   =      -341.49552534
  -exchange      EXHF   =         0.00000000
  -V(xc)+E(xc)   XCENC  =      -555.95507272
  PAW double counting   =      5598.62625415    -4492.17844134
  entropy T*S    EENTRO =         0.00806498
  eigenvalues    EBANDS =       110.96844166
  atomic energy  EATOM  =      6564.79586099
  Solvation  Ediel_sol  =         0.00000000
  ---------------------------------------------------
  free energy    TOTEN  =      -373.32891850 eV

  energy without entropy =     -373.33698348  energy(sigma->0) =     -373.33160682


--------------------------------------------------------------------------------------------------------




--------------------------------------- Iteration      1(   4)  ---------------------------------------


     EDDAV:  cpu time      1.3175: real time      1.3327
       DOS:  cpu time      0.0011: real time      0.0011
    --------------------------------------------
      LOOP:  cpu time      1.3186: real time      1.3338

 eigenvalue-minimisations  :  3096
 total energy-change (2. order) :-0.1634383E+01  (-0.1623368E+01)
 number of electron     256.0000000 magnetization 
 augmentation part      256.0000000 magnetization 

 Free energy of the ion-electron system (eV)
  ---------------------------------------------------
  alpha Z        PSCENC =       110.06068011
  Ewald energy   TEWEN  =     -7368.15918099
  -Hartree energ DENC   =      -341.49552534
  -exchange      EXHF   =         0.00000000
  -V(xc)+E(xc)   XCENC  =      -555.95507272
  PAW double counting   =      5598.62625415    -4492.17844134
  entropy T*S    EENTRO =         0.00838139
  eigenvalues    EBANDS =       109.33374274
  atomic energy  EATOM  =      6564.79586099
  Solvation  Ediel_sol  =         0.00000000
  ---------------------------------------------------
  free energy    TOTEN  =      -374.96330100 eV

  energy without entropy =     -374.97168239  energy(sigma->0) =     -374.96609480


--------------------------------------------------------------------------------------------------------




--------------------------------------- Iteration      1(   5)  ---------------------------------------


     EDDAV:  cpu time      1.3311: real time      1.3487
       DOS:  cpu time      0.0013: real time      0.0013
    CHARGE:  cpu time      0.2378: real time      0.2400
    MIXING:  cpu time      0.0068: real time      0.0068
    --------------------------------------------
      LOOP:  cpu time      1.5770: real time      1.5968

 eigenvalue-minimisations  :  3098
 total energy-change (2. order) :-0.5231518E-01  (-0.5222825E-01)
 number of electron     256.0000001 magnetization 
 augmentation part      -15.0163038 magnetization 

 Broyden mixing:
  rms(total) = 0.28960E+01    rms(broyden)= 0.28960E+01
  rms(prec ) = 0.31925E+01
  weight for this iteration     100.00

 Free energy of the ion-electron system (eV)
  ---------------------------------------------------
  alpha Z        PSCENC =       110.06068011
  Ewald energy   TEWEN  =     -7368.15918099
  -Hartree energ DENC   =      -341.49552534
  -exchange      EXHF   =         0.00000000
  -V(xc)+E(xc)   XCENC  =      -555.95507272
  PAW double counting   =      5598.62625415    -4492.17844134
  entropy T*S    EENTRO =         0.00835040
  eigenvalues    EBANDS =       109.28145855
  atomic energy  EATOM  =      6564.79586099
  Solvation  Ediel_sol  =         0.00000000
  ---------------------------------------------------
  free energy    TOTEN  =      -375.01561618 eV

  energy without entropy =     -375.02396658  energy(sigma->0) =     -375.01839965


--------------------------------------------------------------------------------------------------------




--------------------------------------- Iteration      1(   6)  ---------------------------------------


    POTLOK:  cpu time      0.0749: real time      0.0894
    SETDIJ:  cpu time      0.0695: real time      0.0701
    EDDIAG:  cpu time      0.1341: real time      0.1344
  RMM-DIIS:  cpu time      0.6964: real time      0.6980
    ORTHCH:  cpu time      0.0207: real time      0.0207
       DOS:  cpu time      0.0015: real time      0.0015
    CHARGE:  cpu time      0.2272: real time      0.2277
    MIXING:  cpu time      0.0062: real time      0.0091
    --------------------------------------------
      LOOP:  cpu time      1.2307: real time      1.2511

 eigenvalue-minimisations  :  2592
 total energy-change (2. order) : 0.5315293E+01  (-0.2688179E+00)
 number of electron     256.0000001 magnetization 
 augmentation part      -14.8483937 magnetization 

 Broyden mixing:
  rms(total) = 0.17435E+01    rms(broyden)= 0.17435E+01
  rms(prec ) = 0.19123E+01
  weight for this iteration     100.00

 eigenvalues of (default mixing * dielectric matrix)
  average eigenvalue GAMMA=   2.5073
  2.5073

 Free energy of the ion-electron system (eV)
  ---------------------------------------------------
  alpha Z        PSCENC =       110.06068011
  Ewald energy   TEWEN  =     -7368.15918099
  -Hartree energ DENC   =      -388.82006610
  -exchange      EXHF   =         0.00000000
  -V(xc)+E(xc)   XCENC  =      -548.47164646
  PAW double counting   =     12640.67520660   -11537.72630607
  entropy T*S    EENTRO =         0.00926964
  eigenvalues    EBANDS =       157.93585923
  atomic energy  EATOM  =      6564.79586099
  Solvation  Ediel_sol  =         0.00000000
  ---------------------------------------------------
  free energy    TOTEN  =      -369.70032303 eV

  energy without entropy =     -369.70959267  energy(sigma->0) =     -369.70341291


--------------------------------------------------------------------------------------------------------




--------------------------------------- Iteration      1(   7)  ---------------------------------------


    POTLOK:  cpu time      0.0735: real time      0.0869
    SETDIJ:  cpu time      0.0702: real time      0.0708
    EDDIAG:  cpu time      0.1355: real time      0.1358
  RMM-DIIS:  cpu time      0.7041: real time      0.7057
    ORTHCH:  cpu time      0.0210: real time      0.0210
       DOS:  cpu time      0.0015: real time      0.0015
    CHARGE:  cpu time      0.2290: real time      0.2295
    MIXING:  cpu time      0.0060: real time      0.0072
    --------------------------------------------
      LOOP:  cpu time      1.2407: real time      1.2582

 eigenvalue-minimisations  :  2661
 total energy-change (2. order) : 0.2395953E+01  (-0.6918111E+00)
 number of electron     256.0000001 magnetization 
 augmentation part      -14.6118010 magnetization 

 Broyden mixing:
  rms(total) = 0.10116E+00    rms(broyden)= 0.10116E+00
  rms(prec ) = 0.12725E+00
  weight for this iteration     100.00

 eigenvalues of (default mixing * dielectric matrix)
  average eigenvalue GAMMA=   2.2564
  2.2564  2.2564

 Free energy of the ion-electron system (eV)
  ---------------------------------------------------
  alpha Z        PSCENC =       110.06068011
  Ewald energy   TEWEN  =     -7368.15918099
  -Hartree energ DENC   =      -466.96392702
  -exchange      EXHF   =         0.00000000
  -V(xc)+E(xc)   XCENC  =      -535.54226524
  PAW double counting   =     29640.69393201   -28542.59928801
  entropy T*S    EENTRO =         0.03281474
  eigenvalues    EBANDS =       230.37700310
  atomic energy  EATOM  =      6564.79586099
  Solvation  Ediel_sol  =         0.00000000
  ---------------------------------------------------
  free energy    TOTEN  =      -367.30437031 eV

  energy without entropy =     -367.33718505  energy(sigma->0) =     -367.31530855


--------------------------------------------------------------------------------------------------------




--------------------------------------- Iteration      1(   8)  ---------------------------------------


    POTLOK:  cpu time      0.0742: real time      0.0885
    SETDIJ:  cpu time      0.0733: real time      0.0740
    EDDIAG:  cpu time      0.1359: real time      0.1364
  RMM-DIIS:  cpu time      0.6952: real time      0.6968
    ORTHCH:  cpu time      0.0216: real time      0.0217
       DOS:  cpu time      0.0017: real time      0.0017
    CHARGE:  cpu time      0.2303: real time      0.2308
    MIXING:  cpu time      0.0067: real time      0.0072
    --------------------------------------------
      LOOP:  cpu time      1.2390: real time      1.2570

 eigenvalue-minimisations  :  2610
 total energy-change (2. order) :-0.3783423E-01  (-0.6213565E-01)
 number of electron     256.0000001 magnetization 
 augmentation part      -14.6648163 magnetization 

 Broyden mixing:
  rms(total) = 0.49862E-01    rms(broyden)= 0.49862E-01
  rms(prec ) = 0.53332E-01
  weight for this iteration     100.00

 eigenvalues of (default mixing * dielectric matrix)
  average eigenvalue GAMMA=   2.0941
  2.5426  1.8699  1.8699

 Free energy of the ion-electron system (eV)
  ---------------------------------------------------
  alpha Z        PSCENC =       110.06068011
  Ewald energy   TEWEN  =     -7368.15918099
  -Hartree energ DENC   =      -459.35383167
  -exchange      EXHF   =         0.00000000
  -V(xc)+E(xc)   XCENC  =      -536.16416113
  PAW double counting   =     29318.69784398   -28219.67750563
  entropy T*S    EENTRO =         0.03032288
  eigenvalues    EBANDS =       222.42776692
  atomic energy  EATOM  =      6564.79586099
  Solvation  Ediel_sol  =         0.00000000
  ---------------------------------------------------
  free energy    TOTEN  =      -367.34220454 eV

  energy without entropy =     -367.37252742  energy(sigma->0) =     -367.35231216


--------------------------------------------------------------------------------------------------------




--------------------------------------- Iteration      1(   9)  ---------------------------------------


    POTLOK:  cpu time      0.0742: real time      0.0885
    SETDIJ:  cpu time      0.0714: real time      0.0719
    EDDIAG:  cpu time      0.1343: real time      0.1346
  RMM-DIIS:  cpu time      0.7090: real time      0.7106
    ORTHCH:  cpu time      0.0215: real time      0.0215
       DOS:  cpu time      0.0015: real time      0.0015
    CHARGE:  cpu time      0.2284: real time      0.2289
    MIXING:  cpu time      0.0069: real time      0.0069
    --------------------------------------------
      LOOP:  cpu time      1.2472: real time      1.2645

 eigenvalue-minimisations  :  2672
 total energy-change (2. order) :-0.2024291E-01  (-0.1880621E-01)
 number of electron     256.0000001 magnetization 
 augmentation part      -14.6533417 magnetization 

 Broyden mixing:
  rms(total) = 0.57866E-01    rms(broyden)= 0.57866E-01
  rms(prec ) = 0.65073E-01
  weight for this iteration     100.00

 eigenvalues of (default mixing * dielectric matrix)
  average eigenvalue GAMMA=   1.9204
  2.5309  2.3658  2.3658  0.4193

 Free energy of the ion-electron system (eV)
  ---------------------------------------------------
  alpha Z        PSCENC =       110.06068011
  Ewald energy   TEWEN  =     -7368.15918099
  -Hartree energ DENC   =      -462.17620553
  -exchange      EXHF   =         0.00000000
  -V(xc)+E(xc)   XCENC  =      -535.77863574
  PAW double counting   =     29665.72592162   -28566.93407774
  entropy T*S    EENTRO =         0.03099986
  eigenvalues    EBANDS =       225.07218997
  atomic energy  EATOM  =      6564.79586099
  Solvation  Ediel_sol  =         0.00000000
  ---------------------------------------------------
  free energy    TOTEN  =      -367.36244745 eV

  energy without entropy =     -367.39344731  energy(sigma->0) =     -367.37278074


--------------------------------------------------------------------------------------------------------




--------------------------------------- Iteration      1(  10)  ---------------------------------------


    POTLOK:  cpu time      0.0788: real time      0.0933
    SETDIJ:  cpu time      0.0661: real time      0.0663
    EDDIAG:  cpu time      0.1324: real time      0.1327
  RMM-DIIS:  cpu time      0.7235: real time      0.7482
    ORTHCH:  cpu time      0.0211: real time      0.0212
       DOS:  cpu time      0.0017: real time      0.0017
    CHARGE:  cpu time      0.2338: real time      0.2343
    MIXING:  cpu time      0.0080: real time      0.0080
    --------------------------------------------
      LOOP:  cpu time      1.2654: real time      1.3058

 eigenvalue-minimisations  :  2730
 total energy-change (2. order) :-0.3262400E-02  (-0.3255647E-02)
 number of electron     256.0000001 magnetization 
 augmentation part      -14.6601818 magnetization 

 Broyden mixing:
  rms(total) = 0.70386E-01    rms(broyden)= 0.70386E-01
  rms(prec ) = 0.76602E-01
  weight for this iteration     100.00

 eigenvalues of (default mixing * dielectric matrix)
  average eigenvalue GAMMA=   1.4621
  2.6296  1.9932  1.9932  0.6416  0.0527

 Free energy of the ion-electron system (eV)
  ---------------------------------------------------
  alpha Z        PSCENC =       110.06068011
  Ewald energy   TEWEN  =     -7368.15918099
  -Hartree energ DENC   =      -462.16712779
  -exchange      EXHF   =         0.00000000
  -V(xc)+E(xc)   XCENC  =      -535.77940973
  PAW double counting   =     29663.39498178   -28564.60276051
  entropy T*S    EENTRO =         0.03099619
  eigenvalues    EBANDS =       225.06025010
  atomic energy  EATOM  =      6564.79586099
  Solvation  Ediel_sol  =         0.00000000
  ---------------------------------------------------
  free energy    TOTEN  =      -367.36570985 eV

  energy without entropy =     -367.39670604  energy(sigma->0) =     -367.37604191


--------------------------------------------------------------------------------------------------------




--------------------------------------- Iteration      1(  11)  ---------------------------------------


    POTLOK:  cpu time      0.0765: real time      0.0963
    SETDIJ:  cpu time      0.0664: real time      0.0666
    EDDIAG:  cpu time      0.1366: real time      0.1369
  RMM-DIIS:  cpu time      0.6891: real time      0.7007
    ORTHCH:  cpu time      0.0204: real time      0.0210
       DOS:  cpu time      0.0024: real time      0.0024
    CHARGE:  cpu time      0.2296: real time      0.2337
    MIXING:  cpu time      0.0078: real time      0.0078
    --------------------------------------------
      LOOP:  cpu time      1.2288: real time      1.2653

 eigenvalue-minimisations  :  2592
 total energy-change (2. order) : 0.2622632E-02  (-0.1058524E-02)
 number of electron     256.0000001 magnetization 
 augmentation part      -14.6736361 magnetization 

 Broyden mixing:
  rms(total) = 0.82342E-01    rms(broyden)= 0.82342E-01
  rms(prec ) = 0.83133E-01
  weight for this iteration     100.00

 eigenvalues of (default mixing * dielectric matrix)
  average eigenvalue GAMMA=   1.2770
  2.5009  2.5009  1.4160  0.5811  0.5811  0.0818

 Free energy of the ion-electron system (eV)
  ---------------------------------------------------
  alpha Z        PSCENC =       110.06068011
  Ewald energy   TEWEN  =     -7368.15918099
  -Hartree energ DENC   =      -459.93128065
  -exchange      EXHF   =         0.00000000
  -V(xc)+E(xc)   XCENC  =      -535.92488465
  PAW double counting   =     29694.88346942   -28595.83723329
  entropy T*S    EENTRO =         0.03009854
  eigenvalues    EBANDS =       222.71938330
  atomic energy  EATOM  =      6564.79586099
  Solvation  Ediel_sol  =         0.00000000
  ---------------------------------------------------
  free energy    TOTEN  =      -367.36308722 eV

  energy without entropy =     -367.39318576  energy(sigma->0) =     -367.37312006


--------------------------------------------------------------------------------------------------------




--------------------------------------- Iteration      1(  12)  ---------------------------------------


    POTLOK:  cpu time      0.0765: real time      0.0946
    SETDIJ:  cpu time      0.0657: real time      0.0658
    EDDIAG:  cpu time      0.1324: real time      0.1326
  RMM-DIIS:  cpu time      0.6916: real time      0.7108
    ORTHCH:  cpu time      0.0214: real time      0.0216
       DOS:  cpu time      0.0013: real time      0.0013
    CHARGE:  cpu time      0.2289: real time      0.2391
    MIXING:  cpu time      0.0042: real time      0.0060
    --------------------------------------------
      LOOP:  cpu time      1.2219: real time      1.2718

 eigenvalue-minimisations  :  2603
 total energy-change (2. order) : 0.8999730E-04  (-0.1744699E-03)
 number of electron     256.0000001 magnetization 
 augmentation part      -14.6775320 magnetization 

 Broyden mixing:
  rms(total) = 0.95049E-01    rms(broyden)= 0.95049E-01
  rms(prec ) = 0.95737E-01
  weight for this iteration     100.00

 eigenvalues of (default mixing * dielectric matrix)
  average eigenvalue GAMMA=   1.1627
  2.4946  2.4946  1.4098  0.6409  0.5074  0.5074  0.0843

 Free energy of the ion-electron system (eV)
  ---------------------------------------------------
  alpha Z        PSCENC =       110.06068011
  Ewald energy   TEWEN  =     -7368.15918099
  -Hartree energ DENC   =      -459.61296584
  -exchange      EXHF   =         0.00000000
  -V(xc)+E(xc)   XCENC  =      -535.96815467
  PAW double counting   =     29648.02569377   -28548.98045621
  entropy T*S    EENTRO =         0.03005533
  eigenvalues    EBANDS =       222.44547029
  atomic energy  EATOM  =      6564.79586099
  Solvation  Ediel_sol  =         0.00000000
  ---------------------------------------------------
  free energy    TOTEN  =      -367.36299722 eV

  energy without entropy =     -367.39305255  energy(sigma->0) =     -367.37301566


--------------------------------------------------------------------------------------------------------




--------------------------------------- Iteration      1(  13)  ---------------------------------------


    POTLOK:  cpu time      0.0776: real time      0.0931
    SETDIJ:  cpu time      0.0693: real time      0.0696
    EDDIAG:  cpu time      0.1364: real time      0.1369
  RMM-DIIS:  cpu time      0.7215: real time      0.7246
    ORTHCH:  cpu time      0.0214: real time      0.0215
       DOS:  cpu time      0.0013: real time      0.0013
    CHARGE:  cpu time      0.2285: real time      0.2300
    MIXING:  cpu time      0.0066: real time      0.0067
    --------------------------------------------
      LOOP:  cpu time      1.2626: real time      1.2836

 eigenvalue-minimisations  :  2748
 total energy-change (2. order) :-0.1208187E-03  (-0.3589979E-04)
 number of electron     256.0000001 magnetization 
 augmentation part      -14.6778830 magnetization 

 Broyden mixing:
  rms(total) = 0.95101E-01    rms(broyden)= 0.95101E-01
  rms(prec ) = 0.95725E-01
  weight for this iteration     100.00

 eigenvalues of (default mixing * dielectric matrix)
  average eigenvalue GAMMA=   1.5137
  2.5280  2.5280  2.5694  1.7725  1.1575  0.7349  0.7349  0.0848

 Free energy of the ion-electron system (eV)
  ---------------------------------------------------
  alpha Z        PSCENC =       110.06068011
  Ewald energy   TEWEN  =     -7368.15918099
  -Hartree energ DENC   =      -459.67238257
  -exchange      EXHF   =         0.00000000
  -V(xc)+E(xc)   XCENC  =      -535.96192751
  PAW double counting   =     29655.60078199   -28556.55550106
  entropy T*S    EENTRO =         0.03005564
  eigenvalues    EBANDS =       222.49849536
  atomic energy  EATOM  =      6564.79586099
  Solvation  Ediel_sol  =         0.00000000
  ---------------------------------------------------
  free energy    TOTEN  =      -367.36311804 eV

  energy without entropy =     -367.39317368  energy(sigma->0) =     -367.37313659


--------------------------------------------------------------------------------------------------------




--------------------------------------- Iteration      1(  14)  ---------------------------------------


    POTLOK:  cpu time      0.0846: real time      0.0956
    SETDIJ:  cpu time      0.0703: real time      0.0705
    EDDIAG:  cpu time      0.1323: real time      0.1326
  RMM-DIIS:  cpu time      0.6867: real time      0.6885
    ORTHCH:  cpu time      0.0208: real time      0.0209
       DOS:  cpu time      0.0015: real time      0.0015
    CHARGE:  cpu time      0.2281: real time      0.2289
    MIXING:  cpu time      0.0070: real time      0.0070
    --------------------------------------------
      LOOP:  cpu time      1.2312: real time      1.2455

 eigenvalue-minimisations  :  2592
 total energy-change (2. order) : 0.1476245E-02  (-0.5892569E-04)
 number of electron     256.0000001 magnetization 
 augmentation part      -14.6799939 magnetization 

 Broyden mixing:
  rms(total) = 0.13288E+00    rms(broyden)= 0.13288E+00
  rms(prec ) = 0.13424E+00
  weight for this iteration     100.00

 eigenvalues of (default mixing * dielectric matrix)
  average eigenvalue GAMMA=   1.4799
  3.1460  2.3095  2.3095  1.4670  1.4670  0.9883  0.7735  0.7735  0.0848

 Free energy of the ion-electron system (eV)
  ---------------------------------------------------
  alpha Z        PSCENC =       110.06068011
  Ewald energy   TEWEN  =     -7368.15918099
  -Hartree energ DENC   =      -458.97900723
  -exchange      EXHF   =         0.00000000
  -V(xc)+E(xc)   XCENC  =      -536.02135822
  PAW double counting   =     29673.53031338   -28574.51345463
  entropy T*S    EENTRO =         0.03006820
  eigenvalues    EBANDS =       221.89443659
  atomic energy  EATOM  =      6564.79586099
  Solvation  Ediel_sol  =         0.00000000
  ---------------------------------------------------
  free energy    TOTEN  =      -367.36164179 eV

  energy without entropy =     -367.39170999  energy(sigma->0) =     -367.37166453


--------------------------------------------------------------------------------------------------------




--------------------------------------- Iteration      1(  15)  ---------------------------------------


    POTLOK:  cpu time      0.0720: real time      0.0871
    SETDIJ:  cpu time      0.0740: real time      0.0742
    EDDIAG:  cpu time      0.1371: real time      0.1375
  RMM-DIIS:  cpu time      0.6880: real time      0.6895
    ORTHCH:  cpu time      0.0208: real time      0.0208
       DOS:  cpu time      0.0016: real time      0.0017
    CHARGE:  cpu time      0.2288: real time      0.2297
    MIXING:  cpu time      0.0073: real time      0.0074
    --------------------------------------------
      LOOP:  cpu time      1.2298: real time      1.2479

 eigenvalue-minimisations  :  2594
 total energy-change (2. order) :-0.1183405E-03  (-0.1675434E-04)
 number of electron     256.0000001 magnetization 
 augmentation part      -14.6818313 magnetization 

 Broyden mixing:
  rms(total) = 0.14008E+00    rms(broyden)= 0.14008E+00
  rms(prec ) = 0.14146E+00
  weight for this iteration     100.00

 eigenvalues of (default mixing * dielectric matrix)
  average eigenvalue GAMMA=   1.4955
  3.0729  2.3854  2.3854  1.8889  1.8889  0.9442  0.7797  0.7797  0.7448  0.0848

 Free energy of the ion-electron system (eV)
  ---------------------------------------------------
  alpha Z        PSCENC =       110.06068011
  Ewald energy   TEWEN  =     -7368.15918099
  -Hartree energ DENC   =      -458.75259883
  -exchange      EXHF   =         0.00000000
  -V(xc)+E(xc)   XCENC  =      -536.03264690
  PAW double counting   =     29700.53812032   -28601.50849901
  entropy T*S    EENTRO =         0.02999595
  eigenvalues    EBANDS =       221.66650822
  atomic energy  EATOM  =      6564.79586099
  Solvation  Ediel_sol  =         0.00000000
  ---------------------------------------------------
  free energy    TOTEN  =      -367.36176013 eV

  energy without entropy =     -367.39175608  energy(sigma->0) =     -367.37175878


--------------------------------------------------------------------------------------------------------




--------------------------------------- Iteration      1(  16)  ---------------------------------------


    POTLOK:  cpu time      0.0784: real time      0.0949
    SETDIJ:  cpu time      0.0685: real time      0.0687
    EDDIAG:  cpu time      0.1324: real time      0.1327
  RMM-DIIS:  cpu time      0.6923: real time      0.6941
    ORTHCH:  cpu time      0.0211: real time      0.0211
       DOS:  cpu time      0.0025: real time      0.0025
    CHARGE:  cpu time      0.2314: real time      0.2323
    MIXING:  cpu time      0.0108: real time      0.0112
    --------------------------------------------
      LOOP:  cpu time      1.2374: real time      1.2574

 eigenvalue-minimisations  :  2594
 total energy-change (2. order) :-0.2716883E-03  (-0.2322098E-05)
 number of electron     256.0000001 magnetization 
 augmentation part      -14.6816625 magnetization 

 Broyden mixing:
  rms(total) = 0.14000E+00    rms(broyden)= 0.14000E+00
  rms(prec ) = 0.14121E+00
  weight for this iteration     100.00

 eigenvalues of (default mixing * dielectric matrix)
  average eigenvalue GAMMA=   1.5316
  2.9260  2.2675  2.2675  2.2915  2.2915  1.0898  1.0898  0.8446  0.8446  0.8503
  0.0848

 Free energy of the ion-electron system (eV)
  ---------------------------------------------------
  alpha Z        PSCENC =       110.06068011
  Ewald energy   TEWEN  =     -7368.15918099
  -Hartree energ DENC   =      -458.91123542
  -exchange      EXHF   =         0.00000000
  -V(xc)+E(xc)   XCENC  =      -536.01242165
  PAW double counting   =     29737.81250155   -28638.78447949
  entropy T*S    EENTRO =         0.03000784
  eigenvalues    EBANDS =       221.80623522
  atomic energy  EATOM  =      6564.79586099
  Solvation  Ediel_sol  =         0.00000000
  ---------------------------------------------------
  free energy    TOTEN  =      -367.36203182 eV

  energy without entropy =     -367.39203966  energy(sigma->0) =     -367.37203444


--------------------------------------------------------------------------------------------------------




--------------------------------------- Iteration      1(  17)  ---------------------------------------


    POTLOK:  cpu time      0.0755: real time      0.0891
    SETDIJ:  cpu time      0.0738: real time      0.0739
    EDDIAG:  cpu time      0.1352: real time      0.1355
  RMM-DIIS:  cpu time      0.5769: real time      0.5782
    ORTHCH:  cpu time      0.0214: real time      0.0215
       DOS:  cpu time      0.0019: real time      0.0019
    CHARGE:  cpu time      0.2279: real time      0.2283
    MIXING:  cpu time      0.0114: real time      0.0114
    --------------------------------------------
      LOOP:  cpu time      1.1240: real time      1.1398

 eigenvalue-minimisations  :  2069
 total energy-change (2. order) :-0.2142740E-04  (-0.6769706E-06)
 number of electron     256.0000001 magnetization 
 augmentation part      -14.6818399 magnetization 

 Broyden mixing:
  rms(total) = 0.13933E+00    rms(broyden)= 0.13933E+00
  rms(prec ) = 0.14054E+00
  weight for this iteration     100.00

 eigenvalues of (default mixing * dielectric matrix)
  average eigenvalue GAMMA=   1.4267
  3.0564  2.2268  2.2268  2.5268  2.2003  1.0063  1.0063  0.8297  0.8297  0.8521
  0.0848  0.2741

 Free energy of the ion-electron system (eV)
  ---------------------------------------------------
  alpha Z        PSCENC =       110.06068011
  Ewald energy   TEWEN  =     -7368.15918099
  -Hartree energ DENC   =      -458.90065772
  -exchange      EXHF   =         0.00000000
  -V(xc)+E(xc)   XCENC  =      -536.01398343
  PAW double counting   =     29731.75350903   -28632.72499492
  entropy T*S    EENTRO =         0.03000315
  eigenvalues    EBANDS =       221.79671052
  atomic energy  EATOM  =      6564.79586099
  Solvation  Ediel_sol  =         0.00000000
  ---------------------------------------------------
  free energy    TOTEN  =      -367.36205325 eV

  energy without entropy =     -367.39205640  energy(sigma->0) =     -367.37205430


--------------------------------------------------------------------------------------------------------




--------------------------------------- Iteration      1(  18)  ---------------------------------------


    POTLOK:  cpu time      0.0760: real time      0.0935
    SETDIJ:  cpu time      0.0729: real time      0.0730
    EDDIAG:  cpu time      0.1337: real time      0.1339
  RMM-DIIS:  cpu time      0.9555: real time      0.9601
    ORTHCH:  cpu time      0.0208: real time      0.0208
       DOS:  cpu time      0.0016: real time      0.0016
    CHARGE:  cpu time      0.2272: real time      0.2279
    MIXING:  cpu time      0.0111: real time      0.0111
    --------------------------------------------
      LOOP:  cpu time      1.4986: real time      1.5219

 eigenvalue-minimisations  :  3603
 total energy-change (2. order) :-0.4775423E-03  (-0.1662451E-04)
 number of electron     256.0000001 magnetization 
 augmentation part      -14.6798354 magnetization 

 Broyden mixing:
  rms(total) = 0.11935E+00    rms(broyden)= 0.11935E+00
  rms(prec ) = 0.12032E+00
  weight for this iteration     100.00

 eigenvalues of (default mixing * dielectric matrix)
  average eigenvalue GAMMA=   1.6158
  4.5479  2.4674  2.4674  2.4633  1.4406  1.4406  1.4022  1.0727  1.0727  0.9004
  0.8228  0.8228  0.0848

 Free energy of the ion-electron system (eV)
  ---------------------------------------------------
  alpha Z        PSCENC =       110.06068011
  Ewald energy   TEWEN  =     -7368.15918099
  -Hartree energ DENC   =      -459.34485539
  -exchange      EXHF   =         0.00000000
  -V(xc)+E(xc)   XCENC  =      -535.97475402
  PAW double counting   =     29693.13005692   -28594.11440491
  entropy T*S    EENTRO =         0.03006692
  eigenvalues    EBANDS =       222.21399958
  atomic energy  EATOM  =      6564.79586099
  Solvation  Ediel_sol  =         0.00000000
  ---------------------------------------------------
  free energy    TOTEN  =      -367.36253079 eV

  energy without entropy =     -367.39259772  energy(sigma->0) =     -367.37255310


--------------------------------------------------------------------------------------------------------




--------------------------------------- Iteration      1(  19)  ---------------------------------------


    POTLOK:  cpu time      0.0747: real time      0.0883
    SETDIJ:  cpu time      0.0719: real time      0.0721
    EDDIAG:  cpu time      0.1355: real time      0.1358
  RMM-DIIS:  cpu time      0.9545: real time      0.9665
    ORTHCH:  cpu time      0.0215: real time      0.0215
       DOS:  cpu time      0.0019: real time      0.0019
    CHARGE:  cpu time      0.2267: real time      0.2300
    MIXING:  cpu time      0.0094: real time      0.0095
    --------------------------------------------
      LOOP:  cpu time      1.4963: real time      1.5256

 eigenvalue-minimisations  :  3617
 total energy-change (2. order) :-0.7526458E-03  (-0.2425391E-04)
 number of electron     256.0000001 magnetization 
 augmentation part      -14.6780222 magnetization 

 Broyden mixing:
  rms(total) = 0.51933E-01    rms(broyden)= 0.51933E-01
  rms(prec ) = 0.52494E-01
  weight for this iteration     100.00

 eigenvalues of (default mixing * dielectric matrix)
  average eigenvalue GAMMA=   1.6944
  6.5739  2.5736  2.5736  2.4370  1.5916  1.5916  0.0848  1.2334  1.0069  1.0069
  0.8091  0.8091  0.8716  0.5590

 Free energy of the ion-electron system (eV)
  ---------------------------------------------------
  alpha Z        PSCENC =       110.06068011
  Ewald energy   TEWEN  =     -7368.15918099
  -Hartree energ DENC   =      -459.61664143
  -exchange      EXHF   =         0.00000000
  -V(xc)+E(xc)   XCENC  =      -535.97785600
  PAW double counting   =     29366.42631547   -28267.41974556
  entropy T*S    EENTRO =         0.03002035
  eigenvalues    EBANDS =       222.49726363
  atomic energy  EATOM  =      6564.79586099
  Solvation  Ediel_sol  =         0.00000000
  ---------------------------------------------------
  free energy    TOTEN  =      -367.36328344 eV

  energy without entropy =     -367.39330379  energy(sigma->0) =     -367.37329022


--------------------------------------------------------------------------------------------------------




--------------------------------------- Iteration      1(  20)  ---------------------------------------


    POTLOK:  cpu time      0.0772: real time      0.0941
    SETDIJ:  cpu time      0.0671: real time      0.0673
    EDDIAG:  cpu time      0.1341: real time      0.1344
  RMM-DIIS:  cpu time      0.9243: real time      0.9268
    ORTHCH:  cpu time      0.0207: real time      0.0208
       DOS:  cpu time      0.0025: real time      0.0025
    CHARGE:  cpu time      0.2273: real time      0.2279
    MIXING:  cpu time      0.0104: real time      0.0104
    --------------------------------------------
      LOOP:  cpu time      1.4637: real time      1.4841

 eigenvalue-minimisations  :  3458
 total energy-change (2. order) :-0.2700322E-03  (-0.1474036E-04)
 number of electron     256.0000001 magnetization 
 augmentation part      -14.6771508 magnetization 

 Broyden mixing:
  rms(total) = 0.63293E-02    rms(broyden)= 0.63293E-02
  rms(prec ) = 0.66012E-02
  weight for this iteration     100.00

 eigenvalues of (default mixing * dielectric matrix)
  average eigenvalue GAMMA=   1.5988
  6.0079  2.5725  2.5725  2.4288  1.5945  1.5945  1.2363  1.0461  1.0461  0.8269
  0.8269  0.8548  0.7306  0.0848  0.5585

 Free energy of the ion-electron system (eV)
  ---------------------------------------------------
  alpha Z        PSCENC =       110.06068011
  Ewald energy   TEWEN  =     -7368.15918099
  -Hartree energ DENC   =      -459.73196613
  -exchange      EXHF   =         0.00000000
  -V(xc)+E(xc)   XCENC  =      -535.98620815
  PAW double counting   =     29145.69802714   -28046.69526156
  entropy T*S    EENTRO =         0.02995405
  eigenvalues    EBANDS =       222.62454107
  atomic energy  EATOM  =      6564.79586099
  Solvation  Ediel_sol  =         0.00000000
  ---------------------------------------------------
  free energy    TOTEN  =      -367.36355347 eV

  energy without entropy =     -367.39350752  energy(sigma->0) =     -367.37353815


--------------------------------------------------------------------------------------------------------




--------------------------------------- Iteration      1(  21)  ---------------------------------------


    POTLOK:  cpu time      0.0868: real time      0.0875
    SETDIJ:  cpu time      0.0747: real time      0.0749
    EDDIAG:  cpu time      0.1328: real time      0.1330
  RMM-DIIS:  cpu time      0.6884: real time      0.6902
    ORTHCH:  cpu time      0.0215: real time      0.0216
       DOS:  cpu time      0.0014: real time      0.0014
    CHARGE:  cpu time      0.2458: real time      0.2689
    MIXING:  cpu time      0.0074: real time      0.0077
    --------------------------------------------
      LOOP:  cpu time      1.2588: real time      1.2853

 eigenvalue-minimisations  :  2595
 total energy-change (2. order) :-0.2968335E-04  (-0.2085132E-05)
 number of electron     256.0000001 magnetization 
 augmentation part      -14.6769202 magnetization 

 Broyden mixing:
  rms(total) = 0.81767E-02    rms(broyden)= 0.81767E-02
  rms(prec ) = 0.81811E-02
  weight for this iteration     100.00

 eigenvalues of (default mixing * dielectric matrix)
  average eigenvalue GAMMA=   1.5141
  6.0137  2.5693  2.5693  2.4339  1.5841  1.5841  1.2424  1.0498  1.0498  0.8295
  0.8295  0.8529  0.7466  0.0848  0.3929  0.3929

 Free energy of the ion-electron system (eV)
  ---------------------------------------------------
  alpha Z        PSCENC =       110.06068011
  Ewald energy   TEWEN  =     -7368.15918099
  -Hartree energ DENC   =      -459.78865010
  -exchange      EXHF   =         0.00000000
  -V(xc)+E(xc)   XCENC  =      -535.98484505
  PAW double counting   =     29099.69988183   -28000.69933343
  entropy T*S    EENTRO =         0.02993217
  eigenvalues    EBANDS =       222.68207132
  atomic energy  EATOM  =      6564.79586099
  Solvation  Ediel_sol  =         0.00000000
  ---------------------------------------------------
  free energy    TOTEN  =      -367.36358315 eV

  energy without entropy =     -367.39351532  energy(sigma->0) =     -367.37356054


--------------------------------------------------------------------------------------------------------




--------------------------------------- Iteration      1(  22)  ---------------------------------------


    POTLOK:  cpu time      0.0866: real time      0.0873
    SETDIJ:  cpu time      0.0714: real time      0.0716
    EDDIAG:  cpu time      0.1351: real time      0.1354
  RMM-DIIS:  cpu time      0.5925: real time      0.5941
    ORTHCH:  cpu time      0.0217: real time      0.0217
       DOS:  cpu time      0.0017: real time      0.0017
    CHARGE:  cpu time      0.2311: real time      0.2317
    MIXING:  cpu time      0.0073: real time      0.0074
    --------------------------------------------
      LOOP:  cpu time      1.1474: real time      1.1508

 eigenvalue-minimisations  :  2173
 total energy-change (2. order) :-0.2744088E-05  (-0.4315286E-06)
 number of electron     256.0000001 magnetization 
 augmentation part      -14.6767063 magnetization 

 Broyden mixing:
  rms(total) = 0.79276E-02    rms(broyden)= 0.79276E-02
  rms(prec ) = 0.79469E-02
  weight for this iteration     100.00

 eigenvalues of (default mixing * dielectric matrix)
  average eigenvalue GAMMA=   1.9770
 10.0407  3.6710  2.5051  2.5051  2.4501  1.8440  1.8440  1.2432  1.2432  0.0848
  0.9993  0.9993  0.8449  0.8449  0.9308  0.9308  0.6282

 Free energy of the ion-electron system (eV)
  ---------------------------------------------------
  alpha Z        PSCENC =       110.06068011
  Ewald energy   TEWEN  =     -7368.15918099
  -Hartree energ DENC   =      -459.81731652
  -exchange      EXHF   =         0.00000000
  -V(xc)+E(xc)   XCENC  =      -535.98076767
  PAW double counting   =     29115.64574014   -28016.64662147
  entropy T*S    EENTRO =         0.02992896
  eigenvalues    EBANDS =       222.70809056
  atomic energy  EATOM  =      6564.79586099
  Solvation  Ediel_sol  =         0.00000000
  ---------------------------------------------------
  free energy    TOTEN  =      -367.36358590 eV

  energy without entropy =     -367.39351486  energy(sigma->0) =     -367.37356222


--------------------------------------------------------------------------------------------------------




--------------------------------------- Iteration      1(  23)  ---------------------------------------


    POTLOK:  cpu time      0.0679: real time      0.0885
    SETDIJ:  cpu time      0.0663: real time      0.0712
    EDDIAG:  cpu time      0.1342: real time      0.1406
  RMM-DIIS:  cpu time      0.4433: real time      0.4481
    ORTHCH:  cpu time      0.0206: real time      0.0207
       DOS:  cpu time      0.0020: real time      0.0020
    CHARGE:  cpu time      0.2299: real time      0.2304
    MIXING:  cpu time      0.0092: real time      0.0092
    --------------------------------------------
      LOOP:  cpu time      0.9733: real time      1.0108

 eigenvalue-minimisations  :  1556
 total energy-change (2. order) :-0.2902300E-05  (-0.9528416E-07)
 number of electron     256.0000001 magnetization 
 augmentation part      -14.6767169 magnetization 

 Broyden mixing:
  rms(total) = 0.79409E-03    rms(broyden)= 0.79401E-03
  rms(prec ) = 0.86355E-03
  weight for this iteration     100.00

 eigenvalues of (default mixing * dielectric matrix)
  average eigenvalue GAMMA=   2.4577
 20.3602  3.0901  2.4860  2.4358  2.4358  1.9734  1.9734  0.0848  1.2749  1.2749
  1.0498  1.0498  0.8448  0.8448  0.8828  0.8828  0.6468  0.6468

 Free energy of the ion-electron system (eV)
  ---------------------------------------------------
  alpha Z        PSCENC =       110.06068011
  Ewald energy   TEWEN  =     -7368.15918099
  -Hartree energ DENC   =      -459.82547971
  -exchange      EXHF   =         0.00000000
  -V(xc)+E(xc)   XCENC  =      -535.97526999
  PAW double counting   =     29169.29140987   -28070.29333312
  entropy T*S    EENTRO =         0.02993284
  eigenvalues    EBANDS =       222.71179120
  atomic energy  EATOM  =      6564.79586099
  Solvation  Ediel_sol  =         0.00000000
  ---------------------------------------------------
  free energy    TOTEN  =      -367.36358880 eV

  energy without entropy =     -367.39352164  energy(sigma->0) =     -367.37356641


--------------------------------------------------------------------------------------------------------




--------------------------------------- Iteration      1(  24)  ---------------------------------------


    POTLOK:  cpu time      0.0777: real time      0.0956
    SETDIJ:  cpu time      0.0672: real time      0.0673
    EDDIAG:  cpu time      0.1351: real time      0.1354
  RMM-DIIS:  cpu time      0.4484: real time      0.4495
    ORTHCH:  cpu time      0.0213: real time      0.0213
       DOS:  cpu time      0.0013: real time      0.0013
    --------------------------------------------
      LOOP:  cpu time      0.7510: real time      0.7705

 eigenvalue-minimisations  :  1555
 total energy-change (2. order) : 0.7808876E-06  (-0.3798579E-07)
 number of electron     256.0000001 magnetization 
 augmentation part      -14.6767169 magnetization 

 Free energy of the ion-electron system (eV)
  ---------------------------------------------------
  alpha Z        PSCENC =       110.06068011
  Ewald energy   TEWEN  =     -7368.15918099
  -Hartree energ DENC   =      -459.80707006
  -exchange      EXHF   =         0.00000000
  -V(xc)+E(xc)   XCENC  =      -535.97702130
  PAW double counting   =     29170.45296302   -28071.45413434
  entropy T*S    EENTRO =         0.02993183
  eigenvalues    EBANDS =       222.69438271
  atomic energy  EATOM  =      6564.79586099
  Solvation  Ediel_sol  =         0.00000000
  ---------------------------------------------------
  free energy    TOTEN  =      -367.36358802 eV

  energy without entropy =     -367.39351985  energy(sigma->0) =     -367.37356529


--------------------------------------------------------------------------------------------------------




 average (electrostatic) potential at core
  the test charge radii are     0.9892
  (the norm of the test charge is              1.0000)
       1 -82.7777       2 -82.7777       3 -82.7777       4 -82.7777       5 -82.7777
[...]
  0.000   0.000   4.174   0.000   0.000   7.776   0.000   0.000
 -0.000  -0.000   0.000   4.174   0.000   0.000   7.776   0.000
  0.000   0.000   0.000   0.000   4.174   0.000   0.000   7.776
  0.000   0.000   7.776   0.000   0.000  14.497   0.000  -0.000
 -0.001  -0.001   0.000   7.776   0.000   0.000  14.497   0.000
  0.000   0.000   0.000   0.000   7.776  -0.000   0.000  14.497
 total augmentation occupancy for first ion, spin component:           1
  6.112  -2.381   0.000   0.014   0.000   0.000  -0.005  -0.000
 -2.381   1.036   0.000  -0.007   0.000  -0.000   0.002   0.000
  0.000   0.000   3.022   0.000   0.003  -0.682   0.000   0.000
  0.014  -0.007   0.000   3.022   0.000   0.000  -0.682   0.000
  0.000   0.000   0.003   0.000   3.013   0.000   0.000  -0.678
  0.000  -0.000  -0.682   0.000   0.000   0.163   0.000  -0.000
 -0.005   0.002   0.000  -0.682   0.000   0.000   0.163  -0.000
 -0.000   0.000   0.000   0.000  -0.678  -0.000  -0.000   0.162


------------------------ aborting loop because EDIFF is reached ----------------------------------------


    CHARGE:  cpu time      0.2348: real time      0.2354
    FORLOC:  cpu time      0.0213: real time      0.0213
    FORNL :  cpu time      0.6515: real time      0.6533
    STRESS:  cpu time      2.0582: real time      2.0641
    FORCOR:  cpu time      0.0857: real time      0.0862
    FORHAR:  cpu time      0.0354: real time      0.0355
    MIXING:  cpu time      0.0660: real time      0.0665
    OFIELD:  cpu time      0.0000: real time      0.0000

  FORCE on cell =-STRESS in cart. coord.  units (eV):
  Direction    XX          YY          ZZ          XY          YZ          ZX
  --------------------------------------------------------------------------------------
  Alpha Z   110.06068   110.06068   110.06068
  Ewald   -2467.37774 -2450.44159 -2450.42773     4.08510     0.00000     0.00000
  Hartree   151.38712   154.19363   154.17944     2.27288    -0.00000    -0.00000
  E(xc)    -822.01352  -822.15427  -822.15603    -0.03634    -0.00000    -0.00000
  Local    -906.53098  -926.83352  -926.84460    -6.90625     0.00000     0.00000
  n-local  2496.41417  2498.76419  2498.81293     0.37756     0.00000    -0.00000
  augment  -368.73582  -368.71645  -368.71619    -0.19793     0.00000     0.00000
  Kinetic  1828.78631  1823.78579  1823.72716     3.40116     0.00000     0.00000
  Fock        0.00000     0.00000     0.00000     0.00000     0.00000     0.00000
  -------------------------------------------------------------------------------------
  Total      21.99022    18.65845    18.63565     2.99617     0.00000     0.00000
  in kB      28.12276    23.86184    23.83268     3.83173     0.00000     0.00000
  external pressure =       25.27 kB  Pullay stress =        0.00 kB


 VOLUME and BASIS-vectors are now :
 -----------------------------------------------------------------------------
  energy-cutoff  :      400.00
  volume of cell :     1252.80
      direct lattice vectors                 reciprocal lattice vectors
    10.744273587 -0.026996004  0.000000000     0.093073419  0.000232687  0.000000000
    -0.026996004 10.798264595  0.000000000     0.000232687  0.092608055  0.000000000
     0.000000000  0.000000000 10.798264595     0.000000000  0.000000000  0.092607473

  length of vectors
    10.744307502 10.798298340 10.798264595     0.093073710  0.092608347  0.092607473


 FORCES acting on ions
    electron-ion (+dipol)            ewald-force                    non-local-force                 convergence-correction
 -----------------------------------------------------------------------------------------------
   0.408E-08 0.370E-08 0.429E+00   -.466E-14 0.222E-14 -.305E+00   0.820E-21 0.101E-20 -.124E+00   0.301E-13 -.532E-13 -.351E-05
   0.408E-08 0.370E-08 0.429E+00   -.488E-14 0.577E-14 -.305E+00   -.107E-21 0.534E-21 -.124E+00   0.326E-13 0.115E-12 -.351E-05
   0.408E-08 0.370E-08 0.429E+00   -.444E-15 0.866E-14 -.305E+00   -.323E-21 -.208E-20 -.124E+00   0.773E-13 0.418E-13 -.351E-05
   0.408E-08 0.370E-08 0.429E+00   0.888E-15 0.355E-14 -.305E+00   0.849E-22 -.586E-20 -.124E+00   -.117E-13 -.113E-12 -.351E-05
   0.408E-08 0.370E-08 0.429E+00   -.235E-13 -.133E-14 -.305E+00   -.511E-22 0.236E-20 -.124E+00   -.429E-13 -.109E-12 -.351E-05
   0.408E-08 0.370E-08 0.429E+00   -.444E-15 0.533E-14 -.305E+00   -.143E-21 0.310E-20 -.124E+00   -.112E-13 0.105E-12 -.351E-05
   0.408E-08 0.370E-08 0.429E+00   -.488E-14 0.488E-14 -.305E+00   0.544E-21 0.270E-20 -.124E+00   -.882E-13 0.102E-12 -.351E-05
   0.408E-08 0.370E-08 0.429E+00   -.711E-14 0.711E-14 -.305E+00   -.503E-21 0.412E-20 -.124E+00   0.291E-13 -.108E-12 -.351E-05
   -.224E-08 -.195E-08 -.429E+00   -.933E-14 -.666E-14 0.305E+00   0.247E-21 -.821E-20 0.124E+00   -.164E-12 -.543E-13 0.351E-05
   -.224E-08 -.194E-08 -.429E+00   -.533E-14 -.533E-14 0.305E+00   0.112E-21 -.689E-20 0.124E+00   0.705E-13 0.518E-13 0.351E-05
   -.224E-08 -.194E-08 -.429E+00   -.977E-14 0.178E-14 0.305E+00   0.541E-21 -.882E-21 0.124E+00   -.930E-13 0.495E-13 0.351E-05
   -.224E-08 -.194E-08 -.429E+00   -.142E-13 0.533E-14 0.305E+00   0.561E-21 0.459E-20 0.124E+00   0.257E-13 -.518E-13 0.351E-05
   -.224E-08 -.195E-08 -.429E+00   -.204E-13 -.977E-14 0.305E+00   0.477E-21 0.399E-20 0.124E+00   0.167E-12 -.278E-13 0.351E-05
   -.224E-08 -.194E-08 -.429E+00   -.195E-13 -.178E-14 0.305E+00   0.347E-21 0.410E-20 0.124E+00   -.794E-13 -.654E-14 0.351E-05
   -.224E-08 -.194E-08 -.429E+00   -.191E-13 -.222E-14 0.305E+00   -.750E-21 -.820E-20 0.124E+00   0.938E-13 0.252E-13 0.351E-05
   -.224E-08 -.195E-08 -.429E+00   -.249E-13 -.178E-14 0.305E+00   0.115E-20 -.116E-20 0.124E+00   -.308E-13 0.561E-14 0.351E-05
   0.408E-08 0.370E-08 0.429E+00   -.182E-13 0.400E-14 -.305E+00   0.633E-21 -.198E-20 -.124E+00   0.994E-13 -.326E-13 -.351E-05
   0.408E-08 0.370E-08 0.429E+00   -.155E-13 0.444E-15 -.305E+00   0.602E-21 0.639E-20 -.124E+00   -.273E-13 0.425E-13 -.351E-05
   0.408E-08 0.370E-08 0.429E+00   -.178E-13 0.200E-14 -.305E+00   0.214E-21 -.964E-20 -.124E+00   0.426E-13 0.311E-13 -.351E-05
   0.408E-08 0.370E-08 0.429E+00   -.533E-14 0.888E-14 -.305E+00   -.741E-21 -.500E-20 -.124E+00   0.153E-13 -.406E-13 -.351E-05
   0.408E-08 0.370E-08 0.429E+00   -.888E-14 0.133E-14 -.305E+00   0.105E-21 -.626E-20 -.124E+00   -.970E-13 -.534E-13 -.351E-05
   0.408E-08 0.370E-08 0.429E+00   -.888E-14 0.533E-14 -.305E+00   -.243E-21 -.678E-20 -.124E+00   0.287E-13 0.813E-13 -.351E-05
   0.408E-08 0.370E-08 0.429E+00   -.142E-13 0.102E-13 -.305E+00   0.324E-21 -.643E-20 -.124E+00   -.404E-13 0.522E-13 -.351E-05
   0.408E-08 0.370E-08 0.429E+00   -.711E-14 0.107E-13 -.305E+00   0.662E-21 0.816E-20 -.124E+00   -.108E-13 -.754E-13 -.351E-05
   -.224E-08 -.195E-08 -.429E+00   0.222E-14 0.112E-14 0.305E+00   -.174E-21 0.122E-20 0.124E+00   0.869E-14 0.912E-13 0.351E-05
   -.224E-08 -.194E-08 -.429E+00   -.120E-13 0.801E-14 0.305E+00   0.213E-21 0.876E-20 0.124E+00   -.108E-12 -.530E-13 0.351E-05
   -.224E-08 -.194E-08 -.429E+00   -.107E-13 -.874E-15 0.305E+00   0.315E-21 -.178E-20 0.124E+00   0.180E-13 -.846E-13 0.351E-05
   -.224E-08 -.194E-08 -.429E+00   -.142E-13 -.208E-15 0.305E+00   0.634E-21 0.202E-20 0.124E+00   -.777E-13 0.610E-13 0.351E-05
   -.224E-08 -.194E-08 -.429E+00   -.160E-13 -.198E-14 0.305E+00   0.246E-21 0.677E-20 0.124E+00   0.933E-14 0.104E-12 0.351E-05
   -.224E-08 -.194E-08 -.429E+00   -.266E-13 0.512E-14 0.305E+00   0.116E-20 -.136E-20 0.124E+00   0.894E-13 -.539E-13 0.351E-05
   -.224E-08 -.194E-08 -.429E+00   -.160E-13 0.139E-16 0.305E+00   -.254E-21 -.544E-21 0.124E+00   -.167E-13 -.953E-13 0.351E-05
   -.224E-08 -.194E-08 -.429E+00   -.231E-13 -.665E-14 0.305E+00   0.880E-22 0.643E-20 0.124E+00   0.719E-13 0.529E-13 0.351E-05
   0.408E-08 0.370E-08 0.429E+00   0.138E-13 0.000E+00 -.305E+00   -.556E-21 0.932E-20 -.124E+00   -.163E-13 0.384E-13 -.351E-05
   0.408E-08 0.370E-08 0.429E+00   0.755E-14 0.000E+00 -.305E+00   -.134E-21 0.809E-20 -.124E+00   -.373E-13 -.312E-14 -.351E-05
   0.408E-08 0.370E-08 0.429E+00   0.222E-13 0.444E-15 -.305E+00   0.625E-21 -.687E-20 -.124E+00   -.351E-13 -.359E-13 -.351E-05
   0.408E-08 0.370E-08 0.429E+00   0.187E-13 -.444E-15 -.305E+00   0.146E-21 0.218E-20 -.124E+00   -.216E-14 -.535E-14 -.351E-05
   0.408E-08 0.370E-08 0.429E+00   0.189E-13 0.355E-14 -.305E+00   0.693E-21 0.153E-20 -.124E+00   0.141E-13 -.215E-13 -.351E-05
   0.408E-08 0.370E-08 0.429E+00   0.799E-14 0.355E-14 -.305E+00   -.850E-22 -.401E-20 -.124E+00   0.376E-13 0.412E-13 -.351E-05
   0.408E-08 0.370E-08 0.429E+00   0.284E-13 0.755E-14 -.305E+00   -.248E-21 0.760E-20 -.124E+00   0.363E-13 0.175E-13 -.351E-05
   0.408E-08 0.370E-08 0.429E+00   0.107E-13 0.000E+00 -.305E+00   0.190E-21 0.559E-20 -.124E+00   -.265E-14 -.426E-13 -.351E-05
   -.224E-08 -.194E-08 -.429E+00   0.193E-13 -.164E-13 0.305E+00   -.716E-21 0.384E-21 0.124E+00   0.548E-13 -.356E-13 0.351E-05
   -.224E-08 -.194E-08 -.429E+00   0.113E-13 -.933E-14 0.305E+00   0.138E-21 -.169E-20 0.124E+00   -.505E-13 -.142E-13 0.351E-05
   -.224E-08 -.194E-08 -.429E+00   0.640E-14 -.888E-14 0.305E+00   0.113E-20 -.106E-19 0.124E+00   0.635E-13 0.336E-13 0.351E-05
   -.224E-08 -.194E-08 -.429E+00   0.259E-13 -.533E-14 0.305E+00   0.220E-21 -.244E-20 0.124E+00   -.438E-13 0.724E-14 0.351E-05
   -.224E-08 -.195E-08 -.429E+00   0.124E-13 -.124E-13 0.305E+00   0.178E-20 -.361E-20 0.124E+00   -.622E-13 -.181E-13 0.351E-05
   -.224E-08 -.195E-08 -.429E+00   0.124E-13 -.124E-13 0.305E+00   -.273E-21 -.100E-19 0.124E+00   0.573E-13 0.188E-13 0.351E-05
   -.224E-08 -.194E-08 -.429E+00   0.137E-13 -.888E-14 0.305E+00   -.178E-21 0.372E-20 0.124E+00   -.774E-13 0.159E-13 0.351E-05
   -.224E-08 -.195E-08 -.429E+00   0.137E-13 -.888E-14 0.305E+00   0.110E-20 -.590E-20 0.124E+00   0.564E-13 -.768E-14 0.351E-05
   0.408E-08 0.370E-08 0.429E+00   0.102E-13 0.200E-14 -.305E+00   -.136E-20 -.425E-20 -.124E+00   -.153E-12 -.775E-13 -.351E-05
   0.408E-08 0.370E-08 0.429E+00   0.129E-13 -.133E-14 -.305E+00   -.149E-21 0.464E-20 -.124E+00   0.741E-13 0.103E-12 -.351E-05
   0.408E-08 0.370E-08 0.429E+00   0.888E-14 0.124E-13 -.305E+00   0.474E-21 0.201E-20 -.124E+00   -.964E-13 0.817E-13 -.351E-05
   0.408E-08 0.370E-08 0.429E+00   0.888E-14 0.355E-14 -.305E+00   0.107E-21 -.147E-20 -.124E+00   0.798E-13 -.996E-13 -.351E-05
   0.408E-08 0.370E-08 0.429E+00   0.400E-14 -.488E-14 -.305E+00   -.412E-21 -.245E-20 -.124E+00   0.168E-12 -.121E-12 -.351E-05
   0.408E-08 0.370E-08 0.429E+00   0.191E-13 -.444E-14 -.305E+00   -.442E-21 0.662E-20 -.124E+00   -.889E-13 0.142E-12 -.351E-05
   0.408E-08 0.370E-08 0.429E+00   0.169E-13 -.133E-14 -.305E+00   -.502E-21 -.386E-20 -.124E+00   0.110E-12 0.132E-12 -.351E-05
   0.408E-08 0.370E-08 0.429E+00   0.142E-13 0.000E+00 -.305E+00   0.244E-21 -.557E-20 -.124E+00   -.980E-13 -.146E-12 -.351E-05
   -.224E-08 -.194E-08 -.429E+00   0.388E-14 -.224E-14 0.305E+00   -.337E-21 0.102E-19 0.124E+00   0.167E-15 -.687E-13 0.351E-05
   -.224E-08 -.194E-08 -.429E+00   -.231E-14 -.239E-14 0.305E+00   -.662E-22 0.867E-21 0.124E+00   0.364E-15 0.131E-12 0.351E-05
   -.224E-08 -.194E-08 -.429E+00   0.923E-14 -.177E-14 0.305E+00   0.580E-21 0.351E-20 0.124E+00   -.257E-13 0.789E-13 0.351E-05
   -.224E-08 -.194E-08 -.429E+00   0.199E-13 -.106E-13 0.305E+00   0.323E-21 -.615E-20 0.124E+00   0.614E-13 -.122E-12 0.351E-05
   -.224E-08 -.194E-08 -.429E+00   0.269E-14 0.476E-14 0.305E+00   0.628E-21 -.305E-20 0.124E+00   -.339E-14 -.141E-12 0.351E-05
   -.224E-08 -.195E-08 -.429E+00   -.885E-14 -.272E-14 0.305E+00   0.212E-22 -.576E-20 0.124E+00   0.127E-14 0.173E-12 0.351E-05
   -.224E-08 -.194E-08 -.429E+00   0.183E-13 0.150E-14 0.305E+00   0.815E-22 0.470E-20 0.124E+00   0.211E-13 0.148E-12 0.351E-05
   -.224E-08 -.194E-08 -.429E+00   -.354E-15 -.688E-14 0.305E+00   -.372E-22 0.655E-22 0.124E+00   -.531E-13 -.173E-12 0.351E-05
 -----------------------------------------------------------------------------------------------
   0.590E-07 0.563E-07 -.188E-05   0.795E-15 -.191E-13 0.178E-13   0.978E-20 -.135E-19 -.117E-14   0.722E-15 0.271E-13 0.204E-10
 
 
 POSITION                                       TOTAL-FORCE (eV/Angst)
 -----------------------------------------------------------------------------------
      0.00000      0.00000     10.79635         0.000000      0.000000      0.000001
     -0.00000      0.00000      5.39722         0.000000      0.000000      0.000001
     -0.01350      5.39913     10.79635        -0.000000     -0.000000      0.000001
     -0.01350      5.39913      5.39722         0.000000     -0.000000      0.000001
      5.37214     -0.01350     10.79635        -0.000000      0.000000      0.000001
      5.37214     -0.01350      5.39722        -0.000000      0.000000      0.000001
      5.35864      5.38563     10.79635         0.000000     -0.000000      0.000001
      5.35864      5.38563      5.39722         0.000000     -0.000000      0.000001
      4.01898      4.03923      1.35170         0.000000      0.000000     -0.000001
      4.01898      4.03923      6.75083         0.000000      0.000000     -0.000001
      4.00548      9.43836      1.35170         0.000000     -0.000000     -0.000001
      4.00548      9.43836      6.75083        -0.000000     -0.000000     -0.000001
      9.39112      4.02573      1.35170        -0.000000      0.000000     -0.000001
      9.39112      4.02573      6.75083        -0.000000      0.000000     -0.000001
      9.37762      9.42486      1.35170         0.000000     -0.000000     -0.000001
      9.37762      9.42486      6.75083         0.000000     -0.000000     -0.000001
     -0.00675      2.69957      2.69765         0.000000      0.000000      0.000001
     -0.00675      2.69957      8.09678        -0.000000     -0.000000      0.000001
     -0.02025      8.09870      2.69765        -0.000000     -0.000000      0.000001
     -0.02025      8.09870      8.09678        -0.000000     -0.000000      0.000001
      5.36539      2.68607      2.69765        -0.000000      0.000000      0.000001
      5.36539      2.68607      8.09678         0.000000     -0.000000      0.000001
      5.35189      8.08520      2.69765         0.000000     -0.000000      0.000001
      5.35189      8.08520      8.09678         0.000000     -0.000000      0.000001
      4.02573      1.33966      4.05126         0.000000     -0.000000     -0.000001
      4.02573      1.33966      9.45040        -0.000000     -0.000000     -0.000001
      4.01223      6.73879      4.05126        -0.000000      0.000000     -0.000001
      4.01223      6.73879      9.45040         0.000000      0.000000     -0.000001
      9.39786      1.32616      4.05126         0.000000      0.000000     -0.000001
      9.39786      1.32616      9.45040         0.000000     -0.000000     -0.000001
      9.38437      6.72529      4.05126        -0.000000      0.000000     -0.000001
      9.38437      6.72529      9.45040        -0.000000      0.000000     -0.000001
      2.68607     -0.00675      2.69765         0.000000      0.000000      0.000001
      2.68607     -0.00675      8.09678        -0.000000      0.000000      0.000001
      2.67257      5.39238      2.69765        -0.000000     -0.000000      0.000001
      2.67257      5.39238      8.09678         0.000000     -0.000000      0.000001
      8.05821     -0.02025      2.69765        -0.000000      0.000000      0.000001
      8.05821     -0.02025      8.09678        -0.000000      0.000000      0.000001
      8.04471      5.37889      2.69765         0.000000     -0.000000      0.000001
      8.04471      5.37889      8.09678        -0.000000     -0.000000      0.000001
      1.33291      4.04597      4.05126         0.000000     -0.000000     -0.000001
      1.33291      4.04597      9.45040        -0.000000      0.000000     -0.000001
      1.31941      9.44511      4.05126        -0.000000     -0.000000     -0.000001
      1.31941      9.44511      9.45040         0.000000     -0.000000     -0.000001
      6.70505      4.03248      4.05126        -0.000000      0.000000     -0.000001
      6.70505      4.03248      9.45040        -0.000000      0.000000     -0.000001
      6.69155      9.43161      4.05126         0.000000     -0.000000     -0.000001
      6.69155      9.43161      9.45040         0.000000     -0.000000     -0.000001
      2.67932      2.69282     10.79635        -0.000000      0.000000      0.000001
      2.67932      2.69282      5.39722         0.000000     -0.000000      0.000001
      2.66582      8.09195     10.79635         0.000000     -0.000000      0.000001
      2.66582      8.09195      5.39722         0.000000      0.000000      0.000001
      8.05146      2.67932     10.79635         0.000000      0.000000      0.000001
      8.05146      2.67932      5.39722        -0.000000     -0.000000      0.000001
      8.03796      8.07845     10.79635        -0.000000     -0.000000      0.000001
      8.03796      8.07845      5.39722        -0.000000     -0.000000      0.000001
      1.33966      1.34641      1.35170         0.000000     -0.000000     -0.000001
      1.33966      1.34641      6.75083        -0.000000     -0.000000     -0.000001
      1.32616      6.74554      1.35170        -0.000000      0.000000     -0.000001
      1.32616      6.74554      6.75083        -0.000000      0.000000     -0.000001
      6.71180      1.33291      1.35170         0.000000     -0.000000     -0.000001
      6.71180      1.33291      6.75083         0.000000     -0.000000     -0.000001
      6.69830      6.73204      1.35170         0.000000      0.000000     -0.000001
      6.69830      6.73204      6.75083        -0.000000      0.000000     -0.000001
 -----------------------------------------------------------------------------------
    total drift:                                0.000000      0.000000     -0.000002


--------------------------------------------------------------------------------------------------------



  FREE ENERGIE OF THE ION-ELECTRON SYSTEM (eV)
  ---------------------------------------------------
  free  energy   TOTEN  =      -367.36693701 eV

  energy  without entropy=     -367.39671953  energy(sigma->0) =     -367.37686452
 
 d Force = 0.4829775E-03[ 0.293E-07, 0.966E-03]  d Energy = 0.4829234E-03 0.541E-07
 d Force =-0.1339595E-01[-0.142E-01,-0.125E-01]  d Ewald  =-0.1339595E-01-0.187E-08


--------------------------------------------------------------------------------------------------------


    POTLOK:  cpu time      0.1425: real time      0.1429


--------------------------------------------------------------------------------------------------------




--------------------------------------------------------------------------------------------------------


  
 reached required accuracy - stopping structural energy minimisation
     LOOP+:  cpu time     12.2146: real time     12.4014
    4ORBIT:  cpu time      0.0000: real time      0.0000

 total amount of memory used by VASP MPI-rank0    80092. kBytes
=======================================================================

   base      :      30000. kBytes
   nonlr-proj:       4527. kBytes
   fftplans  :      17993. kBytes
   grid      :       6881. kBytes
   one-center:         18. kBytes
   wavefun   :      20673. kBytes
 
  
  
 General timing and accounting informations for this job:
 ========================================================
  
                  Total CPU time used (sec):       64.812
                            User time (sec):       61.503
                          System time (sec):        3.309
                         Elapsed time (sec):       68.506
  
                   Maximum memory used (kb):      410480.
                   Average memory used (kb):          N/A
  
                          Minor page faults:        93489
                          Major page faults:            0
                 Voluntary context switches:         8704
