Si64                                    
           1
    10.744274   -0.026996    0.000000
    -0.026996   10.798265    0.000000
     0.000000    0.000000   10.798265
   Si
    64
Direct configuration=     1
   0.00000000  0.00000000  0.00000000
   0.00000000  0.00000000  0.50000000
   0.00000000  0.50000000  0.00000000
   0.00000000  0.50000000  0.50000000
   0.50000000  0.00000000  0.00000000
   0.50000000  0.00000000  0.50000000
   0.50000000  0.50000000  0.00000000
   0.50000000  0.50000000  0.50000000
   0.37500000  0.37500000  0.12500000
   0.37500000  0.37500000  0.62500000
   0.37500000  0.87500000  0.12500000
   0.37500000  0.87500000  0.62500000
   0.87500000  0.37500000  0.12500000
   0.87500000  0.37500000  0.62500000
   0.87500000  0.87500000  0.12500000
   0.87500000  0.87500000  0.62500000
   0.00000000  0.25000000  0.25000000
   0.00000000  0.25000000  0.75000000
   0.00000000  0.75000000  0.25000000
   0.00000000  0.75000000  0.75000000
   0.50000000  0.25000000  0.25000000
   0.50000000  0.25000000  0.75000000
   0.50000000  0.75000000  0.25000000
   0.50000000  0.75000000  0.75000000
   0.37500000  0.12500000  0.37500000
   0.37500000  0.12500000  0.87500000
   0.37500000  0.62500000  0.37500000
   0.37500000  0.62500000  0.87500000
   0.87500000  0.12500000  0.37500000
   0.87500000  0.12500000  0.87500000
   0.87500000  0.62500000  0.37500000
   0.87500000  0.62500000  0.87500000
   0.25000000  0.00000000  0.25000000
   0.25000000  0.00000000  0.75000000
   0.25000000  0.50000000  0.25000000
   0.25000000  0.50000000  0.75000000
   0.75000000  0.00000000  0.25000000
   0.75000000  0.00000000  0.75000000
   0.75000000  0.50000000  0.25000000
   0.75000000  0.50000000  0.75000000
   0.12500000  0.37500000  0.37500000
   0.12500000  0.37500000  0.87500000
   0.12500000  0.87500000  0.37500000
   0.12500000  0.87500000  0.87500000
   0.62500000  0.37500000  0.37500000
   0.62500000  0.37500000  0.87500000
   0.62500000  0.87500000  0.37500000
   0.62500000  0.87500000  0.87500000
   0.25000000  0.25000000  0.00000000
   0.25000000  0.25000000  0.50000000
   0.25000000  0.75000000  0.00000000
   0.25000000  0.75000000  0.50000000
   0.75000000  0.25000000  0.00000000
   0.75000000  0.25000000  0.50000000
   0.75000000  0.75000000  0.00000000
   0.75000000  0.75000000  0.50000000
   0.12500000  0.12500000  0.12500000
   0.12500000  0.12500000  0.62500000
   0.12500000  0.62500000  0.12500000
   0.12500000  0.62500000  0.62500000
   0.62500000  0.12500000  0.12500000
   0.62500000  0.12500000  0.62500000
   0.62500000  0.62500000  0.12500000
   0.62500000  0.62500000  0.62500000
Direct configuration=     2
   1.00000000  1.00000000  0.99975505
   1.00000000  0.00000000  0.49975505
   0.00000000  0.50000000  0.99975505
   0.00000000  0.50000000  0.49975505
   0.50000000  1.00000000  0.99975505
   0.50000000  0.00000000  0.49975505
   0.50000000  0.50000000  0.99975505
   0.50000000  0.50000000  0.49975505
   0.37500000  0.37500000  0.12524495
   0.37500000  0.37500000  0.62524495
   0.37500000  0.87500000  0.12524495
   0.37500000  0.87500000  0.62524495
   0.87500000  0.37500000  0.12524495
   0.87500000  0.37500000  0.62524495
   0.87500000  0.87500000  0.12524495
   0.87500000  0.87500000  0.62524495
   1.00000000  0.25000000  0.24975505
   0.00000000  0.25000000  0.74975505
   1.00000000  0.75000000  0.24975505
   0.00000000  0.75000000  0.74975505
   0.50000000  0.25000000  0.24975505
   0.50000000  0.25000000  0.74975505
   0.50000000  0.75000000  0.24975505
   0.50000000  0.75000000  0.74975505
   0.37500000  0.12500000  0.37524495
   0.37500000  0.12500000  0.87524495
   0.37500000  0.62500000  0.37524495
   0.37500000  0.62500000  0.87524495
   0.87500000  0.12500000  0.37524495
   0.87500000  0.12500000  0.87524495
   0.87500000  0.62500000  0.37524495
   0.87500000  0.62500000  0.87524495
   0.25000000  1.00000000  0.24975505
   0.25000000  1.00000000  0.74975505
   0.25000000  0.50000000  0.24975505
   0.25000000  0.50000000  0.74975505
   0.75000000  1.00000000  0.24975505
   0.75000000  0.00000000  0.74975505
   0.75000000  0.50000000  0.24975505
   0.75000000  0.50000000  0.74975505
   0.12500000  0.37500000  0.37524495
   0.12500000  0.37500000  0.87524495
   0.12500000  0.87500000  0.37524495
   0.12500000  0.87500000  0.87524495
   0.62500000  0.37500000  0.37524495
   0.62500000  0.37500000  0.87524495
   0.62500000  0.87500000  0.37524495
   0.62500000  0.87500000  0.87524495
   0.25000000  0.25000000  0.99975505
   0.25000000  0.25000000  0.49975505
   0.25000000  0.75000000  0.99975505
   0.25000000  0.75000000  0.49975505
   0.75000000  0.25000000  0.99975505
   0.75000000  0.25000000  0.49975505
   0.75000000  0.75000000  0.99975505
   0.75000000  0.75000000  0.49975505
   0.12500000  0.12500000  0.12524495
   0.12500000  0.12500000  0.62524495
   0.12500000  0.62500000  0.12524495
   0.12500000  0.62500000  0.62524495
   0.62500000  0.12500000  0.12524495
   0.62500000  0.12500000  0.62524495
   0.62500000  0.62500000  0.12524495
   0.62500000  0.62500000  0.62524495
Direct configuration=     3
   0.00000000  0.00000000  0.99982269
   0.00000000  0.00000000  0.49982269
   0.00000000  0.50000000  0.99982269
   0.00000000  0.50000000  0.49982269
   0.50000000  0.00000000  0.99982269
   0.50000000  0.00000000  0.49982269
   0.50000000  0.50000000  0.99982269
   0.50000000  0.50000000  0.49982269
   0.37500000  0.37500000  0.12517731
   0.37500000  0.37500000  0.62517731
   0.37500000  0.87500000  0.12517731
   0.37500000  0.87500000  0.62517731
   0.87500000  0.37500000  0.12517731
   0.87500000  0.37500000  0.62517731
   0.87500000  0.87500000  0.12517731
   0.87500000  0.87500000  0.62517731
   0.00000000  0.25000000  0.24982269
   0.00000000  0.25000000  0.74982269
   0.00000000  0.75000000  0.24982269
   0.00000000  0.75000000  0.74982269
   0.50000000  0.25000000  0.24982269
   0.50000000  0.25000000  0.74982269
   0.50000000  0.75000000  0.24982269
   0.50000000  0.75000000  0.74982269
   0.37500000  0.12500000  0.37517731
   0.37500000  0.12500000  0.87517731
   0.37500000  0.62500000  0.37517731
   0.37500000  0.62500000  0.87517731
   0.87500000  0.12500000  0.37517731
   0.87500000  0.12500000  0.87517731
   0.87500000  0.62500000  0.37517731
   0.87500000  0.62500000  0.87517731
   0.25000000  0.00000000  0.24982269
   0.25000000  0.00000000  0.74982269
   0.25000000  0.50000000  0.24982269
   0.25000000  0.50000000  0.74982269
   0.75000000  0.00000000  0.24982269
   0.75000000  0.00000000  0.74982269
   0.75000000  0.50000000  0.24982269
   0.75000000  0.50000000  0.74982269
   0.12500000  0.37500000  0.37517731
   0.12500000  0.37500000  0.87517731
   0.12500000  0.87500000  0.37517731
   0.12500000  0.87500000  0.87517731
   0.62500000  0.37500000  0.37517731
   0.62500000  0.37500000  0.87517731
   0.62500000  0.87500000  0.37517731
   0.62500000  0.87500000  0.87517731
   0.25000000  0.25000000  0.99982269
   0.25000000  0.25000000  0.49982269
   0.25000000  0.75000000  0.99982269
   0.25000000  0.75000000  0.49982269
   0.75000000  0.25000000  0.99982269
   0.75000000  0.25000000  0.49982269
   0.75000000  0.75000000  0.99982269
   0.75000000  0.75000000  0.49982269
   0.12500000  0.12500000  0.12517731
   0.12500000  0.12500000  0.62517731
   0.12500000  0.62500000  0.12517731
   0.12500000  0.62500000  0.62517731
   0.62500000  0.12500000  0.12517731
   0.62500000  0.12500000  0.62517731
   0.62500000  0.62500000  0.12517731
   0.62500000  0.62500000  0.62517731
