  64  64   0   0
  0.2006724E+02  0.1094239E-08  0.1083406E-08  0.1083392E-08  0.5000000E-15
  1.000000000000000E-004
  CAR 
 Si64                                    
     11.19103118     -8.20587282  301      6.10077827      1.00000000
     -8.206  0.0000E+00  0.0000E+00
     -8.141  0.0000E+00  0.0000E+00
     -8.077  0.0000E+00  0.0000E+00
     -8.012  0.0000E+00  0.0000E+00
     -7.947  0.0000E+00  0.0000E+00
     -7.883  0.0000E+00  0.0000E+00
     -7.818 -0.8921E-29 -0.5768E-30
     -7.753 -0.1406E-26 -0.9145E-28
     -7.689 -0.1802E-24 -0.1174E-25
     -7.624 -0.1871E-22 -0.1221E-23
     -7.559 -0.1572E-20 -0.1028E-21
     -7.495 -0.1068E-18 -0.7011E-20
     -7.430 -0.5873E-17 -0.3868E-18
     -7.365 -0.2539E-15 -0.1680E-16
     -7.301 -0.9063E-14 -0.6028E-15
     -7.236 -0.2617E-12 -0.1752E-13
     -7.171 -0.6090E-11 -0.4113E-12
     -7.107 -0.1141E-09 -0.7788E-11
     -7.042 -0.1718E-08 -0.1189E-09
     -6.977 -0.2074E-07 -0.1460E-08
     -6.913 -0.2002E-06 -0.1441E-07
     -6.848 -0.1539E-05 -0.1139E-06
     -6.783 -0.9360E-05 -0.7191E-06
     -6.719 -0.4462E-04 -0.3604E-05
     -6.654 -0.1641E-03 -0.1422E-04
     -6.589 -0.4523E-03 -0.4346E-04
     -6.525 -0.8748E-03 -0.1000E-03
     -6.460 -0.9538E-03 -0.1617E-03
     -6.395  0.3016E-03 -0.1422E-03
     -6.331  0.3474E-02  0.8242E-04
     -6.266  0.7528E-02  0.5692E-03
     -6.202  0.1126E-01  0.1297E-02
     -6.137  0.1763E-01  0.2437E-02
     -6.072  0.3364E-01  0.4612E-02
     -6.008  0.6031E-01  0.8511E-02
     -5.943  0.8622E-01  0.1409E-01
     -5.878  0.1015E+00  0.2065E-01
     -5.814  0.1163E+00  0.2817E-01
     -5.749  0.1476E+00  0.3771E-01
     -5.684  0.1869E+00  0.4980E-01
     -5.620  0.2028E+00  0.6292E-01
     -5.555  0.1843E+00  0.7483E-01
     -5.490  0.1559E+00  0.8491E-01
     -5.426  0.1392E+00  0.9391E-01
     -5.361  0.1263E+00  0.1021E+00
     -5.296  0.1040E+00  0.1088E+00
     -5.232  0.8015E-01  0.1140E+00
     -5.167  0.7174E-01  0.1186E+00
     -5.102  0.8752E-01  0.1243E+00
     -5.038  0.1373E+00  0.1332E+00
     -4.973  0.2303E+00  0.1480E+00
     -4.908  0.3451E+00  0.1704E+00
     -4.844  0.4316E+00  0.1983E+00
     -4.779  0.4665E+00  0.2284E+00
     -4.714  0.4723E+00  0.2590E+00
     -4.650  0.4589E+00  0.2886E+00
     -4.585  0.3940E+00  0.3141E+00
     -4.520  0.2613E+00  0.3310E+00
     -4.456  0.1073E+00  0.3379E+00
     -4.391  0.2414E-02  0.3381E+00
     -4.326 -0.1495E-01  0.3371E+00
     -4.262  0.5666E-01  0.3408E+00
     -4.197  0.1979E+00  0.3536E+00
     -4.133  0.3670E+00  0.3773E+00
     -4.068  0.4988E+00  0.4096E+00
     -4.003  0.5329E+00  0.4440E+00
     -3.939  0.4596E+00  0.4737E+00
     -3.874  0.3333E+00  0.4953E+00
     -3.809  0.2364E+00  0.5106E+00
     -3.745  0.2310E+00  0.5255E+00
     -3.680  0.3321E+00  0.5470E+00
     -3.615  0.4988E+00  0.5792E+00
     -3.551  0.6538E+00  0.6215E+00
     -3.486  0.7334E+00  0.6689E+00
     -3.421  0.7235E+00  0.7157E+00
     -3.357  0.6477E+00  0.7576E+00
     -3.292  0.5412E+00  0.7926E+00
     -3.227  0.4486E+00  0.8216E+00
     -3.163  0.4100E+00  0.8481E+00
     -3.098  0.4143E+00  0.8749E+00
     -3.033  0.3937E+00  0.9003E+00
     -2.969  0.2983E+00  0.9196E+00
     -2.904  0.1565E+00  0.9297E+00
     -2.839  0.3706E-01  0.9321E+00
     -2.775 -0.2267E-01  0.9307E+00
     -2.710 -0.2880E-01  0.9288E+00
     -2.645  0.4253E-02  0.9291E+00
     -2.581  0.6937E-01  0.9336E+00
     -2.516  0.1472E+00  0.9431E+00
     -2.451  0.1955E+00  0.9557E+00
     -2.387  0.1784E+00  0.9673E+00
     -2.322  0.1056E+00  0.9741E+00
     -2.257  0.3301E-01  0.9762E+00
     -2.193  0.2733E-01  0.9780E+00
     -2.128  0.1289E+00  0.9863E+00
     -2.064  0.3229E+00  0.1007E+01
     -1.999  0.5280E+00  0.1041E+01
     -1.934  0.6307E+00  0.1082E+01
     -1.870  0.5673E+00  0.1119E+01
     -1.805  0.3775E+00  0.1143E+01
     -1.740  0.1710E+00  0.1154E+01
     -1.676  0.4422E-01  0.1157E+01
     -1.611  0.2757E-01  0.1159E+01
     -1.546  0.8838E-01  0.1165E+01
     -1.482  0.1614E+00  0.1175E+01
     -1.417  0.1894E+00  0.1187E+01
     -1.352  0.1613E+00  0.1198E+01
     -1.288  0.1178E+00  0.1205E+01
     -1.223  0.1182E+00  0.1213E+01
     -1.158  0.1918E+00  0.1225E+01
     -1.094  0.3084E+00  0.1245E+01
     -1.029  0.3975E+00  0.1271E+01
     -0.964  0.4194E+00  0.1298E+01
     -0.900  0.4171E+00  0.1325E+01
     -0.835  0.4756E+00  0.1356E+01
     -0.770  0.6326E+00  0.1397E+01
     -0.706  0.8311E+00  0.1450E+01
     -0.641  0.9430E+00  0.1511E+01
     -0.576  0.8555E+00  0.1567E+01
     -0.512  0.5791E+00  0.1604E+01
     -0.447  0.2648E+00  0.1621E+01
     -0.382  0.8598E-01  0.1627E+01
     -0.318  0.1061E+00  0.1634E+01
     -0.253  0.2503E+00  0.1650E+01
     -0.188  0.3794E+00  0.1674E+01
     -0.124  0.3963E+00  0.1700E+01
     -0.059  0.3070E+00  0.1720E+01
      0.005  0.1880E+00  0.1732E+01
      0.070  0.1072E+00  0.1739E+01
      0.135  0.8815E-01  0.1745E+01
      0.199  0.1268E+00  0.1753E+01
      0.264  0.2098E+00  0.1766E+01
      0.329  0.3172E+00  0.1787E+01
      0.393  0.4175E+00  0.1814E+01
      0.458  0.4641E+00  0.1844E+01
      0.523  0.4165E+00  0.1871E+01
      0.587  0.2841E+00  0.1889E+01
      0.652  0.1314E+00  0.1898E+01
      0.717  0.2489E-01  0.1899E+01
      0.781 -0.1783E-01  0.1898E+01
      0.846 -0.2057E-01  0.1897E+01
      0.911 -0.1248E-01  0.1896E+01
      0.975 -0.9172E-02  0.1896E+01
      1.040 -0.1621E-01  0.1894E+01
      1.105 -0.3405E-01  0.1892E+01
      1.169 -0.4842E-01  0.1889E+01
      1.234 -0.1193E-01  0.1888E+01
      1.299  0.1473E+00  0.1898E+01
      1.363  0.4548E+00  0.1927E+01
      1.428  0.8036E+00  0.1979E+01
      1.493  0.9852E+00  0.2043E+01
      1.557  0.8707E+00  0.2099E+01
      1.622  0.5527E+00  0.2135E+01
      1.687  0.2658E+00  0.2152E+01
      1.751  0.1727E+00  0.2163E+01
      1.816  0.2511E+00  0.2180E+01
      1.881  0.3609E+00  0.2203E+01
      1.945  0.3891E+00  0.2228E+01
      2.010  0.3486E+00  0.2251E+01
      2.074  0.3677E+00  0.2274E+01
      2.139  0.5756E+00  0.2312E+01
      2.204  0.9624E+00  0.2374E+01
      2.268  0.1341E+01  0.2461E+01
      2.333  0.1470E+01  0.2556E+01
      2.398  0.1248E+01  0.2636E+01
      2.462  0.7939E+00  0.2688E+01
      2.527  0.3375E+00  0.2709E+01
      2.592  0.3817E-01  0.2712E+01
      2.656 -0.8794E-01  0.2706E+01
      2.721 -0.9719E-01  0.2700E+01
      2.786 -0.1328E-01  0.2699E+01
      2.850  0.1971E+00  0.2712E+01
      2.915  0.5512E+00  0.2747E+01
      2.980  0.9684E+00  0.2810E+01
      3.044  0.1292E+01  0.2894E+01
      3.109  0.1409E+01  0.2985E+01
      3.174  0.1327E+01  0.3070E+01
      3.238  0.1128E+01  0.3143E+01
      3.303  0.8952E+00  0.3201E+01
      3.368  0.6973E+00  0.3246E+01
      3.432  0.6035E+00  0.3285E+01
      3.497  0.6385E+00  0.3327E+01
      3.562  0.7215E+00  0.3373E+01
      3.626  0.7188E+00  0.3420E+01
      3.691  0.5929E+00  0.3458E+01
      3.756  0.4531E+00  0.3487E+01
      3.820  0.4217E+00  0.3515E+01
      3.885  0.4909E+00  0.3546E+01
      3.950  0.5589E+00  0.3583E+01
      4.014  0.5727E+00  0.3620E+01
      4.079  0.5729E+00  0.3657E+01
      4.143  0.6099E+00  0.3696E+01
      4.208  0.6835E+00  0.3740E+01
      4.273  0.7723E+00  0.3790E+01
      4.337  0.8647E+00  0.3846E+01
      4.402  0.9377E+00  0.3907E+01
      4.467  0.9388E+00  0.3967E+01
      4.531  0.8205E+00  0.4020E+01
      4.596  0.5916E+00  0.4059E+01
      4.661  0.3278E+00  0.4080E+01
      4.725  0.1294E+00  0.4088E+01
      4.790  0.6529E-01  0.4093E+01
      4.855  0.1391E+00  0.4102E+01
      4.919  0.2868E+00  0.4120E+01
      4.984  0.4053E+00  0.4146E+01
      5.049  0.4132E+00  0.4173E+01
      5.113  0.3064E+00  0.4193E+01
      5.178  0.1556E+00  0.4203E+01
      5.243  0.4607E-01  0.4206E+01
      5.307  0.2149E-01  0.4207E+01
      5.372  0.7088E-01  0.4212E+01
      5.437  0.1459E+00  0.4221E+01
      5.501  0.1911E+00  0.4234E+01
      5.566  0.1789E+00  0.4245E+01
      5.631  0.1272E+00  0.4253E+01
      5.695  0.7570E-01  0.4258E+01
      5.760  0.4738E-01  0.4261E+01
      5.825  0.3576E-01  0.4264E+01
      5.889  0.2482E-01  0.4265E+01
      5.954  0.9665E-02  0.4266E+01
      6.019 -0.9849E-03  0.4266E+01
      6.083  0.6445E-02  0.4266E+01
      6.148  0.4043E-01  0.4269E+01
      6.212  0.9534E-01  0.4275E+01
      6.277  0.1488E+00  0.4285E+01
      6.342  0.1727E+00  0.4296E+01
      6.406  0.1528E+00  0.4306E+01
      6.471  0.9984E-01  0.4312E+01
      6.536  0.4350E-01  0.4315E+01
      6.600  0.1787E-01  0.4316E+01
      6.665  0.4474E-01  0.4319E+01
      6.730  0.1188E+00  0.4327E+01
      6.794  0.2026E+00  0.4340E+01
      6.859  0.2475E+00  0.4356E+01
      6.924  0.2381E+00  0.4371E+01
      6.988  0.2187E+00  0.4385E+01
      7.053  0.2592E+00  0.4402E+01
      7.118  0.3755E+00  0.4426E+01
      7.182  0.4899E+00  0.4458E+01
      7.247  0.4958E+00  0.4490E+01
      7.312  0.3702E+00  0.4514E+01
      7.376  0.2121E+00  0.4528E+01
      7.441  0.1637E+00  0.4538E+01
      7.506  0.2948E+00  0.4557E+01
      7.570  0.5488E+00  0.4593E+01
      7.635  0.7816E+00  0.4643E+01
      7.700  0.8642E+00  0.4699E+01
      7.764  0.7815E+00  0.4750E+01
      7.829  0.6455E+00  0.4792E+01
      7.894  0.5988E+00  0.4830E+01
      7.958  0.6946E+00  0.4875E+01
      8.023  0.8682E+00  0.4931E+01
      8.088  0.1007E+01  0.4996E+01
      8.152  0.1036E+01  0.5063E+01
      8.217  0.9572E+00  0.5125E+01
      8.281  0.8140E+00  0.5178E+01
      8.346  0.6493E+00  0.5220E+01
      8.411  0.4897E+00  0.5252E+01
      8.475  0.3615E+00  0.5275E+01
      8.540  0.2917E+00  0.5294E+01
      8.605  0.2854E+00  0.5312E+01
      8.669  0.3134E+00  0.5333E+01
      8.734  0.3268E+00  0.5354E+01
      8.799  0.2890E+00  0.5372E+01
      8.863  0.2014E+00  0.5385E+01
      8.928  0.1009E+00  0.5392E+01
      8.993  0.2926E-01  0.5394E+01
      9.057  0.2933E-02  0.5394E+01
      9.122  0.9436E-02  0.5395E+01
      9.187  0.2425E-01  0.5396E+01
      9.251  0.2959E-01  0.5398E+01
      9.316  0.2249E-01  0.5399E+01
      9.381  0.1057E-01  0.5400E+01
      9.445  0.1799E-02  0.5400E+01
      9.510 -0.1583E-02  0.5400E+01
      9.575 -0.1649E-02  0.5400E+01
      9.639 -0.8641E-03  0.5400E+01
      9.704 -0.3124E-03  0.5400E+01
      9.769 -0.8432E-04  0.5400E+01
      9.833 -0.1754E-04  0.5400E+01
      9.898 -0.2861E-05  0.5400E+01
      9.963 -0.3692E-06  0.5400E+01
     10.027 -0.3794E-07  0.5400E+01
     10.092 -0.3117E-08  0.5400E+01
     10.157 -0.2055E-09  0.5400E+01
     10.221 -0.1088E-10  0.5400E+01
     10.286 -0.4643E-12  0.5400E+01
     10.350 -0.1597E-13  0.5400E+01
     10.415 -0.4436E-15  0.5400E+01
     10.480  0.0000E+00  0.5400E+01
     10.544  0.0000E+00  0.5400E+01
     10.609  0.0000E+00  0.5400E+01
     10.674  0.0000E+00  0.5400E+01
     10.738  0.0000E+00  0.5400E+01
     10.803  0.0000E+00  0.5400E+01
     10.868  0.0000E+00  0.5400E+01
     10.932  0.0000E+00  0.5400E+01
     10.997  0.0000E+00  0.5400E+01
     11.062  0.0000E+00  0.5400E+01
     11.126  0.0000E+00  0.5400E+01
     11.191  0.0000E+00  0.5400E+01
