       N       E                     dE             d eps       ncg     rms          rms(c)
DAV:   1     0.558560163153E+03    0.55856E+03   -0.83891E+04  2592   0.106E+03
DAV:   2    -0.311090894410E+03   -0.86965E+03   -0.82541E+03  3104   0.171E+02
DAV:   3    -0.373102655494E+03   -0.62012E+02   -0.60925E+02  3128   0.407E+01
DAV:   4    -0.374677209019E+03   -0.15746E+01   -0.15635E+01  3144   0.792E+00
DAV:   5    -0.374724867428E+03   -0.47658E-01   -0.47548E-01  3086   0.129E+00    0.280E+01
RMM:   6    -0.369776271063E+03    0.49486E+01   -0.24489E+00  2592   0.244E+00    0.169E+01
RMM:   7    -0.367500242621E+03    0.22760E+01   -0.63000E+00  2635   0.394E+00    0.925E-01
RMM:   8    -0.367545779076E+03   -0.45536E-01   -0.62317E-01  2630   0.151E+00    0.489E-01
RMM:   9    -0.367564553322E+03   -0.18774E-01   -0.17311E-01  2664   0.739E-01    0.567E-01
RMM:  10    -0.367567828883E+03   -0.32756E-02   -0.30708E-02  2742   0.346E-01    0.745E-01
RMM:  11    -0.367565908380E+03    0.19205E-02   -0.10335E-02  2592   0.207E-01    0.658E-01
RMM:  12    -0.367566018339E+03   -0.10996E-03   -0.16887E-03  2604   0.969E-02    0.660E-01
RMM:  13    -0.367566061728E+03   -0.43389E-04   -0.30874E-04  2785   0.390E-02    0.718E-01
RMM:  14    -0.367566071142E+03   -0.94136E-05   -0.78173E-05  2601   0.222E-02    0.432E-01
RMM:  15    -0.367566164268E+03   -0.93125E-04   -0.40943E-05  2607   0.130E-02    0.355E-01
RMM:  16    -0.367566225626E+03   -0.61358E-04   -0.22288E-05  2592   0.110E-02    0.235E-01
RMM:  17    -0.367566255308E+03   -0.29682E-04   -0.19060E-05  2592   0.101E-02    0.939E-02
RMM:  18    -0.367566261234E+03   -0.59259E-05   -0.62567E-06  2526   0.578E-03    0.207E-02
RMM:  19    -0.367566262359E+03   -0.11252E-05   -0.17071E-06  1580   0.283E-03    0.926E-03
RMM:  20    -0.367566262255E+03    0.10457E-06   -0.42822E-07  1556   0.137E-03
   1 F= -.36756626E+03 E0= -.36757536E+03  d E =-.367566E+03
       N       E                     dE             d eps       ncg     rms          rms(c)
DAV:   1    -0.367574597056E+03   -0.83347E-02   -0.38402E-01  2976   0.118E+00    0.262E-01
RMM:   2    -0.367576551293E+03   -0.19542E-02   -0.20555E-02  2593   0.297E-01    0.106E-01
RMM:   3    -0.367576887188E+03   -0.33590E-03   -0.33791E-03  2646   0.135E-01    0.457E-02
RMM:   4    -0.367576893615E+03   -0.64268E-05   -0.46363E-04  2685   0.566E-02    0.160E-02
RMM:   5    -0.367576896843E+03   -0.32275E-05   -0.76355E-05  2660   0.222E-02    0.363E-03
RMM:   6    -0.367576898700E+03   -0.18576E-05   -0.18498E-05  2555   0.987E-03    0.713E-04
RMM:   7    -0.367576898921E+03   -0.22080E-06   -0.23209E-06  1731   0.352E-03    0.659E-04
RMM:   8    -0.367576898973E+03   -0.51837E-07   -0.55443E-07  1432   0.164E-03
   2 F= -.36757690E+03 E0= -.36758606E+03  d E =-.106367E-01
       N       E                     dE             d eps       ncg     rms          rms(c)
DAV:   1    -0.367577783537E+03   -0.88462E-03   -0.19934E-02  2952   0.269E-01    0.598E-02
RMM:   2    -0.367577883564E+03   -0.10003E-03   -0.10461E-03  2592   0.674E-02    0.244E-02
RMM:   3    -0.367577900629E+03   -0.17065E-04   -0.16891E-04  2640   0.306E-02    0.103E-02
RMM:   4    -0.367577901158E+03   -0.52871E-06   -0.23351E-05  2669   0.128E-02    0.363E-03
RMM:   5    -0.367577901362E+03   -0.20373E-06   -0.38344E-06  1893   0.504E-03    0.790E-04
RMM:   6    -0.367577901440E+03   -0.78359E-07   -0.83283E-07  1532   0.223E-03    0.180E-04
RMM:   7    -0.367577901460E+03   -0.19641E-07   -0.20359E-07  1282   0.104E-03    0.110E-04
RMM:   8    -0.367577901465E+03   -0.50286E-08   -0.47870E-08   779   0.607E-04
   3 F= -.36757790E+03 E0= -.36758705E+03  d E =-.116392E-01
