 vasp.6.4.3 19Mar24 (build Oct 21 2024 22:36:34) complex                        
  
 executed on             LinuxIFC date 2024.11.01  22:46:23
 running   96 mpi-ranks, on    1 nodes
 distrk:  each k-point on   24 cores,    4 groups
 distr:  one band on NCORE=  12 cores,    2 groups


--------------------------------------------------------------------------------------------------------


 INCAR:
   SYSTEM = Si64
   ISTART = 0
   ICHARG = 2
   LREAL = Auto
   PREC = Accurate
   LWAVE = .False.
   LCHARG = .False.
   ADDGRID = .True.
   ENCUT = 400
   GGA = PS
   GGA_COMPAT = .FALSE.
   ISMEAR = 1
   SIGMA = 0.2
   NELM = 60
   NELMIN = 8
   EDIFF = 1e-06
   EDIFFG = -0.01
   NSW = 60
   IBRION = 2
   ISIF = 2
   KPAR = 4
   NPAR = 2
   ALGO = Fast

 POTCAR:    PAW_PBE Si 05Jan2001                  
 POTCAR:    PAW_PBE Si 05Jan2001                  
   VRHFIN =Si: s2p2                                                                                 
   LEXCH  = PE                                                                                      
   EATOM  =   103.0669 eV,    7.5752 Ry                                                             
                                                                                                    
   TITEL  = PAW_PBE Si 05Jan2001                                                                    
   LULTRA =        F    use ultrasoft PP ?                                                          
   IUNSCR =        1    unscreen: 0-lin 1-nonlin 2-no                                               
   RPACOR =    1.500    partial core radius                                                         
   POMASS =   28.085; ZVAL   =    4.000    mass and valenz                                          
   RCORE  =    1.900    outmost cutoff radius                                                       
   RWIGS  =    2.480; RWIGS  =    1.312    wigner-seitz radius (au A)                               
   ENMAX  =  245.345; ENMIN  =  184.009 eV                                                          
   ICORE  =        2    local potential                                                             
   LCOR   =        T    correct aug charges                                                         
   LPAW   =        T    paw PP                                                                      
   EAUG   =  322.069                                                                                
   DEXC   =    0.000                                                                                
   RMAX   =    1.950    core radius for proj-oper                                                   
   RAUG   =    1.300    factor for augmentation sphere                                              
   RDEP   =    1.993    radius for radial grids                                                     
   RDEPT  =    1.837    core radius for aug-charge                                                  
                                                                                                    
   Atomic configuration                                                                             
    6 entries                                                                                       
     n  l   j            E        occ.                                                              
     1  0  0.50     -1785.8828   2.0000                                                             
     2  0  0.50      -139.4969   2.0000                                                             
     2  1  1.50       -95.5546   6.0000                                                             
     3  0  0.50       -10.8127   2.0000                                                             
     3  1  0.50        -4.0811   2.0000                                                             
     3  2  1.50        -4.0817   0.0000                                                             
   Description                                                                                      
     l       E           TYP  RCUT    TYP  RCUT                                                     
     0    -10.8127223     23  1.900                                                                 
     0     -7.6451159     23  1.900                                                                 
     1     -4.0811372     23  1.900                                                                 
     1      2.4879257     23  1.900                                                                 
     2     -4.0817478      7  1.900                                                                 
  local pseudopotential read in
  partial core-charges read in
  partial kinetic energy density read in
  atomic valenz-charges read in
  non local Contribution for L=           0  read in
    real space projection operators read in
  non local Contribution for L=           0  read in
    real space projection operators read in
  non local Contribution for L=           1  read in
    real space projection operators read in
  non local Contribution for L=           1  read in
    real space projection operators read in
    PAW grid and wavefunctions read in
 
   number of l-projection  operators is LMAX  =           4
   number of lm-projection operators is LMMAX =           8
 
 Optimization of the real space projectors (new method)

 maximal supplied QI-value         = 19.84
 optimisation between [QCUT,QGAM] = [ 10.12, 20.44] = [ 28.68,116.96] Ry 
 Optimized for a Real-space Cutoff    1.38 Angstroem

   l    n(q)    QCUT    max X(q) W(low)/X(q) W(high)/X(q)  e(spline) 
   0      8    10.119   159.560    0.58E-04    0.11E-03    0.54E-07
   0      8    10.119   115.863    0.56E-04    0.11E-03    0.54E-07
   1      8    10.119    88.339    0.22E-03    0.17E-03    0.19E-06
   1      8    10.119    48.592    0.22E-03    0.17E-03    0.18E-06
 -----------------------------------------------------------------------------
|                                                                             |
|               ----> ADVICE to this user running VASP <----                  |
|                                                                             |
|     You enforced a specific xc type in the INCAR file but a different       |
|     type was found in the POTCAR file.                                      |
|     I HOPE YOU KNOW WHAT YOU ARE DOING!                                     |
|                                                                             |
 -----------------------------------------------------------------------------

  PAW_PBE Si 05Jan2001                  :
 energy of atom  1       EATOM= -103.0669
 kinetic energy error for atom=    0.0012 (will be added to EATOM!!)
 
 
 POSCAR: Si8
  positions in direct lattice
  velocities in cartesian coordinates


 exchange-correlation table for PS
   RHO(1)=    0.500       N(1)  =     2000
   RHO(2)=  100.500       N(2)  =     4000
 


--------------------------------------------------------------------------------------------------------


 ion  position               nearest neighbor table
   1  0.000  0.000  0.000-  30 2.35  44 2.35  15 2.36  57 2.36
   2  0.000  0.000  0.500-  29 2.35  43 2.35  16 2.36  58 2.36
   3  0.000  0.500  0.000-  32 2.35  42 2.35  13 2.36  59 2.36
   4  0.000  0.500  0.500-  31 2.35  41 2.35  14 2.36  60 2.36
   5  0.500  0.000  0.000-  26 2.35  48 2.35  11 2.36  61 2.36
   6  0.500  0.000  0.500-  25 2.35  47 2.35  12 2.36  62 2.36
   7  0.500  0.500  0.000-  28 2.35  46 2.35   9 2.36  63 2.36
   8  0.500  0.500  0.500-  27 2.35  45 2.35  10 2.36  64 2.36
   9  0.375  0.375  0.125-  21 2.35  35 2.35   7 2.36  49 2.36
  10  0.375  0.375  0.625-  22 2.35  36 2.35   8 2.36  50 2.36
  11  0.375  0.875  0.125-  23 2.35  33 2.35   5 2.36  51 2.36
  12  0.375  0.875  0.625-  24 2.35  34 2.35   6 2.36  52 2.36
  13  0.875  0.375  0.125-  17 2.35  39 2.35   3 2.36  53 2.36
  14  0.875  0.375  0.625-  18 2.35  40 2.35   4 2.36  54 2.36
  15  0.875  0.875  0.125-  19 2.35  37 2.35   1 2.36  55 2.36
  16  0.875  0.875  0.625-  20 2.35  38 2.35   2 2.36  56 2.36
  17  0.000  0.250  0.250-  13 2.35  57 2.35  41 2.36  29 2.36
  18  0.000  0.250  0.750-  14 2.35  58 2.35  42 2.36  30 2.36
  19  0.000  0.750  0.250-  15 2.35  59 2.35  43 2.36  31 2.36
  20  0.000  0.750  0.750-  16 2.35  60 2.35  44 2.36  32 2.36
  21  0.500  0.250  0.250-   9 2.35  61 2.35  45 2.36  25 2.36
  22  0.500  0.250  0.750-  10 2.35  62 2.35  46 2.36  26 2.36
  23  0.500  0.750  0.250-  11 2.35  63 2.35  47 2.36  27 2.36
  24  0.500  0.750  0.750-  12 2.35  64 2.35  48 2.36  28 2.36
  25  0.375  0.125  0.375-   6 2.35  50 2.35  33 2.36  21 2.36
  26  0.375  0.125  0.875-   5 2.35  49 2.35  34 2.36  22 2.36
  27  0.375  0.625  0.375-   8 2.35  52 2.35  35 2.36  23 2.36
  28  0.375  0.625  0.875-   7 2.35  51 2.35  36 2.36  24 2.36
  29  0.875  0.125  0.375-   2 2.35  54 2.35  37 2.36  17 2.36
  30  0.875  0.125  0.875-   1 2.35  53 2.35  38 2.36  18 2.36
  31  0.875  0.625  0.375-   4 2.35  56 2.35  39 2.36  19 2.36
  32  0.875  0.625  0.875-   3 2.35  55 2.35  40 2.36  20 2.36
  33  0.250  0.000  0.250-  11 2.35  57 2.35  43 2.36  25 2.36
  34  0.250  0.000  0.750-  12 2.35  58 2.35  44 2.36  26 2.36
  35  0.250  0.500  0.250-   9 2.35  59 2.35  41 2.36  27 2.36
  36  0.250  0.500  0.750-  10 2.35  60 2.35  42 2.36  28 2.36
  37  0.750  0.000  0.250-  15 2.35  61 2.35  47 2.36  29 2.36
  38  0.750  0.000  0.750-  16 2.35  62 2.35  48 2.36  30 2.36
  39  0.750  0.500  0.250-  13 2.35  63 2.35  45 2.36  31 2.36
  40  0.750  0.500  0.750-  14 2.35  64 2.35  46 2.36  32 2.36
  41  0.125  0.375  0.375-   4 2.35  50 2.35  35 2.36  17 2.36
  42  0.125  0.375  0.875-   3 2.35  49 2.35  36 2.36  18 2.36
  43  0.125  0.875  0.375-   2 2.35  52 2.35  33 2.36  19 2.36
  44  0.125  0.875  0.875-   1 2.35  51 2.35  34 2.36  20 2.36
  45  0.625  0.375  0.375-   8 2.35  54 2.35  39 2.36  21 2.36
  46  0.625  0.375  0.875-   7 2.35  53 2.35  40 2.36  22 2.36
  47  0.625  0.875  0.375-   6 2.35  56 2.35  37 2.36  23 2.36
  48  0.625  0.875  0.875-   5 2.35  55 2.35  38 2.36  24 2.36
  49  0.250  0.250  0.000-  26 2.35  42 2.35   9 2.36  57 2.36
  50  0.250  0.250  0.500-  25 2.35  41 2.35  10 2.36  58 2.36
  51  0.250  0.750  0.000-  28 2.35  44 2.35  11 2.36  59 2.36
  52  0.250  0.750  0.500-  27 2.35  43 2.35  12 2.36  60 2.36
  53  0.750  0.250  0.000-  30 2.35  46 2.35  13 2.36  61 2.36
  54  0.750  0.250  0.500-  29 2.35  45 2.35  14 2.36  62 2.36
  55  0.750  0.750  0.000-  32 2.35  48 2.35  15 2.36  63 2.36
  56  0.750  0.750  0.500-  31 2.35  47 2.35  16 2.36  64 2.36
  57  0.125  0.125  0.125-  17 2.35  33 2.35   1 2.36  49 2.36
  58  0.125  0.125  0.625-  18 2.35  34 2.35   2 2.36  50 2.36
  59  0.125  0.625  0.125-  19 2.35  35 2.35   3 2.36  51 2.36
  60  0.125  0.625  0.625-  20 2.35  36 2.35   4 2.36  52 2.36
  61  0.625  0.125  0.125-  21 2.35  37 2.35   5 2.36  53 2.36
  62  0.625  0.125  0.625-  22 2.35  38 2.35   6 2.36  54 2.36
  63  0.625  0.625  0.125-  23 2.35  39 2.35   7 2.36  55 2.36
  64  0.625  0.625  0.625-  24 2.35  40 2.35   8 2.36  56 2.36
 
  LATTYP: Found a simple monoclinic cell.
 ALAT       =    10.8340560251
 B/A-ratio  =     0.9999875000
 C/A-ratio  =     1.0099998260
 COS(beta)  =    -0.0099503228
  
  Lattice vectors:
  
 A1 = (   0.0541700080,  10.8339206000,   0.0000000000)
 A2 = (   0.0000000000,   0.0000000000, -10.8339206000)
 A3 = ( -10.9422606160,  -0.0541700080,   0.0000000000)


Analysis of symmetry for initial positions (statically):
=====================================================================
 Subroutine PRICEL returns following result:
 
  LATTYP: Found a base centered monoclinic cell.
 ALAT       =     5.4170280126
 B/A-ratio  =     0.9999875000
 C/A-ratio  =     0.7071067812
 COS(beta)  =    -0.7000004823
  
  Lattice vectors:
  
 A1 = (   0.0135425020,   2.7084801500,  -2.7084801500)
 A2 = (   0.0135425020,   2.7084801500,   2.7084801500)
 A3 = (   2.7220226520,  -2.6949376480,   0.0000000000)
 
  32 primitive cells build up your supercell.
 

 Routine SETGRP: Setting up the symmetry group for a 
 simple monoclinic supercell.


 Subroutine GETGRP returns: Found  4 space group operations
 (whereof  2 operations were pure point group operations)
 out of a pool of  4 trial point group operations.


The static configuration has the point symmetry C_2 .
 The point group associated with its full space group is C_2h.


Analysis of symmetry for dynamics (positions and initial velocities):
=====================================================================
 Subroutine PRICEL returns following result:
 
  LATTYP: Found a base centered monoclinic cell.
 ALAT       =     5.4170280126
 B/A-ratio  =     0.9999875000
 C/A-ratio  =     0.7071067812
 COS(beta)  =    -0.7000004823
  
  Lattice vectors:
  
 A1 = (   0.0135425020,   2.7084801500,  -2.7084801500)
 A2 = (   0.0135425020,   2.7084801500,   2.7084801500)
 A3 = (   2.7220226520,  -2.6949376480,   0.0000000000)
 
  32 primitive cells build up your supercell.
 

 Routine SETGRP: Setting up the symmetry group for a 
 simple monoclinic supercell.


 Subroutine GETGRP returns: Found  4 space group operations
 (whereof  2 operations were pure point group operations)
 out of a pool of  4 trial point group operations.


The dynamic configuration has the point symmetry C_2 .
 The point group associated with its full space group is C_2h.


 Subroutine INISYM returns: Found  4 space group operations
 (whereof  2 operations are pure point group operations),
 and found    32 'primitive' translations


----------------------------------------------------------------------------------------

                                     Primitive cell                                     

  volume of cell :      40.1345

  direct lattice vectors                    reciprocal lattice vectors
     0.013542502  2.708480150 -2.708480150     0.181868195  0.183696030 -0.184605377
     0.013542502  2.708480150  2.708480150     0.181868195  0.183696030  0.184605377
     2.722022652 -2.694937648  0.000000000     0.365564224 -0.001827835 -0.000000000

  length of vectors
     3.830393302  3.830393302  3.830417242     0.317646686  0.317646686  0.365568794

  position of ions in fractional coordinates (direct lattice)
     0.000000000  0.000000000  0.000000000
     0.250000000  0.750000000  0.500000000

  ion indices of the primitive-cell ions
   primitive index   ion index
                 1           1
                 2          15

----------------------------------------------------------------------------------------

 
 
 KPOINTS: Automatic mesh                          

Automatic generation of k-mesh.
 Grid dimensions read from file:
 generate k-points for:    2    2    2

 Generating k-lattice:

  Cartesian coordinates                     Fractional coordinates (reciprocal lattice)
     0.045695528 -0.000228479  0.000000000     0.500000000  0.000000000  0.000000000
    -0.000228479  0.046152487  0.000000000     0.000000000  0.500000000  0.000000000
     0.000000000  0.000000000  0.046151344     0.000000000  0.000000000  0.500000000

  Length of vectors
     0.045696099  0.046153052  0.046151344

  Shift w.r.t. Gamma in fractional coordinates (k-lattice)
     0.000000000  0.000000000  0.000000000

 
 Subroutine IBZKPT returns following result:
 ===========================================
 
 Found      8 irreducible k-points:
 
 Following reciprocal coordinates:
            Coordinates               Weight
  0.000000  0.000000  0.000000      1.000000
  0.500000 -0.000000  0.000000      1.000000
  0.000000  0.500000  0.000000      1.000000
  0.500000  0.500000  0.000000      1.000000
  0.000000  0.000000  0.500000      1.000000
  0.500000 -0.000000  0.500000      1.000000
  0.000000  0.500000  0.500000      1.000000
  0.500000  0.500000  0.500000      1.000000
 
 Following cartesian coordinates:
            Coordinates               Weight
  0.000000  0.000000  0.000000      1.000000
  0.045696 -0.000228  0.000000      1.000000
 -0.000228  0.046152  0.000000      1.000000
  0.045467  0.045924  0.000000      1.000000
  0.000000  0.000000  0.046151      1.000000
  0.045696 -0.000228  0.046151      1.000000
 -0.000228  0.046152  0.046151      1.000000
  0.045467  0.045924  0.046151      1.000000
 


--------------------------------------------------------------------------------------------------------




 Dimension of arrays:
   k-points           NKPTS =      8   k-points in BZ     NKDIM =      8   number of bands    NBANDS=    162
   number of dos      NEDOS =    301   number of ions     NIONS =     64
   non local maximal  LDIM  =      4   non local SUM 2l+1 LMDIM =      8
   total plane-waves  NPLWV = 373248
   max r-space proj   IRMAX =   3253   max aug-charges    IRDMAX=  77926
   dimension x,y,z NGX =    72 NGY =   72 NGZ =   72
   dimension x,y,z NGXF=   144 NGYF=  144 NGZF=  144
   support grid    NGXF=   288 NGYF=  288 NGZF=  288
   ions per type =              64
   NGX,Y,Z   is equivalent  to a cutoff of  10.94, 11.05, 11.05 a.u.
   NGXF,Y,Z  is equivalent  to a cutoff of  21.88, 22.10, 22.10 a.u.

 SYSTEM =  Si64                                    
 POSCAR =  Si8                                     

 Startparameter for this run:
   NWRITE =      2    write-flag & timer
   PREC   = accura    normal or accurate (medium, high low for compatibility)
   ISTART =      0    job   : 0-new  1-cont  2-samecut
   ICHARG =      2    charge: 1-file 2-atom 10-const
   ISPIN  =      1    spin polarized calculation?
   LNONCOLLINEAR =      F non collinear calculations
   LSORBIT =      F    spin-orbit coupling
   INIWAV =      1    electr: 0-lowe 1-rand  2-diag
   LASPH  =      F    aspherical Exc in radial PAW
 Electronic Relaxation 1
   ENCUT  =  400.0 eV  29.40 Ry    5.42 a.u.  17.84 17.67 17.67*2*pi/ulx,y,z
   ENINI  =  400.0     initial cutoff
   ENAUG  =  322.1 eV  augmentation charge cutoff
   NELM   =     60;   NELMIN=  8; NELMDL= -5     # of ELM steps 
   EDIFF  = 0.1E-05   stopping-criterion for ELM
   LREAL  =      T    real-space projection
   NLSPLINE    = F    spline interpolate recip. space projectors
   LCOMPAT=      F    compatible to vasp.4.4
   GGA_COMPAT  = F    GGA compatible to vasp.4.4-vasp.4.6
   LMAXPAW     = -100 max onsite density
   LMAXMIX     =    2 max onsite mixed and CHGCAR
   VOSKOWN=      0    Vosko Wilk Nusair interpolation
   ROPT   =   -0.00025
 Ionic relaxation
   EDIFFG = -.1E-01   stopping-criterion for IOM
   NSW    =     60    number of steps for IOM
   NBLOCK =      1;   KBLOCK =     60    inner block; outer block 
   IBRION =      2    ionic relax: 0-MD 1-quasi-New 2-CG
   NFREE  =      1    steps in history (QN), initial steepest desc. (CG)
   ISIF   =      2    stress and relaxation
   IWAVPR =     11    prediction:  0-non 1-charg 2-wave 3-comb
   ISYM   =      2    0-nonsym 1-usesym 2-fastsym
   LCORR  =      T    Harris-Foulkes like correction to forces

   POTIM  = 0.5000    time-step for ionic-motion
   TEIN   =    0.0    initial temperature
   TEBEG  =    0.0;   TEEND  =   0.0 temperature during run
   SMASS  =  -3.00    Nose mass-parameter (am)
   estimated Nose-frequenzy (Omega)   =  0.10E-29 period in steps = 0.13E+47 mass=  -0.274E-26a.u.
   SCALEE = 1.0000    scale energy and forces
   NPACO  =    256;   APACO  = 10.0  distance and # of slots for P.C.
   PSTRESS=    0.0 pullay stress

  Mass of Ions in am
   POMASS =  28.09
  Ionic Valenz
   ZVAL   =   4.00
  Atomic Wigner-Seitz radii
   RWIGS  =  -1.00
  virtual crystal weights 
   VCA    =   1.00
   NELECT =     256.0000    total number of electrons
   NUPDOWN=      -1.0000    fix difference up-down

 DOS related values:
   EMIN   =  10.00;   EMAX   =-10.00  energy-range for DOS
   EFERMI =   0.00;   METHOD = LEGACY      
   ISMEAR =     1;   SIGMA  =   0.20  broadening in eV -4-tet -1-fermi 0-gaus

 Electronic relaxation 2 (details)
   IALGO  =     68    algorithm
   LDIAG  =      T    sub-space diagonalisation (order eigenvalues)
   LSUBROT=      F    optimize rotation matrix (better conditioning)
   TURBO    =      0    0=normal 1=particle mesh
   IRESTART =      0    0=no restart 2=restart with 2 vectors
   NREBOOT  =      0    no. of reboots
   NMIN     =      0    reboot dimension
   EREF     =   0.00    reference energy to select bands
   IMIX   =      4    mixing-type and parameters
     AMIX     =   0.40;   BMIX     =  1.00
     AMIX_MAG =   1.60;   BMIX_MAG =  1.00
     AMIN     =   0.10
     WC   =   100.;   INIMIX=   1;  MIXPRE=   1;  MAXMIX= -45

 Intra band minimization:
   WEIMIN = 0.0010     energy-eigenvalue tresh-hold
   EBREAK =  0.15E-08  absolut break condition
   DEPER  =   0.30     relativ break condition  

   TIME   =   0.40     timestep for ELM

  volume/ion in A,a.u.               =      20.07       135.42
  Fermi-wavevector in a.u.,A,eV,Ry     =   0.956311  1.807165 12.442935  0.914530
  Thomas-Fermi vector in A             =   2.085227
 
 Write flags
   LWAVE        =      F    write WAVECAR
   LDOWNSAMPLE  =      F    k-point downsampling of WAVECAR
   LCHARG       =      F    write CHGCAR
   LVTOT        =      F    write LOCPOT, total local potential
   LVHAR        =      F    write LOCPOT, Hartree potential only
   WRT_POTENTIAL= false  ! write potential to hdf5 file
   LELF         =      F    write electronic localiz. function (ELF)
   LORBIT       =      0    0 simple, 1 ext, 2 COOP (PROOUT), +10 PAW based schemes


 Dipole corrections
   LMONO      =      F    monopole corrections only (constant potential shift)
   LDIPOL     =      F    correct potential (dipole corrections)
   IDIPOL     =      0    1-x, 2-y, 3-z, 4-all directions 
   EPSILON    =  1.0000000 bulk dielectric constant
   LVACPOTAV  =      F  vacuum potentials using an averaging scheme for the charge density
   VACPOTFLAT =  0.1000000 required flatness to determine vacuum potential
 Exchange correlation treatment:
   GGA     = PS    functional components
   XC_C    = 1    coefficients multiplying the functional components
   LIBXC   =     F    Libxc                    
   VOSKOWN =     0    Vosko Wilk Nusair interpolation
   LHFCALC =     F    Hartree Fock is set to
   LHFONE  =     F    Hartree Fock one center treatment
   AEXX    =    0.0000 exact exchange contribution

 Parameters of functionals:
   PS:
     No parameter
 
 Van der Waals corrections
   IVDW    =     0    specifies the selected vdW correction

 Linear response parameters
   LEPSILON=     F    determine dielectric tensor
   LRPA    =     F    only Hartree local field effects (RPA)
   LNABLA  =     F    use nabla operator in PAW spheres
   LVEL    =     F    velocity operator in full k-point grid
   CSHIFT  =0.1000    complex shift for real part using Kramers Kronig
   OMEGAMAX=  -1.0    maximum frequency
   DEG_THRESHOLD= 0.2000000E-02 threshold for treating states as degnerate
   RTIME   =   -0.100 relaxation time in fs
  (WPLASMAI=    0.000 imaginary part of plasma frequency in eV, 0.658/RTIME)
   DFIELD  = 0.0000000 0.0000000 0.0000000 field for delta impulse in time
 
  Optional k-point grid parameters
   LKPOINTS_OPT  =     F    use optional k-point grid
   KPOINTS_OPT_MODE=     1    mode for optional k-point grid
 
 Orbital magnetization related:
   ORBITALMAG=     F  switch on orbital magnetization
   LCHIMAG   =     F  perturbation theory with respect to B field
   DQ        =  0.001000  dq finite difference perturbation B field
   LLRAUG    =     F  two centre corrections for induced B field
   LBONE     =     F  B-component reconstruction in AE one-centre
   LVGVCALC  =     T  calculate vGv susceptibility
   LVGVAPPL  =     F  apply vGv susceptibility instead of pGv for G=0

 Random number generation:
   RANDOM_GENERATOR = DEFAULT
   PCG_SEED         = not used


--------------------------------------------------------------------------------------------------------


 conjugate gradient relaxation of ions
 charge density and potential will be updated during run
 non-spin polarized calculation
 RMM-DIIS sequential band-by-band and
  variant of blocked Davidson during initial phase
 perform sub-space diagonalisation
    before iterative eigenvector-optimisation
 modified Broyden-mixing scheme, WC =      100.0
 initial mixing is a Kerker type mixing with AMIX =  0.4000 and BMIX =      1.0000
 Hartree-type preconditioning will be used
 using additional bands           34
 real space projection scheme for non local part
 use partial core corrections
 calculate Harris-corrections to forces 
   (improved forces if not selfconsistent)
 use gradient corrections 
 use of overlap-Matrix (Vanderbilt PP)
 Methfessel and Paxton  Order N= 1 SIGMA  =   0.20


--------------------------------------------------------------------------------------------------------


  energy-cutoff  :      400.00
  volume of cell :     1284.30
      direct lattice vectors                 reciprocal lattice vectors
    10.942260616  0.054170008  0.000000000     0.091391056 -0.000456959  0.000000000
     0.054170008 10.833920600  0.000000000    -0.000456959  0.092304973  0.000000000
     0.000000000  0.000000000 10.833920600     0.000000000  0.000000000  0.092302689

  length of vectors
    10.942394700 10.834056025 10.833920600     0.091392198  0.092306105  0.092302689


 
 k-points in units of 2pi/SCALE and weight: Automatic mesh                          
   0.00000000  0.00000000  0.00000000       0.125
   0.04569553 -0.00022848  0.00000000       0.125
  -0.00022848  0.04615249  0.00000000       0.125
   0.04546706  0.04592401  0.00000000       0.125
   0.00000000  0.00000000  0.04615135       0.125
   0.04569553 -0.00022848  0.04615135       0.125
  -0.00022848  0.04615249  0.04615135       0.125
   0.04546706  0.04592401  0.04615135       0.125
 
 k-points in reciprocal lattice and weights: Automatic mesh                          
   0.00000000  0.00000000  0.00000000       0.125
   0.50000000 -0.00000000  0.00000000       0.125
   0.00000000  0.50000000  0.00000000       0.125
   0.50000000  0.50000000  0.00000000       0.125
   0.00000000  0.00000000  0.50000000       0.125
   0.50000000 -0.00000000  0.50000000       0.125
   0.00000000  0.50000000  0.50000000       0.125
   0.50000000  0.50000000  0.50000000       0.125
 
 position of ions in fractional coordinates (direct lattice) 
   0.00000000  0.00000000  0.00000000
   0.00000000  0.00000000  0.50000000
   0.00000000  0.50000000  0.00000000
   0.00000000  0.50000000  0.50000000
   0.50000000  0.00000000  0.00000000
   0.50000000  0.00000000  0.50000000
   0.50000000  0.50000000  0.00000000
   0.50000000  0.50000000  0.50000000
   0.37500000  0.37500000  0.12500000
   0.37500000  0.37500000  0.62500000
   0.37500000  0.87500000  0.12500000
   0.37500000  0.87500000  0.62500000
   0.87500000  0.37500000  0.12500000
   0.87500000  0.37500000  0.62500000
   0.87500000  0.87500000  0.12500000
   0.87500000  0.87500000  0.62500000
   0.00000000  0.25000000  0.25000000
   0.00000000  0.25000000  0.75000000
   0.00000000  0.75000000  0.25000000
   0.00000000  0.75000000  0.75000000
   0.50000000  0.25000000  0.25000000
   0.50000000  0.25000000  0.75000000
   0.50000000  0.75000000  0.25000000
   0.50000000  0.75000000  0.75000000
   0.37500000  0.12500000  0.37500000
   0.37500000  0.12500000  0.87500000
   0.37500000  0.62500000  0.37500000
   0.37500000  0.62500000  0.87500000
   0.87500000  0.12500000  0.37500000
   0.87500000  0.12500000  0.87500000
   0.87500000  0.62500000  0.37500000
   0.87500000  0.62500000  0.87500000
   0.25000000  0.00000000  0.25000000
   0.25000000  0.00000000  0.75000000
   0.25000000  0.50000000  0.25000000
   0.25000000  0.50000000  0.75000000
   0.75000000  0.00000000  0.25000000
   0.75000000  0.00000000  0.75000000
   0.75000000  0.50000000  0.25000000
   0.75000000  0.50000000  0.75000000
   0.12500000  0.37500000  0.37500000
   0.12500000  0.37500000  0.87500000
   0.12500000  0.87500000  0.37500000
   0.12500000  0.87500000  0.87500000
   0.62500000  0.37500000  0.37500000
   0.62500000  0.37500000  0.87500000
   0.62500000  0.87500000  0.37500000
   0.62500000  0.87500000  0.87500000
   0.25000000  0.25000000  0.00000000
   0.25000000  0.25000000  0.50000000
   0.25000000  0.75000000  0.00000000
   0.25000000  0.75000000  0.50000000
   0.75000000  0.25000000  0.00000000
   0.75000000  0.25000000  0.50000000
   0.75000000  0.75000000  0.00000000
   0.75000000  0.75000000  0.50000000
   0.12500000  0.12500000  0.12500000
   0.12500000  0.12500000  0.62500000
   0.12500000  0.62500000  0.12500000
   0.12500000  0.62500000  0.62500000
   0.62500000  0.12500000  0.12500000
   0.62500000  0.12500000  0.62500000
   0.62500000  0.62500000  0.12500000
   0.62500000  0.62500000  0.62500000
 
 position of ions in cartesian coordinates  (Angst):
   0.00000000  0.00000000  0.00000000
   0.00000000  0.00000000  5.41696030
   0.02708500  5.41696030  0.00000000
   0.02708500  5.41696030  5.41696030
   5.47113031  0.02708500  0.00000000
   5.47113031  0.02708500  5.41696030
   5.49821531  5.44404530  0.00000000
   5.49821531  5.44404530  5.41696030
   4.12366148  4.08303398  1.35424007
   4.12366148  4.08303398  6.77120037
   4.15074649  9.49999428  1.35424007
   4.15074649  9.49999428  6.77120037
   9.59479179  4.11011898  1.35424007
   9.59479179  4.11011898  6.77120037
   9.62187680  9.52707928  1.35424007
   9.62187680  9.52707928  6.77120037
   0.01354250  2.70848015  2.70848015
   0.01354250  2.70848015  8.12544045
   0.04062751  8.12544045  2.70848015
   0.04062751  8.12544045  8.12544045
   5.48467281  2.73556515  2.70848015
   5.48467281  2.73556515  8.12544045
   5.51175781  8.15252545  2.70848015
   5.51175781  8.15252545  8.12544045
   4.11011898  1.37455383  4.06272022
   4.11011898  1.37455383  9.47968052
   4.13720399  6.79151413  4.06272022
   4.13720399  6.79151413  9.47968052
   9.58124929  1.40163883  4.06272022
   9.58124929  1.40163883  9.47968052
   9.60833429  6.81859913  4.06272022
   9.60833429  6.81859913  9.47968052
   2.73556515  0.01354250  2.70848015
   2.73556515  0.01354250  8.12544045
   2.76265016  5.43050280  2.70848015
   2.76265016  5.43050280  8.12544045
   8.20669546  0.04062751  2.70848015
   8.20669546  0.04062751  8.12544045
   8.23378047  5.45758781  2.70848015
   8.23378047  5.45758781  8.12544045
   1.38809633  4.06949148  4.06272022
   1.38809633  4.06949148  9.47968052
   1.41518133  9.48645178  4.06272022
   1.41518133  9.48645178  9.47968052
   6.85922664  4.09657648  4.06272022
   6.85922664  4.09657648  9.47968052
   6.88631164  9.51353678  4.06272022
   6.88631164  9.51353678  9.47968052
   2.74910766  2.72202265  0.00000000
   2.74910766  2.72202265  5.41696030
   2.77619266  8.13898295  0.00000000
   2.77619266  8.13898295  5.41696030
   8.22023796  2.74910766  0.00000000
   8.22023796  2.74910766  5.41696030
   8.24732297  8.16606796  0.00000000
   8.24732297  8.16606796  5.41696030
   1.37455383  1.36101133  1.35424007
   1.37455383  1.36101133  6.77120037
   1.40163883  6.77797163  1.35424007
   1.40163883  6.77797163  6.77120037
   6.84568414  1.38809633  1.35424007
   6.84568414  1.38809633  6.77120037
   6.87276914  6.80505663  1.35424007
   6.87276914  6.80505663  6.77120037
 


--------------------------------------------------------------------------------------------------------


 k-point     1 :   0.0000 0.0000 0.0000  plane waves:   23309
 k-point     2 :   0.5000-0.0000 0.0000  plane waves:   23352
 k-point     3 :   0.0000 0.5000 0.0000  plane waves:   23328
 k-point     4 :   0.5000 0.5000 0.0000  plane waves:   23362
 k-point     5 :   0.0000 0.0000 0.5000  plane waves:   23324
 k-point     6 :   0.5000-0.0000 0.5000  plane waves:   23344
 k-point     7 :   0.0000 0.5000 0.5000  plane waves:   23316
 k-point     8 :   0.5000 0.5000 0.5000  plane waves:   23284

 maximum and minimum number of plane-waves per node :      1976     1916

 maximum number of plane-waves:     23362
 maximum index in each direction: 
   IXMAX=   17   IYMAX=   17   IZMAX=   17
   IXMIN=  -18   IYMIN=  -18   IZMIN=  -18


 real space projection operators:
  total allocation   :      12356.00 KBytes
  max/ min on nodes  :       1038.00       1013.00


 parallel 3D FFT for wavefunctions:
    minimum data exchange during FFTs selected (reduces bandwidth)
 parallel 3D FFT for charge:
    minimum data exchange during FFTs selected (reduces bandwidth)


 total amount of memory used by VASP MPI-rank0    81988. kBytes
=======================================================================

   base      :      30000. kBytes
   nonlr-proj:       4722. kBytes
   fftplans  :      19172. kBytes
   grid      :       7278. kBytes
   one-center:         18. kBytes
   wavefun   :      20798. kBytes
 
     INWAV:  cpu time      0.0000: real time      0.0000
 Broyden mixing: mesh for mixing (old mesh)
   NGX = 35   NGY = 35   NGZ = 35
  (NGX  =144   NGY  =144   NGZ  =144)
  gives a total of  42875 points

 initial charge density was supplied:
 charge density of overlapping atoms calculated
 number of electron     256.0000000 magnetization 
 keeping initial charge density in first step


--------------------------------------------------------------------------------------------------------


 Maximum index for non-local projection operator          290
 Maximum index for augmentation-charges         3426 (set IRDMAX)


--------------------------------------------------------------------------------------------------------


 First call to EWALD:  gamma=   0.163
 Maximum number of real-space cells 3x 3x 3
 Maximum number of reciprocal cells 3x 3x 3

    FEWALD:  cpu time      0.0029: real time      0.0029


--------------------------------------- Ionic step        1  -------------------------------------------




--------------------------------------- Iteration      1(   1)  ---------------------------------------


    POTLOK:  cpu time      0.0993: real time      0.1092
    SETDIJ:  cpu time      0.0858: real time      0.0868
     EDDAV:  cpu time      1.3085: real time      1.3762
       DOS:  cpu time      0.0098: real time      0.0127
    --------------------------------------------
      LOOP:  cpu time      1.5034: real time      1.5850

 eigenvalue-minimisations  :  2592
 total energy-change (2. order) : 0.5585602E+03  (-0.8389106E+04)
 number of electron     256.0000000 magnetization 
 augmentation part      256.0000000 magnetization 

 Free energy of the ion-electron system (eV)
  ---------------------------------------------------
  alpha Z        PSCENC =       107.36107504
  Ewald energy   TEWEN  =     -7307.39812902
  -Hartree energ DENC   =      -353.35237457
  -exchange      EXHF   =         0.00000000
  -V(xc)+E(xc)   XCENC  =      -558.87696964
  PAW double counting   =      5598.62625415    -4492.17844134
  entropy T*S    EENTRO =         0.00950590
  eigenvalues    EBANDS =       999.57338164
  atomic energy  EATOM  =      6564.79586099
  Solvation  Ediel_sol  =         0.00000000
  ---------------------------------------------------
  free energy    TOTEN  =       558.56016315 eV

  energy without entropy =      558.55065725  energy(sigma->0) =      558.55699452


--------------------------------------------------------------------------------------------------------




--------------------------------------- Iteration      1(   2)  ---------------------------------------


     EDDAV:  cpu time      1.3918: real time      1.4026
       DOS:  cpu time      0.0012: real time      0.0012
    --------------------------------------------
      LOOP:  cpu time      1.3930: real time      1.4038

 eigenvalue-minimisations  :  3104
 total energy-change (2. order) :-0.8696511E+03  (-0.8254144E+03)
 number of electron     256.0000000 magnetization 
 augmentation part      256.0000000 magnetization 

 Free energy of the ion-electron system (eV)
  ---------------------------------------------------
  alpha Z        PSCENC =       107.36107504
  Ewald energy   TEWEN  =     -7307.39812902
  -Hartree energ DENC   =      -353.35237457
  -exchange      EXHF   =         0.00000000
  -V(xc)+E(xc)   XCENC  =      -558.87696964
  PAW double counting   =      5598.62625415    -4492.17844134
  entropy T*S    EENTRO =         0.02064552
  eigenvalues    EBANDS =       129.91118446
  atomic energy  EATOM  =      6564.79586099
  Solvation  Ediel_sol  =         0.00000000
  ---------------------------------------------------
  free energy    TOTEN  =      -311.09089441 eV

  energy without entropy =     -311.11153993  energy(sigma->0) =     -311.09777625


--------------------------------------------------------------------------------------------------------




--------------------------------------- Iteration      1(   3)  ---------------------------------------


     EDDAV:  cpu time      1.3848: real time      1.3907
       DOS:  cpu time      0.0014: real time      0.0014
    --------------------------------------------
      LOOP:  cpu time      1.3862: real time      1.3921

 eigenvalue-minimisations  :  3128
 total energy-change (2. order) :-0.6201176E+02  (-0.6092533E+02)
 number of electron     256.0000000 magnetization 
 augmentation part      256.0000000 magnetization 

 Free energy of the ion-electron system (eV)
  ---------------------------------------------------
  alpha Z        PSCENC =       107.36107504
  Ewald energy   TEWEN  =     -7307.39812902
  -Hartree energ DENC   =      -353.35237457
  -exchange      EXHF   =         0.00000000
  -V(xc)+E(xc)   XCENC  =      -558.87696964
  PAW double counting   =      5598.62625415    -4492.17844134
  entropy T*S    EENTRO =         0.00800520
  eigenvalues    EBANDS =        67.91206369
  atomic energy  EATOM  =      6564.79586099
  Solvation  Ediel_sol  =         0.00000000
  ---------------------------------------------------
  free energy    TOTEN  =      -373.10265549 eV

  energy without entropy =     -373.11066070  energy(sigma->0) =     -373.10532389


--------------------------------------------------------------------------------------------------------




--------------------------------------- Iteration      1(   4)  ---------------------------------------


     EDDAV:  cpu time      1.3705: real time      1.3869
       DOS:  cpu time      0.0011: real time      0.0011
    --------------------------------------------
      LOOP:  cpu time      1.3717: real time      1.3880

 eigenvalue-minimisations  :  3144
 total energy-change (2. order) :-0.1574554E+01  (-0.1563518E+01)
 number of electron     256.0000000 magnetization 
 augmentation part      256.0000000 magnetization 

 Free energy of the ion-electron system (eV)
  ---------------------------------------------------
  alpha Z        PSCENC =       107.36107504
  Ewald energy   TEWEN  =     -7307.39812902
  -Hartree energ DENC   =      -353.35237457
  -exchange      EXHF   =         0.00000000
  -V(xc)+E(xc)   XCENC  =      -558.87696964
  PAW double counting   =      5598.62625415    -4492.17844134
  entropy T*S    EENTRO =         0.00844211
  eigenvalues    EBANDS =        66.33707326
  atomic energy  EATOM  =      6564.79586099
  Solvation  Ediel_sol  =         0.00000000
  ---------------------------------------------------
  free energy    TOTEN  =      -374.67720902 eV

  energy without entropy =     -374.68565113  energy(sigma->0) =     -374.68002306


--------------------------------------------------------------------------------------------------------




--------------------------------------- Iteration      1(   5)  ---------------------------------------


     EDDAV:  cpu time      1.3526: real time      1.3704
       DOS:  cpu time      0.0014: real time      0.0013
    CHARGE:  cpu time      0.2571: real time      0.2600
    MIXING:  cpu time      0.0129: real time      0.0141
    --------------------------------------------
      LOOP:  cpu time      1.6241: real time      1.6459

 eigenvalue-minimisations  :  3086
 total energy-change (2. order) :-0.4765841E-01  (-0.4754792E-01)
 number of electron     255.9999997 magnetization 
 augmentation part      -14.9654021 magnetization 

 Broyden mixing:
  rms(total) = 0.28041E+01    rms(broyden)= 0.28041E+01
  rms(prec ) = 0.30904E+01
  weight for this iteration     100.00

 Free energy of the ion-electron system (eV)
  ---------------------------------------------------
  alpha Z        PSCENC =       107.36107504
  Ewald energy   TEWEN  =     -7307.39812902
  -Hartree energ DENC   =      -353.35237457
  -exchange      EXHF   =         0.00000000
  -V(xc)+E(xc)   XCENC  =      -558.87696964
  PAW double counting   =      5598.62625415    -4492.17844134
  entropy T*S    EENTRO =         0.00844749
  eigenvalues    EBANDS =        66.28940947
  atomic energy  EATOM  =      6564.79586099
  Solvation  Ediel_sol  =         0.00000000
  ---------------------------------------------------
  free energy    TOTEN  =      -374.72486743 eV

  energy without entropy =     -374.73331492  energy(sigma->0) =     -374.72768326


--------------------------------------------------------------------------------------------------------




--------------------------------------- Iteration      1(   6)  ---------------------------------------


    POTLOK:  cpu time      0.0800: real time      0.0944
    SETDIJ:  cpu time      0.0699: real time      0.0701
    EDDIAG:  cpu time      0.1374: real time      0.1408
  RMM-DIIS:  cpu time      0.7267: real time      0.7313
    ORTHCH:  cpu time      0.0210: real time      0.0210
       DOS:  cpu time      0.0012: real time      0.0012
    CHARGE:  cpu time      0.2471: real time      0.2477
    MIXING:  cpu time      0.0070: real time      0.0077
    --------------------------------------------
      LOOP:  cpu time      1.2904: real time      1.3143

 eigenvalue-minimisations  :  2592
 total energy-change (2. order) : 0.4948596E+01  (-0.2448857E+00)
 number of electron     255.9999997 magnetization 
 augmentation part      -14.8080214 magnetization 

 Broyden mixing:
  rms(total) = 0.16860E+01    rms(broyden)= 0.16860E+01
  rms(prec ) = 0.18505E+01
  weight for this iteration     100.00

 eigenvalues of (default mixing * dielectric matrix)
  average eigenvalue GAMMA=   2.5028
  2.5028

 Free energy of the ion-electron system (eV)
  ---------------------------------------------------
  alpha Z        PSCENC =       107.36107504
  Ewald energy   TEWEN  =     -7307.39812902
  -Hartree energ DENC   =      -399.35827305
  -exchange      EXHF   =         0.00000000
  -V(xc)+E(xc)   XCENC  =      -551.61104266
  PAW double counting   =     12289.77796364   -11186.55773537
  entropy T*S    EENTRO =         0.00900026
  eigenvalues    EBANDS =       113.20500910
  atomic energy  EATOM  =      6564.79586099
  Solvation  Ediel_sol  =         0.00000000
  ---------------------------------------------------
  free energy    TOTEN  =      -369.77627106 eV

  energy without entropy =     -369.78527133  energy(sigma->0) =     -369.77927115


--------------------------------------------------------------------------------------------------------




--------------------------------------- Iteration      1(   7)  ---------------------------------------


    POTLOK:  cpu time      0.0791: real time      0.0939
    SETDIJ:  cpu time      0.0685: real time      0.0687
    EDDIAG:  cpu time      0.1351: real time      0.1354
  RMM-DIIS:  cpu time      0.7277: real time      0.7297
    ORTHCH:  cpu time      0.0213: real time      0.0214
       DOS:  cpu time      0.0020: real time      0.0020
    CHARGE:  cpu time      0.2477: real time      0.2483
    MIXING:  cpu time      0.0052: real time      0.0061
    --------------------------------------------
      LOOP:  cpu time      1.2866: real time      1.3055

 eigenvalue-minimisations  :  2635
 total energy-change (2. order) : 0.2276028E+01  (-0.6300023E+00)
 number of electron     255.9999997 magnetization 
 augmentation part      -14.5876449 magnetization 

 Broyden mixing:
  rms(total) = 0.92481E-01    rms(broyden)= 0.92480E-01
  rms(prec ) = 0.11630E+00
  weight for this iteration     100.00

 eigenvalues of (default mixing * dielectric matrix)
  average eigenvalue GAMMA=   2.2676
  2.2676  2.2676

 Free energy of the ion-electron system (eV)
  ---------------------------------------------------
  alpha Z        PSCENC =       107.36107504
  Ewald energy   TEWEN  =     -7307.39812902
  -Hartree energ DENC   =      -475.50447810
  -exchange      EXHF   =         0.00000000
  -V(xc)+E(xc)   XCENC  =      -539.02167285
  PAW double counting   =     28205.49960432   -27106.72585541
  entropy T*S    EENTRO =         0.03026805
  eigenvalues    EBANDS =       183.46308436
  atomic energy  EATOM  =      6564.79586099
  Solvation  Ediel_sol  =         0.00000000
  ---------------------------------------------------
  free energy    TOTEN  =      -367.50024262 eV

  energy without entropy =     -367.53051067  energy(sigma->0) =     -367.51033197


--------------------------------------------------------------------------------------------------------




--------------------------------------- Iteration      1(   8)  ---------------------------------------


    POTLOK:  cpu time      0.0801: real time      0.0947
    SETDIJ:  cpu time      0.0703: real time      0.0705
    EDDIAG:  cpu time      0.1330: real time      0.1333
  RMM-DIIS:  cpu time      0.7314: real time      0.7334
    ORTHCH:  cpu time      0.0213: real time      0.0213
       DOS:  cpu time      0.0017: real time      0.0017
    CHARGE:  cpu time      0.2464: real time      0.2470
    MIXING:  cpu time      0.0054: real time      0.0054
    --------------------------------------------
      LOOP:  cpu time      1.2898: real time      1.3074

 eigenvalue-minimisations  :  2630
 total energy-change (2. order) :-0.4553645E-01  (-0.6231677E-01)
 number of electron     255.9999997 magnetization 
 augmentation part      -14.6376079 magnetization 

 Broyden mixing:
  rms(total) = 0.48919E-01    rms(broyden)= 0.48919E-01
  rms(prec ) = 0.52228E-01
  weight for this iteration     100.00

 eigenvalues of (default mixing * dielectric matrix)
  average eigenvalue GAMMA=   2.1598
  2.5524  1.9635  1.9635

 Free energy of the ion-electron system (eV)
  ---------------------------------------------------
  alpha Z        PSCENC =       107.36107504
  Ewald energy   TEWEN  =     -7307.39812902
  -Hartree energ DENC   =      -468.63664071
  -exchange      EXHF   =         0.00000000
  -V(xc)+E(xc)   XCENC  =      -539.57491132
  PAW double counting   =     27807.44303723   -26707.81362687
  entropy T*S    EENTRO =         0.02771685
  eigenvalues    EBANDS =       176.24983872
  atomic energy  EATOM  =      6564.79586099
  Solvation  Ediel_sol  =         0.00000000
  ---------------------------------------------------
  free energy    TOTEN  =      -367.54577908 eV

  energy without entropy =     -367.57349593  energy(sigma->0) =     -367.55501803


--------------------------------------------------------------------------------------------------------




--------------------------------------- Iteration      1(   9)  ---------------------------------------


    POTLOK:  cpu time      0.0918: real time      0.0944
    SETDIJ:  cpu time      0.0697: real time      0.0699
    EDDIAG:  cpu time      0.1318: real time      0.1321
  RMM-DIIS:  cpu time      0.7411: real time      0.7432
    ORTHCH:  cpu time      0.0215: real time      0.0216
       DOS:  cpu time      0.0016: real time      0.0016
    CHARGE:  cpu time      0.2470: real time      0.2476
    MIXING:  cpu time      0.0048: real time      0.0048
    --------------------------------------------
      LOOP:  cpu time      1.3094: real time      1.3151

 eigenvalue-minimisations  :  2664
 total energy-change (2. order) :-0.1877425E-01  (-0.1731145E-01)
 number of electron     255.9999997 magnetization 
 augmentation part      -14.6281214 magnetization 

 Broyden mixing:
  rms(total) = 0.56660E-01    rms(broyden)= 0.56660E-01
  rms(prec ) = 0.62917E-01
  weight for this iteration     100.00

 eigenvalues of (default mixing * dielectric matrix)
  average eigenvalue GAMMA=   1.8280
  2.5469  2.2476  2.2476  0.2697

 Free energy of the ion-electron system (eV)
  ---------------------------------------------------
  alpha Z        PSCENC =       107.36107504
  Ewald energy   TEWEN  =     -7307.39812902
  -Hartree energ DENC   =      -471.13341920
  -exchange      EXHF   =         0.00000000
  -V(xc)+E(xc)   XCENC  =      -539.22752215
  PAW double counting   =     28123.30023418   -27023.86668272
  entropy T*S    EENTRO =         0.02828270
  eigenvalues    EBANDS =       178.57574684
  atomic energy  EATOM  =      6564.79586099
  Solvation  Ediel_sol  =         0.00000000
  ---------------------------------------------------
  free energy    TOTEN  =      -367.56455332 eV

  energy without entropy =     -367.59283603  energy(sigma->0) =     -367.57398089


--------------------------------------------------------------------------------------------------------




--------------------------------------- Iteration      1(  10)  ---------------------------------------


    POTLOK:  cpu time      0.0787: real time      0.0942
    SETDIJ:  cpu time      0.0699: real time      0.0700
    EDDIAG:  cpu time      0.1314: real time      0.1317
  RMM-DIIS:  cpu time      0.7527: real time      0.7574
    ORTHCH:  cpu time      0.0206: real time      0.0206
       DOS:  cpu time      0.0016: real time      0.0016
    CHARGE:  cpu time      0.2467: real time      0.2478
    MIXING:  cpu time      0.0045: real time      0.0045
    --------------------------------------------
      LOOP:  cpu time      1.3061: real time      1.3278

 eigenvalue-minimisations  :  2742
 total energy-change (2. order) :-0.3275561E-02  (-0.3070808E-02)
 number of electron     255.9999997 magnetization 
 augmentation part      -14.6345042 magnetization 

 Broyden mixing:
  rms(total) = 0.74486E-01    rms(broyden)= 0.74486E-01
  rms(prec ) = 0.80057E-01
  weight for this iteration     100.00

 eigenvalues of (default mixing * dielectric matrix)
  average eigenvalue GAMMA=   1.5665
  2.6610  2.0851  2.0851  0.5006  0.5006

 Free energy of the ion-electron system (eV)
  ---------------------------------------------------
  alpha Z        PSCENC =       107.36107504
  Ewald energy   TEWEN  =     -7307.39812902
  -Hartree energ DENC   =      -471.23476950
  -exchange      EXHF   =         0.00000000
  -V(xc)+E(xc)   XCENC  =      -539.21553003
  PAW double counting   =     28147.89472029   -27048.46510702
  entropy T*S    EENTRO =         0.02832266
  eigenvalues    EBANDS =       178.66572772
  atomic energy  EATOM  =      6564.79586099
  Solvation  Ediel_sol  =         0.00000000
  ---------------------------------------------------
  free energy    TOTEN  =      -367.56782888 eV

  energy without entropy =     -367.59615154  energy(sigma->0) =     -367.57726977


--------------------------------------------------------------------------------------------------------




--------------------------------------- Iteration      1(  11)  ---------------------------------------


    POTLOK:  cpu time      0.0795: real time      0.0951
    SETDIJ:  cpu time      0.0700: real time      0.0702
    EDDIAG:  cpu time      0.1543: real time      0.1550
  RMM-DIIS:  cpu time      0.7205: real time      0.7241
    ORTHCH:  cpu time      0.0210: real time      0.0211
       DOS:  cpu time      0.0012: real time      0.0012
    CHARGE:  cpu time      0.2454: real time      0.2464
    MIXING:  cpu time      0.0058: real time      0.0058
    --------------------------------------------
      LOOP:  cpu time      1.2977: real time      1.3190

 eigenvalue-minimisations  :  2592
 total energy-change (2. order) : 0.1920503E-02  (-0.1033497E-02)
 number of electron     255.9999997 magnetization 
 augmentation part      -14.6472106 magnetization 

 Broyden mixing:
  rms(total) = 0.65829E-01    rms(broyden)= 0.65829E-01
  rms(prec ) = 0.66418E-01
  weight for this iteration     100.00

 eigenvalues of (default mixing * dielectric matrix)
  average eigenvalue GAMMA=   1.4194
  2.5476  2.5476  1.4099  0.8573  0.8573  0.2970

 Free energy of the ion-electron system (eV)
  ---------------------------------------------------
  alpha Z        PSCENC =       107.36107504
  Ewald energy   TEWEN  =     -7307.39812902
  -Hartree energ DENC   =      -469.14288293
  -exchange      EXHF   =         0.00000000
  -V(xc)+E(xc)   XCENC  =      -539.34944854
  PAW double counting   =     28084.56466876   -26984.90788489
  entropy T*S    EENTRO =         0.02742817
  eigenvalues    EBANDS =       176.48340403
  atomic energy  EATOM  =      6564.79586099
  Solvation  Ediel_sol  =         0.00000000
  ---------------------------------------------------
  free energy    TOTEN  =      -367.56590838 eV

  energy without entropy =     -367.59333655  energy(sigma->0) =     -367.57505110


--------------------------------------------------------------------------------------------------------




--------------------------------------- Iteration      1(  12)  ---------------------------------------


    POTLOK:  cpu time      0.0790: real time      0.0943
    SETDIJ:  cpu time      0.0696: real time      0.0700
    EDDIAG:  cpu time      0.1318: real time      0.1325
  RMM-DIIS:  cpu time      0.7123: real time      0.7155
    ORTHCH:  cpu time      0.0214: real time      0.0216
       DOS:  cpu time      0.0012: real time      0.0012
    CHARGE:  cpu time      0.2470: real time      0.2481
    MIXING:  cpu time      0.0044: real time      0.0044
    --------------------------------------------
      LOOP:  cpu time      1.2667: real time      1.2876

 eigenvalue-minimisations  :  2604
 total energy-change (2. order) :-0.1099596E-03  (-0.1688651E-03)
 number of electron     255.9999997 magnetization 
 augmentation part      -14.6508752 magnetization 

 Broyden mixing:
  rms(total) = 0.66040E-01    rms(broyden)= 0.66040E-01
  rms(prec ) = 0.66419E-01
  weight for this iteration     100.00

 eigenvalues of (default mixing * dielectric matrix)
  average eigenvalue GAMMA=   1.2441
  2.5489  2.5489  1.4242  0.8645  0.8645  0.3242  0.1335

 Free energy of the ion-electron system (eV)
  ---------------------------------------------------
  alpha Z        PSCENC =       107.36107504
  Ewald energy   TEWEN  =     -7307.39812902
  -Hartree energ DENC   =      -468.91147379
  -exchange      EXHF   =         0.00000000
  -V(xc)+E(xc)   XCENC  =      -539.38545601
  PAW double counting   =     28007.79806658   -26908.14883092
  entropy T*S    EENTRO =         0.02737931
  eigenvalues    EBANDS =       176.29548947
  atomic energy  EATOM  =      6564.79586099
  Solvation  Ediel_sol  =         0.00000000
  ---------------------------------------------------
  free energy    TOTEN  =      -367.56601834 eV

  energy without entropy =     -367.59339765  energy(sigma->0) =     -367.57514478


--------------------------------------------------------------------------------------------------------




--------------------------------------- Iteration      1(  13)  ---------------------------------------


    POTLOK:  cpu time      0.0786: real time      0.0942
    SETDIJ:  cpu time      0.0698: real time      0.0701
    EDDIAG:  cpu time      0.1311: real time      0.1319
  RMM-DIIS:  cpu time      0.7595: real time      0.7633
    ORTHCH:  cpu time      0.0211: real time      0.0212
       DOS:  cpu time      0.0012: real time      0.0013
    CHARGE:  cpu time      0.2464: real time      0.2475
    MIXING:  cpu time      0.0049: real time      0.0050
    --------------------------------------------
      LOOP:  cpu time      1.3127: real time      1.3344

 eigenvalue-minimisations  :  2785
 total energy-change (2. order) :-0.4338923E-04  (-0.3087390E-04)
 number of electron     255.9999997 magnetization 
 augmentation part      -14.6512673 magnetization 

 Broyden mixing:
  rms(total) = 0.71770E-01    rms(broyden)= 0.71770E-01
  rms(prec ) = 0.72143E-01
  weight for this iteration     100.00

 eigenvalues of (default mixing * dielectric matrix)
  average eigenvalue GAMMA=   1.5486
  2.6629  2.6629  2.4444  1.7577  0.9791  0.7440  0.7440  0.3937

 Free energy of the ion-electron system (eV)
  ---------------------------------------------------
  alpha Z        PSCENC =       107.36107504
  Ewald energy   TEWEN  =     -7307.39812902
  -Hartree energ DENC   =      -468.94528358
  -exchange      EXHF   =         0.00000000
  -V(xc)+E(xc)   XCENC  =      -539.37909580
  PAW double counting   =     28037.23819851   -26937.58819799
  entropy T*S    EENTRO =         0.02738453
  eigenvalues    EBANDS =       176.32212558
  atomic energy  EATOM  =      6564.79586099
  Solvation  Ediel_sol  =         0.00000000
  ---------------------------------------------------
  free energy    TOTEN  =      -367.56606173 eV

  energy without entropy =     -367.59344626  energy(sigma->0) =     -367.57518991


--------------------------------------------------------------------------------------------------------




--------------------------------------- Iteration      1(  14)  ---------------------------------------


    POTLOK:  cpu time      0.0878: real time      0.0952
    SETDIJ:  cpu time      0.0686: real time      0.0692
    EDDIAG:  cpu time      0.1314: real time      0.1319
  RMM-DIIS:  cpu time      0.7137: real time      0.7176
    ORTHCH:  cpu time      0.0208: real time      0.0209
       DOS:  cpu time      0.0014: real time      0.0014
    CHARGE:  cpu time      0.2460: real time      0.2470
    MIXING:  cpu time      0.0075: real time      0.0075
    --------------------------------------------
      LOOP:  cpu time      1.2772: real time      1.2907

 eigenvalue-minimisations  :  2601
 total energy-change (2. order) :-0.9413587E-05  (-0.7817343E-05)
 number of electron     255.9999997 magnetization 
 augmentation part      -14.6516486 magnetization 

 Broyden mixing:
  rms(total) = 0.43241E-01    rms(broyden)= 0.43241E-01
  rms(prec ) = 0.43577E-01
  weight for this iteration     100.00

 eigenvalues of (default mixing * dielectric matrix)
  average eigenvalue GAMMA=   1.4318
  2.5952  2.5952  2.4700  1.5908  0.9553  0.9553  0.7939  0.4299  0.5006

 Free energy of the ion-electron system (eV)
  ---------------------------------------------------
  alpha Z        PSCENC =       107.36107504
  Ewald energy   TEWEN  =     -7307.39812902
  -Hartree energ DENC   =      -468.74912235
  -exchange      EXHF   =         0.00000000
  -V(xc)+E(xc)   XCENC  =      -539.41407535
  PAW double counting   =     27834.50229148   -26734.88106040
  entropy T*S    EENTRO =         0.02734757
  eigenvalues    EBANDS =       176.18974089
  atomic energy  EATOM  =      6564.79586099
  Solvation  Ediel_sol  =         0.00000000
  ---------------------------------------------------
  free energy    TOTEN  =      -367.56607114 eV

  energy without entropy =     -367.59341872  energy(sigma->0) =     -367.57518700


--------------------------------------------------------------------------------------------------------




--------------------------------------- Iteration      1(  15)  ---------------------------------------


    POTLOK:  cpu time      0.0788: real time      0.0942
    SETDIJ:  cpu time      0.0691: real time      0.0699
    EDDIAG:  cpu time      0.1312: real time      0.1317
  RMM-DIIS:  cpu time      0.7247: real time      0.7283
    ORTHCH:  cpu time      0.0220: real time      0.0221
       DOS:  cpu time      0.0018: real time      0.0018
    CHARGE:  cpu time      0.2470: real time      0.2481
    MIXING:  cpu time      0.0073: real time      0.0073
    --------------------------------------------
      LOOP:  cpu time      1.2819: real time      1.3033

 eigenvalue-minimisations  :  2607
 total energy-change (2. order) :-0.9312549E-04  (-0.4094266E-05)
 number of electron     255.9999997 magnetization 
 augmentation part      -14.6520112 magnetization 

 Broyden mixing:
  rms(total) = 0.35480E-01    rms(broyden)= 0.35480E-01
  rms(prec ) = 0.35746E-01
  weight for this iteration     100.00

 eigenvalues of (default mixing * dielectric matrix)
  average eigenvalue GAMMA=   1.3876
  2.6741  2.6741  2.3822  1.4416  1.0163  1.0163  0.8152  0.7281  0.7281  0.3995

 Free energy of the ion-electron system (eV)
  ---------------------------------------------------
  alpha Z        PSCENC =       107.36107504
  Ewald energy   TEWEN  =     -7307.39812902
  -Hartree energ DENC   =      -468.70142071
  -exchange      EXHF   =         0.00000000
  -V(xc)+E(xc)   XCENC  =      -539.41616679
  PAW double counting   =     27800.34765869   -26700.72129292
  entropy T*S    EENTRO =         0.02730325
  eigenvalues    EBANDS =       176.13894719
  atomic energy  EATOM  =      6564.79586099
  Solvation  Ediel_sol  =         0.00000000
  ---------------------------------------------------
  free energy    TOTEN  =      -367.56616427 eV

  energy without entropy =     -367.59346752  energy(sigma->0) =     -367.57526535


--------------------------------------------------------------------------------------------------------




--------------------------------------- Iteration      1(  16)  ---------------------------------------


    POTLOK:  cpu time      0.0783: real time      0.0943
    SETDIJ:  cpu time      0.0740: real time      0.0742
    EDDIAG:  cpu time      0.1365: real time      0.1372
  RMM-DIIS:  cpu time      0.7215: real time      0.7231
    ORTHCH:  cpu time      0.0211: real time      0.0211
       DOS:  cpu time      0.0019: real time      0.0019
    CHARGE:  cpu time      0.2482: real time      0.2487
    MIXING:  cpu time      0.0051: real time      0.0051
    --------------------------------------------
      LOOP:  cpu time      1.2866: real time      1.3057

 eigenvalue-minimisations  :  2592
 total energy-change (2. order) :-0.6135824E-04  (-0.2228806E-05)
 number of electron     255.9999997 magnetization 
 augmentation part      -14.6516436 magnetization 

 Broyden mixing:
  rms(total) = 0.23461E-01    rms(broyden)= 0.23461E-01
  rms(prec ) = 0.23617E-01
  weight for this iteration     100.00

 eigenvalues of (default mixing * dielectric matrix)
  average eigenvalue GAMMA=   1.2684
  2.6733  2.6733  2.3842  1.4329  1.0327  1.0327  0.8171  0.7259  0.7259  0.4000
  0.0549

 Free energy of the ion-electron system (eV)
  ---------------------------------------------------
  alpha Z        PSCENC =       107.36107504
  Ewald energy   TEWEN  =     -7307.39812902
  -Hartree energ DENC   =      -468.81034356
  -exchange      EXHF   =         0.00000000
  -V(xc)+E(xc)   XCENC  =      -539.40917102
  PAW double counting   =     27750.06311481   -26650.43901514
  entropy T*S    EENTRO =         0.02729933
  eigenvalues    EBANDS =       176.24308295
  atomic energy  EATOM  =      6564.79586099
  Solvation  Ediel_sol  =         0.00000000
  ---------------------------------------------------
  free energy    TOTEN  =      -367.56622563 eV

  energy without entropy =     -367.59352495  energy(sigma->0) =     -367.57532540


--------------------------------------------------------------------------------------------------------




--------------------------------------- Iteration      1(  17)  ---------------------------------------


    POTLOK:  cpu time      0.0795: real time      0.0961
    SETDIJ:  cpu time      0.0706: real time      0.0707
    EDDIAG:  cpu time      0.1343: real time      0.1348
  RMM-DIIS:  cpu time      0.7197: real time      0.7214
    ORTHCH:  cpu time      0.0215: real time      0.0215
       DOS:  cpu time      0.0013: real time      0.0013
    CHARGE:  cpu time      0.2469: real time      0.2478
    MIXING:  cpu time      0.0054: real time      0.0054
    --------------------------------------------
      LOOP:  cpu time      1.2792: real time      1.2992

 eigenvalue-minimisations  :  2592
 total energy-change (2. order) :-0.2968239E-04  (-0.1905964E-05)
 number of electron     255.9999997 magnetization 
 augmentation part      -14.6511221 magnetization 

 Broyden mixing:
  rms(total) = 0.93919E-02    rms(broyden)= 0.93919E-02
  rms(prec ) = 0.94575E-02
  weight for this iteration     100.00

 eigenvalues of (default mixing * dielectric matrix)
  average eigenvalue GAMMA=   1.6330
  2.5706  2.5706  2.6696  2.6696  2.4627  1.8299  1.0286  1.0286  0.8974  0.7326
  0.7326  0.4036

 Free energy of the ion-electron system (eV)
  ---------------------------------------------------
  alpha Z        PSCENC =       107.36107504
  Ewald energy   TEWEN  =     -7307.39812902
  -Hartree energ DENC   =      -468.90584134
  -exchange      EXHF   =         0.00000000
  -V(xc)+E(xc)   XCENC  =      -539.40646405
  PAW double counting   =     27679.67292278   -26580.05127563
  entropy T*S    EENTRO =         0.02729659
  eigenvalues    EBANDS =       176.33829933
  atomic energy  EATOM  =      6564.79586099
  Solvation  Ediel_sol  =         0.00000000
  ---------------------------------------------------
  free energy    TOTEN  =      -367.56625531 eV

  energy without entropy =     -367.59355190  energy(sigma->0) =     -367.57535417


--------------------------------------------------------------------------------------------------------




--------------------------------------- Iteration      1(  18)  ---------------------------------------


    POTLOK:  cpu time      0.0787: real time      0.0942
    SETDIJ:  cpu time      0.0705: real time      0.0707
    EDDIAG:  cpu time      0.1317: real time      0.1321
  RMM-DIIS:  cpu time      0.6963: real time      0.6980
    ORTHCH:  cpu time      0.0216: real time      0.0216
       DOS:  cpu time      0.0013: real time      0.0013
    CHARGE:  cpu time      0.2446: real time      0.2456
    MIXING:  cpu time      0.0077: real time      0.0077
    --------------------------------------------
      LOOP:  cpu time      1.2524: real time      1.2712

 eigenvalue-minimisations  :  2526
 total energy-change (2. order) :-0.5925853E-05  (-0.6256654E-06)
 number of electron     255.9999997 magnetization 
 augmentation part      -14.6507973 magnetization 

 Broyden mixing:
  rms(total) = 0.20669E-02    rms(broyden)= 0.20669E-02
  rms(prec ) = 0.21035E-02
  weight for this iteration     100.00

 eigenvalues of (default mixing * dielectric matrix)
  average eigenvalue GAMMA=   1.5271
  2.4614  2.4614  2.6803  2.6803  2.4563  1.9024  1.0199  1.0199  0.9026  0.7346
  0.7346  0.4036  0.3943

 Free energy of the ion-electron system (eV)
  ---------------------------------------------------
  alpha Z        PSCENC =       107.36107504
  Ewald energy   TEWEN  =     -7307.39812902
  -Hartree energ DENC   =      -468.94899565
  -exchange      EXHF   =         0.00000000
  -V(xc)+E(xc)   XCENC  =      -539.40617354
  PAW double counting   =     27639.55684748   -26539.93621855
  entropy T*S    EENTRO =         0.02729537
  eigenvalues    EBANDS =       176.38217664
  atomic energy  EATOM  =      6564.79586099
  Solvation  Ediel_sol  =         0.00000000
  ---------------------------------------------------
  free energy    TOTEN  =      -367.56626123 eV

  energy without entropy =     -367.59355660  energy(sigma->0) =     -367.57535969


--------------------------------------------------------------------------------------------------------




--------------------------------------- Iteration      1(  19)  ---------------------------------------


    POTLOK:  cpu time      0.0850: real time      0.0946
    SETDIJ:  cpu time      0.0704: real time      0.0705
    EDDIAG:  cpu time      0.1314: real time      0.1317
  RMM-DIIS:  cpu time      0.4677: real time      0.4688
    ORTHCH:  cpu time      0.0208: real time      0.0208
       DOS:  cpu time      0.0015: real time      0.0015
    CHARGE:  cpu time      0.2472: real time      0.2478
    MIXING:  cpu time      0.0057: real time      0.0057
    --------------------------------------------
      LOOP:  cpu time      1.0295: real time      1.0414

 eigenvalue-minimisations  :  1580
 total energy-change (2. order) :-0.1125193E-05  (-0.1707132E-06)
 number of electron     255.9999997 magnetization 
 augmentation part      -14.6506283 magnetization 

 Broyden mixing:
  rms(total) = 0.92578E-03    rms(broyden)= 0.92578E-03
  rms(prec ) = 0.93151E-03
  weight for this iteration     100.00

 eigenvalues of (default mixing * dielectric matrix)
  average eigenvalue GAMMA=   1.7163
  4.6081  3.2275  2.2672  2.2672  2.3487  2.3487  1.1237  1.1237  0.4036  1.0075
  0.9070  0.9070  0.7444  0.7444

 Free energy of the ion-electron system (eV)
  ---------------------------------------------------
  alpha Z        PSCENC =       107.36107504
  Ewald energy   TEWEN  =     -7307.39812902
  -Hartree energ DENC   =      -468.97717235
  -exchange      EXHF   =         0.00000000
  -V(xc)+E(xc)   XCENC  =      -539.40484530
  PAW double counting   =     27625.70666415   -26526.08665349
  entropy T*S    EENTRO =         0.02729735
  eigenvalues    EBANDS =       176.40964027
  atomic energy  EATOM  =      6564.79586099
  Solvation  Ediel_sol  =         0.00000000
  ---------------------------------------------------
  free energy    TOTEN  =      -367.56626236 eV

  energy without entropy =     -367.59355971  energy(sigma->0) =     -367.57536148


--------------------------------------------------------------------------------------------------------




--------------------------------------- Iteration      1(  20)  ---------------------------------------


    POTLOK:  cpu time      0.0805: real time      0.0941
    SETDIJ:  cpu time      0.0698: real time      0.0704
    EDDIAG:  cpu time      0.1313: real time      0.1316
  RMM-DIIS:  cpu time      0.4627: real time      0.4641
    ORTHCH:  cpu time      0.0209: real time      0.0209
       DOS:  cpu time      0.0014: real time      0.0014
    --------------------------------------------
      LOOP:  cpu time      0.7663: real time      0.7824

 eigenvalue-minimisations  :  1556
 total energy-change (2. order) : 0.1045673E-06  (-0.4282227E-07)
 number of electron     255.9999997 magnetization 
 augmentation part      -14.6506283 magnetization 

 Free energy of the ion-electron system (eV)
  ---------------------------------------------------
  alpha Z        PSCENC =       107.36107504
  Ewald energy   TEWEN  =     -7307.39812902
  -Hartree energ DENC   =      -468.98907755
  -exchange      EXHF   =         0.00000000
  -V(xc)+E(xc)   XCENC  =      -539.40344418
  PAW double counting   =     27627.97244954   -26528.35210998
  entropy T*S    EENTRO =         0.02729751
  eigenvalues    EBANDS =       176.41981540
  atomic energy  EATOM  =      6564.79586099
  Solvation  Ediel_sol  =         0.00000000
  ---------------------------------------------------
  free energy    TOTEN  =      -367.56626225 eV

  energy without entropy =     -367.59355976  energy(sigma->0) =     -367.57536142


--------------------------------------------------------------------------------------------------------




 average (electrostatic) potential at core
  the test charge radii are     0.9892
  (the norm of the test charge is              1.0000)
       1 -83.0580       2 -83.0580       3 -83.0580       4 -83.0580       5 -83.0580
       6 -83.0580       7 -83.0580       8 -83.0580       9 -83.0580      10 -83.0580
      11 -83.0580      12 -83.0580      13 -83.0580      14 -83.0580      15 -83.0580
      16 -83.0580      17 -83.0580      18 -83.0580      19 -83.0580      20 -83.0580
      21 -83.0580      22 -83.0580      23 -83.0580      24 -83.0580      25 -83.0580
      26 -83.0580      27 -83.0580      28 -83.0580      29 -83.0580      30 -83.0580
      31 -83.0580      32 -83.0580      33 -83.0580      34 -83.0580      35 -83.0580
      36 -83.0580      37 -83.0580      38 -83.0580      39 -83.0580      40 -83.0580
      41 -83.0580      42 -83.0580      43 -83.0580      44 -83.0580      45 -83.0580
      46 -83.0580      47 -83.0580      48 -83.0580      49 -83.0580      50 -83.0580
      51 -83.0580      52 -83.0580      53 -83.0580      54 -83.0580      55 -83.0580
      56 -83.0580      57 -83.0580      58 -83.0580      59 -83.0580      60 -83.0580
      61 -83.0580      62 -83.0580      63 -83.0580      64 -83.0580
 
 
 
 E-fermi :   6.1056     XC(G=0):  -9.5436     alpha+bet :-11.9521

 val. band max:        5.7952309846   @ k =   0.0000   0.0000   0.0000
 cond. band min:       6.2438226486   @ k =   0.0000   0.0000   0.5000
 fundamental gap:      0.4485916640
 Fermi energy:         6.1055549737

 k-point     1 :       0.0000    0.0000    0.0000
  band No.  band energies     occupation 
      1      -6.2062      2.00000
      2      -5.1342      2.00000
      3      -5.1342      2.00000
      4      -5.1161      2.00000
      5      -5.1161      2.00000
      6      -5.1159      2.00000
      7      -5.1159      2.00000
      8      -4.1894      2.00000
      9      -4.1894      2.00000
     10      -4.1604      2.00000
     11      -4.1604      2.00000
     12      -4.1604      2.00000
     13      -4.1604      2.00000
     14      -4.1478      2.00000
     15      -4.1478      2.00000
     16      -4.1478      2.00000
     17      -4.1478      2.00000
     18      -4.1310      2.00000
     19      -4.1310      2.00000
     20      -3.8950      2.00000
     21      -3.8950      2.00000
     22      -3.8284      2.00000
     23      -3.8284      2.00000
     24      -2.0925      2.00000
     25      -2.0925      2.00000
     26      -2.0753      2.00000
     27      -2.0333      2.00000
     28      -2.0333      2.00000
     29      -1.9922      2.00000
     30      -1.9365      2.00000
     31      -1.9365      2.00000
     32      -1.9154      2.00000
     33      -1.9154      2.00000
     34      -1.8911      2.00000
     35      -1.8911      2.00000
     36      -1.8911      2.00000
     37      -1.8911      2.00000
     38      -1.8457      2.00000
     39      -1.8457      2.00000
     40      -1.8250      2.00000
     41      -1.8250      2.00000
     42      -1.2439      2.00000
     43      -1.2439      2.00000
     44      -1.2277      2.00000
     45      -1.2277      2.00000
     46       0.2572      2.00000
     47       0.2572      2.00000
     48       0.2572      2.00000
     49       0.2572      2.00000
     50       0.2718      2.00000
     51       0.2718      2.00000
     52       0.2919      2.00000
     53       0.2919      2.00000
     54       0.2919      2.00000
     55       0.2919      2.00000
     56       0.3111      2.00000
     57       0.3111      2.00000
     58       1.8686      2.00000
     59       1.8686      2.00000
     60       1.8691      2.00000
     61       1.8691      2.00000
     62       1.8692      2.00000
     63       1.8692      2.00000
     64       1.8692      2.00000
     65       1.8692      2.00000
     66       1.8727      2.00000
     67       1.8727      2.00000
     68       1.8737      2.00000
     69       1.8737      2.00000
     70       1.9357      2.00000
     71       1.9357      2.00000
     72       1.9357      2.00000
     73       1.9357      2.00000
     74       1.9796      2.00000
     75       1.9796      2.00000
     76       1.9905      2.00000
     77       1.9905      2.00000
     78       1.9905      2.00000
     79       1.9905      2.00000
     80       2.0010      2.00000
     81       2.0010      2.00000
     82       2.2024      2.00000
     83       2.2024      2.00000
     84       2.2717      2.00000
     85       2.2717      2.00000
     86       2.2732      2.00000
     87       2.2732      2.00000
     88       2.8232      2.00000
     89       2.8756      2.00000
     90       2.8756      2.00000
     91       2.9285      2.00000
     92       2.9515      2.00000
     93       2.9515      2.00000
     94       3.7988      2.00000
     95       3.7988      2.00000
     96       3.8339      2.00000
     97       3.8339      2.00000
     98       3.8565      2.00000
     99       3.8565      2.00000
    100       3.8927      2.00000
    101       3.8927      2.00000
    102       3.9043      2.00000
    103       3.9043      2.00000
    104       3.9043      2.00000
    105       3.9043      2.00000
    106       4.3847      2.00000
    107       4.3847      2.00000
    108       4.4084      2.00000
    109       4.4084      2.00000
    110       4.4084      2.00000
    111       4.4084      2.00000
    112       4.4331      2.00000
    113       4.4331      2.00000
    114       4.4880      2.00000
    115       4.4880      2.00000
    116       4.4880      2.00000
    117       4.4880      2.00000
    118       4.4971      2.00000
    119       4.4971      2.00000
    120       4.5433      2.00000
    121       4.5433      2.00000
    122       4.5909      2.00000
    123       4.5909      2.00000
    124       4.6402      2.00000
    125       4.6402      2.00000
    126       5.7210      2.02036
    127       5.7924      2.04928
    128       5.7952      2.05061
    129       6.2799     -0.01241
    130       6.3358     -0.06907
    131       6.3358     -0.06907
    132       6.3927     -0.06078
    133       6.4148     -0.05109
    134       6.4148     -0.05109
    135       6.7786     -0.00002
    136       6.7786     -0.00002
    137       6.7786     -0.00002
    138       6.7786     -0.00002
    139       6.8577     -0.00000
    140       6.8577     -0.00000
    141       7.1741     -0.00000
    142       7.1741     -0.00000
    143       7.2703     -0.00000
    144       7.2703     -0.00000
    145       8.0677     -0.00000
    146       8.0679     -0.00000
    147       8.1010     -0.00000
    148       8.1010     -0.00000
    149       8.1012     -0.00000
    150       8.1022     -0.00000
    151       8.1367     -0.00000
    152       8.1376     -0.00000
    153       8.1937     -0.00000
    154       8.1938     -0.00000
    155       8.1940     -0.00000
    156       8.1951     -0.00000
    157       8.2138     -0.00000
    158       8.2626     -0.00000
    159       8.3708     -0.00000
    160       8.8012     -0.00000
    161       8.8306     -0.00000
    162       8.8619     -0.00000

 k-point     2 :       0.5000   -0.0000    0.0000
  band No.  band energies     occupation 
      1      -5.9359      2.00000
      2      -5.9359      2.00000
      3      -4.8850      2.00000
      4      -4.8850      2.00000
      5      -4.8705      2.00000
      6      -4.8705      2.00000
      7      -4.8705      2.00000
      8      -4.8705      2.00000
      9      -4.8557      2.00000
     10      -4.8557      2.00000
     11      -4.0392      2.00000
     12      -4.0392      2.00000
     13      -4.0392      2.00000
     14      -4.0392      2.00000
     15      -3.9986      2.00000
     16      -3.9986      2.00000
     17      -3.9986      2.00000
     18      -3.9986      2.00000
     19      -3.8321      2.00000
     20      -3.8321      2.00000
     21      -3.1306      2.00000
     22      -3.1306      2.00000
     23      -3.0890      2.00000
     24      -3.0890      2.00000
     25      -3.0890      2.00000
     26      -3.0890      2.00000
     27      -3.0468      2.00000
     28      -3.0468      2.00000
     29      -2.0004      2.00000
     30      -2.0004      2.00000
     31      -1.9840      2.00000
     32      -1.9840      2.00000
     33      -1.9274      2.00000
     34      -1.9274      2.00000
     35      -1.9117      2.00000
     36      -1.9117      2.00000
     37      -0.8319      2.00000
     38      -0.8319      2.00000
     39      -0.7978      2.00000
     40      -0.7978      2.00000
     41      -0.7978      2.00000
     42      -0.7978      2.00000
[...]
 -0.000  -0.000   4.177   0.000  -0.000   7.782   0.000  -0.000
  0.001   0.001   0.000   4.177   0.000   0.000   7.782   0.000
 -0.000  -0.000  -0.000   0.000   4.177  -0.000   0.000   7.782
 -0.000  -0.000   7.782   0.000  -0.000  14.508   0.000  -0.000
  0.001   0.001   0.000   7.782   0.000   0.000  14.508   0.000
 -0.000  -0.000  -0.000   0.000   7.782  -0.000   0.000  14.508
 total augmentation occupancy for first ion, spin component:           1
  5.897  -2.261   0.000  -0.027   0.000  -0.000   0.010   0.000
 -2.261   0.977  -0.000   0.014   0.000   0.000  -0.005   0.000
  0.000  -0.000   2.919   0.000  -0.006  -0.650  -0.000   0.000
 -0.027   0.014   0.000   2.919   0.000  -0.000  -0.650   0.000
  0.000   0.000  -0.006   0.000   2.938   0.000   0.000  -0.657
 -0.000   0.000  -0.650  -0.000   0.000   0.154   0.000   0.000
  0.010  -0.005  -0.000  -0.650   0.000   0.000   0.154   0.000
  0.000   0.000   0.000   0.000  -0.657   0.000   0.000   0.156


------------------------ aborting loop because EDIFF is reached ----------------------------------------


    CHARGE:  cpu time      0.2442: real time      0.2458
    FORLOC:  cpu time      0.0241: real time      0.0243
    FORNL :  cpu time      0.6708: real time      0.6767
    STRESS:  cpu time      2.0898: real time      2.1046
    FORCOR:  cpu time      0.0929: real time      0.0931
    FORHAR:  cpu time      0.0366: real time      0.0366
    MIXING:  cpu time      0.0085: real time      0.0085
    OFIELD:  cpu time      0.0000: real time      0.0000

  FORCE on cell =-STRESS in cart. coord.  units (eV):
  Direction    XX          YY          ZZ          XY          YZ          ZX
  --------------------------------------------------------------------------------------
  Alpha Z   107.36108   107.36108   107.36108
  Ewald   -2413.67269 -2446.99886 -2446.93313    -8.80639    -0.00000     0.00000
  Hartree   160.10180   154.42712   154.37137    -4.51426    -0.00000    -0.00000
  E(xc)    -817.40511  -817.12504  -817.13352     0.09141    -0.00000    -0.00000
  Local    -957.68249  -917.12723  -917.21484    14.39033    -0.00000     0.00000
  n-local  2485.26747  2480.52693  2480.70206    -1.02150    -0.00001    -0.00001
  augment  -368.32543  -368.34816  -368.34881     0.39755     0.00000     0.00000
  Kinetic  1799.79624  1810.17824  1809.92671    -6.32609     0.00000     0.00000
  Fock        0.00000     0.00000     0.00000     0.00000     0.00000     0.00000
  -------------------------------------------------------------------------------------
  Total      -4.55913     2.89406     2.73092    -5.78896     0.00000     0.00000
  in kB      -5.68755     3.61036     3.40684    -7.22177     0.00000     0.00000
  external pressure =        0.44 kB  Pullay stress =        0.00 kB


 VOLUME and BASIS-vectors are now :
 -----------------------------------------------------------------------------
  energy-cutoff  :      400.00
  volume of cell :     1284.30
      direct lattice vectors                 reciprocal lattice vectors
    10.942260616  0.054170008  0.000000000     0.091391056 -0.000456959  0.000000000
     0.054170008 10.833920600  0.000000000    -0.000456959  0.092304973  0.000000000
     0.000000000  0.000000000 10.833920600     0.000000000  0.000000000  0.092302689

  length of vectors
    10.942394700 10.834056025 10.833920600     0.091392198  0.092306105  0.092302689


 FORCES acting on ions
    electron-ion (+dipol)            ewald-force                    non-local-force                 convergence-correction
 -----------------------------------------------------------------------------------------------
   -.146E-09 -.158E-09 -.846E+00   0.262E-13 -.138E-13 0.606E+00   -.676E-23 -.790E-23 0.241E+00   0.170E-14 0.656E-13 0.671E-05
   -.146E-09 -.158E-09 -.846E+00   0.218E-13 -.102E-13 0.606E+00   -.101E-22 -.169E-22 0.241E+00   0.170E-14 -.114E-13 0.671E-05
   -.146E-09 -.158E-09 -.846E+00   0.151E-13 -.910E-14 0.606E+00   -.952E-23 -.705E-23 0.241E+00   -.101E-13 -.692E-13 0.671E-05
   -.146E-09 -.158E-09 -.846E+00   0.133E-13 -.222E-14 0.606E+00   -.690E-23 -.113E-22 0.241E+00   0.109E-13 -.224E-14 0.671E-05
   -.146E-09 -.158E-09 -.846E+00   0.140E-13 -.844E-14 0.606E+00   -.113E-23 0.105E-22 0.241E+00   -.202E-13 0.919E-13 0.671E-05
   -.146E-09 -.158E-09 -.846E+00   0.249E-13 -.888E-14 0.606E+00   -.246E-23 -.336E-23 0.241E+00   0.550E-14 -.353E-13 0.671E-05
   -.146E-09 -.158E-09 -.846E+00   0.111E-13 -.355E-14 0.606E+00   0.110E-23 0.330E-23 0.241E+00   -.255E-14 -.896E-13 0.671E-05
   -.146E-09 -.157E-09 -.846E+00   0.213E-13 -.355E-14 0.606E+00   0.607E-23 -.999E-23 0.241E+00   -.125E-13 0.242E-13 0.671E-05
   0.146E-09 0.158E-09 0.846E+00   0.147E-13 0.311E-14 -.606E+00   0.547E-23 -.261E-23 -.241E+00   -.247E-13 -.282E-13 -.671E-05
   0.146E-09 0.158E-09 0.846E+00   0.888E-14 0.355E-14 -.606E+00   0.742E-23 0.876E-23 -.241E+00   0.291E-13 0.977E-14 -.671E-05
   0.146E-09 0.157E-09 0.846E+00   0.142E-13 0.888E-14 -.606E+00   0.354E-23 -.749E-23 -.241E+00   -.314E-13 0.284E-13 -.671E-05
   0.146E-09 0.157E-09 0.846E+00   0.355E-14 0.142E-13 -.606E+00   -.125E-23 0.414E-23 -.241E+00   0.274E-13 -.131E-14 -.671E-05
   0.146E-09 0.157E-09 0.846E+00   0.799E-14 0.178E-14 -.606E+00   0.152E-24 -.178E-22 -.241E+00   0.284E-13 -.177E-13 -.671E-05
   0.146E-09 0.159E-09 0.846E+00   0.888E-14 0.000E+00 -.606E+00   -.135E-22 0.134E-22 -.241E+00   -.242E-13 -.450E-14 -.671E-05
   0.146E-09 0.158E-09 0.846E+00   -.133E-14 0.400E-14 -.606E+00   0.670E-24 0.416E-24 -.241E+00   0.277E-13 0.149E-13 -.671E-05
   0.146E-09 0.156E-09 0.846E+00   -.107E-13 0.355E-14 -.606E+00   0.863E-23 0.318E-23 -.241E+00   -.201E-13 0.163E-13 -.671E-05
   -.146E-09 -.158E-09 -.846E+00   0.222E-15 -.555E-14 0.606E+00   -.128E-22 -.661E-23 0.241E+00   -.192E-13 0.757E-13 0.671E-05
   -.146E-09 -.158E-09 -.846E+00   0.888E-14 -.444E-14 0.606E+00   -.307E-23 -.761E-23 0.241E+00   0.452E-14 -.287E-13 0.671E-05
   -.146E-09 -.158E-09 -.846E+00   0.844E-14 -.600E-14 0.606E+00   -.100E-22 -.340E-23 0.241E+00   -.619E-13 -.785E-13 0.671E-05
   -.146E-09 -.158E-09 -.846E+00   0.977E-14 -.488E-14 0.606E+00   0.101E-22 -.137E-22 0.241E+00   0.857E-13 0.224E-13 0.671E-05
   -.146E-09 -.158E-09 -.846E+00   0.102E-13 -.102E-13 0.606E+00   -.100E-23 -.112E-22 0.241E+00   0.411E-14 0.129E-12 0.671E-05
   -.146E-09 -.157E-09 -.846E+00   0.666E-14 -.622E-14 0.606E+00   -.138E-22 0.568E-23 0.241E+00   0.699E-14 -.116E-12 0.671E-05
   -.146E-09 -.157E-09 -.846E+00   0.209E-13 -.799E-14 0.606E+00   -.716E-23 0.671E-23 0.241E+00   0.670E-13 -.121E-12 0.671E-05
   -.146E-09 -.158E-09 -.846E+00   0.284E-13 0.000E+00 0.606E+00   -.804E-24 -.341E-23 0.241E+00   -.103E-12 0.102E-12 0.671E-05
   0.146E-09 0.158E-09 0.846E+00   -.755E-14 0.119E-13 -.606E+00   -.752E-24 -.232E-23 -.241E+00   -.417E-13 0.841E-13 -.671E-05
   0.146E-09 0.158E-09 0.846E+00   -.755E-14 0.527E-14 -.606E+00   0.608E-23 -.162E-22 -.241E+00   0.495E-13 -.256E-13 -.671E-05
   0.146E-09 0.158E-09 0.846E+00   -.142E-13 0.372E-14 -.606E+00   0.247E-23 0.260E-23 -.241E+00   0.330E-13 -.781E-13 -.671E-05
   0.146E-09 0.158E-09 0.846E+00   -.107E-13 0.144E-13 -.606E+00   0.710E-23 -.494E-23 -.241E+00   -.507E-13 0.299E-13 -.671E-05
   0.146E-09 0.158E-09 0.846E+00   -.355E-14 -.275E-14 -.606E+00   -.123E-23 -.260E-23 -.241E+00   0.358E-13 0.720E-13 -.671E-05
   0.146E-09 0.158E-09 0.846E+00   0.000E+00 0.835E-14 -.606E+00   0.656E-23 -.405E-23 -.241E+00   -.454E-13 0.172E-13 -.671E-05
   0.146E-09 0.157E-09 0.846E+00   0.355E-14 0.108E-13 -.606E+00   0.966E-24 -.885E-24 -.241E+00   -.243E-13 -.758E-13 -.671E-05
   0.146E-09 0.157E-09 0.846E+00   0.355E-14 0.139E-13 -.606E+00   -.273E-23 -.399E-23 -.241E+00   0.613E-13 -.882E-14 -.671E-05
   -.146E-09 -.158E-09 -.846E+00   0.115E-13 -.155E-14 0.606E+00   0.216E-24 0.416E-23 0.241E+00   -.893E-13 0.245E-13 0.671E-05
   -.146E-09 -.158E-09 -.846E+00   0.355E-14 -.977E-14 0.606E+00   0.221E-23 0.157E-22 0.241E+00   0.109E-12 0.153E-13 0.671E-05
   -.146E-09 -.158E-09 -.846E+00   0.160E-13 -.113E-13 0.606E+00   -.529E-23 0.589E-23 0.241E+00   -.454E-13 -.337E-13 0.671E-05
   -.146E-09 -.158E-09 -.846E+00   0.107E-13 -.755E-14 0.606E+00   0.593E-23 0.649E-23 0.241E+00   0.332E-13 -.171E-13 0.671E-05
   -.146E-09 -.158E-09 -.846E+00   0.666E-15 -.488E-14 0.606E+00   -.460E-23 0.802E-23 0.241E+00   0.980E-13 -.321E-13 0.671E-05
   -.146E-09 -.158E-09 -.846E+00   -.102E-13 -.888E-14 0.606E+00   -.122E-22 0.734E-24 0.241E+00   -.112E-12 0.114E-12 0.671E-05
   -.146E-09 -.156E-09 -.846E+00   0.107E-13 -.142E-13 0.606E+00   -.110E-22 0.450E-23 0.241E+00   0.477E-13 0.160E-13 0.671E-05
   -.146E-09 -.158E-09 -.846E+00   -.178E-13 -.107E-13 0.606E+00   -.648E-23 -.879E-23 0.241E+00   -.219E-13 -.114E-12 0.671E-05
   0.146E-09 0.157E-09 0.846E+00   -.118E-13 0.115E-13 -.606E+00   0.452E-23 0.259E-23 -.241E+00   -.368E-13 0.795E-13 -.671E-05
   0.146E-09 0.157E-09 0.846E+00   -.118E-13 0.444E-14 -.606E+00   -.877E-23 -.671E-24 -.241E+00   0.261E-13 -.780E-13 -.671E-05
   0.146E-09 0.158E-09 0.846E+00   -.604E-14 0.577E-14 -.606E+00   -.107E-22 0.188E-23 -.241E+00   -.338E-13 -.739E-13 -.671E-05
   0.146E-09 0.157E-09 0.846E+00   -.114E-13 0.222E-14 -.606E+00   0.784E-23 -.321E-23 -.241E+00   0.600E-13 0.804E-13 -.671E-05
   0.146E-09 0.157E-09 0.846E+00   -.174E-13 0.533E-14 -.606E+00   0.143E-23 0.154E-22 -.241E+00   0.391E-13 0.149E-12 -.671E-05
   0.146E-09 0.157E-09 0.846E+00   -.314E-14 0.533E-14 -.606E+00   -.224E-23 -.123E-24 -.241E+00   -.106E-13 -.184E-12 -.671E-05
   0.146E-09 0.158E-09 0.846E+00   -.209E-13 0.711E-14 -.606E+00   0.186E-24 -.612E-23 -.241E+00   0.564E-13 -.141E-12 -.671E-05
   0.146E-09 0.158E-09 0.846E+00   -.347E-16 0.711E-14 -.606E+00   0.119E-22 -.113E-23 -.241E+00   -.597E-13 0.184E-12 -.671E-05
   -.146E-09 -.157E-09 -.846E+00   -.999E-14 -.933E-14 0.606E+00   0.676E-23 -.769E-23 0.241E+00   -.158E-13 -.739E-13 0.671E-05
   -.146E-09 -.158E-09 -.846E+00   -.266E-14 -.102E-13 0.606E+00   -.119E-22 0.654E-24 0.241E+00   0.834E-14 0.990E-13 0.671E-05
   -.146E-09 -.158E-09 -.846E+00   -.577E-14 -.155E-14 0.606E+00   -.586E-23 0.415E-23 0.241E+00   -.385E-13 0.645E-13 0.671E-05
   -.146E-09 -.158E-09 -.846E+00   -.142E-13 -.400E-14 0.606E+00   -.127E-22 -.391E-24 0.241E+00   0.364E-13 -.982E-13 0.671E-05
   -.146E-09 -.157E-09 -.846E+00   -.111E-13 -.488E-14 0.606E+00   -.470E-23 0.285E-23 0.241E+00   0.323E-13 -.574E-13 0.671E-05
   -.146E-09 -.157E-09 -.846E+00   -.444E-15 -.533E-14 0.606E+00   0.695E-23 -.682E-23 0.241E+00   -.127E-13 0.862E-13 0.671E-05
   -.146E-09 -.157E-09 -.846E+00   -.355E-14 -.400E-14 0.606E+00   0.523E-24 0.469E-23 0.241E+00   0.563E-13 0.490E-13 0.671E-05
   -.146E-09 -.157E-09 -.846E+00   -.107E-13 0.355E-14 0.606E+00   0.136E-24 -.420E-23 0.241E+00   -.354E-13 -.839E-13 0.671E-05
   0.146E-09 0.157E-09 0.846E+00   -.215E-13 0.921E-14 -.606E+00   -.106E-22 0.324E-23 -.241E+00   -.586E-13 0.476E-13 -.671E-05
   0.146E-09 0.158E-09 0.846E+00   -.147E-13 0.101E-13 -.606E+00   0.897E-23 0.142E-22 -.241E+00   0.696E-13 0.204E-13 -.671E-05
   0.146E-09 0.158E-09 0.846E+00   -.799E-14 0.159E-13 -.606E+00   -.864E-23 -.133E-22 -.241E+00   -.736E-13 -.399E-13 -.671E-05
   0.146E-09 0.158E-09 0.846E+00   -.209E-13 0.768E-14 -.606E+00   0.626E-23 -.223E-23 -.241E+00   0.796E-13 -.220E-13 -.671E-05
   0.146E-09 0.158E-09 0.846E+00   -.178E-13 0.471E-14 -.606E+00   -.423E-23 -.199E-23 -.241E+00   0.753E-13 0.502E-13 -.671E-05
   0.146E-09 0.156E-09 0.846E+00   -.214E-13 0.517E-14 -.606E+00   -.104E-23 -.111E-22 -.241E+00   -.556E-13 0.215E-13 -.671E-05
   0.146E-09 0.157E-09 0.846E+00   -.402E-14 0.521E-15 -.606E+00   0.136E-23 -.254E-23 -.241E+00   0.846E-13 -.418E-13 -.671E-05
   0.146E-09 0.158E-09 0.846E+00   -.182E-13 0.722E-14 -.606E+00   -.746E-23 0.711E-23 -.241E+00   -.776E-13 -.247E-13 -.671E-05
 -----------------------------------------------------------------------------------------------
   -.148E-11 -.229E-12 -.335E-11   0.866E-14 0.442E-14 -.124E-13   -.102E-21 -.746E-22 -.888E-15   0.123E-12 -.246E-13 -.523E-13
 
 
 POSITION                                       TOTAL-FORCE (eV/Angst)
 -----------------------------------------------------------------------------------
      0.00000      0.00000      0.00367         0.000000     -0.000000      0.000764
      0.00000      0.00000      5.42063        -0.000000     -0.000000      0.000764
      0.02709      5.41696      0.00367         0.000000      0.000000      0.000764
      0.02709      5.41696      5.42063        -0.000000     -0.000000      0.000764
      5.47113      0.02709      0.00367         0.000000      0.000000      0.000764
      5.47113      0.02709      5.42063        -0.000000     -0.000000      0.000764
      5.49822      5.44405      0.00367        -0.000000     -0.000000      0.000764
      5.49822      5.44405      5.42063        -0.000000     -0.000000      0.000764
      4.12366      4.08303      1.35057         0.000000      0.000000     -0.000764
      4.12366      4.08303      6.76753         0.000000      0.000000     -0.000764
      4.15075      9.49999      1.35057         0.000000     -0.000000     -0.000764
      4.15075      9.49999      6.76753         0.000000      0.000000     -0.000764
      9.59479      4.11012      1.35057        -0.000000      0.000000     -0.000764
      9.59479      4.11012      6.76753        -0.000000     -0.000000     -0.000764
      9.62188      9.52708      1.35057         0.000000     -0.000000     -0.000764
      9.62188      9.52708      6.76753        -0.000000      0.000000     -0.000764
      0.01354      2.70848      2.71215         0.000000     -0.000000      0.000764
      0.01354      2.70848      8.12911         0.000000      0.000000      0.000764
      0.04063      8.12544      2.71215        -0.000000     -0.000000      0.000764
      0.04063      8.12544      8.12911         0.000000      0.000000      0.000764
      5.48467      2.73557      2.71215        -0.000000     -0.000000      0.000764
      5.48467      2.73557      8.12911        -0.000000     -0.000000      0.000764
      5.51176      8.15253      2.71215         0.000000     -0.000000      0.000764
      5.51176      8.15253      8.12911        -0.000000     -0.000000      0.000764
      4.11012      1.37455      4.05905         0.000000      0.000000     -0.000764
      4.11012      1.37455      9.47601        -0.000000      0.000000     -0.000764
      4.13720      6.79151      4.05905         0.000000      0.000000     -0.000764
      4.13720      6.79151      9.47601         0.000000      0.000000     -0.000764
      9.58125      1.40164      4.05905        -0.000000     -0.000000     -0.000764
      9.58125      1.40164      9.47601         0.000000     -0.000000     -0.000764
      9.60833      6.81860      4.05905        -0.000000     -0.000000     -0.000764
      9.60833      6.81860      9.47601        -0.000000     -0.000000     -0.000764
      2.73557      0.01354      2.71215        -0.000000      0.000000      0.000764
      2.73557      0.01354      8.12911        -0.000000      0.000000      0.000764
      2.76265      5.43050      2.71215         0.000000      0.000000      0.000764
      2.76265      5.43050      8.12911         0.000000      0.000000      0.000764
      8.20670      0.04063      2.71215         0.000000     -0.000000      0.000764
      8.20670      0.04063      8.12911         0.000000     -0.000000      0.000764
      8.23378      5.45759      2.71215        -0.000000      0.000000      0.000764
      8.23378      5.45759      8.12911         0.000000      0.000000      0.000764
      1.38810      4.06949      4.05905        -0.000000     -0.000000     -0.000764
      1.38810      4.06949      9.47601        -0.000000     -0.000000     -0.000764
      1.41518      9.48645      4.05905        -0.000000     -0.000000     -0.000764
      1.41518      9.48645      9.47601        -0.000000     -0.000000     -0.000764
      6.85923      4.09658      4.05905         0.000000      0.000000     -0.000764
      6.85923      4.09658      9.47601         0.000000     -0.000000     -0.000764
      6.88631      9.51354      4.05905         0.000000     -0.000000     -0.000764
      6.88631      9.51354      9.47601         0.000000     -0.000000     -0.000764
      2.74911      2.72202      0.00367        -0.000000      0.000000      0.000764
      2.74911      2.72202      5.42063        -0.000000      0.000000      0.000764
      2.77619      8.13898      0.00367        -0.000000      0.000000      0.000764
      2.77619      8.13898      5.42063         0.000000      0.000000      0.000764
      8.22024      2.74911      0.00367         0.000000      0.000000      0.000764
      8.22024      2.74911      5.42063        -0.000000     -0.000000      0.000764
      8.24732      8.16607      0.00367         0.000000     -0.000000      0.000764
      8.24732      8.16607      5.42063         0.000000     -0.000000      0.000764
      1.37455      1.36101      1.35057        -0.000000     -0.000000     -0.000764
      1.37455      1.36101      6.76753        -0.000000     -0.000000     -0.000764
      1.40164      6.77797      1.35057        -0.000000     -0.000000     -0.000764
      1.40164      6.77797      6.76753        -0.000000     -0.000000     -0.000764
      6.84568      1.38810      1.35057         0.000000     -0.000000     -0.000764
      6.84568      1.38810      6.76753         0.000000     -0.000000     -0.000764
      6.87277      6.80506      1.35057         0.000000      0.000000     -0.000764
      6.87277      6.80506      6.76753         0.000000     -0.000000     -0.000764
 -----------------------------------------------------------------------------------
    total drift:                               -0.000000     -0.000000     -0.000000


--------------------------------------------------------------------------------------------------------



  FREE ENERGIE OF THE ION-ELECTRON SYSTEM (eV)
  ---------------------------------------------------
  free  energy   TOTEN  =      -367.57790146 eV

  energy  without entropy=     -367.60535644  energy(sigma->0) =     -367.58705312
 
 d Force = 0.1007410E-02[-0.529E-04, 0.207E-02]  d Energy = 0.1002492E-02 0.492E-05
 d Force =-0.4022096E-01[-0.420E-01,-0.384E-01]  d Ewald  =-0.4022095E-01-0.118E-07


--------------------------------------------------------------------------------------------------------


    POTLOK:  cpu time      0.1479: real time      0.1483


--------------------------------------------------------------------------------------------------------




--------------------------------------------------------------------------------------------------------


  
 reached required accuracy - stopping structural energy minimisation
     LOOP+:  cpu time     12.7673: real time     12.9824
    4ORBIT:  cpu time      0.0000: real time      0.0000

 total amount of memory used by VASP MPI-rank0    81988. kBytes
=======================================================================

   base      :      30000. kBytes
   nonlr-proj:       4722. kBytes
   fftplans  :      19172. kBytes
   grid      :       7278. kBytes
   one-center:         18. kBytes
   wavefun   :      20798. kBytes
 
  
  
 General timing and accounting informations for this job:
 ========================================================
  
                  Total CPU time used (sec):       61.493
                            User time (sec):       58.160
                          System time (sec):        3.333
                         Elapsed time (sec):       65.214
  
                   Maximum memory used (kb):      411700.
                   Average memory used (kb):          N/A
  
                          Minor page faults:        96245
                          Major page faults:            0
                 Voluntary context switches:         9638
