Si64                                    
           1
    10.942261    0.054170    0.000000
     0.054170   10.833921    0.000000
     0.000000    0.000000   10.833921
   Si
    64
Direct configuration=     1
   0.00000000  0.00000000  0.00000000
   0.00000000  0.00000000  0.50000000
   0.00000000  0.50000000  0.00000000
   0.00000000  0.50000000  0.50000000
   0.50000000  0.00000000  0.00000000
   0.50000000  0.00000000  0.50000000
   0.50000000  0.50000000  0.00000000
   0.50000000  0.50000000  0.50000000
   0.37500000  0.37500000  0.12500000
   0.37500000  0.37500000  0.62500000
   0.37500000  0.87500000  0.12500000
   0.37500000  0.87500000  0.62500000
   0.87500000  0.37500000  0.12500000
   0.87500000  0.37500000  0.62500000
   0.87500000  0.87500000  0.12500000
   0.87500000  0.87500000  0.62500000
   0.00000000  0.25000000  0.25000000
   0.00000000  0.25000000  0.75000000
   0.00000000  0.75000000  0.25000000
   0.00000000  0.75000000  0.75000000
   0.50000000  0.25000000  0.25000000
   0.50000000  0.25000000  0.75000000
   0.50000000  0.75000000  0.25000000
   0.50000000  0.75000000  0.75000000
   0.37500000  0.12500000  0.37500000
   0.37500000  0.12500000  0.87500000
   0.37500000  0.62500000  0.37500000
   0.37500000  0.62500000  0.87500000
   0.87500000  0.12500000  0.37500000
   0.87500000  0.12500000  0.87500000
   0.87500000  0.62500000  0.37500000
   0.87500000  0.62500000  0.87500000
   0.25000000  0.00000000  0.25000000
   0.25000000  0.00000000  0.75000000
   0.25000000  0.50000000  0.25000000
   0.25000000  0.50000000  0.75000000
   0.75000000  0.00000000  0.25000000
   0.75000000  0.00000000  0.75000000
   0.75000000  0.50000000  0.25000000
   0.75000000  0.50000000  0.75000000
   0.12500000  0.37500000  0.37500000
   0.12500000  0.37500000  0.87500000
   0.12500000  0.87500000  0.37500000
   0.12500000  0.87500000  0.87500000
   0.62500000  0.37500000  0.37500000
   0.62500000  0.37500000  0.87500000
   0.62500000  0.87500000  0.37500000
   0.62500000  0.87500000  0.87500000
   0.25000000  0.25000000  0.00000000
   0.25000000  0.25000000  0.50000000
   0.25000000  0.75000000  0.00000000
   0.25000000  0.75000000  0.50000000
   0.75000000  0.25000000  0.00000000
   0.75000000  0.25000000  0.50000000
   0.75000000  0.75000000  0.00000000
   0.75000000  0.75000000  0.50000000
   0.12500000  0.12500000  0.12500000
   0.12500000  0.12500000  0.62500000
   0.12500000  0.62500000  0.12500000
   0.12500000  0.62500000  0.62500000
   0.62500000  0.12500000  0.12500000
   0.62500000  0.12500000  0.62500000
   0.62500000  0.62500000  0.12500000
   0.62500000  0.62500000  0.62500000
Direct configuration=     2
   1.00000000  0.00000000  0.00043895
   1.00000000  0.00000000  0.50043895
   0.00000000  0.50000000  0.00043895
   0.00000000  0.50000000  0.50043895
   0.50000000  0.00000000  0.00043895
   0.50000000  0.00000000  0.50043895
   0.50000000  0.50000000  0.00043895
   0.50000000  0.50000000  0.50043895
   0.37500000  0.37500000  0.12456105
   0.37500000  0.37500000  0.62456105
   0.37500000  0.87500000  0.12456105
   0.37500000  0.87500000  0.62456105
   0.87500000  0.37500000  0.12456105
   0.87500000  0.37500000  0.62456105
   0.87500000  0.87500000  0.12456105
   0.87500000  0.87500000  0.62456105
   0.00000000  0.25000000  0.25043895
   0.00000000  0.25000000  0.75043895
   0.00000000  0.75000000  0.25043895
   1.00000000  0.75000000  0.75043895
   0.50000000  0.25000000  0.25043895
   0.50000000  0.25000000  0.75043895
   0.50000000  0.75000000  0.25043895
   0.50000000  0.75000000  0.75043895
   0.37500000  0.12500000  0.37456105
   0.37500000  0.12500000  0.87456105
   0.37500000  0.62500000  0.37456105
   0.37500000  0.62500000  0.87456105
   0.87500000  0.12500000  0.37456105
   0.87500000  0.12500000  0.87456105
   0.87500000  0.62500000  0.37456105
   0.87500000  0.62500000  0.87456105
   0.25000000  1.00000000  0.25043895
   0.25000000  0.00000000  0.75043895
   0.25000000  0.50000000  0.25043895
   0.25000000  0.50000000  0.75043895
   0.75000000  0.00000000  0.25043895
   0.75000000  1.00000000  0.75043895
   0.75000000  0.50000000  0.25043895
   0.75000000  0.50000000  0.75043895
   0.12500000  0.37500000  0.37456105
   0.12500000  0.37500000  0.87456105
   0.12500000  0.87500000  0.37456105
   0.12500000  0.87500000  0.87456105
   0.62500000  0.37500000  0.37456105
   0.62500000  0.37500000  0.87456105
   0.62500000  0.87500000  0.37456105
   0.62500000  0.87500000  0.87456105
   0.25000000  0.25000000  0.00043895
   0.25000000  0.25000000  0.50043895
   0.25000000  0.75000000  0.00043895
   0.25000000  0.75000000  0.50043895
   0.75000000  0.25000000  0.00043895
   0.75000000  0.25000000  0.50043895
   0.75000000  0.75000000  0.00043895
   0.75000000  0.75000000  0.50043895
   0.12500000  0.12500000  0.12456105
   0.12500000  0.12500000  0.62456105
   0.12500000  0.62500000  0.12456105
   0.12500000  0.62500000  0.62456105
   0.62500000  0.12500000  0.12456105
   0.62500000  0.12500000  0.62456105
   0.62500000  0.62500000  0.12456105
   0.62500000  0.62500000  0.62456105
Direct configuration=     3
   0.00000000  0.00000000  0.00033904
   0.00000000  0.00000000  0.50033904
   0.00000000  0.50000000  0.00033904
   0.00000000  0.50000000  0.50033904
   0.50000000  0.00000000  0.00033904
   0.50000000  0.00000000  0.50033904
   0.50000000  0.50000000  0.00033904
   0.50000000  0.50000000  0.50033904
   0.37500000  0.37500000  0.12466096
   0.37500000  0.37500000  0.62466096
   0.37500000  0.87500000  0.12466096
   0.37500000  0.87500000  0.62466096
   0.87500000  0.37500000  0.12466096
   0.87500000  0.37500000  0.62466096
   0.87500000  0.87500000  0.12466096
   0.87500000  0.87500000  0.62466096
   0.00000000  0.25000000  0.25033904
   0.00000000  0.25000000  0.75033904
   0.00000000  0.75000000  0.25033904
   0.00000000  0.75000000  0.75033904
   0.50000000  0.25000000  0.25033904
   0.50000000  0.25000000  0.75033904
   0.50000000  0.75000000  0.25033904
   0.50000000  0.75000000  0.75033904
   0.37500000  0.12500000  0.37466096
   0.37500000  0.12500000  0.87466096
   0.37500000  0.62500000  0.37466096
   0.37500000  0.62500000  0.87466096
   0.87500000  0.12500000  0.37466096
   0.87500000  0.12500000  0.87466096
   0.87500000  0.62500000  0.37466096
   0.87500000  0.62500000  0.87466096
   0.25000000  0.00000000  0.25033904
   0.25000000  0.00000000  0.75033904
   0.25000000  0.50000000  0.25033904
   0.25000000  0.50000000  0.75033904
   0.75000000  0.00000000  0.25033904
   0.75000000  0.00000000  0.75033904
   0.75000000  0.50000000  0.25033904
   0.75000000  0.50000000  0.75033904
   0.12500000  0.37500000  0.37466096
   0.12500000  0.37500000  0.87466096
   0.12500000  0.87500000  0.37466096
   0.12500000  0.87500000  0.87466096
   0.62500000  0.37500000  0.37466096
   0.62500000  0.37500000  0.87466096
   0.62500000  0.87500000  0.37466096
   0.62500000  0.87500000  0.87466096
   0.25000000  0.25000000  0.00033904
   0.25000000  0.25000000  0.50033904
   0.25000000  0.75000000  0.00033904
   0.25000000  0.75000000  0.50033904
   0.75000000  0.25000000  0.00033904
   0.75000000  0.25000000  0.50033904
   0.75000000  0.75000000  0.00033904
   0.75000000  0.75000000  0.50033904
   0.12500000  0.12500000  0.12466096
   0.12500000  0.12500000  0.62466096
   0.12500000  0.62500000  0.12466096
   0.12500000  0.62500000  0.62466096
   0.62500000  0.12500000  0.12466096
   0.62500000  0.12500000  0.62466096
   0.62500000  0.62500000  0.12466096
   0.62500000  0.62500000  0.62466096
