  64  64   0   0
  0.1847544E+02  0.1060973E-08  0.1055695E-08  0.1055692E-08  0.5000000E-15
  1.000000000000000E-004
  CAR 
 Si64                                    
     12.14543819     -7.92858180  301      6.83774647      1.00000000
     -7.929  0.0000E+00  0.0000E+00
     -7.862  0.0000E+00  0.0000E+00
     -7.795  0.0000E+00  0.0000E+00
     -7.728  0.0000E+00  0.0000E+00
     -7.661  0.0000E+00  0.0000E+00
     -7.594 -0.1123E-30 -0.7516E-32
     -7.527 -0.2523E-28 -0.1696E-29
     -7.460 -0.4539E-26 -0.3054E-27
     -7.393 -0.6513E-24 -0.4389E-25
     -7.326 -0.7452E-22 -0.5031E-23
     -7.259 -0.6798E-20 -0.4599E-21
     -7.193 -0.4942E-18 -0.3353E-19
     -7.126 -0.2862E-16 -0.1949E-17
     -7.059 -0.1278E-14 -0.8747E-16
     -6.992 -0.4672E-13 -0.3214E-14
     -6.925 -0.1356E-11 -0.9395E-13
     -6.858 -0.3122E-10 -0.2183E-11
     -6.791 -0.5695E-09 -0.4029E-10
     -6.724 -0.8209E-08 -0.5896E-09
     -6.657 -0.9326E-07 -0.6830E-08
     -6.590 -0.8316E-06 -0.6247E-07
     -6.523 -0.5785E-05 -0.4496E-06
     -6.456 -0.3110E-04 -0.2531E-05
     -6.390 -0.1272E-03 -0.1104E-04
     -6.323 -0.3846E-03 -0.3678E-04
     -6.256 -0.8036E-03 -0.9055E-04
     -6.189 -0.9249E-03 -0.1524E-03
     -6.122  0.3697E-03 -0.1277E-03
     -6.055  0.3875E-02  0.1316E-03
     -5.988  0.8283E-02  0.6859E-03
     -5.921  0.1124E-01  0.1438E-02
     -5.854  0.1498E-01  0.2440E-02
     -5.787  0.2827E-01  0.4332E-02
     -5.720  0.5515E-01  0.8022E-02
     -5.654  0.8292E-01  0.1357E-01
     -5.587  0.9518E-01  0.1994E-01
     -5.520  0.9995E-01  0.2663E-01
     -5.453  0.1242E+00  0.3494E-01
     -5.386  0.1694E+00  0.4627E-01
     -5.319  0.1977E+00  0.5950E-01
     -5.252  0.1822E+00  0.7169E-01
     -5.185  0.1469E+00  0.8152E-01
     -5.118  0.1291E+00  0.9016E-01
     -5.051  0.1265E+00  0.9863E-01
     -4.984  0.1125E+00  0.1062E+00
     -4.917  0.8537E-01  0.1119E+00
     -4.851  0.6767E-01  0.1164E+00
     -4.784  0.6976E-01  0.1211E+00
     -4.717  0.8965E-01  0.1271E+00
     -4.650  0.1424E+00  0.1366E+00
     -4.583  0.2433E+00  0.1529E+00
     -4.516  0.3570E+00  0.1768E+00
     -4.449  0.4191E+00  0.2048E+00
     -4.382  0.4232E+00  0.2331E+00
     -4.315  0.4226E+00  0.2614E+00
     -4.248  0.4284E+00  0.2901E+00
     -4.181  0.3815E+00  0.3156E+00
     -4.115  0.2525E+00  0.3325E+00
     -4.048  0.9798E-01  0.3390E+00
     -3.981 -0.5413E-02  0.3387E+00
     -3.914 -0.2854E-01  0.3368E+00
     -3.847  0.2071E-01  0.3382E+00
     -3.780  0.1281E+00  0.3467E+00
     -3.713  0.2731E+00  0.3650E+00
     -3.646  0.4157E+00  0.3928E+00
     -3.579  0.4997E+00  0.4263E+00
     -3.512  0.4850E+00  0.4587E+00
     -3.445  0.3863E+00  0.4846E+00
     -3.378  0.2710E+00  0.5027E+00
     -3.312  0.2114E+00  0.5168E+00
     -3.245  0.2471E+00  0.5334E+00
     -3.178  0.3693E+00  0.5581E+00
     -3.111  0.5193E+00  0.5928E+00
     -3.044  0.6209E+00  0.6344E+00
     -2.977  0.6395E+00  0.6772E+00
     -2.910  0.6003E+00  0.7174E+00
     -2.843  0.5439E+00  0.7537E+00
     -2.776  0.4842E+00  0.7861E+00
     -2.709  0.4268E+00  0.8147E+00
     -2.642  0.4000E+00  0.8415E+00
     -2.576  0.4126E+00  0.8691E+00
     -2.509  0.4073E+00  0.8963E+00
     -2.442  0.3211E+00  0.9178E+00
     -2.375  0.1746E+00  0.9295E+00
     -2.308  0.4621E-01  0.9326E+00
     -2.241 -0.1856E-01  0.9313E+00
     -2.174 -0.3235E-01  0.9292E+00
     -2.107 -0.1977E-01  0.9279E+00
     -2.040  0.1747E-01  0.9290E+00
     -1.973  0.8572E-01  0.9348E+00
     -1.906  0.1638E+00  0.9457E+00
     -1.839  0.2013E+00  0.9592E+00
     -1.773  0.1652E+00  0.9702E+00
     -1.706  0.8154E-01  0.9757E+00
     -1.639  0.1948E-01  0.9770E+00
     -1.572  0.4290E-01  0.9799E+00
     -1.505  0.1750E+00  0.9916E+00
     -1.438  0.3779E+00  0.1017E+01
     -1.371  0.5548E+00  0.1054E+01
     -1.304  0.6034E+00  0.1094E+01
     -1.237  0.4943E+00  0.1127E+01
     -1.170  0.2947E+00  0.1147E+01
     -1.103  0.1126E+00  0.1155E+01
     -1.037  0.2618E-01  0.1156E+01
     -0.970  0.5169E-01  0.1160E+01
     -0.903  0.1447E+00  0.1170E+01
     -0.836  0.2246E+00  0.1185E+01
     -0.769  0.2335E+00  0.1200E+01
     -0.702  0.1959E+00  0.1213E+01
     -0.635  0.1979E+00  0.1227E+01
     -0.568  0.2790E+00  0.1245E+01
     -0.501  0.3633E+00  0.1270E+01
     -0.434  0.3427E+00  0.1293E+01
     -0.367  0.2264E+00  0.1308E+01
     -0.300  0.1676E+00  0.1319E+01
     -0.234  0.3178E+00  0.1340E+01
     -0.167  0.6585E+00  0.1384E+01
     -0.100  0.9851E+00  0.1450E+01
     -0.033  0.1073E+01  0.1522E+01
      0.034  0.8665E+00  0.1580E+01
      0.101  0.5036E+00  0.1614E+01
      0.168  0.1757E+00  0.1625E+01
      0.235 -0.1067E-01  0.1625E+01
      0.302 -0.4914E-01  0.1621E+01
      0.369  0.3024E-01  0.1623E+01
      0.436  0.1878E+00  0.1636E+01
      0.503  0.3479E+00  0.1659E+01
      0.569  0.4146E+00  0.1687E+01
      0.636  0.3531E+00  0.1711E+01
      0.703  0.2261E+00  0.1726E+01
      0.770  0.1264E+00  0.1734E+01
      0.837  0.1081E+00  0.1741E+01
      0.904  0.1852E+00  0.1754E+01
      0.971  0.3376E+00  0.1776E+01
      1.038  0.4928E+00  0.1809E+01
      1.105  0.5473E+00  0.1846E+01
      1.172  0.4516E+00  0.1876E+01
      1.239  0.2627E+00  0.1894E+01
      1.305  0.8938E-01  0.1900E+01
      1.372 -0.4285E-02  0.1899E+01
      1.439 -0.2892E-01  0.1898E+01
      1.506 -0.2693E-01  0.1896E+01
      1.573 -0.2660E-01  0.1894E+01
      1.640 -0.2661E-01  0.1892E+01
      1.707  0.2157E-02  0.1892E+01
      1.774  0.9979E-01  0.1899E+01
      1.841  0.2740E+00  0.1917E+01
      1.908  0.4587E+00  0.1948E+01
      1.975  0.5450E+00  0.1984E+01
      2.042  0.4900E+00  0.2017E+01
      2.108  0.3823E+00  0.2043E+01
      2.175  0.3536E+00  0.2067E+01
      2.242  0.4317E+00  0.2095E+01
      2.309  0.5278E+00  0.2131E+01
      2.376  0.5590E+00  0.2168E+01
      2.443  0.5183E+00  0.2203E+01
      2.510  0.4296E+00  0.2232E+01
      2.577  0.3190E+00  0.2253E+01
      2.644  0.2615E+00  0.2270E+01
      2.711  0.3800E+00  0.2296E+01
      2.778  0.7256E+00  0.2344E+01
      2.844  0.1162E+01  0.2422E+01
      2.911  0.1420E+01  0.2517E+01
      2.978  0.1315E+01  0.2605E+01
      3.045  0.9133E+00  0.2666E+01
      3.112  0.4585E+00  0.2697E+01
      3.179  0.1421E+00  0.2706E+01
      3.246 -0.1138E-01  0.2706E+01
      3.313 -0.6331E-01  0.2701E+01
      3.380 -0.3896E-01  0.2699E+01
      3.447  0.9793E-01  0.2705E+01
      3.514  0.3716E+00  0.2730E+01
      3.581  0.7126E+00  0.2778E+01
      3.647  0.9815E+00  0.2844E+01
      3.714  0.1092E+01  0.2917E+01
      3.781  0.1079E+01  0.2989E+01
      3.848  0.1027E+01  0.3057E+01
      3.915  0.9679E+00  0.3122E+01
      3.982  0.8817E+00  0.3181E+01
      4.049  0.7650E+00  0.3232E+01
      4.116  0.6858E+00  0.3278E+01
      4.183  0.7123E+00  0.3326E+01
      4.250  0.7829E+00  0.3378E+01
      4.317  0.7391E+00  0.3428E+01
      4.383  0.5300E+00  0.3463E+01
      4.450  0.2971E+00  0.3483E+01
      4.517  0.2130E+00  0.3497E+01
      4.584  0.3066E+00  0.3518E+01
      4.651  0.4732E+00  0.3550E+01
      4.718  0.6028E+00  0.3590E+01
      4.785  0.6614E+00  0.3634E+01
      4.852  0.6704E+00  0.3679E+01
      4.919  0.6525E+00  0.3723E+01
      4.986  0.6268E+00  0.3765E+01
      5.053  0.6262E+00  0.3807E+01
      5.120  0.6779E+00  0.3852E+01
      5.186  0.7667E+00  0.3903E+01
      5.253  0.8308E+00  0.3959E+01
      5.320  0.7945E+00  0.4012E+01
      5.387  0.6230E+00  0.4054E+01
      5.454  0.3677E+00  0.4078E+01
      5.521  0.1449E+00  0.4088E+01
      5.588  0.5666E-01  0.4092E+01
      5.655  0.1268E+00  0.4100E+01
      5.722  0.2874E+00  0.4119E+01
      5.789  0.4170E+00  0.4147E+01
      5.856  0.4205E+00  0.4176E+01
      5.922  0.2988E+00  0.4195E+01
      5.989  0.1363E+00  0.4205E+01
      6.056  0.2031E-01  0.4206E+01
      6.123 -0.1369E-01  0.4205E+01
      6.190  0.2563E-01  0.4207E+01
      6.257  0.1069E+00  0.4214E+01
      6.324  0.1807E+00  0.4226E+01
      6.391  0.1993E+00  0.4239E+01
      6.458  0.1566E+00  0.4250E+01
      6.525  0.9358E-01  0.4256E+01
      6.592  0.5186E-01  0.4260E+01
      6.659  0.3518E-01  0.4262E+01
      6.725  0.2579E-01  0.4264E+01
      6.792  0.2148E-01  0.4265E+01
      6.859  0.4155E-01  0.4268E+01
      6.926  0.9699E-01  0.4274E+01
      6.993  0.1634E+00  0.4285E+01
      7.060  0.1938E+00  0.4298E+01
      7.127  0.1627E+00  0.4309E+01
      7.194  0.9029E-01  0.4315E+01
      7.261  0.2018E-01  0.4317E+01
      7.328 -0.1435E-01  0.4316E+01
      7.395  0.4173E-02  0.4316E+01
      7.462  0.8085E-01  0.4321E+01
      7.528  0.1906E+00  0.4334E+01
      7.595  0.2698E+00  0.4352E+01
      7.662  0.2671E+00  0.4370E+01
      7.729  0.2157E+00  0.4384E+01
      7.796  0.2157E+00  0.4399E+01
      7.863  0.3179E+00  0.4420E+01
      7.930  0.4455E+00  0.4450E+01
      7.997  0.4659E+00  0.4481E+01
      8.064  0.3341E+00  0.4503E+01
      8.131  0.1383E+00  0.4513E+01
      8.198  0.2042E-01  0.4514E+01
      8.264  0.8172E-01  0.4520E+01
      8.331  0.3330E+00  0.4542E+01
      8.398  0.6640E+00  0.4586E+01
      8.465  0.8749E+00  0.4645E+01
      8.532  0.8207E+00  0.4700E+01
      8.599  0.5526E+00  0.4737E+01
      8.666  0.2821E+00  0.4756E+01
      8.733  0.1965E+00  0.4769E+01
      8.800  0.3285E+00  0.4791E+01
      8.867  0.5971E+00  0.4831E+01
      8.934  0.9229E+00  0.4892E+01
      9.001  0.1241E+01  0.4975E+01
      9.067  0.1426E+01  0.5071E+01
      9.134  0.1329E+01  0.5160E+01
      9.201  0.9595E+00  0.5224E+01
      9.268  0.5228E+00  0.5259E+01
      9.335  0.2381E+00  0.5275E+01
      9.402  0.1621E+00  0.5286E+01
      9.469  0.2193E+00  0.5300E+01
      9.536  0.3148E+00  0.5321E+01
      9.603  0.3752E+00  0.5347E+01
      9.670  0.3500E+00  0.5370E+01
      9.737  0.2406E+00  0.5386E+01
      9.803  0.1076E+00  0.5393E+01
      9.870  0.1625E-01  0.5394E+01
      9.937 -0.1508E-01  0.5393E+01
     10.004 -0.6855E-02  0.5393E+01
     10.071  0.1422E-01  0.5394E+01
     10.138  0.3013E-01  0.5396E+01
     10.205  0.3240E-01  0.5398E+01
     10.272  0.2265E-01  0.5400E+01
     10.339  0.9674E-02  0.5400E+01
     10.406  0.1102E-02  0.5400E+01
     10.473 -0.1724E-02  0.5400E+01
     10.540 -0.1492E-02  0.5400E+01
     10.606 -0.6960E-03  0.5400E+01
     10.673 -0.2245E-03  0.5400E+01
     10.740 -0.5360E-04  0.5400E+01
     10.807 -0.9754E-05  0.5400E+01
     10.874 -0.1374E-05  0.5400E+01
     10.941 -0.1511E-06  0.5400E+01
     11.008 -0.1306E-07  0.5400E+01
     11.075 -0.8899E-09  0.5400E+01
     11.142 -0.4797E-10  0.5400E+01
     11.209 -0.2050E-11  0.5400E+01
     11.276 -0.6952E-13  0.5400E+01
     11.342 -0.1880E-14  0.5400E+01
     11.409 -0.4148E-16  0.5400E+01
     11.476  0.0000E+00  0.5400E+01
     11.543  0.0000E+00  0.5400E+01
     11.610  0.0000E+00  0.5400E+01
     11.677  0.0000E+00  0.5400E+01
     11.744  0.0000E+00  0.5400E+01
     11.811  0.0000E+00  0.5400E+01
     11.878  0.0000E+00  0.5400E+01
     11.945  0.0000E+00  0.5400E+01
     12.012  0.0000E+00  0.5400E+01
     12.079  0.0000E+00  0.5400E+01
     12.145  0.0000E+00  0.5400E+01
