 vasp.6.4.3 19Mar24 (build Oct 21 2024 22:36:34) complex                        
  
 executed on             LinuxIFC date 2024.11.01  22:58:24
 running   96 mpi-ranks, on    1 nodes
 distrk:  each k-point on   24 cores,    4 groups
 distr:  one band on NCORE=  12 cores,    2 groups


--------------------------------------------------------------------------------------------------------


 INCAR:
   SYSTEM = Si64
   ISTART = 0
   ICHARG = 2
   LREAL = Auto
   PREC = Accurate
   LWAVE = .False.
   LCHARG = .False.
   ADDGRID = .True.
   ENCUT = 400
   GGA = PS
   GGA_COMPAT = .FALSE.
   ISMEAR = 1
   SIGMA = 0.2
   NELM = 60
   NELMIN = 8
   EDIFF = 1e-06
   EDIFFG = -0.01
   NSW = 60
   IBRION = 2
   ISIF = 2
   KPAR = 4
   NPAR = 2
   ALGO = Fast

 POTCAR:    PAW_PBE Si 05Jan2001                  
 POTCAR:    PAW_PBE Si 05Jan2001                  
   VRHFIN =Si: s2p2                                                                                 
   LEXCH  = PE                                                                                      
   EATOM  =   103.0669 eV,    7.5752 Ry                                                             
                                                                                                    
   TITEL  = PAW_PBE Si 05Jan2001                                                                    
   LULTRA =        F    use ultrasoft PP ?                                                          
   IUNSCR =        1    unscreen: 0-lin 1-nonlin 2-no                                               
   RPACOR =    1.500    partial core radius                                                         
   POMASS =   28.085; ZVAL   =    4.000    mass and valenz                                          
   RCORE  =    1.900    outmost cutoff radius                                                       
   RWIGS  =    2.480; RWIGS  =    1.312    wigner-seitz radius (au A)                               
   ENMAX  =  245.345; ENMIN  =  184.009 eV                                                          
   ICORE  =        2    local potential                                                             
   LCOR   =        T    correct aug charges                                                         
   LPAW   =        T    paw PP                                                                      
   EAUG   =  322.069                                                                                
   DEXC   =    0.000                                                                                
   RMAX   =    1.950    core radius for proj-oper                                                   
   RAUG   =    1.300    factor for augmentation sphere                                              
   RDEP   =    1.993    radius for radial grids                                                     
   RDEPT  =    1.837    core radius for aug-charge                                                  
                                                                                                    
   Atomic configuration                                                                             
    6 entries                                                                                       
     n  l   j            E        occ.                                                              
     1  0  0.50     -1785.8828   2.0000                                                             
     2  0  0.50      -139.4969   2.0000                                                             
     2  1  1.50       -95.5546   6.0000                                                             
     3  0  0.50       -10.8127   2.0000                                                             
     3  1  0.50        -4.0811   2.0000                                                             
     3  2  1.50        -4.0817   0.0000                                                             
   Description                                                                                      
     l       E           TYP  RCUT    TYP  RCUT                                                     
     0    -10.8127223     23  1.900                                                                 
     0     -7.6451159     23  1.900                                                                 
     1     -4.0811372     23  1.900                                                                 
     1      2.4879257     23  1.900                                                                 
     2     -4.0817478      7  1.900                                                                 
  local pseudopotential read in
  partial core-charges read in
  partial kinetic energy density read in
  atomic valenz-charges read in
  non local Contribution for L=           0  read in
    real space projection operators read in
  non local Contribution for L=           0  read in
    real space projection operators read in
  non local Contribution for L=           1  read in
    real space projection operators read in
  non local Contribution for L=           1  read in
    real space projection operators read in
    PAW grid and wavefunctions read in
 
   number of l-projection  operators is LMAX  =           4
   number of lm-projection operators is LMMAX =           8
 
 Optimization of the real space projectors (new method)

 maximal supplied QI-value         = 19.84
 optimisation between [QCUT,QGAM] = [ 10.12, 20.44] = [ 28.68,116.96] Ry 
 Optimized for a Real-space Cutoff    1.38 Angstroem

   l    n(q)    QCUT    max X(q) W(low)/X(q) W(high)/X(q)  e(spline) 
   0      8    10.119   159.560    0.58E-04    0.11E-03    0.54E-07
   0      8    10.119   115.863    0.56E-04    0.11E-03    0.54E-07
   1      8    10.119    88.339    0.22E-03    0.17E-03    0.19E-06
   1      8    10.119    48.592    0.22E-03    0.17E-03    0.18E-06
 -----------------------------------------------------------------------------
|                                                                             |
|               ----> ADVICE to this user running VASP <----                  |
|                                                                             |
|     You enforced a specific xc type in the INCAR file but a different       |
|     type was found in the POTCAR file.                                      |
|     I HOPE YOU KNOW WHAT YOU ARE DOING!                                     |
|                                                                             |
 -----------------------------------------------------------------------------

  PAW_PBE Si 05Jan2001                  :
 energy of atom  1       EATOM= -103.0669
 kinetic energy error for atom=    0.0012 (will be added to EATOM!!)
 
 
 POSCAR: Si8
  positions in direct lattice
  velocities in cartesian coordinates


 exchange-correlation table for PS
   RHO(1)=    0.500       N(1)  =     2000
   RHO(2)=  100.500       N(2)  =     4000
 


--------------------------------------------------------------------------------------------------------


 ion  position               nearest neighbor table
   1  0.000  0.000  0.000-  30 2.29  44 2.29  15 2.29  57 2.29
   2  0.000  0.000  0.500-  29 2.29  43 2.29  16 2.29  58 2.29
   3  0.000  0.500  0.000-  32 2.29  42 2.29  13 2.29  59 2.29
   4  0.000  0.500  0.500-  31 2.29  41 2.29  14 2.29  60 2.29
   5  0.500  0.000  0.000-  26 2.29  48 2.29  11 2.29  61 2.29
   6  0.500  0.000  0.500-  25 2.29  47 2.29  12 2.29  62 2.29
   7  0.500  0.500  0.000-  28 2.29  46 2.29   9 2.29  63 2.29
   8  0.500  0.500  0.500-  27 2.29  45 2.29  10 2.29  64 2.29
   9  0.375  0.375  0.125-  21 2.29  35 2.29   7 2.29  49 2.29
  10  0.375  0.375  0.625-  22 2.29  36 2.29   8 2.29  50 2.29
  11  0.375  0.875  0.125-  23 2.29  33 2.29   5 2.29  51 2.29
  12  0.375  0.875  0.625-  24 2.29  34 2.29   6 2.29  52 2.29
  13  0.875  0.375  0.125-  17 2.29  39 2.29   3 2.29  53 2.29
  14  0.875  0.375  0.625-  18 2.29  40 2.29   4 2.29  54 2.29
  15  0.875  0.875  0.125-  19 2.29  37 2.29   1 2.29  55 2.29
  16  0.875  0.875  0.625-  20 2.29  38 2.29   2 2.29  56 2.29
  17  0.000  0.250  0.250-  13 2.29  57 2.29  41 2.29  29 2.29
  18  0.000  0.250  0.750-  14 2.29  58 2.29  42 2.29  30 2.29
  19  0.000  0.750  0.250-  15 2.29  59 2.29  43 2.29  31 2.29
  20  0.000  0.750  0.750-  16 2.29  60 2.29  44 2.29  32 2.29
  21  0.500  0.250  0.250-   9 2.29  61 2.29  45 2.29  25 2.29
  22  0.500  0.250  0.750-  10 2.29  62 2.29  46 2.29  26 2.29
  23  0.500  0.750  0.250-  11 2.29  63 2.29  47 2.29  27 2.29
  24  0.500  0.750  0.750-  12 2.29  64 2.29  48 2.29  28 2.29
  25  0.375  0.125  0.375-   6 2.29  50 2.29  33 2.29  21 2.29
  26  0.375  0.125  0.875-   5 2.29  49 2.29  34 2.29  22 2.29
  27  0.375  0.625  0.375-   8 2.29  52 2.29  35 2.29  23 2.29
  28  0.375  0.625  0.875-   7 2.29  51 2.29  36 2.29  24 2.29
  29  0.875  0.125  0.375-   2 2.29  54 2.29  37 2.29  17 2.29
  30  0.875  0.125  0.875-   1 2.29  53 2.29  38 2.29  18 2.29
  31  0.875  0.625  0.375-   4 2.29  56 2.29  39 2.29  19 2.29
  32  0.875  0.625  0.875-   3 2.29  55 2.29  40 2.29  20 2.29
  33  0.250  0.000  0.250-  11 2.29  57 2.29  43 2.29  25 2.29
  34  0.250  0.000  0.750-  12 2.29  58 2.29  44 2.29  26 2.29
  35  0.250  0.500  0.250-   9 2.29  59 2.29  41 2.29  27 2.29
  36  0.250  0.500  0.750-  10 2.29  60 2.29  42 2.29  28 2.29
  37  0.750  0.000  0.250-  15 2.29  61 2.29  47 2.29  29 2.29
  38  0.750  0.000  0.750-  16 2.29  62 2.29  48 2.29  30 2.29
  39  0.750  0.500  0.250-  13 2.29  63 2.29  45 2.29  31 2.29
  40  0.750  0.500  0.750-  14 2.29  64 2.29  46 2.29  32 2.29
  41  0.125  0.375  0.375-   4 2.29  50 2.29  35 2.29  17 2.29
  42  0.125  0.375  0.875-   3 2.29  49 2.29  36 2.29  18 2.29
  43  0.125  0.875  0.375-   2 2.29  52 2.29  33 2.29  19 2.29
  44  0.125  0.875  0.875-   1 2.29  51 2.29  34 2.29  20 2.29
  45  0.625  0.375  0.375-   8 2.29  54 2.29  39 2.29  21 2.29
  46  0.625  0.375  0.875-   7 2.29  53 2.29  40 2.29  22 2.29
  47  0.625  0.875  0.375-   6 2.29  56 2.29  37 2.29  23 2.29
  48  0.625  0.875  0.875-   5 2.29  55 2.29  38 2.29  24 2.29
  49  0.250  0.250  0.000-  26 2.29  42 2.29   9 2.29  57 2.29
  50  0.250  0.250  0.500-  25 2.29  41 2.29  10 2.29  58 2.29
  51  0.250  0.750  0.000-  28 2.29  44 2.29  11 2.29  59 2.29
  52  0.250  0.750  0.500-  27 2.29  43 2.29  12 2.29  60 2.29
  53  0.750  0.250  0.000-  30 2.29  46 2.29  13 2.29  61 2.29
  54  0.750  0.250  0.500-  29 2.29  45 2.29  14 2.29  62 2.29
  55  0.750  0.750  0.000-  32 2.29  48 2.29  15 2.29  63 2.29
  56  0.750  0.750  0.500-  31 2.29  47 2.29  16 2.29  64 2.29
  57  0.125  0.125  0.125-  17 2.29  33 2.29   1 2.29  49 2.29
  58  0.125  0.125  0.625-  18 2.29  34 2.29   2 2.29  50 2.29
  59  0.125  0.625  0.125-  19 2.29  35 2.29   3 2.29  51 2.29
  60  0.125  0.625  0.625-  20 2.29  36 2.29   4 2.29  52 2.29
  61  0.625  0.125  0.125-  21 2.29  37 2.29   5 2.29  53 2.29
  62  0.625  0.125  0.625-  22 2.29  38 2.29   6 2.29  54 2.29
  63  0.625  0.625  0.125-  23 2.29  39 2.29   7 2.29  55 2.29
  64  0.625  0.625  0.625-  24 2.29  40 2.29   8 2.29  56 2.29
 
  LATTYP: Found a simple monoclinic cell.
 ALAT       =    10.5569505486
 B/A-ratio  =     0.9999968751
 C/A-ratio  =     1.0049999139
 COS(beta)  =    -0.0049874765
  
  Lattice vectors:
  
 A1 = (   0.0263920039,  10.5569175591,   0.0000000000)
 A2 = (   0.0000000000,   0.0000000000, -10.5569175591)
 A3 = ( -10.6097015668,  -0.0263920039,   0.0000000000)


Analysis of symmetry for initial positions (statically):
=====================================================================
 Subroutine PRICEL returns following result:
 
  LATTYP: Found a base centered monoclinic cell.
 ALAT       =     5.2784752743
 B/A-ratio  =     0.9999968751
 C/A-ratio  =     0.7071067812
 COS(beta)  =    -0.7035624696
  
  Lattice vectors:
  
 A1 = (   0.0065980010,   2.6392293898,  -2.6392293898)
 A2 = (   0.0065980010,   2.6392293898,   2.6392293898)
 A3 = (   2.6458273907,  -2.6326313888,   0.0000000000)
 
  32 primitive cells build up your supercell.
 

 Routine SETGRP: Setting up the symmetry group for a 
 simple monoclinic supercell.


 Subroutine GETGRP returns: Found  4 space group operations
 (whereof  2 operations were pure point group operations)
 out of a pool of  4 trial point group operations.


The static configuration has the point symmetry C_2 .
 The point group associated with its full space group is C_2h.


Analysis of symmetry for dynamics (positions and initial velocities):
=====================================================================
 Subroutine PRICEL returns following result:
 
  LATTYP: Found a base centered monoclinic cell.
 ALAT       =     5.2784752743
 B/A-ratio  =     0.9999968751
 C/A-ratio  =     0.7071067812
 COS(beta)  =    -0.7035624696
  
  Lattice vectors:
  
 A1 = (   0.0065980010,   2.6392293898,  -2.6392293898)
 A2 = (   0.0065980010,   2.6392293898,   2.6392293898)
 A3 = (   2.6458273907,  -2.6326313888,   0.0000000000)
 
  32 primitive cells build up your supercell.
 

 Routine SETGRP: Setting up the symmetry group for a 
 simple monoclinic supercell.


 Subroutine GETGRP returns: Found  4 space group operations
 (whereof  2 operations were pure point group operations)
 out of a pool of  4 trial point group operations.


The dynamic configuration has the point symmetry C_2 .
 The point group associated with its full space group is C_2h.


 Subroutine INISYM returns: Found  4 space group operations
 (whereof  2 operations are pure point group operations),
 and found    32 'primitive' translations


----------------------------------------------------------------------------------------

                                     Primitive cell                                     

  volume of cell :      36.9509

  direct lattice vectors                    reciprocal lattice vectors
     0.006598001  2.639229390 -2.639229390     0.188036624  0.188979153 -0.189449239
     0.006598001  2.639229390  2.639229390     0.188036624  0.188979153  0.189449239
     2.645827391 -2.632631389  0.000000000     0.377015777 -0.000942529  0.000000000

  length of vectors
     3.732439829  3.732439829  3.732445661     0.327050312  0.327050312  0.377016955

  position of ions in fractional coordinates (direct lattice)
     0.000000000  0.000000000  0.000000000
     0.250000000  0.750000000  0.500000000

  ion indices of the primitive-cell ions
   primitive index   ion index
                 1           1
                 2          15

----------------------------------------------------------------------------------------

 
 
 KPOINTS: Automatic mesh                          

Automatic generation of k-mesh.
 Grid dimensions read from file:
 generate k-points for:    2    2    2

 Generating k-lattice:

  Cartesian coordinates                     Fractional coordinates (reciprocal lattice)
     0.047126972 -0.000117816  0.000000000     0.500000000  0.000000000  0.000000000
    -0.000117816  0.047362604  0.000000000     0.000000000  0.500000000  0.000000000
     0.000000000  0.000000000  0.047362310     0.000000000  0.000000000  0.500000000

  Length of vectors
     0.047127119  0.047362751  0.047362310

  Shift w.r.t. Gamma in fractional coordinates (k-lattice)
     0.000000000  0.000000000  0.000000000

 
 Subroutine IBZKPT returns following result:
 ===========================================
 
 Found      8 irreducible k-points:
 
 Following reciprocal coordinates:
            Coordinates               Weight
  0.000000  0.000000  0.000000      1.000000
  0.500000 -0.000000  0.000000      1.000000
  0.000000  0.500000  0.000000      1.000000
  0.500000  0.500000  0.000000      1.000000
  0.000000  0.000000  0.500000      1.000000
  0.500000 -0.000000  0.500000      1.000000
  0.000000  0.500000  0.500000      1.000000
  0.500000  0.500000  0.500000      1.000000
 
 Following cartesian coordinates:
            Coordinates               Weight
  0.000000  0.000000  0.000000      1.000000
  0.047127 -0.000118  0.000000      1.000000
 -0.000118  0.047363  0.000000      1.000000
  0.047009  0.047245  0.000000      1.000000
  0.000000  0.000000  0.047362      1.000000
  0.047127 -0.000118  0.047362      1.000000
 -0.000118  0.047363  0.047362      1.000000
  0.047009  0.047245  0.047362      1.000000
 


--------------------------------------------------------------------------------------------------------




 Dimension of arrays:
   k-points           NKPTS =      8   k-points in BZ     NKDIM =      8   number of bands    NBANDS=    162
   number of dos      NEDOS =    301   number of ions     NIONS =     64
   non local maximal  LDIM  =      4   non local SUM 2l+1 LMDIM =      8
   total plane-waves  NPLWV = 343000
   max r-space proj   IRMAX =   3247   max aug-charges    IRDMAX=  77781
   dimension x,y,z NGX =    70 NGY =   70 NGZ =   70
   dimension x,y,z NGXF=   140 NGYF=  140 NGZF=  140
   support grid    NGXF=   280 NGYF=  280 NGZF=  280
   ions per type =              64
   NGX,Y,Z   is equivalent  to a cutoff of  10.97, 11.02, 11.02 a.u.
   NGXF,Y,Z  is equivalent  to a cutoff of  21.94, 22.05, 22.05 a.u.

 SYSTEM =  Si64                                    
 POSCAR =  Si8                                     

 Startparameter for this run:
   NWRITE =      2    write-flag & timer
   PREC   = accura    normal or accurate (medium, high low for compatibility)
   ISTART =      0    job   : 0-new  1-cont  2-samecut
   ICHARG =      2    charge: 1-file 2-atom 10-const
   ISPIN  =      1    spin polarized calculation?
   LNONCOLLINEAR =      F non collinear calculations
   LSORBIT =      F    spin-orbit coupling
   INIWAV =      1    electr: 0-lowe 1-rand  2-diag
   LASPH  =      F    aspherical Exc in radial PAW
 Electronic Relaxation 1
   ENCUT  =  400.0 eV  29.40 Ry    5.42 a.u.  17.30 17.22 17.22*2*pi/ulx,y,z
   ENINI  =  400.0     initial cutoff
   ENAUG  =  322.1 eV  augmentation charge cutoff
   NELM   =     60;   NELMIN=  8; NELMDL= -5     # of ELM steps 
   EDIFF  = 0.1E-05   stopping-criterion for ELM
   LREAL  =      T    real-space projection
   NLSPLINE    = F    spline interpolate recip. space projectors
   LCOMPAT=      F    compatible to vasp.4.4
   GGA_COMPAT  = F    GGA compatible to vasp.4.4-vasp.4.6
   LMAXPAW     = -100 max onsite density
   LMAXMIX     =    2 max onsite mixed and CHGCAR
   VOSKOWN=      0    Vosko Wilk Nusair interpolation
   ROPT   =   -0.00025
 Ionic relaxation
   EDIFFG = -.1E-01   stopping-criterion for IOM
   NSW    =     60    number of steps for IOM
   NBLOCK =      1;   KBLOCK =     60    inner block; outer block 
   IBRION =      2    ionic relax: 0-MD 1-quasi-New 2-CG
   NFREE  =      1    steps in history (QN), initial steepest desc. (CG)
   ISIF   =      2    stress and relaxation
   IWAVPR =     11    prediction:  0-non 1-charg 2-wave 3-comb
   ISYM   =      2    0-nonsym 1-usesym 2-fastsym
   LCORR  =      T    Harris-Foulkes like correction to forces

   POTIM  = 0.5000    time-step for ionic-motion
   TEIN   =    0.0    initial temperature
   TEBEG  =    0.0;   TEEND  =   0.0 temperature during run
   SMASS  =  -3.00    Nose mass-parameter (am)
   estimated Nose-frequenzy (Omega)   =  0.10E-29 period in steps = 0.13E+47 mass=  -0.257E-26a.u.
   SCALEE = 1.0000    scale energy and forces
   NPACO  =    256;   APACO  = 10.0  distance and # of slots for P.C.
   PSTRESS=    0.0 pullay stress

  Mass of Ions in am
   POMASS =  28.09
  Ionic Valenz
   ZVAL   =   4.00
  Atomic Wigner-Seitz radii
   RWIGS  =  -1.00
  virtual crystal weights 
   VCA    =   1.00
   NELECT =     256.0000    total number of electrons
   NUPDOWN=      -1.0000    fix difference up-down

 DOS related values:
   EMIN   =  10.00;   EMAX   =-10.00  energy-range for DOS
   EFERMI =   0.00;   METHOD = LEGACY      
   ISMEAR =     1;   SIGMA  =   0.20  broadening in eV -4-tet -1-fermi 0-gaus

 Electronic relaxation 2 (details)
   IALGO  =     68    algorithm
   LDIAG  =      T    sub-space diagonalisation (order eigenvalues)
   LSUBROT=      F    optimize rotation matrix (better conditioning)
   TURBO    =      0    0=normal 1=particle mesh
   IRESTART =      0    0=no restart 2=restart with 2 vectors
   NREBOOT  =      0    no. of reboots
   NMIN     =      0    reboot dimension
   EREF     =   0.00    reference energy to select bands
   IMIX   =      4    mixing-type and parameters
     AMIX     =   0.40;   BMIX     =  1.00
     AMIX_MAG =   1.60;   BMIX_MAG =  1.00
     AMIN     =   0.10
     WC   =   100.;   INIMIX=   1;  MIXPRE=   1;  MAXMIX= -45

 Intra band minimization:
   WEIMIN = 0.0010     energy-eigenvalue tresh-hold
   EBREAK =  0.15E-08  absolut break condition
   DEPER  =   0.30     relativ break condition  

   TIME   =   0.40     timestep for ELM

  volume/ion in A,a.u.               =      18.48       124.68
  Fermi-wavevector in a.u.,A,eV,Ry     =   0.983022  1.857642 13.147749  0.966332
  Thomas-Fermi vector in A             =   2.114149
 
 Write flags
   LWAVE        =      F    write WAVECAR
   LDOWNSAMPLE  =      F    k-point downsampling of WAVECAR
   LCHARG       =      F    write CHGCAR
   LVTOT        =      F    write LOCPOT, total local potential
   LVHAR        =      F    write LOCPOT, Hartree potential only
   WRT_POTENTIAL= false  ! write potential to hdf5 file
   LELF         =      F    write electronic localiz. function (ELF)
   LORBIT       =      0    0 simple, 1 ext, 2 COOP (PROOUT), +10 PAW based schemes


 Dipole corrections
   LMONO      =      F    monopole corrections only (constant potential shift)
   LDIPOL     =      F    correct potential (dipole corrections)
   IDIPOL     =      0    1-x, 2-y, 3-z, 4-all directions 
   EPSILON    =  1.0000000 bulk dielectric constant
   LVACPOTAV  =      F  vacuum potentials using an averaging scheme for the charge density
   VACPOTFLAT =  0.1000000 required flatness to determine vacuum potential
 Exchange correlation treatment:
   GGA     = PS    functional components
   XC_C    = 1    coefficients multiplying the functional components
   LIBXC   =     F    Libxc                    
   VOSKOWN =     0    Vosko Wilk Nusair interpolation
   LHFCALC =     F    Hartree Fock is set to
   LHFONE  =     F    Hartree Fock one center treatment
   AEXX    =    0.0000 exact exchange contribution

 Parameters of functionals:
   PS:
     No parameter
 
 Van der Waals corrections
   IVDW    =     0    specifies the selected vdW correction

 Linear response parameters
   LEPSILON=     F    determine dielectric tensor
   LRPA    =     F    only Hartree local field effects (RPA)
   LNABLA  =     F    use nabla operator in PAW spheres
   LVEL    =     F    velocity operator in full k-point grid
   CSHIFT  =0.1000    complex shift for real part using Kramers Kronig
   OMEGAMAX=  -1.0    maximum frequency
   DEG_THRESHOLD= 0.2000000E-02 threshold for treating states as degnerate
   RTIME   =   -0.100 relaxation time in fs
  (WPLASMAI=    0.000 imaginary part of plasma frequency in eV, 0.658/RTIME)
   DFIELD  = 0.0000000 0.0000000 0.0000000 field for delta impulse in time
 
  Optional k-point grid parameters
   LKPOINTS_OPT  =     F    use optional k-point grid
   KPOINTS_OPT_MODE=     1    mode for optional k-point grid
 
 Orbital magnetization related:
   ORBITALMAG=     F  switch on orbital magnetization
   LCHIMAG   =     F  perturbation theory with respect to B field
   DQ        =  0.001000  dq finite difference perturbation B field
   LLRAUG    =     F  two centre corrections for induced B field
   LBONE     =     F  B-component reconstruction in AE one-centre
   LVGVCALC  =     T  calculate vGv susceptibility
   LVGVAPPL  =     F  apply vGv susceptibility instead of pGv for G=0

 Random number generation:
   RANDOM_GENERATOR = DEFAULT
   PCG_SEED         = not used


--------------------------------------------------------------------------------------------------------


 conjugate gradient relaxation of ions
 charge density and potential will be updated during run
 non-spin polarized calculation
 RMM-DIIS sequential band-by-band and
  variant of blocked Davidson during initial phase
 perform sub-space diagonalisation
    before iterative eigenvector-optimisation
 modified Broyden-mixing scheme, WC =      100.0
 initial mixing is a Kerker type mixing with AMIX =  0.4000 and BMIX =      1.0000
 Hartree-type preconditioning will be used
 using additional bands           34
 real space projection scheme for non local part
 use partial core corrections
 calculate Harris-corrections to forces 
   (improved forces if not selfconsistent)
 use gradient corrections 
 use of overlap-Matrix (Vanderbilt PP)
 Methfessel and Paxton  Order N= 1 SIGMA  =   0.20


--------------------------------------------------------------------------------------------------------


  energy-cutoff  :      400.00
  volume of cell :     1182.43
      direct lattice vectors                 reciprocal lattice vectors
    10.609701567  0.026392004  0.000000000     0.094253944 -0.000235632  0.000000000
     0.026392004 10.556917559  0.000000000    -0.000235632  0.094725209  0.000000000
     0.000000000  0.000000000 10.556917559     0.000000000  0.000000000  0.094724620

  length of vectors
    10.609734392 10.556950549 10.556917559     0.094254239  0.094725502  0.094724620


 
 k-points in units of 2pi/SCALE and weight: Automatic mesh                          
   0.00000000  0.00000000  0.00000000       0.125
   0.04712698 -0.00011782  0.00000000       0.125
  -0.00011782  0.04736261  0.00000000       0.125
   0.04700916  0.04724480  0.00000000       0.125
   0.00000000  0.00000000  0.04736232       0.125
   0.04712698 -0.00011782  0.04736232       0.125
  -0.00011782  0.04736261  0.04736232       0.125
   0.04700916  0.04724480  0.04736232       0.125
 
 k-points in reciprocal lattice and weights: Automatic mesh                          
   0.00000000  0.00000000  0.00000000       0.125
   0.50000000 -0.00000000  0.00000000       0.125
   0.00000000  0.50000000  0.00000000       0.125
   0.50000000  0.50000000  0.00000000       0.125
   0.00000000  0.00000000  0.50000000       0.125
   0.50000000 -0.00000000  0.50000000       0.125
   0.00000000  0.50000000  0.50000000       0.125
   0.50000000  0.50000000  0.50000000       0.125
 
 position of ions in fractional coordinates (direct lattice) 
   0.00000000  0.00000000  0.00000000
   0.00000000  0.00000000  0.50000000
   0.00000000  0.50000000  0.00000000
   0.00000000  0.50000000  0.50000000
   0.50000000  0.00000000  0.00000000
   0.50000000  0.00000000  0.50000000
   0.50000000  0.50000000  0.00000000
   0.50000000  0.50000000  0.50000000
   0.37500000  0.37500000  0.12500000
   0.37500000  0.37500000  0.62500000
   0.37500000  0.87500000  0.12500000
   0.37500000  0.87500000  0.62500000
   0.87500000  0.37500000  0.12500000
   0.87500000  0.37500000  0.62500000
   0.87500000  0.87500000  0.12500000
   0.87500000  0.87500000  0.62500000
   0.00000000  0.25000000  0.25000000
   0.00000000  0.25000000  0.75000000
   0.00000000  0.75000000  0.25000000
   0.00000000  0.75000000  0.75000000
   0.50000000  0.25000000  0.25000000
   0.50000000  0.25000000  0.75000000
   0.50000000  0.75000000  0.25000000
   0.50000000  0.75000000  0.75000000
   0.37500000  0.12500000  0.37500000
   0.37500000  0.12500000  0.87500000
   0.37500000  0.62500000  0.37500000
   0.37500000  0.62500000  0.87500000
   0.87500000  0.12500000  0.37500000
   0.87500000  0.12500000  0.87500000
   0.87500000  0.62500000  0.37500000
   0.87500000  0.62500000  0.87500000
   0.25000000  0.00000000  0.25000000
   0.25000000  0.00000000  0.75000000
   0.25000000  0.50000000  0.25000000
   0.25000000  0.50000000  0.75000000
   0.75000000  0.00000000  0.25000000
   0.75000000  0.00000000  0.75000000
   0.75000000  0.50000000  0.25000000
   0.75000000  0.50000000  0.75000000
   0.12500000  0.37500000  0.37500000
   0.12500000  0.37500000  0.87500000
   0.12500000  0.87500000  0.37500000
   0.12500000  0.87500000  0.87500000
   0.62500000  0.37500000  0.37500000
   0.62500000  0.37500000  0.87500000
   0.62500000  0.87500000  0.37500000
   0.62500000  0.87500000  0.87500000
   0.25000000  0.25000000  0.00000000
   0.25000000  0.25000000  0.50000000
   0.25000000  0.75000000  0.00000000
   0.25000000  0.75000000  0.50000000
   0.75000000  0.25000000  0.00000000
   0.75000000  0.25000000  0.50000000
   0.75000000  0.75000000  0.00000000
   0.75000000  0.75000000  0.50000000
   0.12500000  0.12500000  0.12500000
   0.12500000  0.12500000  0.62500000
   0.12500000  0.62500000  0.12500000
   0.12500000  0.62500000  0.62500000
   0.62500000  0.12500000  0.12500000
   0.62500000  0.12500000  0.62500000
   0.62500000  0.62500000  0.12500000
   0.62500000  0.62500000  0.62500000
 
 position of ions in cartesian coordinates  (Angst):
   0.00000000  0.00000000  0.00000000
   0.00000000  0.00000000  5.27845878
   0.01319600  5.27845878  0.00000000
   0.01319600  5.27845878  5.27845878
   5.30485078  0.01319600  0.00000000
   5.30485078  0.01319600  5.27845878
   5.31804679  5.29165478  0.00000000
   5.31804679  5.29165478  5.27845878
   3.98853509  3.96874109  1.31961469
   3.98853509  3.96874109  6.59807347
   4.00173109  9.24719987  1.31961469
   4.00173109  9.24719987  6.59807347
   9.29338587  3.98193709  1.31961469
   9.29338587  3.98193709  6.59807347
   9.30658187  9.26039587  1.31961469
   9.30658187  9.26039587  6.59807347
   0.00659800  2.63922939  2.63922939
   0.00659800  2.63922939  7.91768817
   0.01979400  7.91768817  2.63922939
   0.01979400  7.91768817  7.91768817
   5.31144878  2.65242539  2.63922939
   5.31144878  2.65242539  7.91768817
   5.32464479  7.93088417  2.63922939
   5.32464479  7.93088417  7.91768817
   3.98193709  1.32951170  3.95884408
   3.98193709  1.32951170  9.23730286
   3.99513309  6.60797048  3.95884408
   3.99513309  6.60797048  9.23730286
   9.28678787  1.34270770  3.95884408
   9.28678787  1.34270770  9.23730286
   9.29998387  6.62116648  3.95884408
   9.29998387  6.62116648  9.23730286
   2.65242539  0.00659800  2.63922939
   2.65242539  0.00659800  7.91768817
   2.66562139  5.28505678  2.63922939
   2.66562139  5.28505678  7.91768817
   7.95727618  0.01979400  2.63922939
   7.95727618  0.01979400  7.91768817
   7.97047218  5.29825278  2.63922939
   7.97047218  5.29825278  7.91768817
   1.33610970  3.96214309  3.95884408
   1.33610970  3.96214309  9.23730286
   1.34930570  9.24060186  3.95884408
   1.34930570  9.24060186  9.23730286
   6.64096048  3.97533909  3.95884408
   6.64096048  3.97533909  9.23730286
   6.65415648  9.25379787  3.95884408
   6.65415648  9.25379787  9.23730286
   2.65902339  2.64582739  0.00000000
   2.65902339  2.64582739  5.27845878
   2.67221939  7.92428617  0.00000000
   2.67221939  7.92428617  5.27845878
   7.96387418  2.65902339  0.00000000
   7.96387418  2.65902339  5.27845878
   7.97707018  7.93748217  0.00000000
   7.97707018  7.93748217  5.27845878
   1.32951170  1.32291370  1.31961469
   1.32951170  1.32291370  6.59807347
   1.34270770  6.60137247  1.31961469
   1.34270770  6.60137247  6.59807347
   6.63436248  1.33610970  1.31961469
   6.63436248  1.33610970  6.59807347
   6.64755848  6.61456848  1.31961469
   6.64755848  6.61456848  6.59807347
 


--------------------------------------------------------------------------------------------------------


 k-point     1 :   0.0000 0.0000 0.0000  plane waves:   21505
 k-point     2 :   0.5000-0.0000 0.0000  plane waves:   21504
 k-point     3 :   0.0000 0.5000 0.0000  plane waves:   21498
 k-point     4 :   0.5000 0.5000 0.0000  plane waves:   21434
 k-point     5 :   0.0000 0.0000 0.5000  plane waves:   21486
 k-point     6 :   0.5000-0.0000 0.5000  plane waves:   21448
 k-point     7 :   0.0000 0.5000 0.5000  plane waves:   21464
 k-point     8 :   0.5000 0.5000 0.5000  plane waves:   21532

 maximum and minimum number of plane-waves per node :      1826     1768

 maximum number of plane-waves:     21532
 maximum index in each direction: 
   IXMAX=   17   IYMAX=   17   IZMAX=   17
   IXMIN=  -17   IYMIN=  -17   IZMIN=  -17


 real space projection operators:
  total allocation   :      12442.50 KBytes
  max/ min on nodes  :       1083.00        901.75


 parallel 3D FFT for wavefunctions:
    minimum data exchange during FFTs selected (reduces bandwidth)
 parallel 3D FFT for charge:
    minimum data exchange during FFTs selected (reduces bandwidth)


 total amount of memory used by VASP MPI-rank0    78943. kBytes
=======================================================================

   base      :      30000. kBytes
   nonlr-proj:       4810. kBytes
   fftplans  :      17991. kBytes
   grid      :       6881. kBytes
   one-center:         18. kBytes
   wavefun   :      19243. kBytes
 
     INWAV:  cpu time      0.0000: real time      0.0000
 Broyden mixing: mesh for mixing (old mesh)
   NGX = 35   NGY = 35   NGZ = 35
  (NGX  =140   NGY  =140   NGZ  =140)
  gives a total of  42875 points

 initial charge density was supplied:
 charge density of overlapping atoms calculated
 number of electron     256.0000000 magnetization 
 keeping initial charge density in first step


--------------------------------------------------------------------------------------------------------


 Maximum index for non-local projection operator          292
 Maximum index for augmentation-charges         3853 (set IRDMAX)


--------------------------------------------------------------------------------------------------------


 First call to EWALD:  gamma=   0.168
 Maximum number of real-space cells 3x 3x 3
 Maximum number of reciprocal cells 3x 3x 3

    FEWALD:  cpu time      0.0041: real time      0.0042


--------------------------------------- Ionic step        1  -------------------------------------------




--------------------------------------- Iteration      1(   1)  ---------------------------------------


    POTLOK:  cpu time      0.0823: real time      0.0847
    SETDIJ:  cpu time      0.0801: real time      0.0804
     EDDAV:  cpu time      1.2377: real time      1.2728
       DOS:  cpu time      0.0040: real time      0.0043
    --------------------------------------------
      LOOP:  cpu time      1.4042: real time      1.4422

 eigenvalue-minimisations  :  2592
 total energy-change (2. order) : 0.5752768E+03  (-0.8526548E+04)
 number of electron     256.0000000 magnetization 
 augmentation part      256.0000000 magnetization 

 Free energy of the ion-electron system (eV)
  ---------------------------------------------------
  alpha Z        PSCENC =       116.61105515
  Ewald energy   TEWEN  =     -7511.52614914
  -Hartree energ DENC   =      -314.71160200
  -exchange      EXHF   =         0.00000000
  -V(xc)+E(xc)   XCENC  =      -548.99172241
  PAW double counting   =      5598.62625415    -4492.17844134
  entropy T*S    EENTRO =        -0.00906524
  eigenvalues    EBANDS =      1162.66059982
  atomic energy  EATOM  =      6564.79586099
  Solvation  Ediel_sol  =         0.00000000
  ---------------------------------------------------
  free energy    TOTEN  =       575.27678999 eV

  energy without entropy =      575.28585523  energy(sigma->0) =      575.27981174


--------------------------------------------------------------------------------------------------------




--------------------------------------- Iteration      1(   2)  ---------------------------------------


     EDDAV:  cpu time      1.3162: real time      1.3327
       DOS:  cpu time      0.0015: real time      0.0015
    --------------------------------------------
      LOOP:  cpu time      1.3177: real time      1.3342

 eigenvalue-minimisations  :  3098
 total energy-change (2. order) :-0.8851875E+03  (-0.8387840E+03)
 number of electron     256.0000000 magnetization 
 augmentation part      256.0000000 magnetization 

 Free energy of the ion-electron system (eV)
  ---------------------------------------------------
  alpha Z        PSCENC =       116.61105515
  Ewald energy   TEWEN  =     -7511.52614914
  -Hartree energ DENC   =      -314.71160200
  -exchange      EXHF   =         0.00000000
  -V(xc)+E(xc)   XCENC  =      -548.99172241
  PAW double counting   =      5598.62625415    -4492.17844134
  entropy T*S    EENTRO =         0.00583278
  eigenvalues    EBANDS =       277.45815728
  atomic energy  EATOM  =      6564.79586099
  Solvation  Ediel_sol  =         0.00000000
  ---------------------------------------------------
  free energy    TOTEN  =      -309.91075453 eV

  energy without entropy =     -309.91658731  energy(sigma->0) =     -309.91269879


--------------------------------------------------------------------------------------------------------




--------------------------------------- Iteration      1(   3)  ---------------------------------------


     EDDAV:  cpu time      1.3349: real time      1.3502
       DOS:  cpu time      0.0019: real time      0.0019
    --------------------------------------------
      LOOP:  cpu time      1.3367: real time      1.3520

 eigenvalue-minimisations  :  3144
 total energy-change (2. order) :-0.6220389E+02  (-0.6098765E+02)
 number of electron     256.0000000 magnetization 
 augmentation part      256.0000000 magnetization 

 Free energy of the ion-electron system (eV)
  ---------------------------------------------------
  alpha Z        PSCENC =       116.61105515
  Ewald energy   TEWEN  =     -7511.52614914
  -Hartree energ DENC   =      -314.71160200
  -exchange      EXHF   =         0.00000000
  -V(xc)+E(xc)   XCENC  =      -548.99172241
  PAW double counting   =      5598.62625415    -4492.17844134
  entropy T*S    EENTRO =         0.00745381
  eigenvalues    EBANDS =       215.25264665
  atomic energy  EATOM  =      6564.79586099
  Solvation  Ediel_sol  =         0.00000000
  ---------------------------------------------------
  free energy    TOTEN  =      -372.11464413 eV

  energy without entropy =     -372.12209794  energy(sigma->0) =     -372.11712873


--------------------------------------------------------------------------------------------------------




--------------------------------------- Iteration      1(   4)  ---------------------------------------


     EDDAV:  cpu time      1.3113: real time      1.3287
       DOS:  cpu time      0.0013: real time      0.0013
    --------------------------------------------
      LOOP:  cpu time      1.3126: real time      1.3300

 eigenvalue-minimisations  :  3136
 total energy-change (2. order) :-0.1581376E+01  (-0.1569705E+01)
 number of electron     256.0000000 magnetization 
 augmentation part      256.0000000 magnetization 

 Free energy of the ion-electron system (eV)
  ---------------------------------------------------
  alpha Z        PSCENC =       116.61105515
  Ewald energy   TEWEN  =     -7511.52614914
  -Hartree energ DENC   =      -314.71160200
  -exchange      EXHF   =         0.00000000
  -V(xc)+E(xc)   XCENC  =      -548.99172241
  PAW double counting   =      5598.62625415    -4492.17844134
  entropy T*S    EENTRO =         0.00797181
  eigenvalues    EBANDS =       213.67075238
  atomic energy  EATOM  =      6564.79586099
  Solvation  Ediel_sol  =         0.00000000
  ---------------------------------------------------
  free energy    TOTEN  =      -373.69602040 eV

  energy without entropy =     -373.70399221  energy(sigma->0) =     -373.69867767


--------------------------------------------------------------------------------------------------------




--------------------------------------- Iteration      1(   5)  ---------------------------------------


     EDDAV:  cpu time      1.3703: real time      1.3896
       DOS:  cpu time      0.0013: real time      0.0013
    CHARGE:  cpu time      0.2466: real time      0.2476
    MIXING:  cpu time      0.0053: real time      0.0053
    --------------------------------------------
      LOOP:  cpu time      1.6236: real time      1.6440

 eigenvalue-minimisations  :  3100
 total energy-change (2. order) :-0.4689199E-01  (-0.4680898E-01)
 number of electron     255.9999996 magnetization 
 augmentation part      -15.1611017 magnetization 

 Broyden mixing:
  rms(total) = 0.31210E+01    rms(broyden)= 0.31210E+01
  rms(prec ) = 0.34345E+01
  weight for this iteration     100.00

 Free energy of the ion-electron system (eV)
  ---------------------------------------------------
  alpha Z        PSCENC =       116.61105515
  Ewald energy   TEWEN  =     -7511.52614914
  -Hartree energ DENC   =      -314.71160200
  -exchange      EXHF   =         0.00000000
  -V(xc)+E(xc)   XCENC  =      -548.99172241
  PAW double counting   =      5598.62625415    -4492.17844134
  entropy T*S    EENTRO =         0.00795408
  eigenvalues    EBANDS =       213.62387812
  atomic energy  EATOM  =      6564.79586099
  Solvation  Ediel_sol  =         0.00000000
  ---------------------------------------------------
  free energy    TOTEN  =      -373.74291239 eV

  energy without entropy =     -373.75086648  energy(sigma->0) =     -373.74556375


--------------------------------------------------------------------------------------------------------




--------------------------------------- Iteration      1(   6)  ---------------------------------------


    POTLOK:  cpu time      0.0874: real time      0.0960
    SETDIJ:  cpu time      0.0701: real time      0.0702
    EDDIAG:  cpu time      0.1348: real time      0.1352
  RMM-DIIS:  cpu time      0.6873: real time      0.6894
    ORTHCH:  cpu time      0.0200: real time      0.0201
       DOS:  cpu time      0.0016: real time      0.0016
    CHARGE:  cpu time      0.2401: real time      0.2411
    MIXING:  cpu time      0.0044: real time      0.0044
    --------------------------------------------
      LOOP:  cpu time      1.2456: real time      1.2580

 eigenvalue-minimisations  :  2592
 total energy-change (2. order) : 0.6273562E+01  (-0.3318711E+00)
 number of electron     255.9999996 magnetization 
 augmentation part      -14.9682163 magnetization 

 Broyden mixing:
  rms(total) = 0.18850E+01    rms(broyden)= 0.18850E+01
  rms(prec ) = 0.20597E+01
  weight for this iteration     100.00

 eigenvalues of (default mixing * dielectric matrix)
  average eigenvalue GAMMA=   2.5184
  2.5184

 Free energy of the ion-electron system (eV)
  ---------------------------------------------------
  alpha Z        PSCENC =       116.61105515
  Ewald energy   TEWEN  =     -7511.52614914
  -Hartree energ DENC   =      -364.92714484
  -exchange      EXHF   =         0.00000000
  -V(xc)+E(xc)   XCENC  =      -541.02393514
  PAW double counting   =     13519.82164624   -12417.54881439
  entropy T*S    EENTRO =         0.02150211
  eigenvalues    EBANDS =       266.30662879
  atomic energy  EATOM  =      6564.79586099
  Solvation  Ediel_sol  =         0.00000000
  ---------------------------------------------------
  free energy    TOTEN  =      -367.46935023 eV

  energy without entropy =     -367.49085233  energy(sigma->0) =     -367.47651760


--------------------------------------------------------------------------------------------------------




--------------------------------------- Iteration      1(   7)  ---------------------------------------


    POTLOK:  cpu time      0.0763: real time      0.0859
    SETDIJ:  cpu time      0.0716: real time      0.0718
    EDDIAG:  cpu time      0.1326: real time      0.1330
  RMM-DIIS:  cpu time      0.7073: real time      0.7091
    ORTHCH:  cpu time      0.0208: real time      0.0209
       DOS:  cpu time      0.0012: real time      0.0012
    CHARGE:  cpu time      0.2406: real time      0.2412
    MIXING:  cpu time      0.0043: real time      0.0043
    --------------------------------------------
      LOOP:  cpu time      1.2548: real time      1.2673

 eigenvalue-minimisations  :  2657
 total energy-change (2. order) : 0.2699766E+01  (-0.8356215E+00)
 number of electron     255.9999996 magnetization 
 augmentation part      -14.6953029 magnetization 

 Broyden mixing:
  rms(total) = 0.12280E+00    rms(broyden)= 0.12280E+00
  rms(prec ) = 0.15359E+00
  weight for this iteration     100.00

 eigenvalues of (default mixing * dielectric matrix)
  average eigenvalue GAMMA=   2.3057
  2.3057  2.3057

 Free energy of the ion-electron system (eV)
  ---------------------------------------------------
  alpha Z        PSCENC =       116.61105515
  Ewald energy   TEWEN  =     -7511.52614914
  -Hartree energ DENC   =      -447.50177656
  -exchange      EXHF   =         0.00000000
  -V(xc)+E(xc)   XCENC  =      -527.32937802
  PAW double counting   =     33316.40033787   -32220.01532495
  entropy T*S    EENTRO =         0.02589710
  eigenvalues    EBANDS =       343.76989331
  atomic energy  EATOM  =      6564.79586099
  Solvation  Ediel_sol  =         0.00000000
  ---------------------------------------------------
  free energy    TOTEN  =      -364.76958425 eV

  energy without entropy =     -364.79548134  energy(sigma->0) =     -364.77821661


--------------------------------------------------------------------------------------------------------




--------------------------------------- Iteration      1(   8)  ---------------------------------------


    POTLOK:  cpu time      0.0740: real time      0.0878
    SETDIJ:  cpu time      0.0734: real time      0.0736
    EDDIAG:  cpu time      0.1371: real time      0.1374
  RMM-DIIS:  cpu time      0.6996: real time      0.7014
    ORTHCH:  cpu time      0.0219: real time      0.0220
       DOS:  cpu time      0.0018: real time      0.0018
    CHARGE:  cpu time      0.2406: real time      0.2412
    MIXING:  cpu time      0.0042: real time      0.0042
    --------------------------------------------
      LOOP:  cpu time      1.2528: real time      1.2694

 eigenvalue-minimisations  :  2610
 total energy-change (2. order) :-0.3127901E-01  (-0.7557738E-01)
 number of electron     255.9999996 magnetization 
 augmentation part      -14.7559620 magnetization 

 Broyden mixing:
  rms(total) = 0.54832E-01    rms(broyden)= 0.54832E-01
  rms(prec ) = 0.58823E-01
  weight for this iteration     100.00

 eigenvalues of (default mixing * dielectric matrix)
  average eigenvalue GAMMA=   2.0975
  2.5587  1.8669  1.8669

 Free energy of the ion-electron system (eV)
  ---------------------------------------------------
  alpha Z        PSCENC =       116.61105515
  Ewald energy   TEWEN  =     -7511.52614914
  -Hartree energ DENC   =      -437.88258263
  -exchange      EXHF   =         0.00000000
  -V(xc)+E(xc)   XCENC  =      -528.13866528
  PAW double counting   =     33152.81445998   -32055.29248210
  entropy T*S    EENTRO =         0.03141025
  eigenvalues    EBANDS =       333.78622951
  atomic energy  EATOM  =      6564.79586099
  Solvation  Ediel_sol  =         0.00000000
  ---------------------------------------------------
  free energy    TOTEN  =      -364.80086325 eV

  energy without entropy =     -364.83227350  energy(sigma->0) =     -364.81133334


--------------------------------------------------------------------------------------------------------




--------------------------------------- Iteration      1(   9)  ---------------------------------------


    POTLOK:  cpu time      0.0699: real time      0.0867
    SETDIJ:  cpu time      0.0756: real time      0.0774
    EDDIAG:  cpu time      0.1332: real time      0.1362
  RMM-DIIS:  cpu time      0.6857: real time      0.7075
    ORTHCH:  cpu time      0.0204: real time      0.0211
       DOS:  cpu time      0.0012: real time      0.0012
    CHARGE:  cpu time      0.2386: real time      0.2418
    MIXING:  cpu time      0.0041: real time      0.0041
    --------------------------------------------
      LOOP:  cpu time      1.2287: real time      1.2760

 eigenvalue-minimisations  :  2671
 total energy-change (2. order) :-0.2406024E-01  (-0.2330292E-01)
 number of electron     255.9999996 magnetization 
 augmentation part      -14.7397653 magnetization 

 Broyden mixing:
  rms(total) = 0.61821E-01    rms(broyden)= 0.61821E-01
  rms(prec ) = 0.70781E-01
  weight for this iteration     100.00

 eigenvalues of (default mixing * dielectric matrix)
  average eigenvalue GAMMA=   2.0008
  2.5451  2.4907  2.4907  0.4766

 Free energy of the ion-electron system (eV)
  ---------------------------------------------------
  alpha Z        PSCENC =       116.61105515
  Ewald energy   TEWEN  =     -7511.52614914
  -Hartree energ DENC   =      -441.54374098
  -exchange      EXHF   =         0.00000000
  -V(xc)+E(xc)   XCENC  =      -527.65608976
  PAW double counting   =     33599.24136927   -32502.04716576
  entropy T*S    EENTRO =         0.03022558
  eigenvalues    EBANDS =       337.26971116
  atomic energy  EATOM  =      6564.79586099
  Solvation  Ediel_sol  =         0.00000000
  ---------------------------------------------------
  free energy    TOTEN  =      -364.82492349 eV

  energy without entropy =     -364.85514907  energy(sigma->0) =     -364.83499869


--------------------------------------------------------------------------------------------------------




--------------------------------------- Iteration      1(  10)  ---------------------------------------


    POTLOK:  cpu time      0.0762: real time      0.0931
    SETDIJ:  cpu time      0.0693: real time      0.0695
    EDDIAG:  cpu time      0.1323: real time      0.1326
  RMM-DIIS:  cpu time      0.7143: real time      0.7164
    ORTHCH:  cpu time      0.0204: real time      0.0205
       DOS:  cpu time      0.0014: real time      0.0015
    CHARGE:  cpu time      0.2399: real time      0.2405
    MIXING:  cpu time      0.0042: real time      0.0042
    --------------------------------------------
      LOOP:  cpu time      1.2580: real time      1.2782

 eigenvalue-minimisations  :  2727
 total energy-change (2. order) :-0.4474176E-02  (-0.4128622E-02)
 number of electron     255.9999996 magnetization 
 augmentation part      -14.7459990 magnetization 

 Broyden mixing:
  rms(total) = 0.81178E-01    rms(broyden)= 0.81178E-01
  rms(prec ) = 0.89196E-01
  weight for this iteration     100.00

 eigenvalues of (default mixing * dielectric matrix)
  average eigenvalue GAMMA=   1.5533
  2.6329  2.0412  2.0412  0.6168  0.4343

 Free energy of the ion-electron system (eV)
  ---------------------------------------------------
  alpha Z        PSCENC =       116.61105515
  Ewald energy   TEWEN  =     -7511.52614914
  -Hartree energ DENC   =      -441.65051162
  -exchange      EXHF   =         0.00000000
  -V(xc)+E(xc)   XCENC  =      -527.64458486
  PAW double counting   =     33624.85157526   -32527.66217568
  entropy T*S    EENTRO =         0.03016534
  eigenvalues    EBANDS =       337.36536688
  atomic energy  EATOM  =      6564.79586099
  Solvation  Ediel_sol  =         0.00000000
  ---------------------------------------------------
  free energy    TOTEN  =      -364.82939767 eV

  energy without entropy =     -364.85956301  energy(sigma->0) =     -364.83945278


--------------------------------------------------------------------------------------------------------




--------------------------------------- Iteration      1(  11)  ---------------------------------------


    POTLOK:  cpu time      0.0842: real time      0.0931
    SETDIJ:  cpu time      0.0707: real time      0.0708
    EDDIAG:  cpu time      0.1320: real time      0.1323
  RMM-DIIS:  cpu time      0.6871: real time      0.6888
    ORTHCH:  cpu time      0.0207: real time      0.0208
       DOS:  cpu time      0.0012: real time      0.0012
    CHARGE:  cpu time      0.2396: real time      0.2401
    MIXING:  cpu time      0.0042: real time      0.0042
    --------------------------------------------
      LOOP:  cpu time      1.2396: real time      1.2514

 eigenvalue-minimisations  :  2592
 total energy-change (2. order) : 0.4909699E-02  (-0.1402683E-02)
 number of electron     255.9999996 magnetization 
 augmentation part      -14.7611363 magnetization 

 Broyden mixing:
  rms(total) = 0.68967E-01    rms(broyden)= 0.68967E-01
  rms(prec ) = 0.69640E-01
  weight for this iteration     100.00

 eigenvalues of (default mixing * dielectric matrix)
  average eigenvalue GAMMA=   1.3982
  2.5144  2.5144  1.5237  0.7892  0.7892  0.2587

 Free energy of the ion-electron system (eV)
  ---------------------------------------------------
  alpha Z        PSCENC =       116.61105515
  Ewald energy   TEWEN  =     -7511.52614914
  -Hartree energ DENC   =      -438.84315793
  -exchange      EXHF   =         0.00000000
  -V(xc)+E(xc)   XCENC  =      -527.86103496
  PAW double counting   =     33582.06449408   -32484.59188898
  entropy T*S    EENTRO =         0.03148458
  eigenvalues    EBANDS =       334.49484824
  atomic energy  EATOM  =      6564.79586099
  Solvation  Ediel_sol  =         0.00000000
  ---------------------------------------------------
  free energy    TOTEN  =      -364.82448797 eV

  energy without entropy =     -364.85597255  energy(sigma->0) =     -364.83498283


--------------------------------------------------------------------------------------------------------




--------------------------------------- Iteration      1(  12)  ---------------------------------------


    POTLOK:  cpu time      0.0743: real time      0.0892
    SETDIJ:  cpu time      0.0737: real time      0.0739
    EDDIAG:  cpu time      0.1305: real time      0.1308
  RMM-DIIS:  cpu time      0.6897: real time      0.6914
    ORTHCH:  cpu time      0.0212: real time      0.0213
       DOS:  cpu time      0.0014: real time      0.0014
    CHARGE:  cpu time      0.2399: real time      0.2405
    MIXING:  cpu time      0.0042: real time      0.0042
    --------------------------------------------
      LOOP:  cpu time      1.2349: real time      1.2527

 eigenvalue-minimisations  :  2618
 total energy-change (2. order) :-0.1540551E-03  (-0.1936953E-03)
 number of electron     255.9999996 magnetization 
 augmentation part      -14.7642454 magnetization 

 Broyden mixing:
  rms(total) = 0.69670E-01    rms(broyden)= 0.69670E-01
  rms(prec ) = 0.70152E-01
  weight for this iteration     100.00

 eigenvalues of (default mixing * dielectric matrix)
  average eigenvalue GAMMA=   1.3321
  2.5261  2.5261  1.5951  0.9043  0.9043  0.3202  0.5486

 Free energy of the ion-electron system (eV)
  ---------------------------------------------------
  alpha Z        PSCENC =       116.61105515
  Ewald energy   TEWEN  =     -7511.52614914
  -Hartree energ DENC   =      -438.69606841
  -exchange      EXHF   =         0.00000000
  -V(xc)+E(xc)   XCENC  =      -527.88638993
  PAW double counting   =     33504.91504036   -32407.45122109
  entropy T*S    EENTRO =         0.03151493
  eigenvalues    EBANDS =       334.38171511
  atomic energy  EATOM  =      6564.79586099
  Solvation  Ediel_sol  =         0.00000000
  ---------------------------------------------------
  free energy    TOTEN  =      -364.82464203 eV

  energy without entropy =     -364.85615696  energy(sigma->0) =     -364.83514700


--------------------------------------------------------------------------------------------------------




--------------------------------------- Iteration      1(  13)  ---------------------------------------


    POTLOK:  cpu time      0.0890: real time      0.0971
    SETDIJ:  cpu time      0.0724: real time      0.0726
    EDDIAG:  cpu time      0.1310: real time      0.1314
  RMM-DIIS:  cpu time      0.7238: real time      0.7256
    ORTHCH:  cpu time      0.0207: real time      0.0207
       DOS:  cpu time      0.0012: real time      0.0012
    CHARGE:  cpu time      0.2399: real time      0.2405
    MIXING:  cpu time      0.0044: real time      0.0044
    --------------------------------------------
      LOOP:  cpu time      1.2824: real time      1.2935

 eigenvalue-minimisations  :  2733
 total energy-change (2. order) :-0.6946016E-04  (-0.3646996E-04)
 number of electron     255.9999996 magnetization 
 augmentation part      -14.7648342 magnetization 

 Broyden mixing:
  rms(total) = 0.76001E-01    rms(broyden)= 0.76001E-01
  rms(prec ) = 0.76436E-01
  weight for this iteration     100.00

 eigenvalues of (default mixing * dielectric matrix)
  average eigenvalue GAMMA=   1.7413
  3.1592  3.1592  2.4649  2.0638  0.9994  0.8721  0.8721  0.3400

 Free energy of the ion-electron system (eV)
  ---------------------------------------------------
  alpha Z        PSCENC =       116.61105515
  Ewald energy   TEWEN  =     -7511.52614914
  -Hartree energ DENC   =      -438.72213243
  -exchange      EXHF   =         0.00000000
  -V(xc)+E(xc)   XCENC  =      -527.87833266
  PAW double counting   =     33554.94201967   -32457.47950981
  entropy T*S    EENTRO =         0.03151691
  eigenvalues    EBANDS =       334.40095983
  atomic energy  EATOM  =      6564.79586099
  Solvation  Ediel_sol  =         0.00000000
  ---------------------------------------------------
  free energy    TOTEN  =      -364.82471149 eV

  energy without entropy =     -364.85622839  energy(sigma->0) =     -364.83521712


--------------------------------------------------------------------------------------------------------




--------------------------------------- Iteration      1(  14)  ---------------------------------------


    POTLOK:  cpu time      0.0742: real time      0.0887
    SETDIJ:  cpu time      0.0778: real time      0.0780
    EDDIAG:  cpu time      0.1309: real time      0.1312
  RMM-DIIS:  cpu time      0.6847: real time      0.6867
    ORTHCH:  cpu time      0.0207: real time      0.0208
       DOS:  cpu time      0.0013: real time      0.0013
    CHARGE:  cpu time      0.2391: real time      0.2397
    MIXING:  cpu time      0.0043: real time      0.0043
    --------------------------------------------
      LOOP:  cpu time      1.2330: real time      1.2507

 eigenvalue-minimisations  :  2592
 total energy-change (2. order) : 0.8368877E-04  (-0.1167095E-04)
 number of electron     255.9999996 magnetization 
 augmentation part      -14.7652915 magnetization 

 Broyden mixing:
  rms(total) = 0.34296E-01    rms(broyden)= 0.34296E-01
  rms(prec ) = 0.34887E-01
  weight for this iteration     100.00

 eigenvalues of (default mixing * dielectric matrix)
  average eigenvalue GAMMA=   1.4845
  2.6019  2.5147  2.5147  1.8044  0.9744  0.9744  0.8712  0.7620  0.3428

 Free energy of the ion-electron system (eV)
  ---------------------------------------------------
  alpha Z        PSCENC =       116.61105515
  Ewald energy   TEWEN  =     -7511.52614914
  -Hartree energ DENC   =      -438.41736925
  -exchange      EXHF   =         0.00000000
  -V(xc)+E(xc)   XCENC  =      -527.93872136
  PAW double counting   =     33145.96317503   -32048.53216322
  entropy T*S    EENTRO =         0.03155735
  eigenvalues    EBANDS =       334.18812664
  atomic energy  EATOM  =      6564.79586099
  Solvation  Ediel_sol  =         0.00000000
  ---------------------------------------------------
  free energy    TOTEN  =      -364.82462780 eV

  energy without entropy =     -364.85618515  energy(sigma->0) =     -364.83514691


--------------------------------------------------------------------------------------------------------




--------------------------------------- Iteration      1(  15)  ---------------------------------------


    POTLOK:  cpu time      0.0796: real time      0.0938
    SETDIJ:  cpu time      0.0709: real time      0.0711
    EDDIAG:  cpu time      0.1324: real time      0.1327
  RMM-DIIS:  cpu time      0.6951: real time      0.6968
    ORTHCH:  cpu time      0.0207: real time      0.0207
       DOS:  cpu time      0.0013: real time      0.0013
    CHARGE:  cpu time      0.2401: real time      0.2407
    MIXING:  cpu time      0.0045: real time      0.0045
    --------------------------------------------
      LOOP:  cpu time      1.2445: real time      1.2616

 eigenvalue-minimisations  :  2615
 total energy-change (2. order) :-0.1517029E-03  (-0.5769438E-05)
 number of electron     255.9999996 magnetization 
 augmentation part      -14.7656630 magnetization 

 Broyden mixing:
  rms(total) = 0.34271E-01    rms(broyden)= 0.34271E-01
  rms(prec ) = 0.34636E-01
  weight for this iteration     100.00

 eigenvalues of (default mixing * dielectric matrix)
  average eigenvalue GAMMA=   1.4024
  2.5749  2.5749  2.4659  1.6286  0.9912  0.9912  0.8730  0.7918  0.7918  0.3405

 Free energy of the ion-electron system (eV)
  ---------------------------------------------------
  alpha Z        PSCENC =       116.61105515
  Ewald energy   TEWEN  =     -7511.52614914
  -Hartree energ DENC   =      -438.44551264
  -exchange      EXHF   =         0.00000000
  -V(xc)+E(xc)   XCENC  =      -527.92097553
  PAW double counting   =     33225.72009443   -32128.28167662
  entropy T*S    EENTRO =         0.03159975
  eigenvalues    EBANDS =       334.19092411
  atomic energy  EATOM  =      6564.79586099
  Solvation  Ediel_sol  =         0.00000000
  ---------------------------------------------------
  free energy    TOTEN  =      -364.82477950 eV

  energy without entropy =     -364.85637925  energy(sigma->0) =     -364.83531275


--------------------------------------------------------------------------------------------------------




--------------------------------------- Iteration      1(  16)  ---------------------------------------


    POTLOK:  cpu time      0.0811: real time      0.0956
    SETDIJ:  cpu time      0.0705: real time      0.0707
    EDDIAG:  cpu time      0.1312: real time      0.1316
  RMM-DIIS:  cpu time      0.7010: real time      0.7027
    ORTHCH:  cpu time      0.0206: real time      0.0207
       DOS:  cpu time      0.0066: real time      0.0066
    CHARGE:  cpu time      0.2423: real time      0.2429
    MIXING:  cpu time      0.0047: real time      0.0047
    --------------------------------------------
      LOOP:  cpu time      1.2580: real time      1.2756

 eigenvalue-minimisations  :  2592
 total energy-change (2. order) :-0.8680192E-04  (-0.3282262E-05)
 number of electron     255.9999996 magnetization 
 augmentation part      -14.7651398 magnetization 

 Broyden mixing:
  rms(total) = 0.30617E-01    rms(broyden)= 0.30617E-01
  rms(prec ) = 0.30813E-01
  weight for this iteration     100.00

 eigenvalues of (default mixing * dielectric matrix)
  average eigenvalue GAMMA=   1.5260
  2.7051  2.7051  2.3559  2.3559  1.3094  1.3094  0.9580  0.9580  0.8940  0.8940
  0.3412

 Free energy of the ion-electron system (eV)
  ---------------------------------------------------
  alpha Z        PSCENC =       116.61105515
  Ewald energy   TEWEN  =     -7511.52614914
  -Hartree energ DENC   =      -438.62992008
  -exchange      EXHF   =         0.00000000
  -V(xc)+E(xc)   XCENC  =      -527.89934422
  PAW double counting   =     33268.19917121   -32170.76252854
  entropy T*S    EENTRO =         0.03158647
  eigenvalues    EBANDS =       334.35540186
  atomic energy  EATOM  =      6564.79586099
  Solvation  Ediel_sol  =         0.00000000
  ---------------------------------------------------
  free energy    TOTEN  =      -364.82486630 eV

  energy without entropy =     -364.85645277  energy(sigma->0) =     -364.83539512


--------------------------------------------------------------------------------------------------------




--------------------------------------- Iteration      1(  17)  ---------------------------------------


    POTLOK:  cpu time      0.0767: real time      0.0897
    SETDIJ:  cpu time      0.0750: real time      0.0752
    EDDIAG:  cpu time      0.1339: real time      0.1342
  RMM-DIIS:  cpu time      0.7270: real time      0.7288
    ORTHCH:  cpu time      0.0212: real time      0.0212
       DOS:  cpu time      0.0014: real time      0.0015
    CHARGE:  cpu time      0.2413: real time      0.2419
    MIXING:  cpu time      0.0053: real time      0.0053
    --------------------------------------------
      LOOP:  cpu time      1.2818: real time      1.2979

 eigenvalue-minimisations  :  2592
 total energy-change (2. order) :-0.2838069E-04  (-0.1385274E-05)
 number of electron     255.9999996 magnetization 
 augmentation part      -14.7649786 magnetization 

 Broyden mixing:
  rms(total) = 0.10741E-01    rms(broyden)= 0.10741E-01
  rms(prec ) = 0.10857E-01
  weight for this iteration     100.00

 eigenvalues of (default mixing * dielectric matrix)
  average eigenvalue GAMMA=   1.6551
  2.9861  2.9861  1.9413  1.9413  2.5227  2.2144  0.9836  0.9836  1.0374  1.0374
  0.8865  0.3412

 Free energy of the ion-electron system (eV)
  ---------------------------------------------------
  alpha Z        PSCENC =       116.61105515
  Ewald energy   TEWEN  =     -7511.52614914
  -Hartree energ DENC   =      -438.63248802
  -exchange      EXHF   =         0.00000000
  -V(xc)+E(xc)   XCENC  =      -527.91070479
  PAW double counting   =     33138.90387892   -32041.46878671
  entropy T*S    EENTRO =         0.03160504
  eigenvalues    EBANDS =       334.37083387
  atomic energy  EATOM  =      6564.79586099
  Solvation  Ediel_sol  =         0.00000000
  ---------------------------------------------------
  free energy    TOTEN  =      -364.82489468 eV

  energy without entropy =     -364.85649972  energy(sigma->0) =     -364.83542970


--------------------------------------------------------------------------------------------------------




--------------------------------------- Iteration      1(  18)  ---------------------------------------


    POTLOK:  cpu time      0.0767: real time      0.0905
    SETDIJ:  cpu time      0.0720: real time      0.0722
    EDDIAG:  cpu time      0.1335: real time      0.1338
  RMM-DIIS:  cpu time      0.6770: real time      0.6790
    ORTHCH:  cpu time      0.0212: real time      0.0212
       DOS:  cpu time      0.0015: real time      0.0015
    CHARGE:  cpu time      0.2399: real time      0.2405
    MIXING:  cpu time      0.0047: real time      0.0047
    --------------------------------------------
      LOOP:  cpu time      1.2265: real time      1.2434

 eigenvalue-minimisations  :  2521
 total energy-change (2. order) :-0.1224824E-04  (-0.7758632E-06)
 number of electron     255.9999996 magnetization 
 augmentation part      -14.7647659 magnetization 

 Broyden mixing:
  rms(total) = 0.20843E-02    rms(broyden)= 0.20842E-02
  rms(prec ) = 0.21326E-02
  weight for this iteration     100.00

 eigenvalues of (default mixing * dielectric matrix)
  average eigenvalue GAMMA=   1.5386
  2.9443  2.9443  1.8312  1.8312  2.5159  2.2302  0.9711  0.9711  1.0345  1.0345
  0.8862  0.3412  0.4660

 Free energy of the ion-electron system (eV)
  ---------------------------------------------------
  alpha Z        PSCENC =       116.61105515
  Ewald energy   TEWEN  =     -7511.52614914
  -Hartree energ DENC   =      -438.66243991
  -exchange      EXHF   =         0.00000000
  -V(xc)+E(xc)   XCENC  =      -527.91076297
  PAW double counting   =     33100.07786429   -32002.64306428
  entropy T*S    EENTRO =         0.03161522
  eigenvalues    EBANDS =       334.40111372
  atomic energy  EATOM  =      6564.79586099
  Solvation  Ediel_sol  =         0.00000000
  ---------------------------------------------------
  free energy    TOTEN  =      -364.82490693 eV

  energy without entropy =     -364.85652215  energy(sigma->0) =     -364.83544534


--------------------------------------------------------------------------------------------------------




--------------------------------------- Iteration      1(  19)  ---------------------------------------


    POTLOK:  cpu time      0.0729: real time      0.0887
    SETDIJ:  cpu time      0.0746: real time      0.0748
    EDDIAG:  cpu time      0.1306: real time      0.1309
  RMM-DIIS:  cpu time      0.4512: real time      0.4524
    ORTHCH:  cpu time      0.0205: real time      0.0205
       DOS:  cpu time      0.0014: real time      0.0014
    CHARGE:  cpu time      0.2401: real time      0.2407
    MIXING:  cpu time      0.0047: real time      0.0047
    --------------------------------------------
      LOOP:  cpu time      0.9960: real time      1.0141

 eigenvalue-minimisations  :  1592
 total energy-change (2. order) :-0.1879102E-05  (-0.1865235E-06)
 number of electron     255.9999996 magnetization 
 augmentation part      -14.7646359 magnetization 

 Broyden mixing:
  rms(total) = 0.86627E-03    rms(broyden)= 0.86620E-03
  rms(prec ) = 0.87194E-03
  weight for this iteration     100.00

 eigenvalues of (default mixing * dielectric matrix)
  average eigenvalue GAMMA=   1.7967
  4.7974  3.1645  2.1016  2.1016  2.3054  2.3054  1.5416  1.5416  0.3412  1.2055
  0.9449  0.9449  0.9736  0.8843

 Free energy of the ion-electron system (eV)
  ---------------------------------------------------
  alpha Z        PSCENC =       116.61105515
  Ewald energy   TEWEN  =     -7511.52614914
  -Hartree energ DENC   =      -438.67782236
  -exchange      EXHF   =         0.00000000
  -V(xc)+E(xc)   XCENC  =      -527.90978798
  PAW double counting   =     33094.80154715   -31997.36702781
  entropy T*S    EENTRO =         0.03161771
  eigenvalues    EBANDS =       334.41579748
  atomic energy  EATOM  =      6564.79586099
  Solvation  Ediel_sol  =         0.00000000
  ---------------------------------------------------
  free energy    TOTEN  =      -364.82490881 eV

  energy without entropy =     -364.85652652  energy(sigma->0) =     -364.83544805


--------------------------------------------------------------------------------------------------------




--------------------------------------- Iteration      1(  20)  ---------------------------------------


    POTLOK:  cpu time      0.0863: real time      0.0962
    SETDIJ:  cpu time      0.0710: real time      0.0712
    EDDIAG:  cpu time      0.1309: real time      0.1312
  RMM-DIIS:  cpu time      0.4423: real time      0.4434
    ORTHCH:  cpu time      0.0206: real time      0.0206
       DOS:  cpu time      0.0014: real time      0.0014
    --------------------------------------------
      LOOP:  cpu time      0.7525: real time      0.7640

 eigenvalue-minimisations  :  1556
 total energy-change (2. order) :-0.4366202E-06  (-0.3287345E-07)
 number of electron     255.9999996 magnetization 
 augmentation part      -14.7646359 magnetization 

 Free energy of the ion-electron system (eV)
  ---------------------------------------------------
  alpha Z        PSCENC =       116.61105515
  Ewald energy   TEWEN  =     -7511.52614914
  -Hartree energ DENC   =      -438.68309153
  -exchange      EXHF   =         0.00000000
  -V(xc)+E(xc)   XCENC  =      -527.90893974
  PAW double counting   =     33101.23045131   -32003.79601194
  entropy T*S    EENTRO =         0.03161838
  eigenvalues    EBANDS =       334.42029728
  atomic energy  EATOM  =      6564.79586099
  Solvation  Ediel_sol  =         0.00000000
  ---------------------------------------------------
  free energy    TOTEN  =      -364.82490925 eV

  energy without entropy =     -364.85652762  energy(sigma->0) =     -364.83544871


--------------------------------------------------------------------------------------------------------




 average (electrostatic) potential at core
  the test charge radii are     0.9892
  (the norm of the test charge is              1.0000)
       1 -82.1092       2 -82.1092       3 -82.1092       4 -82.1092       5 -82.1092
       6 -82.1092       7 -82.1092       8 -82.1092       9 -82.1092      10 -82.1092
      11 -82.1092      12 -82.1092      13 -82.1092      14 -82.1092      15 -82.1092
      16 -82.1092      17 -82.1092      18 -82.1092      19 -82.1092      20 -82.1092
      21 -82.1092      22 -82.1092      23 -82.1092      24 -82.1092      25 -82.1092
      26 -82.1092      27 -82.1092      28 -82.1092      29 -82.1092      30 -82.1092
      31 -82.1092      32 -82.1092      33 -82.1092      34 -82.1092      35 -82.1092
      36 -82.1092      37 -82.1092      38 -82.1092      39 -82.1092      40 -82.1092
      41 -82.1092      42 -82.1092      43 -82.1092      44 -82.1092      45 -82.1092
      46 -82.1092      47 -82.1092      48 -82.1092      49 -82.1092      50 -82.1092
      51 -82.1092      52 -82.1092      53 -82.1092      54 -82.1092      55 -82.1092
      56 -82.1092      57 -82.1092      58 -82.1092      59 -82.1092      60 -82.1092
      61 -82.1092      62 -82.1092      63 -82.1092      64 -82.1092
 
 
 
 E-fermi :   6.8379     XC(G=0):  -9.8635     alpha+bet :-12.9818

 val. band max:        6.6516202667   @ k =   0.0000   0.0000   0.0000
 cond. band min:       6.9834241624   @ k =   0.0000   0.0000   0.5000
 fundamental gap:      0.3318038956
 Fermi energy:         6.8379470508

 k-point     1 :       0.0000    0.0000    0.0000
  band No.  band energies     occupation 
      1      -5.9286      2.00000
      2      -4.7722      2.00000
      3      -4.7722      2.00000
      4      -4.7622      2.00000
      5      -4.7622      2.00000
      6      -4.7622      2.00000
      7      -4.7622      2.00000
      8      -3.7346      2.00000
      9      -3.7346      2.00000
     10      -3.7193      2.00000
     11      -3.7193      2.00000
     12      -3.7193      2.00000
     13      -3.7193      2.00000
     14      -3.7120      2.00000
     15      -3.7120      2.00000
     16      -3.7120      2.00000
     17      -3.7120      2.00000
     18      -3.7039      2.00000
     19      -3.7039      2.00000
     20      -3.3839      2.00000
     21      -3.3839      2.00000
     22      -3.3484      2.00000
     23      -3.3484      2.00000
     24      -1.4893      2.00000
     25      -1.4893      2.00000
     26      -1.4765      2.00000
     27      -1.4560      2.00000
     28      -1.4560      2.00000
     29      -1.4357      2.00000
     30      -1.2837      2.00000
     31      -1.2837      2.00000
     32      -1.2723      2.00000
     33      -1.2723      2.00000
     34      -1.2599      2.00000
     35      -1.2599      2.00000
     36      -1.2599      2.00000
     37      -1.2599      2.00000
     38      -1.2361      2.00000
     39      -1.2361      2.00000
     40      -1.2249      2.00000
     41      -1.2249      2.00000
     42      -0.7841      2.00000
     43      -0.7841      2.00000
     44      -0.7782      2.00000
     45      -0.7782      2.00000
     46       0.9702      2.00000
     47       0.9702      2.00000
     48       0.9702      2.00000
     49       0.9703      2.00000
     50       0.9814      2.00000
     51       0.9814      2.00000
     52       0.9903      2.00000
     53       0.9903      2.00000
     54       0.9903      2.00000
     55       0.9904      2.00000
     56       0.9991      2.00000
     57       0.9991      2.00000
     58       2.3701      2.00000
     59       2.3702      2.00000
     60       2.3708      2.00000
     61       2.3708      2.00000
     62       2.3708      2.00000
     63       2.3708      2.00000
     64       2.3712      2.00000
     65       2.3712      2.00000
     66       2.3733      2.00000
     67       2.3733      2.00000
     68       2.3745      2.00000
     69       2.3745      2.00000
     70       2.4916      2.00000
     71       2.4917      2.00000
     72       2.4917      2.00000
     73       2.4917      2.00000
     74       2.5152      2.00000
     75       2.5152      2.00000
     76       2.5215      2.00000
     77       2.5215      2.00000
     78       2.5215      2.00000
     79       2.5215      2.00000
     80       2.5277      2.00000
     81       2.5277      2.00000
     82       3.0994      2.00000
     83       3.0995      2.00000
     84       3.1385      2.00000
     85       3.1385      2.00000
     86       3.1389      2.00000
     87       3.1389      2.00000
     88       3.5016      2.00000
     89       3.5311      2.00000
     90       3.5311      2.00000
     91       3.5607      2.00000
     92       3.5723      2.00000
     93       3.5723      2.00000
     94       4.5358      2.00000
     95       4.5358      2.00000
     96       4.5567      2.00000
     97       4.5567      2.00000
     98       4.5679      2.00000
     99       4.5679      2.00000
    100       4.5890      2.00000
    101       4.5890      2.00000
    102       4.5943      2.00000
    103       4.5943      2.00000
    104       4.5943      2.00000
    105       4.5943      2.00000
    106       5.1788      2.00000
    107       5.1788      2.00000
    108       5.1930      2.00000
    109       5.1930      2.00000
    110       5.1930      2.00000
    111       5.1930      2.00000
    112       5.2074      2.00000
    113       5.2075      2.00000
    114       5.2363      2.00000
    115       5.2363      2.00000
    116       5.2363      2.00000
    117       5.2363      2.00000
    118       5.3241      2.00000
    119       5.3241      2.00000
    120       5.3503      2.00000
    121       5.3503      2.00000
    122       5.3755      2.00000
    123       5.3756      2.00000
    124       5.4022      2.00000
    125       5.4022      2.00000
    126       6.6117      2.06785
    127       6.6496      2.03590
    128       6.6516      2.03300
    129       7.0099     -0.00767
    130       7.0406     -0.05286
    131       7.0406     -0.05286
    132       7.0714     -0.06982
    133       7.0823     -0.07091
    134       7.0823     -0.07091
    135       7.5741     -0.00000
    136       7.5741     -0.00000
    137       7.5741     -0.00000
    138       7.5742     -0.00000
    139       7.6150     -0.00000
    140       7.6150     -0.00000
    141       8.3605     -0.00000
    142       8.3606     -0.00000
    143       8.4116     -0.00000
    144       8.4116     -0.00000
    145       8.9949     -0.00000
    146       8.9956     -0.00000
    147       9.0116     -0.00000
    148       9.0117     -0.00000
    149       9.0119     -0.00000
    150       9.0129     -0.00000
    151       9.0290     -0.00000
    152       9.0300     -0.00000
    153       9.0603     -0.00000
    154       9.0609     -0.00000
    155       9.0617     -0.00000
    156       9.0623     -0.00000
    157       9.1451     -0.00000
    158       9.1773     -0.00000
    159       9.2294     -0.00000
    160       9.6166     -0.00000
    161       9.6780     -0.00000
    162       9.7000     -0.00000

 k-point     2 :       0.5000   -0.0000    0.0000
  band No.  band energies     occupation 
      1      -5.6371      2.00000
      2      -5.6371      2.00000
      3      -4.5022      2.00000
      4      -4.5022      2.00000
      5      -4.4946      2.00000
      6      -4.4946      2.00000
      7      -4.4946      2.00000
      8      -4.4946      2.00000
      9      -4.4868      2.00000
     10      -4.4868      2.00000
     11      -3.5695      2.00000
     12      -3.5695      2.00000
     13      -3.5695      2.00000
     14      -3.5695      2.00000
     15      -3.5484      2.00000
     16      -3.5484      2.00000
     17      -3.5484      2.00000
     18      -3.5484      2.00000
     19      -3.3668      2.00000
     20      -3.3668      2.00000
     21      -2.5706      2.00000
     22      -2.5706      2.00000
     23      -2.5485      2.00000
     24      -2.5485      2.00000
     25      -2.5485      2.00000
     26      -2.5485      2.00000
     27      -2.5262      2.00000
     28      -2.5262      2.00000
     29      -1.3808      2.00000
     30      -1.3808      2.00000
     31      -1.3736      2.00000
     32      -1.3736      2.00000
     33      -1.3435      2.00000
     34      -1.3435      2.00000
     35      -1.3365      2.00000
     36      -1.3365      2.00000
     37      -0.1504      2.00000
     38      -0.1504      2.00000
     39      -0.1338      2.00000
     40      -0.1338      2.00000
     41      -0.1338      2.00000
     42      -0.1338      2.00000
[...]
 -0.000  -0.000   4.167   0.000   0.000   7.763   0.000   0.000
  0.000   0.000   0.000   4.167   0.000   0.000   7.763   0.000
 -0.000  -0.000   0.000   0.000   4.167   0.000   0.000   7.762
 -0.000  -0.000   7.763   0.000   0.000  14.471   0.000   0.000
  0.001   0.001   0.000   7.763   0.000   0.000  14.471   0.000
 -0.000  -0.000   0.000   0.000   7.762   0.000   0.000  14.471
 total augmentation occupancy for first ion, spin component:           1
  6.640  -2.676   0.000  -0.013   0.000   0.000   0.005   0.000
 -2.676   1.185   0.000   0.007  -0.000   0.000  -0.002  -0.000
  0.000   0.000   3.242  -0.000  -0.001  -0.748  -0.000  -0.001
 -0.013   0.007  -0.000   3.242   0.000   0.000  -0.748   0.000
  0.000  -0.000  -0.001   0.000   3.252  -0.001   0.000  -0.752
  0.000   0.000  -0.748  -0.000  -0.001   0.182  -0.000   0.000
  0.005  -0.002  -0.000  -0.748   0.000  -0.000   0.182   0.000
  0.000  -0.000  -0.001   0.000  -0.752   0.000   0.000   0.183


------------------------ aborting loop because EDIFF is reached ----------------------------------------


    CHARGE:  cpu time      0.2428: real time      0.2441
    FORLOC:  cpu time      0.0214: real time      0.0217
    FORNL :  cpu time      0.6759: real time      0.6979
    STRESS:  cpu time      2.1052: real time      2.1344
    FORCOR:  cpu time      0.0859: real time      0.0863
    FORHAR:  cpu time      0.0362: real time      0.0363
    MIXING:  cpu time      0.0521: real time      0.0522
    OFIELD:  cpu time      0.0000: real time      0.0001

  FORCE on cell =-STRESS in cart. coord.  units (eV):
  Direction    XX          YY          ZZ          XY          YZ          ZX
  --------------------------------------------------------------------------------------
  Alpha Z   116.61106   116.61106   116.61106
  Ewald   -2492.42694 -2509.60342 -2509.59415    -2.10050     0.00000    -0.00000
  Hartree   147.95915   145.34515   145.33028    -1.99034    -0.00000    -0.00000
  E(xc)    -833.96319  -833.79902  -833.80290     0.00491    -0.00000    -0.00000
  Local    -909.65889  -889.36795  -889.42128     4.63652    -0.00000    -0.00000
  n-local  2540.62170  2537.93840  2538.01330     0.11275    -0.00000    -0.00000
  augment  -370.19765  -370.21028  -370.21463     0.16705     0.00000     0.00000
  Kinetic  1867.69418  1872.86189  1872.79286    -3.50154    -0.00001    -0.00000
  Fock        0.00000     0.00000     0.00000     0.00000     0.00000     0.00000
  -------------------------------------------------------------------------------------
  Total      66.63942    69.77583    69.71453    -2.67114     0.00000     0.00000
  in kB      90.29570    94.54550    94.46244    -3.61937     0.00000     0.00000
  external pressure =       93.10 kB  Pullay stress =        0.00 kB


 VOLUME and BASIS-vectors are now :
 -----------------------------------------------------------------------------
  energy-cutoff  :      400.00
  volume of cell :     1182.43
      direct lattice vectors                 reciprocal lattice vectors
    10.609701567  0.026392004  0.000000000     0.094253944 -0.000235632  0.000000000
     0.026392004 10.556917559  0.000000000    -0.000235632  0.094725209  0.000000000
     0.000000000  0.000000000 10.556917559     0.000000000  0.000000000  0.094724620

  length of vectors
    10.609734392 10.556950549 10.556917559     0.094254239  0.094725502  0.094724620


 FORCES acting on ions
    electron-ion (+dipol)            ewald-force                    non-local-force                 convergence-correction
 -----------------------------------------------------------------------------------------------
   -.258E-08 -.245E-08 -.419E+00   0.511E-14 0.244E-14 0.297E+00   0.651E-20 -.776E-20 0.123E+00   -.117E-12 0.193E-13 0.765E-05
   -.258E-08 -.245E-08 -.419E+00   0.666E-14 -.133E-13 0.297E+00   0.601E-20 -.119E-20 0.123E+00   0.128E-12 -.414E-13 0.765E-05
   -.258E-08 -.245E-08 -.419E+00   0.324E-13 0.377E-14 0.297E+00   0.226E-19 -.594E-20 0.123E+00   -.378E-13 -.198E-13 0.765E-05
   -.258E-08 -.245E-08 -.419E+00   0.231E-13 0.977E-14 0.297E+00   -.110E-19 0.301E-20 0.123E+00   0.486E-13 0.429E-13 0.765E-05
   -.258E-08 -.245E-08 -.419E+00   0.289E-13 -.711E-14 0.297E+00   0.175E-19 0.165E-21 0.123E+00   0.118E-12 -.685E-13 0.765E-05
   -.258E-08 -.245E-08 -.419E+00   -.133E-14 -.355E-14 0.297E+00   -.162E-19 0.257E-20 0.123E+00   -.122E-12 0.668E-15 0.765E-05
   -.258E-08 -.245E-08 -.419E+00   -.178E-14 -.222E-14 0.297E+00   0.578E-20 0.333E-20 0.123E+00   0.306E-13 0.725E-13 0.765E-05
   -.258E-08 -.245E-08 -.419E+00   0.355E-14 0.355E-14 0.297E+00   -.781E-20 0.609E-21 0.123E+00   -.346E-13 -.512E-14 0.765E-05
   0.396E-08 0.383E-08 0.419E+00   0.293E-13 -.355E-14 -.297E+00   -.627E-20 0.698E-20 -.123E+00   0.123E-13 0.849E-13 -.765E-05
   0.396E-08 0.383E-08 0.419E+00   0.284E-13 -.107E-13 -.297E+00   0.102E-20 -.115E-19 -.123E+00   -.147E-13 -.360E-13 -.765E-05
   0.396E-08 0.383E-08 0.419E+00   0.209E-13 -.266E-14 -.297E+00   -.111E-19 0.754E-20 -.123E+00   0.667E-13 -.943E-13 -.765E-05
   0.396E-08 0.383E-08 0.419E+00   0.213E-13 0.355E-14 -.297E+00   -.325E-20 0.368E-21 -.123E+00   -.306E-13 0.336E-13 -.765E-05
   0.396E-08 0.384E-08 0.419E+00   0.195E-13 -.355E-14 -.297E+00   -.134E-19 0.916E-20 -.123E+00   -.110E-13 -.420E-13 -.765E-05
   0.396E-08 0.383E-08 0.419E+00   0.266E-13 0.178E-14 -.297E+00   0.649E-20 0.837E-21 -.123E+00   0.175E-13 0.888E-13 -.765E-05
   0.396E-08 0.383E-08 0.419E+00   0.844E-14 -.488E-14 -.297E+00   -.201E-20 0.853E-20 -.123E+00   -.699E-13 0.363E-13 -.765E-05
   0.396E-08 0.384E-08 0.419E+00   0.533E-14 -.711E-14 -.297E+00   0.509E-20 -.117E-19 -.123E+00   0.363E-13 -.967E-13 -.765E-05
   -.258E-08 -.245E-08 -.419E+00   -.666E-14 -.400E-14 0.297E+00   0.405E-20 -.288E-20 0.123E+00   -.807E-13 0.122E-13 0.765E-05
   -.258E-08 -.245E-08 -.419E+00   -.622E-14 -.147E-13 0.297E+00   -.305E-20 -.442E-20 0.123E+00   0.109E-12 0.320E-13 0.765E-05
   -.258E-08 -.245E-08 -.419E+00   0.147E-13 0.333E-14 0.297E+00   -.984E-21 0.477E-21 0.123E+00   -.601E-13 -.939E-14 0.765E-05
   -.258E-08 -.245E-08 -.419E+00   0.799E-14 -.178E-14 0.297E+00   -.787E-21 -.330E-20 0.123E+00   0.577E-13 -.278E-13 0.765E-05
   -.258E-08 -.245E-08 -.419E+00   0.444E-15 -.577E-14 0.297E+00   -.116E-19 0.255E-20 0.123E+00   0.883E-13 0.696E-13 0.765E-05
   -.258E-08 -.245E-08 -.419E+00   -.755E-14 -.622E-14 0.297E+00   0.750E-20 0.100E-20 0.123E+00   -.112E-12 -.430E-13 0.765E-05
   -.258E-08 -.245E-08 -.419E+00   0.293E-13 0.444E-14 0.297E+00   0.834E-21 -.184E-20 0.123E+00   0.632E-13 -.670E-13 0.765E-05
   -.258E-08 -.246E-08 -.419E+00   0.213E-13 0.355E-14 0.297E+00   0.710E-20 -.853E-20 0.123E+00   -.588E-13 0.456E-13 0.765E-05
   0.396E-08 0.383E-08 0.419E+00   0.147E-13 -.787E-14 -.297E+00   0.110E-19 0.102E-20 -.123E+00   -.437E-14 0.298E-13 -.765E-05
   0.396E-08 0.383E-08 0.419E+00   0.182E-13 -.832E-14 -.297E+00   -.158E-19 0.467E-20 -.123E+00   0.906E-14 -.507E-13 -.765E-05
   0.396E-08 0.383E-08 0.419E+00   0.533E-14 -.720E-14 -.297E+00   0.756E-21 -.933E-21 -.123E+00   0.228E-13 -.263E-13 -.765E-05
   0.396E-08 0.383E-08 0.419E+00   0.533E-14 -.982E-15 -.297E+00   0.266E-21 0.355E-21 -.123E+00   0.101E-13 0.519E-13 -.765E-05
   0.396E-08 0.383E-08 0.419E+00   0.711E-14 -.345E-14 -.297E+00   0.272E-20 0.321E-20 -.123E+00   -.876E-14 0.169E-13 -.765E-05
   0.396E-08 0.383E-08 0.419E+00   0.000E+00 -.110E-13 -.297E+00   -.407E-20 -.247E-20 -.123E+00   0.764E-14 -.176E-13 -.765E-05
   0.396E-08 0.383E-08 0.419E+00   -.533E-14 -.320E-14 -.297E+00   0.213E-19 -.341E-20 -.123E+00   -.264E-13 -.111E-13 -.765E-05
   0.396E-08 0.383E-08 0.419E+00   0.178E-14 -.720E-14 -.297E+00   -.124E-19 0.788E-20 -.123E+00   -.256E-14 0.204E-13 -.765E-05
   -.258E-08 -.245E-08 -.419E+00   -.755E-14 -.888E-15 0.297E+00   0.545E-21 0.129E-21 0.123E+00   -.537E-13 -.190E-13 0.765E-05
   -.258E-08 -.245E-08 -.419E+00   -.666E-14 0.266E-14 0.297E+00   -.398E-20 0.381E-20 0.123E+00   0.987E-13 -.157E-13 0.765E-05
   -.258E-08 -.245E-08 -.419E+00   -.178E-13 -.200E-14 0.297E+00   -.120E-19 -.580E-20 0.123E+00   0.583E-14 0.153E-13 0.765E-05
   -.258E-08 -.245E-08 -.419E+00   -.355E-14 0.622E-14 0.297E+00   -.362E-20 -.428E-21 0.123E+00   0.229E-13 0.191E-13 0.765E-05
   -.258E-08 -.245E-08 -.419E+00   -.600E-14 0.355E-14 0.297E+00   -.522E-20 -.724E-20 0.123E+00   0.499E-13 0.998E-14 0.765E-05
   -.258E-08 -.245E-08 -.419E+00   -.622E-14 0.711E-14 0.297E+00   0.169E-20 -.169E-20 0.123E+00   -.909E-13 -.720E-13 0.765E-05
   -.258E-08 -.245E-08 -.419E+00   0.000E+00 0.666E-14 0.297E+00   -.518E-20 0.545E-20 0.123E+00   -.432E-14 -.199E-14 0.765E-05
   -.258E-08 -.245E-08 -.419E+00   0.000E+00 0.355E-14 0.297E+00   0.361E-22 0.990E-20 0.123E+00   -.193E-13 0.686E-13 0.765E-05
   0.396E-08 0.383E-08 0.419E+00   0.176E-14 -.133E-14 -.297E+00   -.761E-20 0.628E-20 -.123E+00   0.314E-13 0.204E-13 -.765E-05
   0.396E-08 0.383E-08 0.419E+00   0.309E-14 0.129E-13 -.297E+00   0.130E-19 -.530E-20 -.123E+00   -.161E-13 0.162E-13 -.765E-05
   0.396E-08 0.383E-08 0.419E+00   0.131E-14 0.266E-14 -.297E+00   -.405E-20 -.984E-20 -.123E+00   0.158E-13 -.249E-13 -.765E-05
   0.396E-08 0.383E-08 0.419E+00   0.867E-15 0.266E-14 -.297E+00   0.933E-20 -.271E-20 -.123E+00   0.198E-13 -.183E-13 -.765E-05
   0.396E-08 0.383E-08 0.419E+00   -.220E-13 0.178E-14 -.297E+00   -.214E-20 -.161E-20 -.123E+00   -.227E-13 0.425E-13 -.765E-05
   0.396E-08 0.384E-08 0.419E+00   -.200E-13 0.178E-14 -.297E+00   0.110E-19 0.143E-20 -.123E+00   0.388E-15 0.215E-13 -.765E-05
   0.396E-08 0.383E-08 0.419E+00   -.222E-15 0.178E-14 -.297E+00   -.854E-20 0.291E-20 -.123E+00   -.108E-13 -.473E-13 -.765E-05
   0.396E-08 0.383E-08 0.419E+00   -.600E-14 0.178E-14 -.297E+00   0.109E-19 -.549E-20 -.123E+00   -.278E-13 -.246E-13 -.765E-05
   -.258E-08 -.245E-08 -.419E+00   -.444E-14 0.266E-14 0.297E+00   -.959E-20 0.976E-20 0.123E+00   -.713E-13 0.444E-13 0.765E-05
   -.258E-08 -.245E-08 -.419E+00   -.444E-14 0.355E-14 0.297E+00   0.110E-19 -.562E-21 0.123E+00   0.882E-13 -.114E-13 0.765E-05
   -.258E-08 -.245E-08 -.419E+00   -.142E-13 0.289E-14 0.297E+00   -.593E-20 0.386E-21 0.123E+00   0.159E-13 -.385E-13 0.765E-05
   -.258E-08 -.245E-08 -.419E+00   -.142E-13 0.107E-13 0.297E+00   0.656E-21 0.200E-20 0.123E+00   0.464E-13 0.165E-13 0.765E-05
   -.258E-08 -.246E-08 -.419E+00   -.355E-14 0.222E-14 0.297E+00   -.110E-19 0.386E-20 0.123E+00   0.811E-13 -.432E-13 0.765E-05
   -.258E-08 -.245E-08 -.419E+00   -.195E-13 0.533E-14 0.297E+00   0.892E-20 0.203E-20 0.123E+00   -.963E-13 0.720E-13 0.765E-05
   -.258E-08 -.245E-08 -.419E+00   -.235E-13 0.222E-14 0.297E+00   -.177E-19 0.118E-19 0.123E+00   -.110E-13 0.413E-13 0.765E-05
   -.258E-08 -.246E-08 -.419E+00   -.320E-13 0.711E-14 0.297E+00   0.153E-19 -.144E-20 0.123E+00   -.475E-13 -.686E-13 0.765E-05
   0.396E-08 0.383E-08 0.419E+00   -.204E-13 -.252E-14 -.297E+00   0.129E-19 -.634E-20 -.123E+00   -.172E-12 0.375E-13 -.765E-05
   0.396E-08 0.383E-08 0.419E+00   -.275E-13 -.335E-14 -.297E+00   -.996E-20 -.969E-21 -.123E+00   0.199E-12 -.219E-13 -.765E-05
   0.396E-08 0.383E-08 0.419E+00   -.106E-13 -.101E-13 -.297E+00   0.567E-20 -.719E-20 -.123E+00   -.480E-13 -.310E-13 -.765E-05
   0.396E-08 0.383E-08 0.419E+00   -.177E-13 0.347E-14 -.297E+00   -.986E-20 -.125E-21 -.123E+00   0.765E-13 0.271E-13 -.765E-05
   0.396E-08 0.383E-08 0.419E+00   -.362E-14 -.218E-14 -.297E+00   0.589E-20 -.313E-20 -.123E+00   0.178E-12 -.191E-13 -.765E-05
   0.396E-08 0.383E-08 0.419E+00   -.896E-14 0.542E-14 -.297E+00   -.159E-20 0.471E-20 -.123E+00   -.207E-12 -.566E-14 -.765E-05
   0.396E-08 0.383E-08 0.419E+00   -.262E-13 -.242E-14 -.297E+00   0.509E-20 -.849E-20 -.123E+00   0.452E-13 0.268E-13 -.765E-05
   0.396E-08 0.383E-08 0.419E+00   -.178E-13 -.141E-15 -.297E+00   -.748E-20 0.465E-21 -.123E+00   -.767E-13 0.755E-14 -.765E-05
 -----------------------------------------------------------------------------------------------
   0.442E-07 0.442E-07 -.996E-05   0.192E-13 -.284E-13 0.283E-14   -.676E-20 -.508E-20 0.287E-14   0.331E-13 0.238E-13 -.974E-10
 
 
 POSITION                                       TOTAL-FORCE (eV/Angst)
 -----------------------------------------------------------------------------------
      0.00000      0.00000      0.00225        -0.000000     -0.000000      0.000101
      0.00000      0.00000      5.28071        -0.000000     -0.000000      0.000101
      0.01320      5.27846      0.00225        -0.000000     -0.000000      0.000101
      0.01320      5.27846      5.28071        -0.000000     -0.000000      0.000101
      5.30485      0.01320      0.00225        -0.000000     -0.000000      0.000101
      5.30485      0.01320      5.28071         0.000000      0.000000      0.000101
      5.31805      5.29165      0.00225         0.000000      0.000000      0.000101
      5.31805      5.29165      5.28071         0.000000      0.000000      0.000101
      3.98854      3.96874      1.31736         0.000000     -0.000000     -0.000101
      3.98854      3.96874      6.59582         0.000000     -0.000000     -0.000101
      4.00173      9.24720      1.31736         0.000000      0.000000     -0.000101
      4.00173      9.24720      6.59582         0.000000      0.000000     -0.000101
      9.29339      3.98194      1.31736        -0.000000      0.000000     -0.000101
      9.29339      3.98194      6.59582        -0.000000      0.000000     -0.000101
      9.30658      9.26040      1.31736        -0.000000      0.000000     -0.000101
      9.30658      9.26040      6.59582         0.000000      0.000000     -0.000101
      0.00660      2.63923      2.64148        -0.000000     -0.000000      0.000101
      0.00660      2.63923      7.91994        -0.000000     -0.000000      0.000101
      0.01979      7.91769      2.64148        -0.000000     -0.000000      0.000101
      0.01979      7.91769      7.91994        -0.000000     -0.000000      0.000101
      5.31145      2.65243      2.64148         0.000000      0.000000      0.000101
      5.31145      2.65243      7.91994        -0.000000      0.000000      0.000101
      5.32464      7.93088      2.64148        -0.000000      0.000000      0.000101
      5.32464      7.93088      7.91994         0.000000      0.000000      0.000101
      3.98194      1.32951      3.95659         0.000000      0.000000     -0.000101
      3.98194      1.32951      9.23505         0.000000      0.000000     -0.000101
      3.99513      6.60797      3.95659         0.000000      0.000000     -0.000101
      3.99513      6.60797      9.23505         0.000000     -0.000000     -0.000101
      9.28679      1.34271      3.95659         0.000000      0.000000     -0.000101
      9.28679      1.34271      9.23505        -0.000000      0.000000     -0.000101
      9.29998      6.62117      3.95659        -0.000000      0.000000     -0.000101
      9.29998      6.62117      9.23505         0.000000     -0.000000     -0.000101
      2.65243      0.00660      2.64148         0.000000      0.000000      0.000101
      2.65243      0.00660      7.91994        -0.000000      0.000000      0.000101
      2.66562      5.28506      2.64148         0.000000      0.000000      0.000101
      2.66562      5.28506      7.91994         0.000000      0.000000      0.000101
      7.95728      0.01979      2.64148         0.000000      0.000000      0.000101
      7.95728      0.01979      7.91994         0.000000      0.000000      0.000101
      7.97047      5.29825      2.64148         0.000000      0.000000      0.000101
      7.97047      5.29825      7.91994         0.000000      0.000000      0.000101
      1.33611      3.96214      3.95659        -0.000000      0.000000     -0.000101
      1.33611      3.96214      9.23505        -0.000000      0.000000     -0.000101
      1.34931      9.24060      3.95659        -0.000000      0.000000     -0.000101
      1.34931      9.24060      9.23505        -0.000000      0.000000     -0.000101
      6.64096      3.97534      3.95659        -0.000000     -0.000000     -0.000101
      6.64096      3.97534      9.23505        -0.000000     -0.000000     -0.000101
      6.65416      9.25380      3.95659         0.000000     -0.000000     -0.000101
      6.65416      9.25380      9.23505        -0.000000     -0.000000     -0.000101
      2.65902      2.64583      0.00225         0.000000      0.000000      0.000101
      2.65902      2.64583      5.28071         0.000000      0.000000      0.000101
      2.67222      7.92429      0.00225        -0.000000      0.000000      0.000101
      2.67222      7.92429      5.28071         0.000000      0.000000      0.000101
      7.96387      2.65902      0.00225         0.000000      0.000000      0.000101
      7.96387      2.65902      5.28071         0.000000     -0.000000      0.000101
      7.97707      7.93748      0.00225         0.000000      0.000000      0.000101
      7.97707      7.93748      5.28071         0.000000      0.000000      0.000101
      1.32951      1.32291      1.31736        -0.000000     -0.000000     -0.000101
      1.32951      1.32291      6.59582        -0.000000      0.000000     -0.000101
      1.34271      6.60137      1.31736         0.000000      0.000000     -0.000101
      1.34271      6.60137      6.59582        -0.000000      0.000000     -0.000101
      6.63436      1.33611      1.31736         0.000000     -0.000000     -0.000101
      6.63436      1.33611      6.59582         0.000000     -0.000000     -0.000101
      6.64756      6.61457      1.31736        -0.000000     -0.000000     -0.000101
      6.64756      6.61457      6.59582         0.000000     -0.000000     -0.000101
 -----------------------------------------------------------------------------------
    total drift:                                0.000000      0.000000     -0.000010


--------------------------------------------------------------------------------------------------------



  FREE ENERGIE OF THE ION-ELECTRON SYSTEM (eV)
  ---------------------------------------------------
  free  energy   TOTEN  =      -364.82994143 eV

  energy  without entropy=     -364.86061311  energy(sigma->0) =     -364.84016532
 
 d Force = 0.1245443E-02[-0.726E-05, 0.250E-02]  d Energy = 0.1248790E-02-0.335E-05
 d Force =-0.1925940E-01[-0.214E-01,-0.172E-01]  d Ewald  =-0.1925939E-01-0.116E-07


--------------------------------------------------------------------------------------------------------


    POTLOK:  cpu time      0.1453: real time      0.1461


--------------------------------------------------------------------------------------------------------




--------------------------------------------------------------------------------------------------------


  
 reached required accuracy - stopping structural energy minimisation
     LOOP+:  cpu time     12.5956: real time     12.8107
    4ORBIT:  cpu time      0.0000: real time      0.0000

 total amount of memory used by VASP MPI-rank0    78943. kBytes
=======================================================================

   base      :      30000. kBytes
   nonlr-proj:       4810. kBytes
   fftplans  :      17991. kBytes
   grid      :       6881. kBytes
   one-center:         18. kBytes
   wavefun   :      19243. kBytes
 
  
  
 General timing and accounting informations for this job:
 ========================================================
  
                  Total CPU time used (sec):       59.973
                            User time (sec):       56.736
                          System time (sec):        3.237
                         Elapsed time (sec):       63.362
  
                   Maximum memory used (kb):      401788.
                   Average memory used (kb):          N/A
  
                          Minor page faults:        90412
                          Major page faults:            0
                 Voluntary context switches:         8386
