WARNING: $PATH does not agree with $PATH_modshare counter. The following directories' usage counters were adjusted to match. Note that this may mean that module unloading may not work correctly.
 /public1/home/sc80607/atat/bin/
 running   96 mpi-ranks, on    1 nodes
 distrk:  each k-point on   24 cores,    4 groups
 distr:  one band on   12 cores,    2 groups
 vasp.6.4.3 19Mar24 (build Oct 21 2024 22:36:34) complex                        
  
 POSCAR found type information on POSCAR Si
 POSCAR found :  1 types and      64 ions
 scaLAPACK will be used
 -----------------------------------------------------------------------------
|                                                                             |
|               ----> ADVICE to this user running VASP <----                  |
|                                                                             |
|     You enforced a specific xc type in the INCAR file but a different       |
|     type was found in the POTCAR file.                                      |
|     I HOPE YOU KNOW WHAT YOU ARE DOING!                                     |
|                                                                             |
 -----------------------------------------------------------------------------

 LDA part: xc-table for (Slater+PW92), standard interpolation
 POSCAR, INCAR and KPOINTS ok, starting setup
 FFT: planning ... GRIDC
 FFT: planning ... GRID_SOFT
 FFT: planning ... GRID
 WAVECAR not read
 entering main loop
       N       E                     dE             d eps       ncg     rms          rms(c)
DAV:   1     0.575276789990E+03    0.57528E+03   -0.85265E+04  2592   0.107E+03
DAV:   2    -0.309910754532E+03   -0.88519E+03   -0.83878E+03  3098   0.176E+02
DAV:   3    -0.372114644126E+03   -0.62204E+02   -0.60988E+02  3144   0.414E+01
DAV:   4    -0.373696020403E+03   -0.15814E+01   -0.15697E+01  3136   0.795E+00
DAV:   5    -0.373742912394E+03   -0.46892E-01   -0.46809E-01  3100   0.128E+00    0.312E+01
RMM:   6    -0.367469350229E+03    0.62736E+01   -0.33187E+00  2592   0.287E+00    0.189E+01
RMM:   7    -0.364769584245E+03    0.26998E+01   -0.83562E+00  2657   0.453E+00    0.123E+00
RMM:   8    -0.364800863254E+03   -0.31279E-01   -0.75577E-01  2610   0.172E+00    0.548E-01
RMM:   9    -0.364824923493E+03   -0.24060E-01   -0.23303E-01  2671   0.839E-01    0.618E-01
RMM:  10    -0.364829397669E+03   -0.44742E-02   -0.41286E-02  2727   0.396E-01    0.812E-01
RMM:  11    -0.364824487970E+03    0.49097E-02   -0.14027E-02  2592   0.238E-01    0.690E-01
RMM:  12    -0.364824642025E+03   -0.15406E-03   -0.19370E-03  2618   0.104E-01    0.697E-01
RMM:  13    -0.364824711485E+03   -0.69460E-04   -0.36470E-04  2733   0.425E-02    0.760E-01
RMM:  14    -0.364824627797E+03    0.83689E-04   -0.11671E-04  2592   0.267E-02    0.343E-01
RMM:  15    -0.364824779500E+03   -0.15170E-03   -0.57694E-05  2615   0.158E-02    0.343E-01
RMM:  16    -0.364824866302E+03   -0.86802E-04   -0.32823E-05  2592   0.132E-02    0.306E-01
RMM:  17    -0.364824894682E+03   -0.28381E-04   -0.13853E-05  2592   0.968E-03    0.107E-01
RMM:  18    -0.364824906930E+03   -0.12248E-04   -0.77586E-06  2521   0.686E-03    0.208E-02
RMM:  19    -0.364824908810E+03   -0.18791E-05   -0.18652E-06  1592   0.330E-03    0.866E-03
RMM:  20    -0.364824909246E+03   -0.43662E-06   -0.32873E-07  1556   0.125E-03
   1 F= -.36482491E+03 E0= -.36483545E+03  d E =-.364825E+03
 curvature:   0.00 expect dE= 0.000E+00 dE for cont linesearch  0.000E+00
 trial: gam= 0.00000 g(F)=  0.151E-01 g(S)=  0.000E+00 ort = 0.000E+00 (trialstep = 0.100E+01)
 search vector abs. value=  0.151E-01
 bond charge predicted
       N       E                     dE             d eps       ncg     rms          rms(c)
DAV:   1    -0.364827618294E+03   -0.27095E-02   -0.20288E-01  2984   0.869E-01    0.211E-01
RMM:   2    -0.364828581163E+03   -0.96287E-03   -0.99861E-03  2592   0.214E-01    0.848E-02
RMM:   3    -0.364828695352E+03   -0.11419E-03   -0.15393E-03  2636   0.940E-02    0.350E-02
RMM:   4    -0.364828689811E+03    0.55409E-05   -0.20607E-04  2622   0.388E-02    0.129E-02
RMM:   5    -0.364828691654E+03   -0.18429E-05   -0.39758E-05  2678   0.154E-02    0.273E-03
RMM:   6    -0.364828692515E+03   -0.86065E-06   -0.85479E-06  2180   0.670E-03    0.499E-04
RMM:   7    -0.364828692625E+03   -0.11009E-06   -0.12279E-06  1604   0.251E-03    0.570E-04
RMM:   8    -0.364828692641E+03   -0.15808E-07   -0.26088E-07  1344   0.114E-03
   2 F= -.36482869E+03 E0= -.36483864E+03  d E =-.378339E-02
 trial-energy change:   -0.003783  1 .order   -0.003815   -0.015127    0.007497
 step:   0.6668(harm=  0.6686)  dis= 0.00225  next Energy=  -364.829943 (dE=-0.503E-02)
 bond charge predicted
       N       E                     dE             d eps       ncg     rms          rms(c)
DAV:   1    -0.364829825056E+03   -0.11324E-02   -0.22523E-02  2958   0.289E-01    0.700E-02
RMM:   2    -0.364829929668E+03   -0.10461E-03   -0.10810E-03  2592   0.709E-02    0.283E-02
RMM:   3    -0.364829941709E+03   -0.12041E-04   -0.16265E-04  2637   0.310E-02    0.115E-02
RMM:   4    -0.364829941160E+03    0.54869E-06   -0.21548E-05  2621   0.128E-02    0.426E-03
RMM:   5    -0.364829941332E+03   -0.17153E-06   -0.39943E-06  1885   0.502E-03    0.890E-04
RMM:   6    -0.364829941403E+03   -0.71363E-07   -0.84761E-07  1553   0.217E-03    0.194E-04
RMM:   7    -0.364829941422E+03   -0.18569E-07   -0.19197E-07  1209   0.998E-04    0.231E-04
RMM:   8    -0.364829941430E+03   -0.85583E-08   -0.43443E-08   770   0.592E-04
   3 F= -.36482994E+03 E0= -.36484017E+03  d E =-.503218E-02
 curvature:  -0.33 expect dE=-0.105E-07 dE for cont linesearch -0.105E-07
 trial: gam=-0.00144 g(F)=  0.314E-07 g(S)=  0.000E+00 ort = 0.218E-04 (trialstep = 0.933E+00)
 search vector abs. value=  0.100E-09
 reached required accuracy - stopping structural energy minimisation
