<?xml version="1.0" encoding="ISO-8859-1"?>
<modeling>
 <generator>
  <i name="program" type="string">vasp </i>
  <i name="version" type="string">6.4.3  </i>
  <i name="subversion" type="string">19Mar24 (build Oct 21 2024 22:36:34) complex                          parallel </i>
  <i name="platform" type="string">LinuxIFC </i>
  <i name="date" type="string">2024 11 01 </i>
  <i name="time" type="string">22:58:24 </i>
 </generator>
 <incar>
  <i type="string" name="SYSTEM">Si64</i>
  <i type="int" name="ISTART">     0</i>
  <i type="string" name="PREC">Accurate</i>
  <i type="string" name="ALGO">Fast</i>
  <i type="logical" name="ADDGRID"> T  </i>
  <i type="int" name="ICHARG">     2</i>
  <i type="int" name="NELM">    60</i>
  <i type="int" name="NELMIN">     8</i>
  <i type="int" name="IBRION">     2</i>
  <i name="EDIFF">      0.00000100</i>
  <i name="EDIFFG">     -0.01000000</i>
  <i type="int" name="NSW">    60</i>
  <i type="int" name="ISIF">     2</i>
  <i name="ENCUT">    400.00000000</i>
  <i type="string" name="LREAL">Auto</i>
  <i type="int" name="ISMEAR">     1</i>
  <i name="SIGMA">      0.20000000</i>
  <i type="logical" name="LWAVE"> F  </i>
  <i type="logical" name="LCHARG"> F  </i>
  <i type="logical" name="GGA_COMPAT"> F  </i>
  <i type="string" name="GGA">PS</i>
 </incar>
 <primitive_cell>
  <structure name="primitive_cell" >
   <crystal>
    <varray name="basis" >
     <v>       0.00659800       2.63922939      -2.63922939 </v>
     <v>       0.00659800       2.63922939       2.63922939 </v>
     <v>       2.64582739      -2.63263139       0.00000000 </v>
    </varray>
    <i name="volume">     36.95087689 </i>
    <varray name="rec_basis" >
     <v>       0.18803662       0.18897915      -0.18944924 </v>
     <v>       0.18803662       0.18897915       0.18944924 </v>
     <v>       0.37701578      -0.00094253       0.00000000 </v>
    </varray>
   </crystal>
   <varray name="positions" >
    <v>       0.00000000       0.00000000       0.00000000 </v>
    <v>       0.25000000       0.75000000       0.50000000 </v>
   </varray>
  </structure>
  <varray name="primitive_index" >
   <v type="int" >        1 </v>
   <v type="int" >       15 </v>
  </varray>
 </primitive_cell>
 <kpoints>
  <generation param="Gamma">
   <v type="int" name="divisions">       2        2        2 </v>
   <v name="usershift">      0.00000000       0.00000000       0.00000000 </v>
   <v name="genvec1">      0.50000000       0.00000000       0.00000000 </v>
   <v name="genvec2">      0.00000000       0.50000000       0.00000000 </v>
   <v name="genvec3">      0.00000000       0.00000000       0.50000000 </v>
   <v name="shift">      0.00000000       0.00000000       0.00000000 </v>
  </generation>
  <varray name="kpointlist" >
   <v>       0.00000000       0.00000000       0.00000000 </v>
   <v>       0.50000000      -0.00000000       0.00000000 </v>
   <v>       0.00000000       0.50000000       0.00000000 </v>
   <v>       0.50000000       0.50000000       0.00000000 </v>
   <v>       0.00000000       0.00000000       0.50000000 </v>
   <v>       0.50000000      -0.00000000       0.50000000 </v>
   <v>       0.00000000       0.50000000       0.50000000 </v>
   <v>       0.50000000       0.50000000       0.50000000 </v>
  </varray>
  <varray name="weights" >
   <v>       0.12500000 </v>
   <v>       0.12500000 </v>
   <v>       0.12500000 </v>
   <v>       0.12500000 </v>
   <v>       0.12500000 </v>
   <v>       0.12500000 </v>
   <v>       0.12500000 </v>
   <v>       0.12500000 </v>
  </varray>
 </kpoints>
 <parameters>
  <separator name="general" >
   <i type="string" name="SYSTEM">Si64</i>
   <i type="logical" name="LCOMPAT"> F  </i>
  </separator>
  <separator name="electronic" >
   <i type="string" name="PREC">accura</i>
   <i name="ENMAX">    400.00000000</i>
   <i name="ENAUG">    322.06900000</i>
   <i name="EDIFF">      0.00000100</i>
   <i type="int" name="IALGO">    68</i>
   <i type="int" name="IWAVPR">    11</i>
   <i type="int" name="NBANDS">   162</i>
   <i type="int" name="NBANDSLOW">    -1</i>
   <i type="int" name="NBANDSHIGH">    -1</i>
   <i name="NELECT">    256.00000000</i>
   <i type="int" name="TURBO">     0</i>
   <i type="int" name="IRESTART">     0</i>
   <i type="int" name="NREBOOT">     0</i>
   <i type="int" name="NMIN">     0</i>
   <i name="EREF">      0.00000000</i>
   <separator name="electronic smearing" >
    <i type="int" name="ISMEAR">     1</i>
    <i name="SIGMA">      0.20000000</i>
    <i name="KSPACING">      0.50000000</i>
    <i type="logical" name="KGAMMA"> T  </i>
    <i type="logical" name="KBLOWUP"> T  </i>
   </separator>
   <separator name="electronic projectors" >
    <i type="logical" name="LREAL"> T  </i>
    <v name="ROPT">     -0.00025000</v>
    <i type="int" name="LMAXPAW">  -100</i>
    <i type="int" name="LMAXMIX">     2</i>
    <i type="logical" name="NLSPLINE"> F  </i>
   </separator>
   <separator name="electronic startup" >
    <i type="int" name="ISTART">     0</i>
    <i type="int" name="ICHARG">     2</i>
    <i type="int" name="INIWAV">     1</i>
   </separator>
   <separator name="electronic spin" >
    <i type="int" name="ISPIN">     1</i>
    <i type="logical" name="LNONCOLLINEAR"> F  </i>
    <v name="MAGMOM">      1.00000000      1.00000000      1.00000000      1.00000000      1.00000000      1.00000000      1.00000000      1.00000000      1.00000000      1.00000000      1.00000000      1.00000000      1.00000000      1.00000000      1.00000000      1.00000000      1.00000000      1.00000000      1.00000000      1.00000000
      1.00000000      1.00000000      1.00000000      1.00000000      1.00000000      1.00000000      1.00000000      1.00000000      1.00000000      1.00000000      1.00000000      1.00000000      1.00000000      1.00000000      1.00000000      1.00000000      1.00000000      1.00000000      1.00000000      1.00000000
      1.00000000      1.00000000      1.00000000      1.00000000      1.00000000      1.00000000      1.00000000      1.00000000      1.00000000      1.00000000      1.00000000      1.00000000      1.00000000      1.00000000      1.00000000      1.00000000      1.00000000      1.00000000      1.00000000      1.00000000
      1.00000000      1.00000000      1.00000000      1.00000000</v>
    <i name="NUPDOWN">     -1.00000000</i>
    <i type="logical" name="LSORBIT"> F  </i>
    <v name="SAXIS">      0.00000000      0.00000000      1.00000000</v>
    <i type="logical" name="LSPIRAL"> F  </i>
    <v name="QSPIRAL">      0.00000000      0.00000000      0.00000000</v>
    <i type="logical" name="LZEROZ"> F  </i>
   </separator>
   <separator name="electronic exchange-correlation" >
    <i type="logical" name="LASPH"> F  </i>
   </separator>
   <separator name="electronic convergence" >
    <i type="int" name="NELM">    60</i>
    <i type="int" name="NELMDL">    -5</i>
    <i type="int" name="NELMIN">     8</i>
    <i name="ENINI">    400.00000000</i>
    <separator name="electronic convergence detail" >
     <i type="logical" name="LDIAG"> T  </i>
     <i type="logical" name="LSUBROT"> F  </i>
     <i name="WEIMIN">      0.00100000</i>
     <i name="EBREAK">      0.00000000</i>
     <i name="DEPER">      0.30000000</i>
     <i type="int" name="NRMM">     4</i>
     <i name="TIME">      0.40000000</i>
    </separator>
   </separator>
   <separator name="electronic mixer" >
    <i name="AMIX">      0.40000000</i>
    <i name="BMIX">      1.00000000</i>
    <i name="AMIN">      0.10000000</i>
    <i name="AMIX_MAG">      1.60000000</i>
    <i name="BMIX_MAG">      1.00000000</i>
    <separator name="electronic mixer details" >
     <i type="int" name="IMIX">     4</i>
     <i type="logical" name="MIXFIRST"> F  </i>
     <i type="int" name="MAXMIX">   -45</i>
     <i name="WC">    100.00000000</i>
     <i type="int" name="INIMIX">     1</i>
     <i type="int" name="MIXPRE">     1</i>
     <i type="int" name="MREMOVE">     5</i>
    </separator>
   </separator>
   <separator name="electronic dipolcorrection" >
    <i type="logical" name="LDIPOL"> F  </i>
    <i type="logical" name="LMONO"> F  </i>
    <i type="int" name="IDIPOL">     0</i>
    <i name="EPSILON">      1.00000000</i>
    <v name="DIPOL">   -100.00000000   -100.00000000   -100.00000000</v>
    <i name="EFIELD">      0.00000000</i>
    <i type="logical" name="LVACPOTAV"> F  </i>
   </separator>
  </separator>
  <separator name="grids" >
   <i type="int" name="NGX">    70</i>
   <i type="int" name="NGY">    70</i>
   <i type="int" name="NGZ">    70</i>
   <i type="int" name="NGXF">   140</i>
   <i type="int" name="NGYF">   140</i>
   <i type="int" name="NGZF">   140</i>
   <i type="logical" name="ADDGRID"> T  </i>
  </separator>
  <separator name="ionic" >
   <i type="int" name="NSW">    60</i>
   <i type="int" name="IBRION">     2</i>
   <i type="int" name="MDALGO">     0</i>
   <i type="int" name="ISIF">     2</i>
   <i name="PSTRESS">      0.00000000</i>
   <i name="EDIFFG">     -0.01000000</i>
   <i type="int" name="NFREE">     1</i>
   <i name="POTIM">      0.50000000</i>
   <i name="SMASS">     -3.00000000</i>
   <i name="SCALEE">      1.00000000</i>
  </separator>
  <separator name="ionic md" >
   <i name="TEBEG">      0.00010000</i>
   <i name="TEEND">      0.00010000</i>
   <i type="int" name="NBLOCK">     1</i>
   <i type="int" name="KBLOCK">    60</i>
   <i type="int" name="NPACO">   256</i>
   <i name="APACO">     10.00000000</i>
  </separator>
  <separator name="symmetry" >
   <i type="int" name="ISYM">     2</i>
   <i name="SYMPREC">      0.00001000</i>
  </separator>
  <separator name="dos" >
   <i type="int" name="LORBIT">     0</i>
   <v name="RWIGS">     -1.00000000</v>
   <i type="int" name="NEDOS">   301</i>
   <i name="EMIN">     10.00000000</i>
   <i name="EMAX">    -10.00000000</i>
   <i name="EFERMI">      0.00000000</i>
  </separator>
  <separator name="writing" >
   <i type="int" name="NWRITE">     2</i>
   <i type="logical" name="LWAVE"> F  </i>
   <i type="logical" name="LDOWNSAMPLE"> F  </i>
   <i type="logical" name="LCHARG"> F  </i>
   <i type="logical" name="LPARD"> F  </i>
   <i type="logical" name="LVTOT"> F  </i>
   <i type="logical" name="LVHAR"> F  </i>
   <i type="logical" name="LELF"> F  </i>
   <i type="logical" name="LOPTICS"> F  </i>
   <v name="STM">      0.00000000      0.00000000      0.00000000      0.00000000      0.00000000      0.00000000      0.00000000</v>
  </separator>
  <separator name="performance" >
   <i type="int" name="NPAR">     2</i>
   <i type="int" name="NSIM">     4</i>
   <i type="int" name="NBLK">    -1</i>
   <i type="logical" name="LPLANE"> T  </i>
   <i type="logical" name="LSCALAPACK"> T  </i>
   <i type="logical" name="LSCAAWARE"> F  </i>
   <i type="logical" name="LSCALU"> F  </i>
   <i type="logical" name="LASYNC"> F  </i>
   <i type="logical" name="LORBITALREAL"> F  </i>
  </separator>
  <separator name="miscellaneous" >
   <i type="int" name="IDIOT">     3</i>
   <i type="int" name="PHON_NSTRUCT">    -1</i>
   <i type="logical" name="LMUSIC"> F  </i>
   <v name="POMASS">     28.08500000</v>
   <v name="DARWINR">      0.00000000</v>
   <v name="DARWINV">      1.00000000</v>
   <i type="logical" name="LCORR"> T  </i>
  </separator>
  <i type="logical" name="GGA_COMPAT"> F  </i>
  <i type="logical" name="LBERRY"> F  </i>
  <i type="int" name="ICORELEVEL">     0</i>
  <i type="logical" name="LDAU"> F  </i>
  <i type="int" name="I_CONSTRAINED_M">     0</i>
  <separator name="electronic exchange-correlation" >
   <i type="string" name="GGA    ">PS</i>
   <i type="string" name="XC_C">1</i>
   <i type="int" name="VOSKOWN">     0</i>
   <i type="logical" name="LHFCALC"> F  </i>
   <i type="string" name="PRECFOCK"></i>
   <i type="logical" name="LSYMGRAD"> F  </i>
   <i type="logical" name="LHFONE"> F  </i>
   <i type="logical" name="LRHFCALC"> F  </i>
   <i type="logical" name="LTHOMAS"> F  </i>
   <i type="logical" name="LMODELHF"> F  </i>
   <i type="logical" name="LFOCKACE"> F  </i>
   <i name="ENCUT4O">     -1.00000000</i>
   <i type="int" name="EXXOEP">     0</i>
   <i type="int" name="FOURORBIT">     0</i>
   <i name="AEXX">      0.00000000</i>
   <i name="HFALPHA">      0.00000000</i>
   <i name="MCALPHA">      0.00000000</i>
   <i name="ALDAX">      1.00000000</i>
   <i name="AGGAX">      1.00000000</i>
   <i name="AMGGAX">      1.00000000</i>
   <i name="ALDAC">      1.00000000</i>
   <i name="AGGAC">      1.00000000</i>
   <i name="AMGGAC">      1.00000000</i>
   <i type="int" name="NKREDX">     1</i>
   <i type="int" name="NKREDY">     1</i>
   <i type="int" name="NKREDZ">     1</i>
   <i type="logical" name="SHIFTRED"> F  </i>
   <i type="logical" name="ODDONLY"> F  </i>
   <i type="logical" name="EVENONLY"> F  </i>
   <i type="int" name="LMAXFOCK">     0</i>
   <i type="int" name="NMAXFOCKAE">     0</i>
   <i type="logical" name="LFOCKAEDFT"> F  </i>
   <i name="HFSCREEN">      0.00000000</i>
   <i name="HFSCREENC">      0.00000000</i>
   <i type="int" name="NBANDSGWLOW">     0</i>
  </separator>
  <separator name="vdW DFT" >
   <i type="logical" name="LUSE_VDW"> F  </i>
   <i type="int" name="IVDW_NL">    -1</i>
   <i type="logical" name="LSPIN_VDW"> F  </i>
   <i name="ZAB_VDW">     -0.84910000</i>
   <i name="GAMMA_VDW">      1.39626340</i>
   <i name="ALPHA_VDW">      0.00000000</i>
   <i name="PARAM1">      0.12340000</i>
   <i name="PARAM2">      1.00000000</i>
   <i name="BPARAM">      6.30000000</i>
   <i name="CPARAM">      0.00930000</i>
  </separator>
  <separator name="model GW" >
   <i type="int" name="MODEL_GW">     0</i>
   <i name="MODEL_EPS0">     11.08526307</i>
   <i name="MODEL_ALPHA">      1.00000000</i>
  </separator>
  <separator name="linear response parameters" >
   <i type="logical" name="LEPSILON"> F  </i>
   <i type="logical" name="LRPA"> F  </i>
   <i type="logical" name="LNABLA"> F  </i>
   <i type="logical" name="LVEL"> F  </i>
   <i name="CSHIFT">      0.10000000</i>
   <i name="OMEGAMAX">     -1.00000000</i>
   <i name="DEG_THRESHOLD">      0.00200000</i>
   <i name="RTIME">     -0.10000000</i>
   <i name="WPLASMAI">      0.00000000</i>
   <v name="DFIELD">      0.00000000      0.00000000      0.00000000</v>
   <v name="WPLASMA">      0.00000000      0.00000000      0.00000000      0.00000000      0.00000000      0.00000000      0.00000000      0.00000000      0.00000000</v>
  </separator>
  <separator name="orbital magnetization" >
   <i type="logical" name="NUCIND"> F  </i>
   <v name="MAGPOS">      0.00000000      0.00000000      0.00000000</v>
   <i type="logical" name="LNICSALL"> T  </i>
   <i type="logical" name="ORBITALMAG"> F  </i>
   <i type="logical" name="LMAGBLOCH"> F  </i>
   <i type="logical" name="LCHIMAG"> F  </i>
   <i type="logical" name="LGAUGE"> T  </i>
   <i type="int" name="MAGATOM">     0</i>
   <v name="MAGDIPOL">      0.00000000      0.00000000      0.00000000</v>
   <v name="AVECCONST">      0.00000000      0.00000000      0.00000000</v>
  </separator>
  <separator name="response functions" >
   <i type="logical" name="LALL_IN_ONE"> F  </i>
   <i type="int" name="IALL_IN_ONE">    -1</i>
   <i type="int" name="NBANDS_WAVE">    -1</i>
   <i type="logical" name="LFINITE_TEMPERATURE"> F  </i>
   <i type="logical" name="LADDER"> F  </i>
   <i type="logical" name="LRPAFORCE"> F  </i>
   <i type="logical" name="LFXC"> F  </i>
   <i type="logical" name="LHARTREE"> T  </i>
   <i type="int" name="IBSE">     0</i>
   <v type="int" name="KPOINT">    -1     0     0     0</v>
   <i type="logical" name="LTCTC"> F  </i>
   <i type="logical" name="LTCTE"> F  </i>
   <i type="logical" name="LTETE"> F  </i>
   <i type="logical" name="LTRIPLET"> F  </i>
   <i type="logical" name="LFXCEPS"> F  </i>
   <i type="logical" name="LFXHEG"> F  </i>
   <i type="int" name="NATURALO">     2</i>
   <i type="logical" name="LHOLEGF"> F  </i>
   <i type="logical" name="L2ORDER"> F  </i>
   <i type="logical" name="LDMP1"> F  </i>
   <i type="logical" name="LMP2LT"> F  </i>
   <i type="logical" name="LSMP2LT"> F  </i>
   <i type="logical" name="LGWLF"> F  </i>
   <i name="ENCUTGW">     -1.60000002</i>
   <i name="ENCUTGWSOFT">     -1.60000002</i>
   <i name="ENCUTLF">     -1.00000000</i>
   <i type="logical" name="ESF_SPLINES"> F  </i>
   <i name="ESF_CONV">      0.01000000</i>
   <i type="int" name="ESF_NINTER">    15</i>
   <i type="int" name="LMAXMP2">    -1</i>
   <i name="SCISSOR">      0.00000000</i>
   <i type="int" name="NOMEGA">     0</i>
   <i type="int" name="NOMEGAR">     0</i>
   <i type="int" name="NBANDSGW">    -1</i>
   <i type="int" name="NBANDSO">    -1</i>
   <i type="int" name="NBANDSV">    -1</i>
   <i type="int" name="NELMGW">     1</i>
   <i type="int" name="NELMHF">     1</i>
   <i type="int" name="DIM">     3</i>
   <i type="int" name="IESPILON">     4</i>
   <i type="int" name="ANTIRES">     0</i>
   <i name="OMEGAMAX">    -30.00000000</i>
   <i name="OMEGAMIN">    -30.00000000</i>
   <i name="OMEGATL">   -200.00000000</i>
   <i type="int" name="OMEGAGRID">     0</i>
   <i name="CSHIFT">     -0.10000000</i>
   <i type="logical" name="LSELFENERGY"> F  </i>
   <i type="logical" name="LSPECTRAL"> F  </i>
   <i type="logical" name="LSPECTRALGW"> F  </i>
   <i type="logical" name="LSINGLES"> F  </i>
   <i type="logical" name="LFERMIGW"> F  </i>
   <i type="logical" name="ODDONLYGW"> F  </i>
   <i type="logical" name="EVENONLYGW"> F  </i>
   <i type="int" name="NKREDLFX">     1</i>
   <i type="int" name="NKREDLFY">     1</i>
   <i type="int" name="NKREDLFZ">     1</i>
   <i type="int" name="MAXMEM">  2800</i>
   <i type="int" name="TELESCOPE">     0</i>
   <i type="int" name="NTAUPAR">    -1</i>
   <i type="int" name="NOMEGAPAR">    -1</i>
   <i name="DAMP_NEWTON">      0.80000001</i>
   <i name="LAMBDA">      1.00000000</i>
  </separator>
  <separator name="External order field" >
   <i name="OFIELD_KAPPA">      0.00000000</i>
   <v name="OFIELD_K">      0.00000000      0.00000000      0.00000000</v>
   <i name="OFIELD_Q6_NEAR">      0.00000000</i>
   <i name="OFIELD_Q6_FAR">      0.00000000</i>
   <i name="OFIELD_A">      0.00000000</i>
  </separator>
  <separator name="optional k-points parameters" >
   <i type="int" name="KPOINTS_OPT_MODE">     1</i>
   <i type="logical" name="LKPOINTS_OPT"> F  </i>
  </separator>
 </parameters>
 <atominfo>
  <atoms>      64 </atoms>
  <types>       1 </types>
  <array name="atoms" >
   <dimension dim="1">ion</dimension>
   <field type="string">element</field>
   <field type="int">atomtype</field>
   <set>
    <rc><c>Si</c><c>   1</c></rc>
    <rc><c>Si</c><c>   1</c></rc>
    <rc><c>Si</c><c>   1</c></rc>
    <rc><c>Si</c><c>   1</c></rc>
    <rc><c>Si</c><c>   1</c></rc>
    <rc><c>Si</c><c>   1</c></rc>
    <rc><c>Si</c><c>   1</c></rc>
    <rc><c>Si</c><c>   1</c></rc>
    <rc><c>Si</c><c>   1</c></rc>
    <rc><c>Si</c><c>   1</c></rc>
    <rc><c>Si</c><c>   1</c></rc>
    <rc><c>Si</c><c>   1</c></rc>
    <rc><c>Si</c><c>   1</c></rc>
    <rc><c>Si</c><c>   1</c></rc>
    <rc><c>Si</c><c>   1</c></rc>
    <rc><c>Si</c><c>   1</c></rc>
    <rc><c>Si</c><c>   1</c></rc>
    <rc><c>Si</c><c>   1</c></rc>
    <rc><c>Si</c><c>   1</c></rc>
    <rc><c>Si</c><c>   1</c></rc>
    <rc><c>Si</c><c>   1</c></rc>
    <rc><c>Si</c><c>   1</c></rc>
    <rc><c>Si</c><c>   1</c></rc>
    <rc><c>Si</c><c>   1</c></rc>
    <rc><c>Si</c><c>   1</c></rc>
    <rc><c>Si</c><c>   1</c></rc>
    <rc><c>Si</c><c>   1</c></rc>
    <rc><c>Si</c><c>   1</c></rc>
    <rc><c>Si</c><c>   1</c></rc>
    <rc><c>Si</c><c>   1</c></rc>
    <rc><c>Si</c><c>   1</c></rc>
    <rc><c>Si</c><c>   1</c></rc>
    <rc><c>Si</c><c>   1</c></rc>
    <rc><c>Si</c><c>   1</c></rc>
    <rc><c>Si</c><c>   1</c></rc>
    <rc><c>Si</c><c>   1</c></rc>
    <rc><c>Si</c><c>   1</c></rc>
    <rc><c>Si</c><c>   1</c></rc>
    <rc><c>Si</c><c>   1</c></rc>
    <rc><c>Si</c><c>   1</c></rc>
    <rc><c>Si</c><c>   1</c></rc>
    <rc><c>Si</c><c>   1</c></rc>
    <rc><c>Si</c><c>   1</c></rc>
    <rc><c>Si</c><c>   1</c></rc>
    <rc><c>Si</c><c>   1</c></rc>
    <rc><c>Si</c><c>   1</c></rc>
    <rc><c>Si</c><c>   1</c></rc>
    <rc><c>Si</c><c>   1</c></rc>
    <rc><c>Si</c><c>   1</c></rc>
    <rc><c>Si</c><c>   1</c></rc>
    <rc><c>Si</c><c>   1</c></rc>
    <rc><c>Si</c><c>   1</c></rc>
    <rc><c>Si</c><c>   1</c></rc>
    <rc><c>Si</c><c>   1</c></rc>
    <rc><c>Si</c><c>   1</c></rc>
    <rc><c>Si</c><c>   1</c></rc>
    <rc><c>Si</c><c>   1</c></rc>
    <rc><c>Si</c><c>   1</c></rc>
    <rc><c>Si</c><c>   1</c></rc>
    <rc><c>Si</c><c>   1</c></rc>
    <rc><c>Si</c><c>   1</c></rc>
    <rc><c>Si</c><c>   1</c></rc>
    <rc><c>Si</c><c>   1</c></rc>
    <rc><c>Si</c><c>   1</c></rc>
   </set>
  </array>
  <array name="atomtypes" >
   <dimension dim="1">type</dimension>
   <field type="int">atomspertype</field>
   <field type="string">element</field>
   <field>mass</field>
   <field>valence</field>
   <field type="string">pseudopotential</field>
   <set>
    <rc><c>  64</c><c>Si</c><c>     28.08500000</c><c>      4.00000000</c><c>  PAW_PBE Si 05Jan2001                  </c></rc>
   </set>
  </array>
 </atominfo>
 <structure name="initialpos" >
  <crystal>
   <varray name="basis" >
    <v>      10.60970157       0.02639200       0.00000000 </v>
    <v>       0.02639200      10.55691756       0.00000000 </v>
    <v>       0.00000000       0.00000000      10.55691756 </v>
   </varray>
   <i name="volume">   1182.42806036 </i>
   <varray name="rec_basis" >
    <v>       0.09425394      -0.00023563       0.00000000 </v>
    <v>      -0.00023563       0.09472521       0.00000000 </v>
    <v>       0.00000000       0.00000000       0.09472462 </v>
   </varray>
  </crystal>
  <varray name="positions" >
   <v>       0.00000000       0.00000000       0.00000000 </v>
   <v>       0.00000000       0.00000000       0.50000000 </v>
   <v>       0.00000000       0.50000000       0.00000000 </v>
   <v>       0.00000000       0.50000000       0.50000000 </v>
   <v>       0.50000000       0.00000000       0.00000000 </v>
   <v>       0.50000000       0.00000000       0.50000000 </v>
   <v>       0.50000000       0.50000000       0.00000000 </v>
   <v>       0.50000000       0.50000000       0.50000000 </v>
   <v>       0.37500000       0.37500000       0.12500000 </v>
   <v>       0.37500000       0.37500000       0.62500000 </v>
   <v>       0.37500000       0.87500000       0.12500000 </v>
   <v>       0.37500000       0.87500000       0.62500000 </v>
   <v>       0.87500000       0.37500000       0.12500000 </v>
   <v>       0.87500000       0.37500000       0.62500000 </v>
   <v>       0.87500000       0.87500000       0.12500000 </v>
   <v>       0.87500000       0.87500000       0.62500000 </v>
   <v>       0.00000000       0.25000000       0.25000000 </v>
   <v>       0.00000000       0.25000000       0.75000000 </v>
   <v>       0.00000000       0.75000000       0.25000000 </v>
   <v>       0.00000000       0.75000000       0.75000000 </v>
   <v>       0.50000000       0.25000000       0.25000000 </v>
   <v>       0.50000000       0.25000000       0.75000000 </v>
   <v>       0.50000000       0.75000000       0.25000000 </v>
   <v>       0.50000000       0.75000000       0.75000000 </v>
   <v>       0.37500000       0.12500000       0.37500000 </v>
   <v>       0.37500000       0.12500000       0.87500000 </v>
   <v>       0.37500000       0.62500000       0.37500000 </v>
   <v>       0.37500000       0.62500000       0.87500000 </v>
   <v>       0.87500000       0.12500000       0.37500000 </v>
   <v>       0.87500000       0.12500000       0.87500000 </v>
   <v>       0.87500000       0.62500000       0.37500000 </v>
   <v>       0.87500000       0.62500000       0.87500000 </v>
   <v>       0.25000000       0.00000000       0.25000000 </v>
   <v>       0.25000000       0.00000000       0.75000000 </v>
   <v>       0.25000000       0.50000000       0.25000000 </v>
   <v>       0.25000000       0.50000000       0.75000000 </v>
   <v>       0.75000000       0.00000000       0.25000000 </v>
   <v>       0.75000000       0.00000000       0.75000000 </v>
   <v>       0.75000000       0.50000000       0.25000000 </v>
   <v>       0.75000000       0.50000000       0.75000000 </v>
   <v>       0.12500000       0.37500000       0.37500000 </v>
   <v>       0.12500000       0.37500000       0.87500000 </v>
   <v>       0.12500000       0.87500000       0.37500000 </v>
   <v>       0.12500000       0.87500000       0.87500000 </v>
   <v>       0.62500000       0.37500000       0.37500000 </v>
   <v>       0.62500000       0.37500000       0.87500000 </v>
   <v>       0.62500000       0.87500000       0.37500000 </v>
   <v>       0.62500000       0.87500000       0.87500000 </v>
   <v>       0.25000000       0.25000000       0.00000000 </v>
   <v>       0.25000000       0.25000000       0.50000000 </v>
   <v>       0.25000000       0.75000000       0.00000000 </v>
   <v>       0.25000000       0.75000000       0.50000000 </v>
   <v>       0.75000000       0.25000000       0.00000000 </v>
   <v>       0.75000000       0.25000000       0.50000000 </v>
   <v>       0.75000000       0.75000000       0.00000000 </v>
   <v>       0.75000000       0.75000000       0.50000000 </v>
   <v>       0.12500000       0.12500000       0.12500000 </v>
   <v>       0.12500000       0.12500000       0.62500000 </v>
   <v>       0.12500000       0.62500000       0.12500000 </v>
   <v>       0.12500000       0.62500000       0.62500000 </v>
   <v>       0.62500000       0.12500000       0.12500000 </v>
   <v>       0.62500000       0.12500000       0.62500000 </v>
   <v>       0.62500000       0.62500000       0.12500000 </v>
   <v>       0.62500000       0.62500000       0.62500000 </v>
  </varray>
 </structure>
 <calculation>
  <scstep>
   <time name="dav">    1.24    1.27</time>
   <time name="total">    1.40    1.44</time>
   <energy>
    <i name="alphaZ">    116.61105515 </i>
    <i name="ewald">  -7511.52614914 </i>
    <i name="hartreedc">   -314.71160200 </i>
    <i name="XCdc">   -548.99172241 </i>
    <i name="pawpsdc">   5598.62625415 </i>
    <i name="pawaedc">  -4492.17844134 </i>
    <i name="eentropy">     -0.00906524 </i>
    <i name="bandstr">   1162.66059982 </i>
    <i name="atom">   6564.79586099 </i>
    <i name="e_fr_energy">    575.27678999 </i>
    <i name="e_wo_entrp">    575.28585523 </i>
    <i name="e_0_energy">    575.27981174 </i>
   </energy>
  </scstep>
  <scstep>
   <time name="dav">    1.32    1.33</time>
   <time name="total">    1.32    1.33</time>
   <energy>
    <i name="e_fr_energy">   -309.91075453 </i>
    <i name="e_wo_entrp">   -309.91658731 </i>
    <i name="e_0_energy">   -309.91269879 </i>
   </energy>
  </scstep>
  <scstep>
   <time name="dav">    1.33    1.35</time>
   <time name="total">    1.34    1.35</time>
   <energy>
    <i name="e_fr_energy">   -372.11464413 </i>
    <i name="e_wo_entrp">   -372.12209794 </i>
    <i name="e_0_energy">   -372.11712873 </i>
   </energy>
  </scstep>
  <scstep>
   <time name="dav">    1.31    1.33</time>
   <time name="total">    1.31    1.33</time>
   <energy>
    <i name="e_fr_energy">   -373.69602040 </i>
    <i name="e_wo_entrp">   -373.70399221 </i>
    <i name="e_0_energy">   -373.69867767 </i>
   </energy>
  </scstep>
  <scstep>
   <time name="dav">    1.37    1.39</time>
   <time name="total">    1.62    1.64</time>
   <energy>
    <i name="e_fr_energy">   -373.74291239 </i>
    <i name="e_wo_entrp">   -373.75086648 </i>
    <i name="e_0_energy">   -373.74556375 </i>
   </energy>
  </scstep>
  <scstep>
   <time name="diag">    0.13    0.14</time>
   <time name="diis">    0.69    0.69</time>
   <time name="orth">    0.02    0.02</time>
   <time name="total">    1.25    1.26</time>
   <energy>
    <i name="e_fr_energy">   -367.46935023 </i>
    <i name="e_wo_entrp">   -367.49085233 </i>
    <i name="e_0_energy">   -367.47651760 </i>
   </energy>
  </scstep>
  <scstep>
   <time name="diag">    0.13    0.13</time>
   <time name="diis">    0.71    0.71</time>
   <time name="orth">    0.02    0.02</time>
   <time name="total">    1.25    1.27</time>
   <energy>
    <i name="e_fr_energy">   -364.76958425 </i>
    <i name="e_wo_entrp">   -364.79548134 </i>
    <i name="e_0_energy">   -364.77821661 </i>
   </energy>
  </scstep>
  <scstep>
   <time name="diag">    0.14    0.14</time>
   <time name="diis">    0.70    0.70</time>
   <time name="orth">    0.02    0.02</time>
   <time name="total">    1.25    1.27</time>
   <energy>
    <i name="e_fr_energy">   -364.80086325 </i>
    <i name="e_wo_entrp">   -364.83227350 </i>
    <i name="e_0_energy">   -364.81133334 </i>
   </energy>
  </scstep>
  <scstep>
   <time name="diag">    0.13    0.14</time>
   <time name="diis">    0.69    0.71</time>
   <time name="orth">    0.02    0.02</time>
   <time name="total">    1.23    1.28</time>
   <energy>
    <i name="e_fr_energy">   -364.82492349 </i>
    <i name="e_wo_entrp">   -364.85514907 </i>
    <i name="e_0_energy">   -364.83499869 </i>
   </energy>
  </scstep>
  <scstep>
   <time name="diag">    0.13    0.13</time>
   <time name="diis">    0.71    0.72</time>
   <time name="orth">    0.02    0.02</time>
   <time name="total">    1.26    1.28</time>
   <energy>
    <i name="e_fr_energy">   -364.82939767 </i>
    <i name="e_wo_entrp">   -364.85956301 </i>
    <i name="e_0_energy">   -364.83945278 </i>
   </energy>
  </scstep>
  <scstep>
   <time name="diag">    0.13    0.13</time>
   <time name="diis">    0.69    0.69</time>
   <time name="orth">    0.02    0.02</time>
   <time name="total">    1.24    1.25</time>
   <energy>
    <i name="e_fr_energy">   -364.82448797 </i>
    <i name="e_wo_entrp">   -364.85597255 </i>
    <i name="e_0_energy">   -364.83498283 </i>
   </energy>
  </scstep>
  <scstep>
   <time name="diag">    0.13    0.13</time>
   <time name="diis">    0.69    0.69</time>
   <time name="orth">    0.02    0.02</time>
   <time name="total">    1.23    1.25</time>
   <energy>
    <i name="e_fr_energy">   -364.82464203 </i>
    <i name="e_wo_entrp">   -364.85615696 </i>
    <i name="e_0_energy">   -364.83514700 </i>
   </energy>
  </scstep>
  <scstep>
   <time name="diag">    0.13    0.13</time>
   <time name="diis">    0.72    0.73</time>
   <time name="orth">    0.02    0.02</time>
   <time name="total">    1.28    1.29</time>
   <energy>
    <i name="e_fr_energy">   -364.82471149 </i>
    <i name="e_wo_entrp">   -364.85622839 </i>
    <i name="e_0_energy">   -364.83521712 </i>
   </energy>
  </scstep>
  <scstep>
   <time name="diag">    0.13    0.13</time>
   <time name="diis">    0.68    0.69</time>
   <time name="orth">    0.02    0.02</time>
   <time name="total">    1.23    1.25</time>
   <energy>
    <i name="e_fr_energy">   -364.82462780 </i>
    <i name="e_wo_entrp">   -364.85618515 </i>
    <i name="e_0_energy">   -364.83514691 </i>
   </energy>
  </scstep>
  <scstep>
   <time name="diag">    0.13    0.13</time>
   <time name="diis">    0.70    0.70</time>
   <time name="orth">    0.02    0.02</time>
   <time name="total">    1.24    1.26</time>
   <energy>
    <i name="e_fr_energy">   -364.82477950 </i>
    <i name="e_wo_entrp">   -364.85637925 </i>
    <i name="e_0_energy">   -364.83531275 </i>
   </energy>
  </scstep>
  <scstep>
   <time name="diag">    0.13    0.13</time>
   <time name="diis">    0.70    0.70</time>
   <time name="orth">    0.02    0.02</time>
   <time name="total">    1.26    1.28</time>
   <energy>
    <i name="e_fr_energy">   -364.82486630 </i>
    <i name="e_wo_entrp">   -364.85645277 </i>
    <i name="e_0_energy">   -364.83539512 </i>
   </energy>
  </scstep>
  <scstep>
   <time name="diag">    0.13    0.13</time>
   <time name="diis">    0.73    0.73</time>
   <time name="orth">    0.02    0.02</time>
   <time name="total">    1.28    1.30</time>
   <energy>
    <i name="e_fr_energy">   -364.82489468 </i>
    <i name="e_wo_entrp">   -364.85649972 </i>
    <i name="e_0_energy">   -364.83542970 </i>
   </energy>
  </scstep>
  <scstep>
   <time name="diag">    0.13    0.13</time>
   <time name="diis">    0.68    0.68</time>
   <time name="orth">    0.02    0.02</time>
   <time name="total">    1.23    1.24</time>
   <energy>
    <i name="e_fr_energy">   -364.82490693 </i>
    <i name="e_wo_entrp">   -364.85652215 </i>
    <i name="e_0_energy">   -364.83544534 </i>
   </energy>
  </scstep>
  <scstep>
   <time name="diag">    0.13    0.13</time>
   <time name="diis">    0.45    0.45</time>
   <time name="orth">    0.02    0.02</time>
   <time name="total">    1.00    1.01</time>
   <energy>
    <i name="e_fr_energy">   -364.82490881 </i>
    <i name="e_wo_entrp">   -364.85652652 </i>
    <i name="e_0_energy">   -364.83544805 </i>
   </energy>
  </scstep>
  <scstep>
   <time name="diag">    0.13    0.13</time>
   <time name="diis">    0.44    0.44</time>
   <time name="orth">    0.02    0.02</time>
   <time name="total">    0.75    0.76</time>
   <energy>
    <i name="alphaZ">    116.61105515 </i>
    <i name="ewald">  -7511.52614914 </i>
    <i name="hartreedc">   -438.68309153 </i>
    <i name="XCdc">   -527.90893974 </i>
    <i name="pawpsdc">  33101.23045131 </i>
    <i name="pawaedc"> -32003.79601194 </i>
    <i name="eentropy">      0.03161838 </i>
    <i name="bandstr">    334.42029728 </i>
    <i name="atom">   6564.79586099 </i>
    <i name="e_fr_energy">   -364.82490925 </i>
    <i name="e_wo_entrp">   -364.85652762 </i>
    <i name="e_0_energy">   -364.83544871 </i>
   </energy>
  </scstep>
  <structure>
   <crystal>
    <varray name="basis" >
     <v>      10.60970157       0.02639200       0.00000000 </v>
     <v>       0.02639200      10.55691756       0.00000000 </v>
     <v>       0.00000000       0.00000000      10.55691756 </v>
    </varray>
    <i name="volume">   1182.42806036 </i>
    <varray name="rec_basis" >
     <v>       0.09425394      -0.00023563       0.00000000 </v>
     <v>      -0.00023563       0.09472521       0.00000000 </v>
     <v>       0.00000000       0.00000000       0.09472462 </v>
    </varray>
   </crystal>
   <varray name="positions" >
    <v>       0.00000000       0.00000000       0.00000000 </v>
    <v>       0.00000000       0.00000000       0.50000000 </v>
    <v>       0.00000000       0.50000000       0.00000000 </v>
    <v>       0.00000000       0.50000000       0.50000000 </v>
    <v>       0.50000000       0.00000000       0.00000000 </v>
    <v>       0.50000000       0.00000000       0.50000000 </v>
    <v>       0.50000000       0.50000000       0.00000000 </v>
    <v>       0.50000000       0.50000000       0.50000000 </v>
    <v>       0.37500000       0.37500000       0.12500000 </v>
    <v>       0.37500000       0.37500000       0.62500000 </v>
    <v>       0.37500000       0.87500000       0.12500000 </v>
    <v>       0.37500000       0.87500000       0.62500000 </v>
    <v>       0.87500000       0.37500000       0.12500000 </v>
    <v>       0.87500000       0.37500000       0.62500000 </v>
    <v>       0.87500000       0.87500000       0.12500000 </v>
    <v>       0.87500000       0.87500000       0.62500000 </v>
    <v>       0.00000000       0.25000000       0.25000000 </v>
    <v>       0.00000000       0.25000000       0.75000000 </v>
    <v>       0.00000000       0.75000000       0.25000000 </v>
    <v>       0.00000000       0.75000000       0.75000000 </v>
    <v>       0.50000000       0.25000000       0.25000000 </v>
    <v>       0.50000000       0.25000000       0.75000000 </v>
    <v>       0.50000000       0.75000000       0.25000000 </v>
    <v>       0.50000000       0.75000000       0.75000000 </v>
    <v>       0.37500000       0.12500000       0.37500000 </v>
    <v>       0.37500000       0.12500000       0.87500000 </v>
    <v>       0.37500000       0.62500000       0.37500000 </v>
    <v>       0.37500000       0.62500000       0.87500000 </v>
    <v>       0.87500000       0.12500000       0.37500000 </v>
    <v>       0.87500000       0.12500000       0.87500000 </v>
    <v>       0.87500000       0.62500000       0.37500000 </v>
    <v>       0.87500000       0.62500000       0.87500000 </v>
    <v>       0.25000000       0.00000000       0.25000000 </v>
    <v>       0.25000000       0.00000000       0.75000000 </v>
    <v>       0.25000000       0.50000000       0.25000000 </v>
    <v>       0.25000000       0.50000000       0.75000000 </v>
    <v>       0.75000000       0.00000000       0.25000000 </v>
    <v>       0.75000000       0.00000000       0.75000000 </v>
    <v>       0.75000000       0.50000000       0.25000000 </v>
    <v>       0.75000000       0.50000000       0.75000000 </v>
    <v>       0.12500000       0.37500000       0.37500000 </v>
    <v>       0.12500000       0.37500000       0.87500000 </v>
    <v>       0.12500000       0.87500000       0.37500000 </v>
    <v>       0.12500000       0.87500000       0.87500000 </v>
    <v>       0.62500000       0.37500000       0.37500000 </v>
    <v>       0.62500000       0.37500000       0.87500000 </v>
    <v>       0.62500000       0.87500000       0.37500000 </v>
    <v>       0.62500000       0.87500000       0.87500000 </v>
    <v>       0.25000000       0.25000000       0.00000000 </v>
    <v>       0.25000000       0.25000000       0.50000000 </v>
    <v>       0.25000000       0.75000000       0.00000000 </v>
    <v>       0.25000000       0.75000000       0.50000000 </v>
    <v>       0.75000000       0.25000000       0.00000000 </v>
    <v>       0.75000000       0.25000000       0.50000000 </v>
    <v>       0.75000000       0.75000000       0.00000000 </v>
    <v>       0.75000000       0.75000000       0.50000000 </v>
    <v>       0.12500000       0.12500000       0.12500000 </v>
    <v>       0.12500000       0.12500000       0.62500000 </v>
    <v>       0.12500000       0.62500000       0.12500000 </v>
    <v>       0.12500000       0.62500000       0.62500000 </v>
    <v>       0.62500000       0.12500000       0.12500000 </v>
    <v>       0.62500000       0.12500000       0.62500000 </v>
    <v>       0.62500000       0.62500000       0.12500000 </v>
    <v>       0.62500000       0.62500000       0.62500000 </v>
   </varray>
  </structure>
  <varray name="forces" >
   <v>      -0.00000000      -0.00000000       0.06999500 </v>
   <v>       0.00000000      -0.00000000       0.06999500 </v>
   <v>       0.00000000       0.00000000       0.06999500 </v>
   <v>      -0.00000000       0.00000000       0.06999500 </v>
   <v>       0.00000000      -0.00000000       0.06999500 </v>
   <v>       0.00000000      -0.00000000       0.06999500 </v>
   <v>       0.00000000       0.00000000       0.06999500 </v>
   <v>       0.00000000       0.00000000       0.06999500 </v>
   <v>      -0.00000000      -0.00000000      -0.06999500 </v>
   <v>      -0.00000000      -0.00000000      -0.06999500 </v>
   <v>      -0.00000000      -0.00000000      -0.06999500 </v>
   <v>      -0.00000000      -0.00000000      -0.06999500 </v>
   <v>      -0.00000000       0.00000000      -0.06999500 </v>
   <v>       0.00000000       0.00000000      -0.06999500 </v>
   <v>      -0.00000000       0.00000000      -0.06999500 </v>
   <v>       0.00000000       0.00000000      -0.06999500 </v>
   <v>      -0.00000000       0.00000000       0.06999500 </v>
   <v>      -0.00000000       0.00000000       0.06999500 </v>
   <v>       0.00000000      -0.00000000       0.06999500 </v>
   <v>       0.00000000      -0.00000000       0.06999500 </v>
   <v>       0.00000000      -0.00000000       0.06999500 </v>
   <v>       0.00000000      -0.00000000       0.06999500 </v>
   <v>       0.00000000       0.00000000       0.06999500 </v>
   <v>       0.00000000       0.00000000       0.06999500 </v>
   <v>      -0.00000000      -0.00000000      -0.06999500 </v>
   <v>      -0.00000000      -0.00000000      -0.06999500 </v>
   <v>      -0.00000000      -0.00000000      -0.06999500 </v>
   <v>      -0.00000000      -0.00000000      -0.06999500 </v>
   <v>       0.00000000       0.00000000      -0.06999500 </v>
   <v>      -0.00000000       0.00000000      -0.06999500 </v>
   <v>       0.00000000       0.00000000      -0.06999500 </v>
   <v>       0.00000000       0.00000000      -0.06999500 </v>
   <v>      -0.00000000      -0.00000000       0.06999500 </v>
   <v>       0.00000000       0.00000000       0.06999500 </v>
   <v>      -0.00000000      -0.00000000       0.06999500 </v>
   <v>      -0.00000000       0.00000000       0.06999500 </v>
   <v>       0.00000000      -0.00000000       0.06999500 </v>
   <v>      -0.00000000      -0.00000000       0.06999500 </v>
   <v>      -0.00000000       0.00000000       0.06999500 </v>
   <v>      -0.00000000       0.00000000       0.06999500 </v>
   <v>       0.00000000       0.00000000      -0.06999500 </v>
   <v>       0.00000000       0.00000000      -0.06999500 </v>
   <v>       0.00000000       0.00000000      -0.06999500 </v>
   <v>       0.00000000       0.00000000      -0.06999500 </v>
   <v>      -0.00000000      -0.00000000      -0.06999500 </v>
   <v>      -0.00000000      -0.00000000      -0.06999500 </v>
   <v>      -0.00000000      -0.00000000      -0.06999500 </v>
   <v>      -0.00000000      -0.00000000      -0.06999500 </v>
   <v>      -0.00000000       0.00000000       0.06999500 </v>
   <v>       0.00000000       0.00000000       0.06999500 </v>
   <v>       0.00000000      -0.00000000       0.06999500 </v>
   <v>      -0.00000000       0.00000000       0.06999500 </v>
   <v>      -0.00000000      -0.00000000       0.06999500 </v>
   <v>      -0.00000000       0.00000000       0.06999500 </v>
   <v>      -0.00000000       0.00000000       0.06999500 </v>
   <v>      -0.00000000       0.00000000       0.06999500 </v>
   <v>       0.00000000       0.00000000      -0.06999500 </v>
   <v>       0.00000000       0.00000000      -0.06999500 </v>
   <v>       0.00000000       0.00000000      -0.06999500 </v>
   <v>       0.00000000       0.00000000      -0.06999500 </v>
   <v>      -0.00000000      -0.00000000      -0.06999500 </v>
   <v>      -0.00000000      -0.00000000      -0.06999500 </v>
   <v>      -0.00000000      -0.00000000      -0.06999500 </v>
   <v>      -0.00000000      -0.00000000      -0.06999500 </v>
  </varray>
  <varray name="stress" >
   <v>      90.33798223      -6.36801614       0.00000000 </v>
   <v>      -6.36801613      94.56051011       0.00000000 </v>
   <v>       0.00000000       0.00000000      94.52740852 </v>
  </varray>
  <energy>
   <i name="e_fr_energy">   -364.82490925 </i>
   <i name="e_wo_entrp">   -364.85652762 </i>
   <i name="e_0_energy">   -364.83544871 </i>
  </energy>
  <time name="totalsc">   28.65   29.05</time>
 </calculation>
 <calculation>
  <scstep>
   <time name="dav">    1.27    1.27</time>
   <time name="total">    1.66    1.67</time>
   <energy>
    <i name="alphaZ">    116.61105515 </i>
    <i name="ewald">  -7511.59656495 </i>
    <i name="hartreedc">   -438.64305235 </i>
    <i name="XCdc">   -527.91042222 </i>
    <i name="pawpsdc">  33106.28739225 </i>
    <i name="pawaedc"> -32008.85282147 </i>
    <i name="eentropy">      0.02964224 </i>
    <i name="bandstr">    334.45129207 </i>
    <i name="atom">   6564.79586099 </i>
    <i name="e_fr_energy">   -364.82761829 </i>
    <i name="e_wo_entrp">   -364.85726054 </i>
    <i name="e_0_energy">   -364.83749904 </i>
   </energy>
  </scstep>
  <scstep>
   <time name="diag">    0.13    0.13</time>
   <time name="diis">    0.69    0.69</time>
   <time name="orth">    0.02    0.02</time>
   <time name="total">    1.23    1.25</time>
   <energy>
    <i name="e_fr_energy">   -364.82858116 </i>
    <i name="e_wo_entrp">   -364.85823980 </i>
    <i name="e_0_energy">   -364.83846737 </i>
   </energy>
  </scstep>
  <scstep>
   <time name="diag">    0.13    0.13</time>
   <time name="diis">    0.70    0.70</time>
   <time name="orth">    0.02    0.02</time>
   <time name="total">    1.24    1.26</time>
   <energy>
    <i name="e_fr_energy">   -364.82869535 </i>
    <i name="e_wo_entrp">   -364.85844859 </i>
    <i name="e_0_energy">   -364.83861310 </i>
   </energy>
  </scstep>
  <scstep>
   <time name="diag">    0.13    0.13</time>
   <time name="diis">    0.69    0.69</time>
   <time name="orth">    0.02    0.02</time>
   <time name="total">    1.23    1.27</time>
   <energy>
    <i name="e_fr_energy">   -364.82868981 </i>
    <i name="e_wo_entrp">   -364.85851518 </i>
    <i name="e_0_energy">   -364.83863160 </i>
   </energy>
  </scstep>
  <scstep>
   <time name="diag">    0.13    0.13</time>
   <time name="diis">    0.71    0.71</time>
   <time name="orth">    0.02    0.02</time>
   <time name="total">    1.25    1.27</time>
   <energy>
    <i name="e_fr_energy">   -364.82869165 </i>
    <i name="e_wo_entrp">   -364.85854223 </i>
    <i name="e_0_energy">   -364.83864185 </i>
   </energy>
  </scstep>
  <scstep>
   <time name="diag">    0.13    0.13</time>
   <time name="diis">    0.62    0.63</time>
   <time name="orth">    0.03    0.03</time>
   <time name="total">    1.18    1.20</time>
   <energy>
    <i name="e_fr_energy">   -364.82869251 </i>
    <i name="e_wo_entrp">   -364.85854195 </i>
    <i name="e_0_energy">   -364.83864233 </i>
   </energy>
  </scstep>
  <scstep>
   <time name="diag">    0.14    0.14</time>
   <time name="diis">    0.47    0.47</time>
   <time name="orth">    0.02    0.02</time>
   <time name="total">    1.01    1.03</time>
   <energy>
    <i name="e_fr_energy">   -364.82869262 </i>
    <i name="e_wo_entrp">   -364.85854122 </i>
    <i name="e_0_energy">   -364.83864216 </i>
   </energy>
  </scstep>
  <scstep>
   <time name="diag">    0.14    0.14</time>
   <time name="diis">    0.43    0.43</time>
   <time name="orth">    0.02    0.02</time>
   <time name="total">    0.75    0.76</time>
   <energy>
    <i name="alphaZ">    116.61105515 </i>
    <i name="ewald">  -7511.59656495 </i>
    <i name="hartreedc">   -438.61107455 </i>
    <i name="XCdc">   -527.91486478 </i>
    <i name="pawpsdc">  33101.60143522 </i>
    <i name="pawaedc"> -32004.16468057 </i>
    <i name="eentropy">      0.02984881 </i>
    <i name="bandstr">    334.42029204 </i>
    <i name="atom">   6564.79586099 </i>
    <i name="e_fr_energy">   -364.82869264 </i>
    <i name="e_wo_entrp">   -364.85854145 </i>
    <i name="e_0_energy">   -364.83864224 </i>
   </energy>
  </scstep>
  <structure>
   <crystal>
    <varray name="basis" >
     <v>      10.60970157       0.02639200       0.00000000 </v>
     <v>       0.02639200      10.55691756       0.00000000 </v>
     <v>       0.00000000       0.00000000      10.55691756 </v>
    </varray>
    <i name="volume">   1182.42806036 </i>
    <varray name="rec_basis" >
     <v>       0.09425394      -0.00023563       0.00000000 </v>
     <v>      -0.00023563       0.09472521       0.00000000 </v>
     <v>       0.00000000       0.00000000       0.09472462 </v>
    </varray>
   </crystal>
   <varray name="positions" >
    <v>       1.00000000       1.00000000       0.00031986 </v>
    <v>       0.00000000       1.00000000       0.50031986 </v>
    <v>       0.00000000       0.50000000       0.00031986 </v>
    <v>       1.00000000       0.50000000       0.50031986 </v>
    <v>       0.50000000       1.00000000       0.00031986 </v>
    <v>       0.50000000       1.00000000       0.50031986 </v>
    <v>       0.50000000       0.50000000       0.00031986 </v>
    <v>       0.50000000       0.50000000       0.50031986 </v>
    <v>       0.37500000       0.37500000       0.12468014 </v>
    <v>       0.37500000       0.37500000       0.62468014 </v>
    <v>       0.37500000       0.87500000       0.12468014 </v>
    <v>       0.37500000       0.87500000       0.62468014 </v>
    <v>       0.87500000       0.37500000       0.12468014 </v>
    <v>       0.87500000       0.37500000       0.62468014 </v>
    <v>       0.87500000       0.87500000       0.12468014 </v>
    <v>       0.87500000       0.87500000       0.62468014 </v>
    <v>       1.00000000       0.25000000       0.25031986 </v>
    <v>       1.00000000       0.25000000       0.75031986 </v>
    <v>       0.00000000       0.75000000       0.25031986 </v>
    <v>       0.00000000       0.75000000       0.75031986 </v>
    <v>       0.50000000       0.25000000       0.25031986 </v>
    <v>       0.50000000       0.25000000       0.75031986 </v>
    <v>       0.50000000       0.75000000       0.25031986 </v>
    <v>       0.50000000       0.75000000       0.75031986 </v>
    <v>       0.37500000       0.12500000       0.37468014 </v>
    <v>       0.37500000       0.12500000       0.87468014 </v>
    <v>       0.37500000       0.62500000       0.37468014 </v>
    <v>       0.37500000       0.62500000       0.87468014 </v>
    <v>       0.87500000       0.12500000       0.37468014 </v>
    <v>       0.87500000       0.12500000       0.87468014 </v>
    <v>       0.87500000       0.62500000       0.37468014 </v>
    <v>       0.87500000       0.62500000       0.87468014 </v>
    <v>       0.25000000       1.00000000       0.25031986 </v>
    <v>       0.25000000       0.00000000       0.75031986 </v>
    <v>       0.25000000       0.50000000       0.25031986 </v>
    <v>       0.25000000       0.50000000       0.75031986 </v>
    <v>       0.75000000       1.00000000       0.25031986 </v>
    <v>       0.75000000       1.00000000       0.75031986 </v>
    <v>       0.75000000       0.50000000       0.25031986 </v>
    <v>       0.75000000       0.50000000       0.75031986 </v>
    <v>       0.12500000       0.37500000       0.37468014 </v>
    <v>       0.12500000       0.37500000       0.87468014 </v>
    <v>       0.12500000       0.87500000       0.37468014 </v>
    <v>       0.12500000       0.87500000       0.87468014 </v>
    <v>       0.62500000       0.37500000       0.37468014 </v>
    <v>       0.62500000       0.37500000       0.87468014 </v>
    <v>       0.62500000       0.87500000       0.37468014 </v>
    <v>       0.62500000       0.87500000       0.87468014 </v>
    <v>       0.25000000       0.25000000       0.00031986 </v>
    <v>       0.25000000       0.25000000       0.50031986 </v>
    <v>       0.25000000       0.75000000       0.00031986 </v>
    <v>       0.25000000       0.75000000       0.50031986 </v>
    <v>       0.75000000       0.25000000       0.00031986 </v>
    <v>       0.75000000       0.25000000       0.50031986 </v>
    <v>       0.75000000       0.75000000       0.00031986 </v>
    <v>       0.75000000       0.75000000       0.50031986 </v>
    <v>       0.12500000       0.12500000       0.12468014 </v>
    <v>       0.12500000       0.12500000       0.62468014 </v>
    <v>       0.12500000       0.62500000       0.12468014 </v>
    <v>       0.12500000       0.62500000       0.62468014 </v>
    <v>       0.62500000       0.12500000       0.12468014 </v>
    <v>       0.62500000       0.12500000       0.62468014 </v>
    <v>       0.62500000       0.62500000       0.12468014 </v>
    <v>       0.62500000       0.62500000       0.62468014 </v>
   </varray>
  </structure>
  <varray name="forces" >
   <v>      -0.00000000       0.00000000      -0.03468909 </v>
   <v>      -0.00000000       0.00000000      -0.03468909 </v>
   <v>      -0.00000000       0.00000000      -0.03468909 </v>
   <v>       0.00000000       0.00000000      -0.03468909 </v>
   <v>      -0.00000000       0.00000000      -0.03468909 </v>
   <v>      -0.00000000      -0.00000000      -0.03468909 </v>
   <v>      -0.00000000       0.00000000      -0.03468909 </v>
   <v>      -0.00000000       0.00000000      -0.03468909 </v>
   <v>       0.00000000      -0.00000000       0.03468909 </v>
   <v>       0.00000000       0.00000000       0.03468909 </v>
   <v>       0.00000000      -0.00000000       0.03468909 </v>
   <v>       0.00000000      -0.00000000       0.03468909 </v>
   <v>       0.00000000      -0.00000000       0.03468909 </v>
   <v>      -0.00000000      -0.00000000       0.03468909 </v>
   <v>      -0.00000000      -0.00000000       0.03468909 </v>
   <v>      -0.00000000      -0.00000000       0.03468909 </v>
   <v>      -0.00000000       0.00000000      -0.03468909 </v>
   <v>      -0.00000000       0.00000000      -0.03468909 </v>
   <v>      -0.00000000       0.00000000      -0.03468909 </v>
   <v>      -0.00000000       0.00000000      -0.03468909 </v>
   <v>      -0.00000000      -0.00000000      -0.03468909 </v>
   <v>       0.00000000       0.00000000      -0.03468909 </v>
   <v>       0.00000000       0.00000000      -0.03468909 </v>
   <v>      -0.00000000       0.00000000      -0.03468909 </v>
   <v>       0.00000000       0.00000000       0.03468909 </v>
   <v>       0.00000000      -0.00000000       0.03468909 </v>
   <v>       0.00000000      -0.00000000       0.03468909 </v>
   <v>       0.00000000       0.00000000       0.03468909 </v>
   <v>      -0.00000000      -0.00000000       0.03468909 </v>
   <v>       0.00000000      -0.00000000       0.03468909 </v>
   <v>      -0.00000000      -0.00000000       0.03468909 </v>
   <v>      -0.00000000      -0.00000000       0.03468909 </v>
   <v>       0.00000000      -0.00000000      -0.03468909 </v>
   <v>       0.00000000      -0.00000000      -0.03468909 </v>
   <v>       0.00000000      -0.00000000      -0.03468909 </v>
   <v>       0.00000000      -0.00000000      -0.03468909 </v>
   <v>      -0.00000000      -0.00000000      -0.03468909 </v>
   <v>       0.00000000       0.00000000      -0.03468909 </v>
   <v>       0.00000000      -0.00000000      -0.03468909 </v>
   <v>       0.00000000      -0.00000000      -0.03468909 </v>
   <v>      -0.00000000      -0.00000000       0.03468909 </v>
   <v>      -0.00000000      -0.00000000       0.03468909 </v>
   <v>      -0.00000000      -0.00000000       0.03468909 </v>
   <v>      -0.00000000      -0.00000000       0.03468909 </v>
   <v>       0.00000000       0.00000000       0.03468909 </v>
   <v>       0.00000000       0.00000000       0.03468909 </v>
   <v>      -0.00000000       0.00000000       0.03468909 </v>
   <v>       0.00000000       0.00000000       0.03468909 </v>
   <v>       0.00000000      -0.00000000      -0.03468909 </v>
   <v>       0.00000000      -0.00000000      -0.03468909 </v>
   <v>       0.00000000      -0.00000000      -0.03468909 </v>
   <v>       0.00000000       0.00000000      -0.03468909 </v>
   <v>       0.00000000      -0.00000000      -0.03468909 </v>
   <v>      -0.00000000      -0.00000000      -0.03468909 </v>
   <v>      -0.00000000      -0.00000000      -0.03468909 </v>
   <v>       0.00000000      -0.00000000      -0.03468909 </v>
   <v>      -0.00000000      -0.00000000       0.03468909 </v>
   <v>      -0.00000000      -0.00000000       0.03468909 </v>
   <v>      -0.00000000      -0.00000000       0.03468909 </v>
   <v>      -0.00000000      -0.00000000       0.03468909 </v>
   <v>      -0.00000000       0.00000000       0.03468909 </v>
   <v>      -0.00000000       0.00000000       0.03468909 </v>
   <v>      -0.00000000       0.00000000       0.03468909 </v>
   <v>       0.00000000       0.00000000       0.03468909 </v>
  </varray>
  <varray name="stress" >
   <v>      90.27357303      -2.25373410       0.00000000 </v>
   <v>      -2.25373413      94.53444717       0.00000000 </v>
   <v>       0.00000000       0.00000000      94.41544106 </v>
  </varray>
  <energy>
   <i name="e_fr_energy">   -364.82869264 </i>
   <i name="e_wo_entrp">   -364.85854145 </i>
   <i name="e_0_energy">   -364.83864224 </i>
  </energy>
  <time name="totalsc">   13.21   13.38</time>
 </calculation>
 <calculation>
  <scstep>
   <time name="dav">    1.28    1.28</time>
   <time name="total">    1.67    1.68</time>
   <energy>
    <i name="alphaZ">    116.61105515 </i>
    <i name="ewald">  -7511.57730556 </i>
    <i name="hartreedc">   -438.62263329 </i>
    <i name="XCdc">   -527.91431776 </i>
    <i name="pawpsdc">  33101.52996752 </i>
    <i name="pawaedc"> -32004.09320524 </i>
    <i name="eentropy">      0.03072389 </i>
    <i name="bandstr">    334.41002926 </i>
    <i name="atom">   6564.79586099 </i>
    <i name="e_fr_energy">   -364.82982506 </i>
    <i name="e_wo_entrp">   -364.86054895 </i>
    <i name="e_0_energy">   -364.84006635 </i>
   </energy>
  </scstep>
  <scstep>
   <time name="diag">    0.13    0.13</time>
   <time name="diis">    0.69    0.69</time>
   <time name="orth">    0.02    0.02</time>
   <time name="total">    1.25    1.26</time>
   <energy>
    <i name="e_fr_energy">   -364.82992967 </i>
    <i name="e_wo_entrp">   -364.86064877 </i>
    <i name="e_0_energy">   -364.84016937 </i>
   </energy>
  </scstep>
  <scstep>
   <time name="diag">    0.13    0.13</time>
   <time name="diis">    0.70    0.70</time>
   <time name="orth">    0.02    0.02</time>
   <time name="total">    1.25    1.27</time>
   <energy>
    <i name="e_fr_energy">   -364.82994171 </i>
    <i name="e_wo_entrp">   -364.86063715 </i>
    <i name="e_0_energy">   -364.84017352 </i>
   </energy>
  </scstep>
  <scstep>
   <time name="diag">    0.13    0.13</time>
   <time name="diis">    0.69    0.70</time>
   <time name="orth">    0.02    0.02</time>
   <time name="total">    1.25    1.26</time>
   <energy>
    <i name="e_fr_energy">   -364.82994116 </i>
    <i name="e_wo_entrp">   -364.86061870 </i>
    <i name="e_0_energy">   -364.84016701 </i>
   </energy>
  </scstep>
  <scstep>
   <time name="diag">    0.13    0.13</time>
   <time name="diis">    0.52    0.53</time>
   <time name="orth">    0.02    0.02</time>
   <time name="total">    1.07    1.10</time>
   <energy>
    <i name="e_fr_energy">   -364.82994133 </i>
    <i name="e_wo_entrp">   -364.86061253 </i>
    <i name="e_0_energy">   -364.84016507 </i>
   </energy>
  </scstep>
  <scstep>
   <time name="diag">    0.16    0.16</time>
   <time name="diis">    0.44    0.44</time>
   <time name="orth">    0.02    0.02</time>
   <time name="total">    1.01    1.04</time>
   <energy>
    <i name="e_fr_energy">   -364.82994140 </i>
    <i name="e_wo_entrp">   -364.86061292 </i>
    <i name="e_0_energy">   -364.84016524 </i>
   </energy>
  </scstep>
  <scstep>
   <time name="diag">    0.13    0.13</time>
   <time name="diis">    0.40    0.40</time>
   <time name="orth">    0.02    0.02</time>
   <time name="total">    0.95    0.97</time>
   <energy>
    <i name="e_fr_energy">   -364.82994142 </i>
    <i name="e_wo_entrp">   -364.86061313 </i>
    <i name="e_0_energy">   -364.84016532 </i>
   </energy>
  </scstep>
  <scstep>
   <time name="diag">    0.13    0.13</time>
   <time name="diis">    0.37    0.37</time>
   <time name="orth">    0.04    0.04</time>
   <time name="total">    0.69    0.71</time>
   <energy>
    <i name="alphaZ">    116.61105515 </i>
    <i name="ewald">  -7511.57730556 </i>
    <i name="hartreedc">   -438.63458735 </i>
    <i name="XCdc">   -527.91275046 </i>
    <i name="pawpsdc">  33102.97933026 </i>
    <i name="pawaedc"> -32005.54325740 </i>
    <i name="eentropy">      0.03067168 </i>
    <i name="bandstr">    334.42104126 </i>
    <i name="atom">   6564.79586099 </i>
    <i name="e_fr_energy">   -364.82994143 </i>
    <i name="e_wo_entrp">   -364.86061311 </i>
    <i name="e_0_energy">   -364.84016532 </i>
   </energy>
  </scstep>
  <structure>
   <crystal>
    <varray name="basis" >
     <v>      10.60970157       0.02639200       0.00000000 </v>
     <v>       0.02639200      10.55691756       0.00000000 </v>
     <v>       0.00000000       0.00000000      10.55691756 </v>
    </varray>
    <i name="volume">   1182.42806036 </i>
    <varray name="rec_basis" >
     <v>       0.09425394      -0.00023563       0.00000000 </v>
     <v>      -0.00023563       0.09472521       0.00000000 </v>
     <v>       0.00000000       0.00000000       0.09472462 </v>
    </varray>
   </crystal>
   <varray name="positions" >
    <v>       0.00000000       0.00000000       0.00021327 </v>
    <v>       0.00000000       0.00000000       0.50021327 </v>
    <v>       0.00000000       0.50000000       0.00021327 </v>
    <v>       0.00000000       0.50000000       0.50021327 </v>
    <v>       0.50000000       0.00000000       0.00021327 </v>
    <v>       0.50000000       0.00000000       0.50021327 </v>
    <v>       0.50000000       0.50000000       0.00021327 </v>
    <v>       0.50000000       0.50000000       0.50021327 </v>
    <v>       0.37500000       0.37500000       0.12478673 </v>
    <v>       0.37500000       0.37500000       0.62478673 </v>
    <v>       0.37500000       0.87500000       0.12478673 </v>
    <v>       0.37500000       0.87500000       0.62478673 </v>
    <v>       0.87500000       0.37500000       0.12478673 </v>
    <v>       0.87500000       0.37500000       0.62478673 </v>
    <v>       0.87500000       0.87500000       0.12478673 </v>
    <v>       0.87500000       0.87500000       0.62478673 </v>
    <v>       0.00000000       0.25000000       0.25021327 </v>
    <v>       0.00000000       0.25000000       0.75021327 </v>
    <v>       0.00000000       0.75000000       0.25021327 </v>
    <v>       0.00000000       0.75000000       0.75021327 </v>
    <v>       0.50000000       0.25000000       0.25021327 </v>
    <v>       0.50000000       0.25000000       0.75021327 </v>
    <v>       0.50000000       0.75000000       0.25021327 </v>
    <v>       0.50000000       0.75000000       0.75021327 </v>
    <v>       0.37500000       0.12500000       0.37478673 </v>
    <v>       0.37500000       0.12500000       0.87478673 </v>
    <v>       0.37500000       0.62500000       0.37478673 </v>
    <v>       0.37500000       0.62500000       0.87478673 </v>
    <v>       0.87500000       0.12500000       0.37478673 </v>
    <v>       0.87500000       0.12500000       0.87478673 </v>
    <v>       0.87500000       0.62500000       0.37478673 </v>
    <v>       0.87500000       0.62500000       0.87478673 </v>
    <v>       0.25000000       0.00000000       0.25021327 </v>
    <v>       0.25000000       0.00000000       0.75021327 </v>
    <v>       0.25000000       0.50000000       0.25021327 </v>
    <v>       0.25000000       0.50000000       0.75021327 </v>
    <v>       0.75000000       0.00000000       0.25021327 </v>
    <v>       0.75000000       0.00000000       0.75021327 </v>
    <v>       0.75000000       0.50000000       0.25021327 </v>
    <v>       0.75000000       0.50000000       0.75021327 </v>
    <v>       0.12500000       0.37500000       0.37478673 </v>
    <v>       0.12500000       0.37500000       0.87478673 </v>
    <v>       0.12500000       0.87500000       0.37478673 </v>
    <v>       0.12500000       0.87500000       0.87478673 </v>
    <v>       0.62500000       0.37500000       0.37478673 </v>
    <v>       0.62500000       0.37500000       0.87478673 </v>
    <v>       0.62500000       0.87500000       0.37478673 </v>
    <v>       0.62500000       0.87500000       0.87478673 </v>
    <v>       0.25000000       0.25000000       0.00021327 </v>
    <v>       0.25000000       0.25000000       0.50021327 </v>
    <v>       0.25000000       0.75000000       0.00021327 </v>
    <v>       0.25000000       0.75000000       0.50021327 </v>
    <v>       0.75000000       0.25000000       0.00021327 </v>
    <v>       0.75000000       0.25000000       0.50021327 </v>
    <v>       0.75000000       0.75000000       0.00021327 </v>
    <v>       0.75000000       0.75000000       0.50021327 </v>
    <v>       0.12500000       0.12500000       0.12478673 </v>
    <v>       0.12500000       0.12500000       0.62478673 </v>
    <v>       0.12500000       0.62500000       0.12478673 </v>
    <v>       0.12500000       0.62500000       0.62478673 </v>
    <v>       0.62500000       0.12500000       0.12478673 </v>
    <v>       0.62500000       0.12500000       0.62478673 </v>
    <v>       0.62500000       0.62500000       0.12478673 </v>
    <v>       0.62500000       0.62500000       0.62478673 </v>
   </varray>
  </structure>
  <varray name="forces" >
   <v>      -0.00000000      -0.00000000       0.00010083 </v>
   <v>      -0.00000000      -0.00000000       0.00010083 </v>
   <v>      -0.00000000      -0.00000000       0.00010083 </v>
   <v>      -0.00000000      -0.00000000       0.00010083 </v>
   <v>      -0.00000000      -0.00000000       0.00010083 </v>
   <v>       0.00000000       0.00000000       0.00010083 </v>
   <v>       0.00000000       0.00000000       0.00010083 </v>
   <v>       0.00000000       0.00000000       0.00010083 </v>
   <v>       0.00000000      -0.00000000      -0.00010083 </v>
   <v>       0.00000000      -0.00000000      -0.00010083 </v>
   <v>       0.00000000       0.00000000      -0.00010083 </v>
   <v>       0.00000000       0.00000000      -0.00010083 </v>
   <v>      -0.00000000       0.00000000      -0.00010083 </v>
   <v>      -0.00000000       0.00000000      -0.00010083 </v>
   <v>      -0.00000000       0.00000000      -0.00010083 </v>
   <v>       0.00000000       0.00000000      -0.00010083 </v>
   <v>      -0.00000000      -0.00000000       0.00010083 </v>
   <v>      -0.00000000      -0.00000000       0.00010083 </v>
   <v>      -0.00000000      -0.00000000       0.00010083 </v>
   <v>      -0.00000000      -0.00000000       0.00010083 </v>
   <v>       0.00000000       0.00000000       0.00010083 </v>
   <v>      -0.00000000       0.00000000       0.00010083 </v>
   <v>      -0.00000000       0.00000000       0.00010083 </v>
   <v>       0.00000000       0.00000000       0.00010083 </v>
   <v>       0.00000000       0.00000000      -0.00010083 </v>
   <v>       0.00000000       0.00000000      -0.00010083 </v>
   <v>       0.00000000       0.00000000      -0.00010083 </v>
   <v>       0.00000000      -0.00000000      -0.00010083 </v>
   <v>       0.00000000       0.00000000      -0.00010083 </v>
   <v>      -0.00000000       0.00000000      -0.00010083 </v>
   <v>      -0.00000000       0.00000000      -0.00010083 </v>
   <v>       0.00000000      -0.00000000      -0.00010083 </v>
   <v>       0.00000000       0.00000000       0.00010083 </v>
   <v>      -0.00000000       0.00000000       0.00010083 </v>
   <v>       0.00000000       0.00000000       0.00010083 </v>
   <v>       0.00000000       0.00000000       0.00010083 </v>
   <v>       0.00000000       0.00000000       0.00010083 </v>
   <v>       0.00000000       0.00000000       0.00010083 </v>
   <v>       0.00000000       0.00000000       0.00010083 </v>
   <v>       0.00000000       0.00000000       0.00010083 </v>
   <v>      -0.00000000       0.00000000      -0.00010083 </v>
   <v>      -0.00000000       0.00000000      -0.00010083 </v>
   <v>      -0.00000000       0.00000000      -0.00010083 </v>
   <v>      -0.00000000       0.00000000      -0.00010083 </v>
   <v>      -0.00000000      -0.00000000      -0.00010083 </v>
   <v>      -0.00000000      -0.00000000      -0.00010083 </v>
   <v>       0.00000000      -0.00000000      -0.00010083 </v>
   <v>      -0.00000000      -0.00000000      -0.00010083 </v>
   <v>       0.00000000       0.00000000       0.00010083 </v>
   <v>       0.00000000       0.00000000       0.00010083 </v>
   <v>      -0.00000000       0.00000000       0.00010083 </v>
   <v>       0.00000000       0.00000000       0.00010083 </v>
   <v>       0.00000000       0.00000000       0.00010083 </v>
   <v>       0.00000000      -0.00000000       0.00010083 </v>
   <v>       0.00000000       0.00000000       0.00010083 </v>
   <v>       0.00000000       0.00000000       0.00010083 </v>
   <v>      -0.00000000      -0.00000000      -0.00010083 </v>
   <v>      -0.00000000       0.00000000      -0.00010083 </v>
   <v>       0.00000000       0.00000000      -0.00010083 </v>
   <v>      -0.00000000       0.00000000      -0.00010083 </v>
   <v>       0.00000000      -0.00000000      -0.00010083 </v>
   <v>       0.00000000      -0.00000000      -0.00010083 </v>
   <v>      -0.00000000      -0.00000000      -0.00010083 </v>
   <v>       0.00000000      -0.00000000      -0.00010083 </v>
  </varray>
  <varray name="stress" >
   <v>      90.29569740      -3.61937095       0.00000000 </v>
   <v>      -3.61937092      94.54549982       0.00000000 </v>
   <v>       0.00000000       0.00000000      94.46244070 </v>
  </varray>
  <energy>
   <i name="e_fr_energy">   -364.82994143 </i>
   <i name="e_wo_entrp">   -364.86061311 </i>
   <i name="e_0_energy">   -364.84016532 </i>
  </energy>
  <time name="totalsc">   12.60   12.81</time>
  <eigenvalues>
   <array>
    <dimension dim="1">band</dimension>
    <dimension dim="2">kpoint</dimension>
    <dimension dim="3">spin</dimension>
    <field>eigene</field>
    <field>occ</field>
    <set>
     <set comment="spin 1">
      <set comment="kpoint 1">
       <r>   -5.9286    1.0000 </r>
       <r>   -4.7722    1.0000 </r>
       <r>   -4.7722    1.0000 </r>
       <r>   -4.7622    1.0000 </r>
       <r>   -4.7622    1.0000 </r>
       <r>   -4.7621    1.0000 </r>
       <r>   -4.7621    1.0000 </r>
       <r>   -3.7316    1.0000 </r>
       <r>   -3.7315    1.0000 </r>
       <r>   -3.7193    1.0000 </r>
       <r>   -3.7193    1.0000 </r>
       <r>   -3.7193    1.0000 </r>
       <r>   -3.7193    1.0000 </r>
       <r>   -3.7120    1.0000 </r>
       <r>   -3.7119    1.0000 </r>
       <r>   -3.7119    1.0000 </r>
       <r>   -3.7119    1.0000 </r>
       <r>   -3.7070    1.0000 </r>
       <r>   -3.7070    1.0000 </r>
       <r>   -3.3788    1.0000 </r>
       <r>   -3.3788    1.0000 </r>
       <r>   -3.3534    1.0000 </r>
       <r>   -3.3534    1.0000 </r>
       <r>   -1.4892    1.0000 </r>
       <r>   -1.4892    1.0000 </r>
       <r>   -1.4627    1.0000 </r>
       <r>   -1.4560    1.0000 </r>
       <r>   -1.4560    1.0000 </r>
       <r>   -1.4495    1.0000 </r>
       <r>   -1.2731    1.0000 </r>
       <r>   -1.2731    1.0000 </r>
       <r>   -1.2616    1.0000 </r>
       <r>   -1.2616    1.0000 </r>
       <r>   -1.2599    1.0000 </r>
       <r>   -1.2599    1.0000 </r>
       <r>   -1.2599    1.0000 </r>
       <r>   -1.2599    1.0000 </r>
       <r>   -1.2468    1.0000 </r>
       <r>   -1.2468    1.0000 </r>
       <r>   -1.2357    1.0000 </r>
       <r>   -1.2357    1.0000 </r>
       <r>   -0.7884    1.0000 </r>
       <r>   -0.7884    1.0000 </r>
       <r>   -0.7739    1.0000 </r>
       <r>   -0.7739    1.0000 </r>
       <r>    0.9701    1.0000 </r>
       <r>    0.9701    1.0000 </r>
       <r>    0.9701    1.0000 </r>
       <r>    0.9701    1.0000 </r>
       <r>    0.9850    1.0000 </r>
       <r>    0.9850    1.0000 </r>
       <r>    0.9902    1.0000 </r>
       <r>    0.9902    1.0000 </r>
       <r>    0.9902    1.0000 </r>
       <r>    0.9902    1.0000 </r>
       <r>    0.9956    1.0000 </r>
       <r>    0.9956    1.0000 </r>
       <r>    2.3638    1.0000 </r>
       <r>    2.3638    1.0000 </r>
       <r>    2.3668    1.0000 </r>
       <r>    2.3668    1.0000 </r>
       <r>    2.3707    1.0000 </r>
       <r>    2.3707    1.0000 </r>
       <r>    2.3707    1.0000 </r>
       <r>    2.3707    1.0000 </r>
       <r>    2.3777    1.0000 </r>
       <r>    2.3777    1.0000 </r>
       <r>    2.3810    1.0000 </r>
       <r>    2.3810    1.0000 </r>
       <r>    2.4918    1.0000 </r>
       <r>    2.4918    1.0000 </r>
       <r>    2.4918    1.0000 </r>
       <r>    2.4918    1.0000 </r>
       <r>    2.5165    1.0000 </r>
       <r>    2.5165    1.0000 </r>
       <r>    2.5217    1.0000 </r>
       <r>    2.5217    1.0000 </r>
       <r>    2.5217    1.0000 </r>
       <r>    2.5217    1.0000 </r>
       <r>    2.5263    1.0000 </r>
       <r>    2.5263    1.0000 </r>
       <r>    3.0993    1.0000 </r>
       <r>    3.0993    1.0000 </r>
       <r>    3.1385    1.0000 </r>
       <r>    3.1385    1.0000 </r>
       <r>    3.1387    1.0000 </r>
       <r>    3.1388    1.0000 </r>
       <r>    3.4941    1.0000 </r>
       <r>    3.5311    1.0000 </r>
       <r>    3.5311    1.0000 </r>
       <r>    3.5684    1.0000 </r>
       <r>    3.5723    1.0000 </r>
       <r>    3.5723    1.0000 </r>
       <r>    4.5265    1.0000 </r>
       <r>    4.5265    1.0000 </r>
       <r>    4.5568    1.0000 </r>
       <r>    4.5568    1.0000 </r>
       <r>    4.5679    1.0000 </r>
       <r>    4.5679    1.0000 </r>
       <r>    4.5943    1.0000 </r>
       <r>    4.5943    1.0000 </r>
       <r>    4.5944    1.0000 </r>
       <r>    4.5944    1.0000 </r>
       <r>    4.5985    1.0000 </r>
       <r>    4.5985    1.0000 </r>
       <r>    5.1660    1.0000 </r>
       <r>    5.1660    1.0000 </r>
       <r>    5.1929    1.0000 </r>
       <r>    5.1929    1.0000 </r>
       <r>    5.1929    1.0000 </r>
       <r>    5.1929    1.0000 </r>
       <r>    5.2203    1.0000 </r>
       <r>    5.2203    1.0000 </r>
       <r>    5.2362    1.0000 </r>
       <r>    5.2362    1.0000 </r>
       <r>    5.2362    1.0000 </r>
       <r>    5.2362    1.0000 </r>
       <r>    5.3143    1.0000 </r>
       <r>    5.3143    1.0000 </r>
       <r>    5.3565    1.0000 </r>
       <r>    5.3565    1.0000 </r>
       <r>    5.3802    1.0000 </r>
       <r>    5.3802    1.0000 </r>
       <r>    5.4012    1.0000 </r>
       <r>    5.4012    1.0000 </r>
       <r>    6.5964    1.0354 </r>
       <r>    6.6496    1.0178 </r>
       <r>    6.6670    1.0026 </r>
       <r>    6.9999    0.0073 </r>
       <r>    7.0405   -0.0265 </r>
       <r>    7.0405   -0.0265 </r>
       <r>    7.0813   -0.0355 </r>
       <r>    7.0823   -0.0355 </r>
       <r>    7.0823   -0.0355 </r>
       <r>    7.5737   -0.0000 </r>
       <r>    7.5737   -0.0000 </r>
       <r>    7.5740   -0.0000 </r>
       <r>    7.5740   -0.0000 </r>
       <r>    7.6149   -0.0000 </r>
       <r>    7.6149   -0.0000 </r>
       <r>    8.3589   -0.0000 </r>
       <r>    8.3589   -0.0000 </r>
       <r>    8.4130   -0.0000 </r>
       <r>    8.4130   -0.0000 </r>
       <r>    8.9833   -0.0000 </r>
       <r>    8.9833   -0.0000 </r>
       <r>    9.0116   -0.0000 </r>
       <r>    9.0116   -0.0000 </r>
       <r>    9.0116   -0.0000 </r>
       <r>    9.0116   -0.0000 </r>
       <r>    9.0402   -0.0000 </r>
       <r>    9.0402   -0.0000 </r>
       <r>    9.0603   -0.0000 </r>
       <r>    9.0603   -0.0000 </r>
       <r>    9.0603   -0.0000 </r>
       <r>    9.0603   -0.0000 </r>
       <r>    9.1549   -0.0000 </r>
       <r>    9.1747   -0.0000 </r>
       <r>    9.2144   -0.0000 </r>
       <r>    9.6039   -0.0000 </r>
       <r>    9.6084   -0.0000 </r>
       <r>    9.6123   -0.0000 </r>
      </set>
      <set comment="kpoint 2">
       <r>   -5.6371    1.0000 </r>
       <r>   -5.6371    1.0000 </r>
       <r>   -4.5009    1.0000 </r>
       <r>   -4.5009    1.0000 </r>
       <r>   -4.4945    1.0000 </r>
       <r>   -4.4945    1.0000 </r>
       <r>   -4.4945    1.0000 </r>
       <r>   -4.4945    1.0000 </r>
       <r>   -4.4881    1.0000 </r>
       <r>   -4.4881    1.0000 </r>
       <r>   -3.5667    1.0000 </r>
       <r>   -3.5667    1.0000 </r>
       <r>   -3.5667    1.0000 </r>
       <r>   -3.5667    1.0000 </r>
       <r>   -3.5511    1.0000 </r>
       <r>   -3.5511    1.0000 </r>
       <r>   -3.5511    1.0000 </r>
       <r>   -3.5511    1.0000 </r>
       <r>   -3.3668    1.0000 </r>
       <r>   -3.3668    1.0000 </r>
       <r>   -2.5645    1.0000 </r>
       <r>   -2.5645    1.0000 </r>
       <r>   -2.5485    1.0000 </r>
       <r>   -2.5485    1.0000 </r>
       <r>   -2.5484    1.0000 </r>
       <r>   -2.5484    1.0000 </r>
       <r>   -2.5323    1.0000 </r>
       <r>   -2.5323    1.0000 </r>
       <r>   -1.3684    1.0000 </r>
       <r>   -1.3684    1.0000 </r>
       <r>   -1.3674    1.0000 </r>
       <r>   -1.3674    1.0000 </r>
       <r>   -1.3499    1.0000 </r>
       <r>   -1.3499    1.0000 </r>
       <r>   -1.3486    1.0000 </r>
       <r>   -1.3486    1.0000 </r>
       <r>   -0.1369    1.0000 </r>
       <r>   -0.1369    1.0000 </r>
       <r>   -0.1339    1.0000 </r>
       <r>   -0.1339    1.0000 </r>
       <r>   -0.1339    1.0000 </r>
       <r>   -0.1339    1.0000 </r>
       <r>   -0.1310    1.0000 </r>
       <r>   -0.1310    1.0000 </r>
       <r>   -0.1148    1.0000 </r>
       <r>   -0.1148    1.0000 </r>
       <r>   -0.1148    1.0000 </r>
       <r>   -0.1148    1.0000 </r>
       <r>   -0.0929    1.0000 </r>
       <r>   -0.0929    1.0000 </r>
       <r>   -0.0929    1.0000 </r>
       <r>   -0.0929    1.0000 </r>
       <r>    0.7331    1.0000 </r>
       <r>    0.7331    1.0000 </r>
       <r>    1.9842    1.0000 </r>
       <r>    1.9842    1.0000 </r>
       <r>    1.9868    1.0000 </r>
       <r>    1.9868    1.0000 </r>
       <r>    1.9868    1.0000 </r>
       <r>    1.9868    1.0000 </r>
       <r>    1.9892    1.0000 </r>
       <r>    1.9892    1.0000 </r>
       <r>    2.2516    1.0000 </r>
       <r>    2.2516    1.0000 </r>
       <r>    2.2598    1.0000 </r>
       <r>    2.2598    1.0000 </r>
       <r>    2.2598    1.0000 </r>
       <r>    2.2598    1.0000 </r>
       <r>    2.2688    1.0000 </r>
       <r>    2.2688    1.0000 </r>
       <r>    2.8493    1.0000 </r>
       <r>    2.8493    1.0000 </r>
       <r>    2.8719    1.0000 </r>
       <r>    2.8719    1.0000 </r>
       <r>    2.8764    1.0000 </r>
       <r>    2.8764    1.0000 </r>
       <r>    2.8993    1.0000 </r>
       <r>    2.8993    1.0000 </r>
       <r>    3.6472    1.0000 </r>
       <r>    3.6472    1.0000 </r>
       <r>    3.6555    1.0000 </r>
       <r>    3.6555    1.0000 </r>
       <r>    3.6555    1.0000 </r>
       <r>    3.6555    1.0000 </r>
       <r>    3.6630    1.0000 </r>
       <r>    3.6630    1.0000 </r>
       <r>    3.7555    1.0000 </r>
       <r>    3.7555    1.0000 </r>
       <r>    3.7748    1.0000 </r>
       <r>    3.7748    1.0000 </r>
       <r>    3.7748    1.0000 </r>
       <r>    3.7748    1.0000 </r>
       <r>    3.7944    1.0000 </r>
       <r>    3.7944    1.0000 </r>
       <r>    3.8326    1.0000 </r>
       <r>    3.8326    1.0000 </r>
       <r>    3.8327    1.0000 </r>
       <r>    3.8327    1.0000 </r>
       <r>    3.9535    1.0000 </r>
       <r>    3.9535    1.0000 </r>
       <r>    3.9535    1.0000 </r>
       <r>    3.9535    1.0000 </r>
       <r>    3.9948    1.0000 </r>
       <r>    3.9948    1.0000 </r>
       <r>    3.9948    1.0000 </r>
       <r>    3.9948    1.0000 </r>
       <r>    5.0749    1.0000 </r>
       <r>    5.0749    1.0000 </r>
       <r>    5.0904    1.0000 </r>
       <r>    5.0904    1.0000 </r>
       <r>    5.0904    1.0000 </r>
       <r>    5.0904    1.0000 </r>
       <r>    5.1062    1.0000 </r>
       <r>    5.1062    1.0000 </r>
       <r>    5.3025    1.0000 </r>
       <r>    5.3025    1.0000 </r>
       <r>    5.3025    1.0000 </r>
       <r>    5.3025    1.0000 </r>
       <r>    5.3161    1.0000 </r>
       <r>    5.3161    1.0000 </r>
       <r>    5.3161    1.0000 </r>
       <r>    5.3161    1.0000 </r>
       <r>    5.3424    1.0000 </r>
       <r>    5.3424    1.0000 </r>
       <r>    5.7567    1.0000 </r>
       <r>    5.7567    1.0000 </r>
       <r>    5.7584    1.0000 </r>
       <r>    5.7584    1.0000 </r>
       <r>    7.0307   -0.0211 </r>
       <r>    7.0307   -0.0211 </r>
       <r>    7.9100   -0.0000 </r>
       <r>    7.9100   -0.0000 </r>
       <r>    8.3642   -0.0000 </r>
       <r>    8.3642   -0.0000 </r>
       <r>    8.4084   -0.0000 </r>
       <r>    8.4084   -0.0000 </r>
       <r>    8.4198   -0.0000 </r>
       <r>    8.4198   -0.0000 </r>
       <r>    8.4641   -0.0000 </r>
       <r>    8.4641   -0.0000 </r>
       <r>    8.5837   -0.0000 </r>
       <r>    8.5837   -0.0000 </r>
       <r>    8.9885   -0.0000 </r>
       <r>    8.9885   -0.0000 </r>
       <r>    9.0037   -0.0000 </r>
[...]
      </set>
     </set>
    </set>
   </array>
  </eigenvalues>
  <separator name="orbital magnetization" >
   <v name="MAGDIPOLOUT">      0.00000000      0.00000000      0.00000000</v>
  </separator>
  <dos>
   <i name="efermi">      6.83774647 </i>
   <total>
    <array>
     <dimension dim="1">gridpoints</dimension>
     <dimension dim="2">spin</dimension>
     <field>energy</field>
     <field>total</field>
     <field>integrated</field>
     <set>
      <set comment="spin 1">
       <r>    -7.9286     0.0000     0.0000 </r>
       <r>    -7.8617     0.0000     0.0000 </r>
       <r>    -7.7948     0.0000     0.0000 </r>
       <r>    -7.7278     0.0000     0.0000 </r>
       <r>    -7.6609     0.0000     0.0000 </r>
       <r>    -7.5940    -0.0000    -0.0000 </r>
       <r>    -7.5271    -0.0000    -0.0000 </r>
       <r>    -7.4602    -0.0000    -0.0000 </r>
       <r>    -7.3933    -0.0000    -0.0000 </r>
       <r>    -7.3264    -0.0000    -0.0000 </r>
       <r>    -7.2594    -0.0000    -0.0000 </r>
       <r>    -7.1925    -0.0000    -0.0000 </r>
       <r>    -7.1256    -0.0000    -0.0000 </r>
       <r>    -7.0587    -0.0000    -0.0000 </r>
       <r>    -6.9918    -0.0000    -0.0000 </r>
       <r>    -6.9249    -0.0000    -0.0000 </r>
       <r>    -6.8580    -0.0000    -0.0000 </r>
       <r>    -6.7911    -0.0000    -0.0000 </r>
       <r>    -6.7241    -0.0000    -0.0000 </r>
       <r>    -6.6572    -0.0000    -0.0000 </r>
       <r>    -6.5903    -0.0000    -0.0000 </r>
       <r>    -6.5234    -0.0003    -0.0000 </r>
       <r>    -6.4565    -0.0019    -0.0002 </r>
       <r>    -6.3896    -0.0076    -0.0007 </r>
       <r>    -6.3227    -0.0231    -0.0022 </r>
       <r>    -6.2557    -0.0482    -0.0054 </r>
       <r>    -6.1888    -0.0555    -0.0091 </r>
       <r>    -6.1219     0.0222    -0.0077 </r>
       <r>    -6.0550     0.2325     0.0079 </r>
       <r>    -5.9881     0.4970     0.0412 </r>
       <r>    -5.9212     0.6743     0.0863 </r>
       <r>    -5.8543     0.8988     0.1464 </r>
       <r>    -5.7874     1.6964     0.2599 </r>
       <r>    -5.7204     3.3091     0.4813 </r>
       <r>    -5.6535     4.9752     0.8143 </r>
       <r>    -5.5866     5.7109     1.1964 </r>
       <r>    -5.5197     5.9970     1.5977 </r>
       <r>    -5.4528     7.4509     2.0962 </r>
       <r>    -5.3859    10.1635     2.7763 </r>
       <r>    -5.3190    11.8607     3.5700 </r>
       <r>    -5.2520    10.9335     4.3015 </r>
       <r>    -5.1851     8.8146     4.8914 </r>
       <r>    -5.1182     7.7457     5.4097 </r>
       <r>    -5.0513     7.5900     5.9175 </r>
       <r>    -4.9844     6.7513     6.3693 </r>
       <r>    -4.9175     5.1221     6.7120 </r>
       <r>    -4.8506     4.0604     6.9837 </r>
       <r>    -4.7837     4.1859     7.2638 </r>
       <r>    -4.7167     5.3791     7.6237 </r>
       <r>    -4.6498     8.5438     8.1954 </r>
       <r>    -4.5829    14.5980     9.1722 </r>
       <r>    -4.5160    21.4223    10.6057 </r>
       <r>    -4.4491    25.1474    12.2884 </r>
       <r>    -4.3822    25.3900    13.9873 </r>
       <r>    -4.3153    25.3588    15.6841 </r>
       <r>    -4.2483    25.7058    17.4042 </r>
       <r>    -4.1814    22.8878    18.9357 </r>
       <r>    -4.1145    15.1473    19.9493 </r>
       <r>    -4.0476     5.8789    20.3426 </r>
       <r>    -3.9807    -0.3248    20.3209 </r>
       <r>    -3.9138    -1.7123    20.2063 </r>
       <r>    -3.8469     1.2427    20.2895 </r>
       <r>    -3.7800     7.6874    20.8039 </r>
       <r>    -3.7130    16.3882    21.9005 </r>
       <r>    -3.6461    24.9420    23.5694 </r>
       <r>    -3.5792    29.9840    25.5758 </r>
       <r>    -3.5123    29.0985    27.5228 </r>
       <r>    -3.4454    23.1803    29.0739 </r>
       <r>    -3.3785    16.2619    30.1620 </r>
       <r>    -3.3116    12.6869    31.0110 </r>
       <r>    -3.2446    14.8238    32.0029 </r>
       <r>    -3.1777    22.1606    33.4857 </r>
       <r>    -3.1108    31.1599    35.5707 </r>
       <r>    -3.0439    37.2553    38.0636 </r>
       <r>    -2.9770    38.3707    40.6311 </r>
       <r>    -2.9101    36.0151    43.0410 </r>
       <r>    -2.8432    32.6363    45.2248 </r>
       <r>    -2.7763    29.0517    47.1688 </r>
       <r>    -2.7093    25.6059    48.8822 </r>
       <r>    -2.6424    23.9977    50.4879 </r>
       <r>    -2.5755    24.7585    52.1446 </r>
       <r>    -2.5086    24.4383    53.7798 </r>
       <r>    -2.4417    19.2666    55.0690 </r>
       <r>    -2.3748    10.4746    55.7699 </r>
       <r>    -2.3079     2.7729    55.9555 </r>
       <r>    -2.2409    -1.1138    55.8809 </r>
       <r>    -2.1740    -1.9411    55.7511 </r>
       <r>    -2.1071    -1.1861    55.6717 </r>
       <r>    -2.0402     1.0481    55.7418 </r>
       <r>    -1.9733     5.1431    56.0860 </r>
       <r>    -1.9064     9.8306    56.7438 </r>
       <r>    -1.8395    12.0766    57.5519 </r>
       <r>    -1.7725     9.9093    58.2149 </r>
       <r>    -1.7056     4.8926    58.5423 </r>
       <r>    -1.6387     1.1688    58.6205 </r>
       <r>    -1.5718     2.5741    58.7927 </r>
       <r>    -1.5049    10.5011    59.4954 </r>
       <r>    -1.4380    22.6742    61.0126 </r>
       <r>    -1.3711    33.2866    63.2399 </r>
       <r>    -1.3042    36.2022    65.6624 </r>
       <r>    -1.2372    29.6604    67.6470 </r>
       <r>    -1.1703    17.6825    68.8302 </r>
       <r>    -1.1034     6.7551    69.2822 </r>
       <r>    -1.0365     1.5708    69.3873 </r>
       <r>    -0.9696     3.1013    69.5949 </r>
       <r>    -0.9027     8.6805    70.1757 </r>
       <r>    -0.8358    13.4774    71.0775 </r>
       <r>    -0.7688    14.0106    72.0150 </r>
       <r>    -0.7019    11.7511    72.8013 </r>
       <r>    -0.6350    11.8741    73.5959 </r>
       <r>    -0.5681    16.7376    74.7158 </r>
       <r>    -0.5012    21.7974    76.1744 </r>
       <r>    -0.4343    20.5633    77.5503 </r>
       <r>    -0.3674    13.5862    78.4594 </r>
       <r>    -0.3005    10.0561    79.1323 </r>
       <r>    -0.2335    19.0695    80.4083 </r>
       <r>    -0.1666    39.5091    83.0520 </r>
       <r>    -0.0997    59.1042    87.0069 </r>
       <r>    -0.0328    64.3791    91.3147 </r>
       <r>     0.0341    51.9885    94.7934 </r>
       <r>     0.1010    30.2147    96.8152 </r>
       <r>     0.1679    10.5430    97.5206 </r>
       <r>     0.2349    -0.6400    97.4778 </r>
       <r>     0.3018    -2.9483    97.2805 </r>
       <r>     0.3687     1.8147    97.4020 </r>
       <r>     0.4356    11.2655    98.1558 </r>
       <r>     0.5025    20.8733    99.5525 </r>
       <r>     0.5694    24.8733   101.2168 </r>
       <r>     0.6363    21.1858   102.6345 </r>
       <r>     0.7032    13.5671   103.5423 </r>
       <r>     0.7702     7.5867   104.0499 </r>
       <r>     0.8371     6.4867   104.4840 </r>
       <r>     0.9040    11.1093   105.2273 </r>
       <r>     0.9709    20.2582   106.5829 </r>
       <r>     1.0378    29.5673   108.5613 </r>
       <r>     1.1047    32.8353   110.7585 </r>
       <r>     1.1716    27.0959   112.5715 </r>
       <r>     1.2386    15.7614   113.6262 </r>
       <r>     1.3055     5.3626   113.9850 </r>
       <r>     1.3724    -0.2571   113.9678 </r>
       <r>     1.4393    -1.7353   113.8517 </r>
       <r>     1.5062    -1.6160   113.7436 </r>
       <r>     1.5731    -1.5960   113.6368 </r>
       <r>     1.6400    -1.5969   113.5299 </r>
       <r>     1.7069     0.1294   113.5386 </r>
       <r>     1.7739     5.9874   113.9392 </r>
       <r>     1.8408    16.4376   115.0391 </r>
       <r>     1.9077    27.5226   116.8807 </r>
       <r>     1.9746    32.7019   119.0689 </r>
       <r>     2.0415    29.4023   121.0363 </r>
       <r>     2.1084    22.9369   122.5711 </r>
       <r>     2.1753    21.2141   123.9906 </r>
       <r>     2.2423    25.9000   125.7237 </r>
       <r>     2.3092    31.6679   127.8427 </r>
       <r>     2.3761    33.5375   130.0868 </r>
       <r>     2.4430    31.0963   132.1676 </r>
       <r>     2.5099    25.7769   133.8924 </r>
       <r>     2.5768    19.1426   135.1733 </r>
       <r>     2.6437    15.6886   136.2231 </r>
       <r>     2.7106    22.8021   137.7488 </r>
       <r>     2.7776    43.5337   140.6618 </r>
       <r>     2.8445    69.6962   145.3254 </r>
       <r>     2.9114    85.1744   151.0247 </r>
       <r>     2.9783    78.8830   156.3031 </r>
       <r>     3.0452    54.7979   159.9698 </r>
       <r>     3.1121    27.5113   161.8106 </r>
       <r>     3.1790     8.5249   162.3811 </r>
       <r>     3.2460    -0.6826   162.3354 </r>
       <r>     3.3129    -3.7984   162.0812 </r>
       <r>     3.3798    -2.3375   161.9248 </r>
       <r>     3.4467     5.8756   162.3180 </r>
       <r>     3.5136    22.2948   163.8098 </r>
       <r>     3.5805    42.7583   166.6709 </r>
       <r>     3.6474    58.8875   170.6113 </r>
       <r>     3.7143    65.5194   174.9954 </r>
       <r>     3.7813    64.7497   179.3280 </r>
       <r>     3.8482    61.5924   183.4494 </r>
       <r>     3.9151    58.0752   187.3354 </r>
       <r>     3.9820    52.9023   190.8753 </r>
       <r>     4.0489    45.8978   193.9464 </r>
       <r>     4.1158    41.1494   196.6999 </r>
       <r>     4.1827    42.7403   199.5598 </r>
       <r>     4.2497    46.9714   202.7028 </r>
       <r>     4.3166    44.3434   205.6700 </r>
       <r>     4.3835    31.8026   207.7980 </r>
       <r>     4.4504    17.8235   208.9906 </r>
       <r>     4.5173    12.7787   209.8457 </r>
       <r>     4.5842    18.3937   211.0765 </r>
       <r>     4.6511    28.3911   212.9762 </r>
       <r>     4.7181    36.1658   215.3962 </r>
       <r>     4.7850    39.6843   218.0516 </r>
       <r>     4.8519    40.2221   220.7430 </r>
       <r>     4.9188    39.1517   223.3628 </r>
       <r>     4.9857    37.6072   225.8792 </r>
       <r>     5.0526    37.5712   228.3932 </r>
       <r>     5.1195    40.6744   231.1149 </r>
       <r>     5.1864    45.9992   234.1928 </r>
       <r>     5.2534    49.8504   237.5285 </r>
       <r>     5.3203    47.6698   240.7182 </r>
       <r>     5.3872    37.3786   243.2194 </r>
       <r>     5.4541    22.0644   244.6958 </r>
       <r>     5.5210     8.6926   245.2774 </r>
       <r>     5.5879     3.3996   245.5049 </r>
       <r>     5.6548     7.6073   246.0139 </r>
       <r>     5.7218    17.2423   247.1677 </r>
       <r>     5.7887    25.0195   248.8418 </r>
       <r>     5.8556    25.2313   250.5301 </r>
       <r>     5.9225    17.9294   251.7299 </r>
       <r>     5.9894     8.1762   252.2770 </r>
       <r>     6.0563     1.2189   252.3585 </r>
       <r>     6.1232    -0.8211   252.3036 </r>
       <r>     6.1901     1.5375   252.4065 </r>
       <r>     6.2571     6.4137   252.8356 </r>
       <r>     6.3240    10.8425   253.5611 </r>
       <r>     6.3909    11.9583   254.3613 </r>
       <r>     6.4578     9.3937   254.9898 </r>
       <r>     6.5247     5.6150   255.3656 </r>
       <r>     6.5916     3.1114   255.5738 </r>
       <r>     6.6585     2.1111   255.7150 </r>
       <r>     6.7255     1.5475   255.8186 </r>
       <r>     6.7924     1.2886   255.9048 </r>
       <r>     6.8593     2.4930   256.0716 </r>
       <r>     6.9262     5.8197   256.4610 </r>
       <r>     6.9931     9.8045   257.1171 </r>
       <r>     7.0600    11.6281   257.8951 </r>
       <r>     7.1269     9.7605   258.5483 </r>
       <r>     7.1938     5.4176   258.9108 </r>
       <r>     7.2608     1.2105   258.9918 </r>
       <r>     7.3277    -0.8607   258.9342 </r>
       <r>     7.3946     0.2504   258.9509 </r>
       <r>     7.4615     4.8508   259.2755 </r>
       <r>     7.5284    11.4388   260.0409 </r>
       <r>     7.5953    16.1872   261.1241 </r>
       <r>     7.6622    16.0284   262.1966 </r>
       <r>     7.7292    12.9444   263.0627 </r>
       <r>     7.7961    12.9440   263.9289 </r>
       <r>     7.8630    19.0728   265.2051 </r>
       <r>     7.9299    26.7278   266.9935 </r>
       <r>     7.9968    27.9555   268.8641 </r>
       <r>     8.0637    20.0445   270.2054 </r>
       <r>     8.1306     8.3000   270.7608 </r>
       <r>     8.1975     1.2250   270.8427 </r>
       <r>     8.2645     4.9034   271.1708 </r>
       <r>     8.3314    19.9807   272.5078 </r>
       <r>     8.3983    39.8415   275.1737 </r>
       <r>     8.4652    52.4955   278.6864 </r>
       <r>     8.5321    49.2423   281.9814 </r>
       <r>     8.5990    33.1565   284.2000 </r>
       <r>     8.6659    16.9259   285.3325 </r>
       <r>     8.7329    11.7871   286.1213 </r>
       <r>     8.7998    19.7073   287.4399 </r>
       <r>     8.8667    35.8285   289.8374 </r>
       <r>     8.9336    55.3755   293.5427 </r>
       <r>     9.0005    74.4604   298.5251 </r>
       <r>     9.0674    85.5328   304.2484 </r>
       <r>     9.1343    79.7643   309.5857 </r>
       <r>     9.2012    57.5722   313.4381 </r>
       <r>     9.2682    31.3674   315.5369 </r>
       <r>     9.3351    14.2836   316.4927 </r>
       <r>     9.4020     9.7278   317.1436 </r>
       <r>     9.4689    13.1561   318.0240 </r>
       <r>     9.5358    18.8858   319.2877 </r>
       <r>     9.6027    22.5148   320.7942 </r>
       <r>     9.6696    21.0022   322.1995 </r>
       <r>     9.7366    14.4337   323.1653 </r>
       <r>     9.8035     6.4563   323.5974 </r>
       <r>     9.8704     0.9748   323.6626 </r>
       <r>     9.9373    -0.9047   323.6021 </r>
       <r>    10.0042    -0.4113   323.5745 </r>
       <r>    10.0711     0.8532   323.6316 </r>
       <r>    10.1380     1.8078   323.7526 </r>
       <r>    10.2049     1.9440   323.8827 </r>
       <r>    10.2719     1.3590   323.9736 </r>
       <r>    10.3388     0.5804   324.0124 </r>
       <r>    10.4057     0.0661   324.0169 </r>
       <r>    10.4726    -0.1035   324.0099 </r>
       <r>    10.5395    -0.0895   324.0040 </r>
       <r>    10.6064    -0.0418   324.0012 </r>
       <r>    10.6733    -0.0135   324.0003 </r>
       <r>    10.7403    -0.0032   324.0000 </r>
       <r>    10.8072    -0.0006   324.0000 </r>
       <r>    10.8741    -0.0001   324.0000 </r>
       <r>    10.9410    -0.0000   324.0000 </r>
       <r>    11.0079    -0.0000   324.0000 </r>
       <r>    11.0748    -0.0000   324.0000 </r>
       <r>    11.1417    -0.0000   324.0000 </r>
       <r>    11.2087    -0.0000   324.0000 </r>
       <r>    11.2756    -0.0000   324.0000 </r>
       <r>    11.3425    -0.0000   324.0000 </r>
       <r>    11.4094    -0.0000   324.0000 </r>
       <r>    11.4763     0.0000   324.0000 </r>
       <r>    11.5432     0.0000   324.0000 </r>
       <r>    11.6101     0.0000   324.0000 </r>
       <r>    11.6770     0.0000   324.0000 </r>
       <r>    11.7440     0.0000   324.0000 </r>
       <r>    11.8109     0.0000   324.0000 </r>
       <r>    11.8778     0.0000   324.0000 </r>
       <r>    11.9447     0.0000   324.0000 </r>
       <r>    12.0116     0.0000   324.0000 </r>
       <r>    12.0785     0.0000   324.0000 </r>
       <r>    12.1454     0.0000   324.0000 </r>
      </set>
     </set>
    </array>
   </total>
  </dos>
 </calculation>
 <structure name="finalpos" >
  <crystal>
   <varray name="basis" >
    <v>      10.60970157       0.02639200       0.00000000 </v>
    <v>       0.02639200      10.55691756       0.00000000 </v>
    <v>       0.00000000       0.00000000      10.55691756 </v>
   </varray>
   <i name="volume">   1182.42806036 </i>
   <varray name="rec_basis" >
    <v>       0.09425394      -0.00023563       0.00000000 </v>
    <v>      -0.00023563       0.09472521       0.00000000 </v>
    <v>       0.00000000       0.00000000       0.09472462 </v>
   </varray>
  </crystal>
  <varray name="positions" >
   <v>       0.00000000       0.00000000       0.00021327 </v>
   <v>       0.00000000       0.00000000       0.50021327 </v>
   <v>       0.00000000       0.50000000       0.00021327 </v>
   <v>       0.00000000       0.50000000       0.50021327 </v>
   <v>       0.50000000       0.00000000       0.00021327 </v>
   <v>       0.50000000       0.00000000       0.50021327 </v>
   <v>       0.50000000       0.50000000       0.00021327 </v>
   <v>       0.50000000       0.50000000       0.50021327 </v>
   <v>       0.37500000       0.37500000       0.12478673 </v>
   <v>       0.37500000       0.37500000       0.62478673 </v>
   <v>       0.37500000       0.87500000       0.12478673 </v>
   <v>       0.37500000       0.87500000       0.62478673 </v>
   <v>       0.87500000       0.37500000       0.12478673 </v>
   <v>       0.87500000       0.37500000       0.62478673 </v>
   <v>       0.87500000       0.87500000       0.12478673 </v>
   <v>       0.87500000       0.87500000       0.62478673 </v>
   <v>       0.00000000       0.25000000       0.25021327 </v>
   <v>       0.00000000       0.25000000       0.75021327 </v>
   <v>       0.00000000       0.75000000       0.25021327 </v>
   <v>       0.00000000       0.75000000       0.75021327 </v>
   <v>       0.50000000       0.25000000       0.25021327 </v>
   <v>       0.50000000       0.25000000       0.75021327 </v>
   <v>       0.50000000       0.75000000       0.25021327 </v>
   <v>       0.50000000       0.75000000       0.75021327 </v>
   <v>       0.37500000       0.12500000       0.37478673 </v>
   <v>       0.37500000       0.12500000       0.87478673 </v>
   <v>       0.37500000       0.62500000       0.37478673 </v>
   <v>       0.37500000       0.62500000       0.87478673 </v>
   <v>       0.87500000       0.12500000       0.37478673 </v>
   <v>       0.87500000       0.12500000       0.87478673 </v>
   <v>       0.87500000       0.62500000       0.37478673 </v>
   <v>       0.87500000       0.62500000       0.87478673 </v>
   <v>       0.25000000       0.00000000       0.25021327 </v>
   <v>       0.25000000       0.00000000       0.75021327 </v>
   <v>       0.25000000       0.50000000       0.25021327 </v>
   <v>       0.25000000       0.50000000       0.75021327 </v>
   <v>       0.75000000       0.00000000       0.25021327 </v>
   <v>       0.75000000       0.00000000       0.75021327 </v>
   <v>       0.75000000       0.50000000       0.25021327 </v>
   <v>       0.75000000       0.50000000       0.75021327 </v>
   <v>       0.12500000       0.37500000       0.37478673 </v>
   <v>       0.12500000       0.37500000       0.87478673 </v>
   <v>       0.12500000       0.87500000       0.37478673 </v>
   <v>       0.12500000       0.87500000       0.87478673 </v>
   <v>       0.62500000       0.37500000       0.37478673 </v>
   <v>       0.62500000       0.37500000       0.87478673 </v>
   <v>       0.62500000       0.87500000       0.37478673 </v>
   <v>       0.62500000       0.87500000       0.87478673 </v>
   <v>       0.25000000       0.25000000       0.00021327 </v>
   <v>       0.25000000       0.25000000       0.50021327 </v>
   <v>       0.25000000       0.75000000       0.00021327 </v>
   <v>       0.25000000       0.75000000       0.50021327 </v>
   <v>       0.75000000       0.25000000       0.00021327 </v>
   <v>       0.75000000       0.25000000       0.50021327 </v>
   <v>       0.75000000       0.75000000       0.00021327 </v>
   <v>       0.75000000       0.75000000       0.50021327 </v>
   <v>       0.12500000       0.12500000       0.12478673 </v>
   <v>       0.12500000       0.12500000       0.62478673 </v>
   <v>       0.12500000       0.62500000       0.12478673 </v>
   <v>       0.12500000       0.62500000       0.62478673 </v>
   <v>       0.62500000       0.12500000       0.12478673 </v>
   <v>       0.62500000       0.12500000       0.62478673 </v>
   <v>       0.62500000       0.62500000       0.12478673 </v>
   <v>       0.62500000       0.62500000       0.62478673 </v>
  </varray>
 </structure>
</modeling>
