Si64                                    
           1
    10.609702    0.026392    0.000000
     0.026392   10.556918    0.000000
     0.000000    0.000000   10.556918
   Si
    64
Direct configuration=     1
   0.00000000  0.00000000  0.00000000
   0.00000000  0.00000000  0.50000000
   0.00000000  0.50000000  0.00000000
   0.00000000  0.50000000  0.50000000
   0.50000000  0.00000000  0.00000000
   0.50000000  0.00000000  0.50000000
   0.50000000  0.50000000  0.00000000
   0.50000000  0.50000000  0.50000000
   0.37500000  0.37500000  0.12500000
   0.37500000  0.37500000  0.62500000
   0.37500000  0.87500000  0.12500000
   0.37500000  0.87500000  0.62500000
   0.87500000  0.37500000  0.12500000
   0.87500000  0.37500000  0.62500000
   0.87500000  0.87500000  0.12500000
   0.87500000  0.87500000  0.62500000
   0.00000000  0.25000000  0.25000000
   0.00000000  0.25000000  0.75000000
   0.00000000  0.75000000  0.25000000
   0.00000000  0.75000000  0.75000000
   0.50000000  0.25000000  0.25000000
   0.50000000  0.25000000  0.75000000
   0.50000000  0.75000000  0.25000000
   0.50000000  0.75000000  0.75000000
   0.37500000  0.12500000  0.37500000
   0.37500000  0.12500000  0.87500000
   0.37500000  0.62500000  0.37500000
   0.37500000  0.62500000  0.87500000
   0.87500000  0.12500000  0.37500000
   0.87500000  0.12500000  0.87500000
   0.87500000  0.62500000  0.37500000
   0.87500000  0.62500000  0.87500000
   0.25000000  0.00000000  0.25000000
   0.25000000  0.00000000  0.75000000
   0.25000000  0.50000000  0.25000000
   0.25000000  0.50000000  0.75000000
   0.75000000  0.00000000  0.25000000
   0.75000000  0.00000000  0.75000000
   0.75000000  0.50000000  0.25000000
   0.75000000  0.50000000  0.75000000
   0.12500000  0.37500000  0.37500000
   0.12500000  0.37500000  0.87500000
   0.12500000  0.87500000  0.37500000
   0.12500000  0.87500000  0.87500000
   0.62500000  0.37500000  0.37500000
   0.62500000  0.37500000  0.87500000
   0.62500000  0.87500000  0.37500000
   0.62500000  0.87500000  0.87500000
   0.25000000  0.25000000  0.00000000
   0.25000000  0.25000000  0.50000000
   0.25000000  0.75000000  0.00000000
   0.25000000  0.75000000  0.50000000
   0.75000000  0.25000000  0.00000000
   0.75000000  0.25000000  0.50000000
   0.75000000  0.75000000  0.00000000
   0.75000000  0.75000000  0.50000000
   0.12500000  0.12500000  0.12500000
   0.12500000  0.12500000  0.62500000
   0.12500000  0.62500000  0.12500000
   0.12500000  0.62500000  0.62500000
   0.62500000  0.12500000  0.12500000
   0.62500000  0.12500000  0.62500000
   0.62500000  0.62500000  0.12500000
   0.62500000  0.62500000  0.62500000
Direct configuration=     2
   1.00000000  1.00000000  0.00031986
   0.00000000  1.00000000  0.50031986
   0.00000000  0.50000000  0.00031986
   1.00000000  0.50000000  0.50031986
   0.50000000  1.00000000  0.00031986
   0.50000000  1.00000000  0.50031986
   0.50000000  0.50000000  0.00031986
   0.50000000  0.50000000  0.50031986
   0.37500000  0.37500000  0.12468014
   0.37500000  0.37500000  0.62468014
   0.37500000  0.87500000  0.12468014
   0.37500000  0.87500000  0.62468014
   0.87500000  0.37500000  0.12468014
   0.87500000  0.37500000  0.62468014
   0.87500000  0.87500000  0.12468014
   0.87500000  0.87500000  0.62468014
   1.00000000  0.25000000  0.25031986
   1.00000000  0.25000000  0.75031986
   0.00000000  0.75000000  0.25031986
   0.00000000  0.75000000  0.75031986
   0.50000000  0.25000000  0.25031986
   0.50000000  0.25000000  0.75031986
   0.50000000  0.75000000  0.25031986
   0.50000000  0.75000000  0.75031986
   0.37500000  0.12500000  0.37468014
   0.37500000  0.12500000  0.87468014
   0.37500000  0.62500000  0.37468014
   0.37500000  0.62500000  0.87468014
   0.87500000  0.12500000  0.37468014
   0.87500000  0.12500000  0.87468014
   0.87500000  0.62500000  0.37468014
   0.87500000  0.62500000  0.87468014
   0.25000000  1.00000000  0.25031986
   0.25000000  0.00000000  0.75031986
   0.25000000  0.50000000  0.25031986
   0.25000000  0.50000000  0.75031986
   0.75000000  1.00000000  0.25031986
   0.75000000  1.00000000  0.75031986
   0.75000000  0.50000000  0.25031986
   0.75000000  0.50000000  0.75031986
   0.12500000  0.37500000  0.37468014
   0.12500000  0.37500000  0.87468014
   0.12500000  0.87500000  0.37468014
   0.12500000  0.87500000  0.87468014
   0.62500000  0.37500000  0.37468014
   0.62500000  0.37500000  0.87468014
   0.62500000  0.87500000  0.37468014
   0.62500000  0.87500000  0.87468014
   0.25000000  0.25000000  0.00031986
   0.25000000  0.25000000  0.50031986
   0.25000000  0.75000000  0.00031986
   0.25000000  0.75000000  0.50031986
   0.75000000  0.25000000  0.00031986
   0.75000000  0.25000000  0.50031986
   0.75000000  0.75000000  0.00031986
   0.75000000  0.75000000  0.50031986
   0.12500000  0.12500000  0.12468014
   0.12500000  0.12500000  0.62468014
   0.12500000  0.62500000  0.12468014
   0.12500000  0.62500000  0.62468014
   0.62500000  0.12500000  0.12468014
   0.62500000  0.12500000  0.62468014
   0.62500000  0.62500000  0.12468014
   0.62500000  0.62500000  0.62468014
Direct configuration=     3
   0.00000000  0.00000000  0.00021327
   0.00000000  0.00000000  0.50021327
   0.00000000  0.50000000  0.00021327
   0.00000000  0.50000000  0.50021327
   0.50000000  0.00000000  0.00021327
   0.50000000  0.00000000  0.50021327
   0.50000000  0.50000000  0.00021327
   0.50000000  0.50000000  0.50021327
   0.37500000  0.37500000  0.12478673
   0.37500000  0.37500000  0.62478673
   0.37500000  0.87500000  0.12478673
   0.37500000  0.87500000  0.62478673
   0.87500000  0.37500000  0.12478673
   0.87500000  0.37500000  0.62478673
   0.87500000  0.87500000  0.12478673
   0.87500000  0.87500000  0.62478673
   0.00000000  0.25000000  0.25021327
   0.00000000  0.25000000  0.75021327
   0.00000000  0.75000000  0.25021327
   0.00000000  0.75000000  0.75021327
   0.50000000  0.25000000  0.25021327
   0.50000000  0.25000000  0.75021327
   0.50000000  0.75000000  0.25021327
   0.50000000  0.75000000  0.75021327
   0.37500000  0.12500000  0.37478673
   0.37500000  0.12500000  0.87478673
   0.37500000  0.62500000  0.37478673
   0.37500000  0.62500000  0.87478673
   0.87500000  0.12500000  0.37478673
   0.87500000  0.12500000  0.87478673
   0.87500000  0.62500000  0.37478673
   0.87500000  0.62500000  0.87478673
   0.25000000  0.00000000  0.25021327
   0.25000000  0.00000000  0.75021327
   0.25000000  0.50000000  0.25021327
   0.25000000  0.50000000  0.75021327
   0.75000000  0.00000000  0.25021327
   0.75000000  0.00000000  0.75021327
   0.75000000  0.50000000  0.25021327
   0.75000000  0.50000000  0.75021327
   0.12500000  0.37500000  0.37478673
   0.12500000  0.37500000  0.87478673
   0.12500000  0.87500000  0.37478673
   0.12500000  0.87500000  0.87478673
   0.62500000  0.37500000  0.37478673
   0.62500000  0.37500000  0.87478673
   0.62500000  0.87500000  0.37478673
   0.62500000  0.87500000  0.87478673
   0.25000000  0.25000000  0.00021327
   0.25000000  0.25000000  0.50021327
   0.25000000  0.75000000  0.00021327
   0.25000000  0.75000000  0.50021327
   0.75000000  0.25000000  0.00021327
   0.75000000  0.25000000  0.50021327
   0.75000000  0.75000000  0.00021327
   0.75000000  0.75000000  0.50021327
   0.12500000  0.12500000  0.12478673
   0.12500000  0.12500000  0.62478673
   0.12500000  0.62500000  0.12478673
   0.12500000  0.62500000  0.62478673
   0.62500000  0.12500000  0.12478673
   0.62500000  0.12500000  0.62478673
   0.62500000  0.62500000  0.12478673
   0.62500000  0.62500000  0.62478673
