 vasp.6.4.3 19Mar24 (build Oct 21 2024 22:36:34) complex                        
  
 executed on             LinuxIFC date 2024.11.01  22:55:33
 running   96 mpi-ranks, on    1 nodes
 distrk:  each k-point on   24 cores,    4 groups
 distr:  one band on NCORE=  12 cores,    2 groups


--------------------------------------------------------------------------------------------------------


 INCAR:
   SYSTEM = Si64
   ISTART = 0
   ICHARG = 2
   LREAL = Auto
   PREC = Accurate
   LWAVE = .False.
   LCHARG = .False.
   ADDGRID = .True.
   ENCUT = 400
   GGA = PS
   GGA_COMPAT = .FALSE.
   ISMEAR = 1
   SIGMA = 0.2
   NELM = 60
   NELMIN = 8
   EDIFF = 1e-06
   EDIFFG = -0.01
   NSW = 60
   IBRION = 2
   ISIF = 2
   KPAR = 4
   NPAR = 2
   ALGO = Fast

 POTCAR:    PAW_PBE Si 05Jan2001                  
 POTCAR:    PAW_PBE Si 05Jan2001                  
   VRHFIN =Si: s2p2                                                                                 
   LEXCH  = PE                                                                                      
   EATOM  =   103.0669 eV,    7.5752 Ry                                                             
                                                                                                    
   TITEL  = PAW_PBE Si 05Jan2001                                                                    
   LULTRA =        F    use ultrasoft PP ?                                                          
   IUNSCR =        1    unscreen: 0-lin 1-nonlin 2-no                                               
   RPACOR =    1.500    partial core radius                                                         
   POMASS =   28.085; ZVAL   =    4.000    mass and valenz                                          
   RCORE  =    1.900    outmost cutoff radius                                                       
   RWIGS  =    2.480; RWIGS  =    1.312    wigner-seitz radius (au A)                               
   ENMAX  =  245.345; ENMIN  =  184.009 eV                                                          
   ICORE  =        2    local potential                                                             
   LCOR   =        T    correct aug charges                                                         
   LPAW   =        T    paw PP                                                                      
   EAUG   =  322.069                                                                                
   DEXC   =    0.000                                                                                
   RMAX   =    1.950    core radius for proj-oper                                                   
   RAUG   =    1.300    factor for augmentation sphere                                              
   RDEP   =    1.993    radius for radial grids                                                     
   RDEPT  =    1.837    core radius for aug-charge                                                  
                                                                                                    
   Atomic configuration                                                                             
    6 entries                                                                                       
     n  l   j            E        occ.                                                              
     1  0  0.50     -1785.8828   2.0000                                                             
     2  0  0.50      -139.4969   2.0000                                                             
     2  1  1.50       -95.5546   6.0000                                                             
     3  0  0.50       -10.8127   2.0000                                                             
     3  1  0.50        -4.0811   2.0000                                                             
     3  2  1.50        -4.0817   0.0000                                                             
   Description                                                                                      
     l       E           TYP  RCUT    TYP  RCUT                                                     
     0    -10.8127223     23  1.900                                                                 
     0     -7.6451159     23  1.900                                                                 
     1     -4.0811372     23  1.900                                                                 
     1      2.4879257     23  1.900                                                                 
     2     -4.0817478      7  1.900                                                                 
  local pseudopotential read in
  partial core-charges read in
  partial kinetic energy density read in
  atomic valenz-charges read in
  non local Contribution for L=           0  read in
    real space projection operators read in
  non local Contribution for L=           0  read in
    real space projection operators read in
  non local Contribution for L=           1  read in
    real space projection operators read in
  non local Contribution for L=           1  read in
    real space projection operators read in
    PAW grid and wavefunctions read in
 
   number of l-projection  operators is LMAX  =           4
   number of lm-projection operators is LMMAX =           8
 
 Optimization of the real space projectors (new method)

 maximal supplied QI-value         = 19.84
 optimisation between [QCUT,QGAM] = [ 10.12, 20.44] = [ 28.68,116.96] Ry 
 Optimized for a Real-space Cutoff    1.38 Angstroem

   l    n(q)    QCUT    max X(q) W(low)/X(q) W(high)/X(q)  e(spline) 
   0      8    10.119   159.560    0.58E-04    0.11E-03    0.54E-07
   0      8    10.119   115.863    0.56E-04    0.11E-03    0.54E-07
   1      8    10.119    88.339    0.22E-03    0.17E-03    0.19E-06
   1      8    10.119    48.592    0.22E-03    0.17E-03    0.18E-06
 -----------------------------------------------------------------------------
|                                                                             |
|               ----> ADVICE to this user running VASP <----                  |
|                                                                             |
|     You enforced a specific xc type in the INCAR file but a different       |
|     type was found in the POTCAR file.                                      |
|     I HOPE YOU KNOW WHAT YOU ARE DOING!                                     |
|                                                                             |
 -----------------------------------------------------------------------------

  PAW_PBE Si 05Jan2001                  :
 energy of atom  1       EATOM= -103.0669
 kinetic energy error for atom=    0.0012 (will be added to EATOM!!)
 
 
 POSCAR: Si8
  positions in direct lattice
  velocities in cartesian coordinates


 exchange-correlation table for PS
   RHO(1)=    0.500       N(1)  =     2000
   RHO(2)=  100.500       N(2)  =     4000
 


--------------------------------------------------------------------------------------------------------


 ion  position               nearest neighbor table
   1  0.000  0.000  0.000-  30 2.30  44 2.30  15 2.31  57 2.31
   2  0.000  0.000  0.500-  29 2.30  43 2.30  16 2.31  58 2.31
   3  0.000  0.500  0.000-  32 2.30  42 2.30  13 2.31  59 2.31
   4  0.000  0.500  0.500-  31 2.30  41 2.30  14 2.31  60 2.31
   5  0.500  0.000  0.000-  26 2.30  48 2.30  11 2.31  61 2.31
   6  0.500  0.000  0.500-  25 2.30  47 2.30  12 2.31  62 2.31
   7  0.500  0.500  0.000-  28 2.30  46 2.30   9 2.31  63 2.31
   8  0.500  0.500  0.500-  27 2.30  45 2.30  10 2.31  64 2.31
   9  0.375  0.375  0.125-  21 2.30  35 2.30   7 2.31  49 2.31
  10  0.375  0.375  0.625-  22 2.30  36 2.30   8 2.31  50 2.31
  11  0.375  0.875  0.125-  23 2.30  33 2.30   5 2.31  51 2.31
  12  0.375  0.875  0.625-  24 2.30  34 2.30   6 2.31  52 2.31
  13  0.875  0.375  0.125-  17 2.30  39 2.30   3 2.31  53 2.31
  14  0.875  0.375  0.625-  18 2.30  40 2.30   4 2.31  54 2.31
  15  0.875  0.875  0.125-  19 2.30  37 2.30   1 2.31  55 2.31
  16  0.875  0.875  0.625-  20 2.30  38 2.30   2 2.31  56 2.31
  17  0.000  0.250  0.250-  13 2.30  57 2.30  41 2.31  29 2.31
  18  0.000  0.250  0.750-  14 2.30  58 2.30  42 2.31  30 2.31
  19  0.000  0.750  0.250-  15 2.30  59 2.30  43 2.31  31 2.31
  20  0.000  0.750  0.750-  16 2.30  60 2.30  44 2.31  32 2.31
  21  0.500  0.250  0.250-   9 2.30  61 2.30  45 2.31  25 2.31
  22  0.500  0.250  0.750-  10 2.30  62 2.30  46 2.31  26 2.31
  23  0.500  0.750  0.250-  11 2.30  63 2.30  47 2.31  27 2.31
  24  0.500  0.750  0.750-  12 2.30  64 2.30  48 2.31  28 2.31
  25  0.375  0.125  0.375-   6 2.30  50 2.30  33 2.31  21 2.31
  26  0.375  0.125  0.875-   5 2.30  49 2.30  34 2.31  22 2.31
  27  0.375  0.625  0.375-   8 2.30  52 2.30  35 2.31  23 2.31
  28  0.375  0.625  0.875-   7 2.30  51 2.30  36 2.31  24 2.31
  29  0.875  0.125  0.375-   2 2.30  54 2.30  37 2.31  17 2.31
  30  0.875  0.125  0.875-   1 2.30  53 2.30  38 2.31  18 2.31
  31  0.875  0.625  0.375-   4 2.30  56 2.30  39 2.31  19 2.31
  32  0.875  0.625  0.875-   3 2.30  55 2.30  40 2.31  20 2.31
  33  0.250  0.000  0.250-  11 2.30  57 2.30  43 2.31  25 2.31
  34  0.250  0.000  0.750-  12 2.30  58 2.30  44 2.31  26 2.31
  35  0.250  0.500  0.250-   9 2.30  59 2.30  41 2.31  27 2.31
  36  0.250  0.500  0.750-  10 2.30  60 2.30  42 2.31  28 2.31
  37  0.750  0.000  0.250-  15 2.30  61 2.30  47 2.31  29 2.31
  38  0.750  0.000  0.750-  16 2.30  62 2.30  48 2.31  30 2.31
  39  0.750  0.500  0.250-  13 2.30  63 2.30  45 2.31  31 2.31
  40  0.750  0.500  0.750-  14 2.30  64 2.30  46 2.31  32 2.31
  41  0.125  0.375  0.375-   4 2.30  50 2.30  35 2.31  17 2.31
  42  0.125  0.375  0.875-   3 2.30  49 2.30  36 2.31  18 2.31
  43  0.125  0.875  0.375-   2 2.30  52 2.30  33 2.31  19 2.31
  44  0.125  0.875  0.875-   1 2.30  51 2.30  34 2.31  20 2.31
  45  0.625  0.375  0.375-   8 2.30  54 2.30  39 2.31  21 2.31
  46  0.625  0.375  0.875-   7 2.30  53 2.30  40 2.31  22 2.31
  47  0.625  0.875  0.375-   6 2.30  56 2.30  37 2.31  23 2.31
  48  0.625  0.875  0.875-   5 2.30  55 2.30  38 2.31  24 2.31
  49  0.250  0.250  0.000-  26 2.30  42 2.30   9 2.31  57 2.31
  50  0.250  0.250  0.500-  25 2.30  41 2.30  10 2.31  58 2.31
  51  0.250  0.750  0.000-  28 2.30  44 2.30  11 2.31  59 2.31
  52  0.250  0.750  0.500-  27 2.30  43 2.30  12 2.31  60 2.31
  53  0.750  0.250  0.000-  30 2.30  46 2.30  13 2.31  61 2.31
  54  0.750  0.250  0.500-  29 2.30  45 2.30  14 2.31  62 2.31
  55  0.750  0.750  0.000-  32 2.30  48 2.30  15 2.31  63 2.31
  56  0.750  0.750  0.500-  31 2.30  47 2.30  16 2.31  64 2.31
  57  0.125  0.125  0.125-  17 2.30  33 2.30   1 2.31  49 2.31
  58  0.125  0.125  0.625-  18 2.30  34 2.30   2 2.31  50 2.31
  59  0.125  0.625  0.125-  19 2.30  35 2.30   3 2.31  51 2.31
  60  0.125  0.625  0.625-  20 2.30  36 2.30   4 2.31  52 2.31
  61  0.625  0.125  0.125-  21 2.30  37 2.30   5 2.31  53 2.31
  62  0.625  0.125  0.625-  22 2.30  38 2.30   6 2.31  54 2.31
  63  0.625  0.625  0.125-  23 2.30  39 2.30   7 2.31  55 2.31
  64  0.625  0.625  0.625-  24 2.30  40 2.30   8 2.31  56 2.31
 
  LATTYP: Found a simple monoclinic cell.
 ALAT       =    10.6389088171
 B/A-ratio  =     0.9999968751
 C/A-ratio  =     1.0049999341
 COS(beta)  =    -0.0049874966
  
  Lattice vectors:
  
 A1 = (   0.0265970039,  10.6388755712,   0.0000000000)
 A2 = (   0.0000000000,   0.0000000000, -10.6388755712)
 A3 = ( -10.6920695790,  -0.0265970039,   0.0000000000)


Analysis of symmetry for initial positions (statically):
=====================================================================
 Subroutine PRICEL returns following result:
 
  LATTYP: Found a base centered monoclinic cell.
 ALAT       =     5.3194544086
 B/A-ratio  =     0.9999968751
 C/A-ratio  =     0.7071067812
 COS(beta)  =    -0.7035624553
  
  Lattice vectors:
  
 A1 = (   0.0066492510,   2.6597188928,  -2.6597188928)
 A2 = (   0.0066492510,   2.6597188928,   2.6597188928)
 A3 = (   2.6663681438,  -2.6530696418,   0.0000000000)
 
  32 primitive cells build up your supercell.
 

 Routine SETGRP: Setting up the symmetry group for a 
 simple monoclinic supercell.


 Subroutine GETGRP returns: Found  4 space group operations
 (whereof  2 operations were pure point group operations)
 out of a pool of  4 trial point group operations.


The static configuration has the point symmetry C_2 .
 The point group associated with its full space group is C_2h.


Analysis of symmetry for dynamics (positions and initial velocities):
=====================================================================
 Subroutine PRICEL returns following result:
 
  LATTYP: Found a base centered monoclinic cell.
 ALAT       =     5.3194544086
 B/A-ratio  =     0.9999968751
 C/A-ratio  =     0.7071067812
 COS(beta)  =    -0.7035624553
  
  Lattice vectors:
  
 A1 = (   0.0066492510,   2.6597188928,  -2.6597188928)
 A2 = (   0.0066492510,   2.6597188928,   2.6597188928)
 A3 = (   2.6663681438,  -2.6530696418,   0.0000000000)
 
  32 primitive cells build up your supercell.
 

 Routine SETGRP: Setting up the symmetry group for a 
 simple monoclinic supercell.


 Subroutine GETGRP returns: Found  4 space group operations
 (whereof  2 operations were pure point group operations)
 out of a pool of  4 trial point group operations.


The dynamic configuration has the point symmetry C_2 .
 The point group associated with its full space group is C_2h.


 Subroutine INISYM returns: Found  4 space group operations
 (whereof  2 operations are pure point group operations),
 and found    32 'primitive' translations


----------------------------------------------------------------------------------------

                                     Primitive cell                                     

  volume of cell :      37.8182

  direct lattice vectors                    reciprocal lattice vectors
     0.006649251  2.659718893 -2.659718893     0.186588053  0.187523325 -0.187989791
     0.006649251  2.659718893  2.659718893     0.186588053  0.187523325  0.187989791
     2.666368144 -2.653069642  0.000000000     0.374111377 -0.000935272 -0.000000000

  length of vectors
     3.761416407  3.761416407  3.761422285     0.324530831  0.324530831  0.374112546

  position of ions in fractional coordinates (direct lattice)
     0.000000000  0.000000000  0.000000000
     0.250000000  0.750000000  0.500000000

  ion indices of the primitive-cell ions
   primitive index   ion index
                 1           1
                 2          15

----------------------------------------------------------------------------------------

 
 
 KPOINTS: Automatic mesh                          

Automatic generation of k-mesh.
 Grid dimensions read from file:
 generate k-points for:    2    2    2

 Generating k-lattice:

  Cartesian coordinates                     Fractional coordinates (reciprocal lattice)
     0.046763922 -0.000116909  0.000000000     0.500000000 -0.000000000  0.000000000
    -0.000116909  0.046997740  0.000000000    -0.000000000  0.500000000  0.000000000
     0.000000000  0.000000000  0.046997448     0.000000000  0.000000000  0.500000000

  Length of vectors
     0.046764068  0.046997886  0.046997448

  Shift w.r.t. Gamma in fractional coordinates (k-lattice)
     0.000000000  0.000000000  0.000000000

 
 Subroutine IBZKPT returns following result:
 ===========================================
 
 Found      8 irreducible k-points:
 
 Following reciprocal coordinates:
            Coordinates               Weight
  0.000000  0.000000  0.000000      1.000000
  0.500000  0.000000  0.000000      1.000000
  0.000000  0.500000  0.000000      1.000000
  0.500000  0.500000  0.000000      1.000000
  0.000000  0.000000  0.500000      1.000000
  0.500000  0.000000  0.500000      1.000000
  0.000000  0.500000  0.500000      1.000000
  0.500000  0.500000  0.500000      1.000000
 
 Following cartesian coordinates:
            Coordinates               Weight
  0.000000  0.000000  0.000000      1.000000
  0.046764 -0.000117  0.000000      1.000000
 -0.000117  0.046998  0.000000      1.000000
  0.046647  0.046881  0.000000      1.000000
  0.000000  0.000000  0.046997      1.000000
  0.046764 -0.000117  0.046997      1.000000
 -0.000117  0.046998  0.046997      1.000000
  0.046647  0.046881  0.046997      1.000000
 


--------------------------------------------------------------------------------------------------------




 Dimension of arrays:
   k-points           NKPTS =      8   k-points in BZ     NKDIM =      8   number of bands    NBANDS=    162
   number of dos      NEDOS =    301   number of ions     NIONS =     64
   non local maximal  LDIM  =      4   non local SUM 2l+1 LMDIM =      8
   total plane-waves  NPLWV = 343000
   max r-space proj   IRMAX =   3173   max aug-charges    IRDMAX=  76002
   dimension x,y,z NGX =    70 NGY =   70 NGZ =   70
   dimension x,y,z NGXF=   140 NGYF=  140 NGZF=  140
   support grid    NGXF=   280 NGYF=  280 NGZF=  280
   ions per type =              64
   NGX,Y,Z   is equivalent  to a cutoff of  10.88, 10.94, 10.94 a.u.
   NGXF,Y,Z  is equivalent  to a cutoff of  21.77, 21.88, 21.88 a.u.

 SYSTEM =  Si64                                    
 POSCAR =  Si8                                     

 Startparameter for this run:
   NWRITE =      2    write-flag & timer
   PREC   = accura    normal or accurate (medium, high low for compatibility)
   ISTART =      0    job   : 0-new  1-cont  2-samecut
   ICHARG =      2    charge: 1-file 2-atom 10-const
   ISPIN  =      1    spin polarized calculation?
   LNONCOLLINEAR =      F non collinear calculations
   LSORBIT =      F    spin-orbit coupling
   INIWAV =      1    electr: 0-lowe 1-rand  2-diag
   LASPH  =      F    aspherical Exc in radial PAW
 Electronic Relaxation 1
   ENCUT  =  400.0 eV  29.40 Ry    5.42 a.u.  17.44 17.35 17.35*2*pi/ulx,y,z
   ENINI  =  400.0     initial cutoff
   ENAUG  =  322.1 eV  augmentation charge cutoff
   NELM   =     60;   NELMIN=  8; NELMDL= -5     # of ELM steps 
   EDIFF  = 0.1E-05   stopping-criterion for ELM
   LREAL  =      T    real-space projection
   NLSPLINE    = F    spline interpolate recip. space projectors
   LCOMPAT=      F    compatible to vasp.4.4
   GGA_COMPAT  = F    GGA compatible to vasp.4.4-vasp.4.6
   LMAXPAW     = -100 max onsite density
   LMAXMIX     =    2 max onsite mixed and CHGCAR
   VOSKOWN=      0    Vosko Wilk Nusair interpolation
   ROPT   =   -0.00025
 Ionic relaxation
   EDIFFG = -.1E-01   stopping-criterion for IOM
   NSW    =     60    number of steps for IOM
   NBLOCK =      1;   KBLOCK =     60    inner block; outer block 
   IBRION =      2    ionic relax: 0-MD 1-quasi-New 2-CG
   NFREE  =      1    steps in history (QN), initial steepest desc. (CG)
   ISIF   =      2    stress and relaxation
   IWAVPR =     11    prediction:  0-non 1-charg 2-wave 3-comb
   ISYM   =      2    0-nonsym 1-usesym 2-fastsym
   LCORR  =      T    Harris-Foulkes like correction to forces

   POTIM  = 0.5000    time-step for ionic-motion
   TEIN   =    0.0    initial temperature
   TEBEG  =    0.0;   TEEND  =   0.0 temperature during run
   SMASS  =  -3.00    Nose mass-parameter (am)
   estimated Nose-frequenzy (Omega)   =  0.10E-29 period in steps = 0.13E+47 mass=  -0.261E-26a.u.
   SCALEE = 1.0000    scale energy and forces
   NPACO  =    256;   APACO  = 10.0  distance and # of slots for P.C.
   PSTRESS=    0.0 pullay stress

  Mass of Ions in am
   POMASS =  28.09
  Ionic Valenz
   ZVAL   =   4.00
  Atomic Wigner-Seitz radii
   RWIGS  =  -1.00
  virtual crystal weights 
   VCA    =   1.00
   NELECT =     256.0000    total number of electrons
   NUPDOWN=      -1.0000    fix difference up-down

 DOS related values:
   EMIN   =  10.00;   EMAX   =-10.00  energy-range for DOS
   EFERMI =   0.00;   METHOD = LEGACY      
   ISMEAR =     1;   SIGMA  =   0.20  broadening in eV -4-tet -1-fermi 0-gaus

 Electronic relaxation 2 (details)
   IALGO  =     68    algorithm
   LDIAG  =      T    sub-space diagonalisation (order eigenvalues)
   LSUBROT=      F    optimize rotation matrix (better conditioning)
   TURBO    =      0    0=normal 1=particle mesh
   IRESTART =      0    0=no restart 2=restart with 2 vectors
   NREBOOT  =      0    no. of reboots
   NMIN     =      0    reboot dimension
   EREF     =   0.00    reference energy to select bands
   IMIX   =      4    mixing-type and parameters
     AMIX     =   0.40;   BMIX     =  1.00
     AMIX_MAG =   1.60;   BMIX_MAG =  1.00
     AMIN     =   0.10
     WC   =   100.;   INIMIX=   1;  MIXPRE=   1;  MAXMIX= -45

 Intra band minimization:
   WEIMIN = 0.0010     energy-eigenvalue tresh-hold
   EBREAK =  0.15E-08  absolut break condition
   DEPER  =   0.30     relativ break condition  

   TIME   =   0.40     timestep for ELM

  volume/ion in A,a.u.               =      18.91       127.60
  Fermi-wavevector in a.u.,A,eV,Ry     =   0.975449  1.843332 12.945958  0.951501
  Thomas-Fermi vector in A             =   2.105990
 
 Write flags
   LWAVE        =      F    write WAVECAR
   LDOWNSAMPLE  =      F    k-point downsampling of WAVECAR
   LCHARG       =      F    write CHGCAR
   LVTOT        =      F    write LOCPOT, total local potential
   LVHAR        =      F    write LOCPOT, Hartree potential only
   WRT_POTENTIAL= false  ! write potential to hdf5 file
   LELF         =      F    write electronic localiz. function (ELF)
   LORBIT       =      0    0 simple, 1 ext, 2 COOP (PROOUT), +10 PAW based schemes


 Dipole corrections
   LMONO      =      F    monopole corrections only (constant potential shift)
   LDIPOL     =      F    correct potential (dipole corrections)
   IDIPOL     =      0    1-x, 2-y, 3-z, 4-all directions 
   EPSILON    =  1.0000000 bulk dielectric constant
   LVACPOTAV  =      F  vacuum potentials using an averaging scheme for the charge density
   VACPOTFLAT =  0.1000000 required flatness to determine vacuum potential
 Exchange correlation treatment:
   GGA     = PS    functional components
   XC_C    = 1    coefficients multiplying the functional components
   LIBXC   =     F    Libxc                    
   VOSKOWN =     0    Vosko Wilk Nusair interpolation
   LHFCALC =     F    Hartree Fock is set to
   LHFONE  =     F    Hartree Fock one center treatment
   AEXX    =    0.0000 exact exchange contribution

 Parameters of functionals:
   PS:
     No parameter
 
 Van der Waals corrections
   IVDW    =     0    specifies the selected vdW correction

 Linear response parameters
   LEPSILON=     F    determine dielectric tensor
   LRPA    =     F    only Hartree local field effects (RPA)
   LNABLA  =     F    use nabla operator in PAW spheres
   LVEL    =     F    velocity operator in full k-point grid
   CSHIFT  =0.1000    complex shift for real part using Kramers Kronig
   OMEGAMAX=  -1.0    maximum frequency
   DEG_THRESHOLD= 0.2000000E-02 threshold for treating states as degnerate
   RTIME   =   -0.100 relaxation time in fs
  (WPLASMAI=    0.000 imaginary part of plasma frequency in eV, 0.658/RTIME)
   DFIELD  = 0.0000000 0.0000000 0.0000000 field for delta impulse in time
 
  Optional k-point grid parameters
   LKPOINTS_OPT  =     F    use optional k-point grid
   KPOINTS_OPT_MODE=     1    mode for optional k-point grid
 
 Orbital magnetization related:
   ORBITALMAG=     F  switch on orbital magnetization
   LCHIMAG   =     F  perturbation theory with respect to B field
   DQ        =  0.001000  dq finite difference perturbation B field
   LLRAUG    =     F  two centre corrections for induced B field
   LBONE     =     F  B-component reconstruction in AE one-centre
   LVGVCALC  =     T  calculate vGv susceptibility
   LVGVAPPL  =     F  apply vGv susceptibility instead of pGv for G=0

 Random number generation:
   RANDOM_GENERATOR = DEFAULT
   PCG_SEED         = not used


--------------------------------------------------------------------------------------------------------


 conjugate gradient relaxation of ions
 charge density and potential will be updated during run
 non-spin polarized calculation
 RMM-DIIS sequential band-by-band and
  variant of blocked Davidson during initial phase
 perform sub-space diagonalisation
    before iterative eigenvector-optimisation
 modified Broyden-mixing scheme, WC =      100.0
 initial mixing is a Kerker type mixing with AMIX =  0.4000 and BMIX =      1.0000
 Hartree-type preconditioning will be used
 using additional bands           34
 real space projection scheme for non local part
 use partial core corrections
 calculate Harris-corrections to forces 
   (improved forces if not selfconsistent)
 use gradient corrections 
 use of overlap-Matrix (Vanderbilt PP)
 Methfessel and Paxton  Order N= 1 SIGMA  =   0.20


--------------------------------------------------------------------------------------------------------


  energy-cutoff  :      400.00
  volume of cell :     1210.18
      direct lattice vectors                 reciprocal lattice vectors
    10.692069579  0.026597004  0.000000000     0.093527844 -0.000233818  0.000000000
     0.026597004 10.638875571  0.000000000    -0.000233818  0.093995480  0.000000000
     0.000000000  0.000000000 10.638875571     0.000000000  0.000000000  0.093994896

  length of vectors
    10.692102660 10.638908817 10.638875571     0.093528137  0.093995771  0.093994896


 
 k-points in units of 2pi/SCALE and weight: Automatic mesh                          
   0.00000000  0.00000000  0.00000000       0.125
   0.04676393 -0.00011691  0.00000000       0.125
  -0.00011691  0.04699775  0.00000000       0.125
   0.04664702  0.04688084  0.00000000       0.125
   0.00000000  0.00000000  0.04699745       0.125
   0.04676393 -0.00011691  0.04699745       0.125
  -0.00011691  0.04699775  0.04699745       0.125
   0.04664702  0.04688084  0.04699745       0.125
 
 k-points in reciprocal lattice and weights: Automatic mesh                          
   0.00000000  0.00000000  0.00000000       0.125
   0.50000000  0.00000000  0.00000000       0.125
   0.00000000  0.50000000  0.00000000       0.125
   0.50000000  0.50000000  0.00000000       0.125
   0.00000000  0.00000000  0.50000000       0.125
   0.50000000  0.00000000  0.50000000       0.125
   0.00000000  0.50000000  0.50000000       0.125
   0.50000000  0.50000000  0.50000000       0.125
 
 position of ions in fractional coordinates (direct lattice) 
   0.00000000  0.00000000  0.00000000
   0.00000000  0.00000000  0.50000000
   0.00000000  0.50000000  0.00000000
   0.00000000  0.50000000  0.50000000
   0.50000000  0.00000000  0.00000000
   0.50000000  0.00000000  0.50000000
   0.50000000  0.50000000  0.00000000
   0.50000000  0.50000000  0.50000000
   0.37500000  0.37500000  0.12500000
   0.37500000  0.37500000  0.62500000
   0.37500000  0.87500000  0.12500000
   0.37500000  0.87500000  0.62500000
   0.87500000  0.37500000  0.12500000
   0.87500000  0.37500000  0.62500000
   0.87500000  0.87500000  0.12500000
   0.87500000  0.87500000  0.62500000
   0.00000000  0.25000000  0.25000000
   0.00000000  0.25000000  0.75000000
   0.00000000  0.75000000  0.25000000
   0.00000000  0.75000000  0.75000000
   0.50000000  0.25000000  0.25000000
   0.50000000  0.25000000  0.75000000
   0.50000000  0.75000000  0.25000000
   0.50000000  0.75000000  0.75000000
   0.37500000  0.12500000  0.37500000
   0.37500000  0.12500000  0.87500000
   0.37500000  0.62500000  0.37500000
   0.37500000  0.62500000  0.87500000
   0.87500000  0.12500000  0.37500000
   0.87500000  0.12500000  0.87500000
   0.87500000  0.62500000  0.37500000
   0.87500000  0.62500000  0.87500000
   0.25000000  0.00000000  0.25000000
   0.25000000  0.00000000  0.75000000
   0.25000000  0.50000000  0.25000000
   0.25000000  0.50000000  0.75000000
   0.75000000  0.00000000  0.25000000
   0.75000000  0.00000000  0.75000000
   0.75000000  0.50000000  0.25000000
   0.75000000  0.50000000  0.75000000
   0.12500000  0.37500000  0.37500000
   0.12500000  0.37500000  0.87500000
   0.12500000  0.87500000  0.37500000
   0.12500000  0.87500000  0.87500000
   0.62500000  0.37500000  0.37500000
   0.62500000  0.37500000  0.87500000
   0.62500000  0.87500000  0.37500000
   0.62500000  0.87500000  0.87500000
   0.25000000  0.25000000  0.00000000
   0.25000000  0.25000000  0.50000000
   0.25000000  0.75000000  0.00000000
   0.25000000  0.75000000  0.50000000
   0.75000000  0.25000000  0.00000000
   0.75000000  0.25000000  0.50000000
   0.75000000  0.75000000  0.00000000
   0.75000000  0.75000000  0.50000000
   0.12500000  0.12500000  0.12500000
   0.12500000  0.12500000  0.62500000
   0.12500000  0.62500000  0.12500000
   0.12500000  0.62500000  0.62500000
   0.62500000  0.12500000  0.12500000
   0.62500000  0.12500000  0.62500000
   0.62500000  0.62500000  0.12500000
   0.62500000  0.62500000  0.62500000
 
 position of ions in cartesian coordinates  (Angst):
   0.00000000  0.00000000  0.00000000
   0.00000000  0.00000000  5.31943779
   0.01329850  5.31943779  0.00000000
   0.01329850  5.31943779  5.31943779
   5.34603479  0.01329850  0.00000000
   5.34603479  0.01329850  5.31943779
   5.35933329  5.33273629  0.00000000
   5.35933329  5.33273629  5.31943779
   4.01949997  3.99955222  1.32985945
   4.01949997  3.99955222  6.64929723
   4.03279847  9.31899000  1.32985945
   4.03279847  9.31899000  6.64929723
   9.36553476  4.01285072  1.32985945
   9.36553476  4.01285072  6.64929723
   9.37883326  9.33228850  1.32985945
   9.37883326  9.33228850  6.64929723
   0.00664925  2.65971889  2.65971889
   0.00664925  2.65971889  7.97915668
   0.01994775  7.97915668  2.65971889
   0.01994775  7.97915668  7.97915668
   5.35268404  2.67301739  2.65971889
   5.35268404  2.67301739  7.97915668
   5.36598254  7.99245518  2.65971889
   5.36598254  7.99245518  7.97915668
   4.01285072  1.33983332  3.98957834
   4.01285072  1.33983332  9.30901612
   4.02614922  6.65927111  3.98957834
   4.02614922  6.65927111  9.30901612
   9.35888551  1.35313182  3.98957834
   9.35888551  1.35313182  9.30901612
   9.37218401  6.67256961  3.98957834
   9.37218401  6.67256961  9.30901612
   2.67301739  0.00664925  2.65971889
   2.67301739  0.00664925  7.97915668
   2.68631590  5.32608704  2.65971889
   2.68631590  5.32608704  7.97915668
   8.01905218  0.01994775  2.65971889
   8.01905218  0.01994775  7.97915668
   8.03235069  5.33938554  2.65971889
   8.03235069  5.33938554  7.97915668
   1.34648257  3.99290296  3.98957834
   1.34648257  3.99290296  9.30901612
   1.35978108  9.31234075  3.98957834
   1.35978108  9.31234075  9.30901612
   6.69251736  4.00620147  3.98957834
   6.69251736  4.00620147  9.30901612
   6.70581587  9.32563925  3.98957834
   6.70581587  9.32563925  9.30901612
   2.67966665  2.66636814  0.00000000
   2.67966665  2.66636814  5.31943779
   2.69296515  7.98580593  0.00000000
   2.69296515  7.98580593  5.31943779
   8.02570144  2.67966665  0.00000000
   8.02570144  2.67966665  5.31943779
   8.03899994  7.99910443  0.00000000
   8.03899994  7.99910443  5.31943779
   1.33983332  1.33318407  1.32985945
   1.33983332  1.33318407  6.64929723
   1.35313182  6.65262186  1.32985945
   1.35313182  6.65262186  6.64929723
   6.68586811  1.34648257  1.32985945
   6.68586811  1.34648257  6.64929723
   6.69916661  6.66592036  1.32985945
   6.69916661  6.66592036  6.64929723
 


--------------------------------------------------------------------------------------------------------


 k-point     1 :   0.0000 0.0000 0.0000  plane waves:   22011
 k-point     2 :   0.5000 0.0000 0.0000  plane waves:   21966
 k-point     3 :   0.0000 0.5000 0.0000  plane waves:   21962
 k-point     4 :   0.5000 0.5000 0.0000  plane waves:   21944
 k-point     5 :   0.0000 0.0000 0.5000  plane waves:   21982
 k-point     6 :   0.5000 0.0000 0.5000  plane waves:   21956
 k-point     7 :   0.0000 0.5000 0.5000  plane waves:   21944
 k-point     8 :   0.5000 0.5000 0.5000  plane waves:   21988

 maximum and minimum number of plane-waves per node :      1860     1793

 maximum number of plane-waves:     22011
 maximum index in each direction: 
   IXMAX=   17   IYMAX=   17   IZMAX=   17
   IXMIN=  -17   IYMIN=  -17   IZMIN=  -17


 real space projection operators:
  total allocation   :      12118.50 KBytes
  max/ min on nodes  :       1049.25        875.25


 parallel 3D FFT for wavefunctions:
    minimum data exchange during FFTs selected (reduces bandwidth)
 parallel 3D FFT for charge:
    minimum data exchange during FFTs selected (reduces bandwidth)


 total amount of memory used by VASP MPI-rank0    79141. kBytes
=======================================================================

   base      :      30000. kBytes
   nonlr-proj:       4677. kBytes
   fftplans  :      17991. kBytes
   grid      :       6881. kBytes
   one-center:         18. kBytes
   wavefun   :      19574. kBytes
 
     INWAV:  cpu time      0.0000: real time      0.0000
 Broyden mixing: mesh for mixing (old mesh)
   NGX = 35   NGY = 35   NGZ = 35
  (NGX  =140   NGY  =140   NGZ  =140)
  gives a total of  42875 points

 initial charge density was supplied:
 charge density of overlapping atoms calculated
 number of electron     256.0000000 magnetization 
 keeping initial charge density in first step


--------------------------------------------------------------------------------------------------------


 Maximum index for non-local projection operator          280
 Maximum index for augmentation-charges         3741 (set IRDMAX)


--------------------------------------------------------------------------------------------------------


 First call to EWALD:  gamma=   0.166
 Maximum number of real-space cells 3x 3x 3
 Maximum number of reciprocal cells 3x 3x 3

    FEWALD:  cpu time      0.0087: real time      0.0088


--------------------------------------- Ionic step        1  -------------------------------------------




--------------------------------------- Iteration      1(   1)  ---------------------------------------


    POTLOK:  cpu time      0.0933: real time      0.1014
    SETDIJ:  cpu time      0.0884: real time      0.0896
     EDDAV:  cpu time      1.2655: real time      1.3182
       DOS:  cpu time      0.0105: real time      0.0135
    --------------------------------------------
      LOOP:  cpu time      1.4577: real time      1.5228

 eigenvalue-minimisations  :  2592
 total energy-change (2. order) : 0.5775002E+03  (-0.8487807E+04)
 number of electron     256.0000000 magnetization 
 augmentation part      256.0000000 magnetization 

 Free energy of the ion-electron system (eV)
  ---------------------------------------------------
  alpha Z        PSCENC =       113.93677380
  Ewald energy   TEWEN  =     -7453.66004510
  -Hartree energ DENC   =      -325.32583420
  -exchange      EXHF   =         0.00000000
  -V(xc)+E(xc)   XCENC  =      -551.81346063
  PAW double counting   =      5598.62625415    -4492.17844134
  entropy T*S    EENTRO =        -0.00711169
  eigenvalues    EBANDS =      1123.12624406
  atomic energy  EATOM  =      6564.79586099
  Solvation  Ediel_sol  =         0.00000000
  ---------------------------------------------------
  free energy    TOTEN  =       577.50024004 eV

  energy without entropy =      577.50735174  energy(sigma->0) =      577.50261061


--------------------------------------------------------------------------------------------------------




--------------------------------------- Iteration      1(   2)  ---------------------------------------


     EDDAV:  cpu time      1.3438: real time      1.3598
       DOS:  cpu time      0.0011: real time      0.0010
    --------------------------------------------
      LOOP:  cpu time      1.3448: real time      1.3608

 eigenvalue-minimisations  :  3096
 total energy-change (2. order) :-0.8860297E+03  (-0.8388308E+03)
 number of electron     256.0000000 magnetization 
 augmentation part      256.0000000 magnetization 

 Free energy of the ion-electron system (eV)
  ---------------------------------------------------
  alpha Z        PSCENC =       113.93677380
  Ewald energy   TEWEN  =     -7453.66004510
  -Hartree energ DENC   =      -325.32583420
  -exchange      EXHF   =         0.00000000
  -V(xc)+E(xc)   XCENC  =      -551.81346063
  PAW double counting   =      5598.62625415    -4492.17844134
  entropy T*S    EENTRO =        -0.00398167
  eigenvalues    EBANDS =       237.09344907
  atomic energy  EATOM  =      6564.79586099
  Solvation  Ediel_sol  =         0.00000000
  ---------------------------------------------------
  free energy    TOTEN  =      -308.52942492 eV

  energy without entropy =     -308.52544325  energy(sigma->0) =     -308.52809769


--------------------------------------------------------------------------------------------------------




--------------------------------------- Iteration      1(   3)  ---------------------------------------


     EDDAV:  cpu time      1.3538: real time      1.3666
       DOS:  cpu time      0.0017: real time      0.0017
    --------------------------------------------
      LOOP:  cpu time      1.3555: real time      1.3683

 eigenvalue-minimisations  :  3152
 total energy-change (2. order) :-0.6434307E+02  (-0.6293078E+02)
 number of electron     256.0000000 magnetization 
 augmentation part      256.0000000 magnetization 

 Free energy of the ion-electron system (eV)
  ---------------------------------------------------
  alpha Z        PSCENC =       113.93677380
  Ewald energy   TEWEN  =     -7453.66004510
  -Hartree energ DENC   =      -325.32583420
  -exchange      EXHF   =         0.00000000
  -V(xc)+E(xc)   XCENC  =      -551.81346063
  PAW double counting   =      5598.62625415    -4492.17844134
  entropy T*S    EENTRO =         0.00730800
  eigenvalues    EBANDS =       172.73909297
  atomic energy  EATOM  =      6564.79586099
  Solvation  Ediel_sol  =         0.00000000
  ---------------------------------------------------
  free energy    TOTEN  =      -372.87249135 eV

  energy without entropy =     -372.87979935  energy(sigma->0) =     -372.87492735


--------------------------------------------------------------------------------------------------------




--------------------------------------- Iteration      1(   4)  ---------------------------------------


     EDDAV:  cpu time      1.3076: real time      1.3218
       DOS:  cpu time      0.0012: real time      0.0012
    --------------------------------------------
      LOOP:  cpu time      1.3088: real time      1.3230

 eigenvalue-minimisations  :  3104
 total energy-change (2. order) :-0.1650614E+01  (-0.1638076E+01)
 number of electron     256.0000000 magnetization 
 augmentation part      256.0000000 magnetization 

 Free energy of the ion-electron system (eV)
  ---------------------------------------------------
  alpha Z        PSCENC =       113.93677380
  Ewald energy   TEWEN  =     -7453.66004510
  -Hartree energ DENC   =      -325.32583420
  -exchange      EXHF   =         0.00000000
  -V(xc)+E(xc)   XCENC  =      -551.81346063
  PAW double counting   =      5598.62625415    -4492.17844134
  entropy T*S    EENTRO =         0.00809869
  eigenvalues    EBANDS =       171.08768846
  atomic energy  EATOM  =      6564.79586099
  Solvation  Ediel_sol  =         0.00000000
  ---------------------------------------------------
  free energy    TOTEN  =      -374.52310517 eV

  energy without entropy =     -374.53120386  energy(sigma->0) =     -374.52580473


--------------------------------------------------------------------------------------------------------




--------------------------------------- Iteration      1(   5)  ---------------------------------------


     EDDAV:  cpu time      1.3180: real time      1.3340
       DOS:  cpu time      0.0015: real time      0.0015
    CHARGE:  cpu time      0.2501: real time      0.2543
    MIXING:  cpu time      0.0100: real time      0.0132
    --------------------------------------------
      LOOP:  cpu time      1.5796: real time      1.6030

 eigenvalue-minimisations  :  3110
 total energy-change (2. order) :-0.5421659E-01  (-0.5412528E-01)
 number of electron     256.0000000 magnetization 
 augmentation part      -15.0986219 magnetization 

 Broyden mixing:
  rms(total) = 0.30291E+01    rms(broyden)= 0.30291E+01
  rms(prec ) = 0.33353E+01
  weight for this iteration     100.00

 Free energy of the ion-electron system (eV)
  ---------------------------------------------------
  alpha Z        PSCENC =       113.93677380
  Ewald energy   TEWEN  =     -7453.66004510
  -Hartree energ DENC   =      -325.32583420
  -exchange      EXHF   =         0.00000000
  -V(xc)+E(xc)   XCENC  =      -551.81346063
  PAW double counting   =      5598.62625415    -4492.17844134
  entropy T*S    EENTRO =         0.00807932
  eigenvalues    EBANDS =       171.03349124
  atomic energy  EATOM  =      6564.79586099
  Solvation  Ediel_sol  =         0.00000000
  ---------------------------------------------------
  free energy    TOTEN  =      -374.57732176 eV

  energy without entropy =     -374.58540108  energy(sigma->0) =     -374.58001487


--------------------------------------------------------------------------------------------------------




--------------------------------------- Iteration      1(   6)  ---------------------------------------


    POTLOK:  cpu time      0.0831: real time      0.0970
    SETDIJ:  cpu time      0.0696: real time      0.0701
    EDDIAG:  cpu time      0.1384: real time      0.1421
  RMM-DIIS:  cpu time      0.6986: real time      0.7025
    ORTHCH:  cpu time      0.0204: real time      0.0205
       DOS:  cpu time      0.0014: real time      0.0014
    CHARGE:  cpu time      0.2336: real time      0.2341
    MIXING:  cpu time      0.0076: real time      0.0108
    --------------------------------------------
      LOOP:  cpu time      1.2526: real time      1.2784

 eigenvalue-minimisations  :  2592
 total energy-change (2. order) : 0.5868888E+01  (-0.3054324E+00)
 number of electron     256.0000000 magnetization 
 augmentation part      -14.9157936 magnetization 

 Broyden mixing:
  rms(total) = 0.18270E+01    rms(broyden)= 0.18270E+01
  rms(prec ) = 0.19992E+01
  weight for this iteration     100.00

 eigenvalues of (default mixing * dielectric matrix)
  average eigenvalue GAMMA=   2.5138
  2.5138

 Free energy of the ion-electron system (eV)
  ---------------------------------------------------
  alpha Z        PSCENC =       113.93677380
  Ewald energy   TEWEN  =     -7453.66004510
  -Hartree energ DENC   =      -374.41427730
  -exchange      EXHF   =         0.00000000
  -V(xc)+E(xc)   XCENC  =      -544.03642892
  PAW double counting   =     13156.78986344   -12054.23800104
  entropy T*S    EENTRO =         0.01163924
  eigenvalues    EBANDS =       222.10618134
  atomic energy  EATOM  =      6564.79586099
  Solvation  Ediel_sol  =         0.00000000
  ---------------------------------------------------
  free energy    TOTEN  =      -368.70843355 eV

  energy without entropy =     -368.72007279  energy(sigma->0) =     -368.71231330


--------------------------------------------------------------------------------------------------------




--------------------------------------- Iteration      1(   7)  ---------------------------------------


    POTLOK:  cpu time      0.0825: real time      0.0972
    SETDIJ:  cpu time      0.0713: real time      0.0714
    EDDIAG:  cpu time      0.1378: real time      0.1385
  RMM-DIIS:  cpu time      0.6934: real time      0.7028
    ORTHCH:  cpu time      0.0187: real time      0.0223
       DOS:  cpu time      0.0018: real time      0.0018
    CHARGE:  cpu time      0.2341: real time      0.2347
    MIXING:  cpu time      0.0103: real time      0.0104
    --------------------------------------------
      LOOP:  cpu time      1.2499: real time      1.2790

 eigenvalue-minimisations  :  2658
 total energy-change (2. order) : 0.2580988E+01  (-0.7760921E+00)
 number of electron     256.0000000 magnetization 
 augmentation part      -14.6575151 magnetization 

 Broyden mixing:
  rms(total) = 0.11335E+00    rms(broyden)= 0.11335E+00
  rms(prec ) = 0.14207E+00
  weight for this iteration     100.00

 eigenvalues of (default mixing * dielectric matrix)
  average eigenvalue GAMMA=   2.2839
  2.2839  2.2839

 Free energy of the ion-electron system (eV)
  ---------------------------------------------------
  alpha Z        PSCENC =       113.93677380
  Ewald energy   TEWEN  =     -7453.66004510
  -Hartree energ DENC   =      -455.26582940
  -exchange      EXHF   =         0.00000000
  -V(xc)+E(xc)   XCENC  =      -530.64304848
  PAW double counting   =     31785.52539627   -30688.43243113
  entropy T*S    EENTRO =         0.03184432
  eigenvalues    EBANDS =       297.58403289
  atomic energy  EATOM  =      6564.79586099
  Solvation  Ediel_sol  =         0.00000000
  ---------------------------------------------------
  free energy    TOTEN  =      -366.12744584 eV

  energy without entropy =     -366.15929016  energy(sigma->0) =     -366.13806061


--------------------------------------------------------------------------------------------------------




--------------------------------------- Iteration      1(   8)  ---------------------------------------


    POTLOK:  cpu time      0.0850: real time      0.0884
    SETDIJ:  cpu time      0.0725: real time      0.0729
    EDDIAG:  cpu time      0.1367: real time      0.1374
  RMM-DIIS:  cpu time      0.7419: real time      0.7437
    ORTHCH:  cpu time      0.0203: real time      0.0203
       DOS:  cpu time      0.0020: real time      0.0020
    CHARGE:  cpu time      0.2366: real time      0.2376
    MIXING:  cpu time      0.0115: real time      0.0120
    --------------------------------------------
      LOOP:  cpu time      1.3064: real time      1.3143

 eigenvalue-minimisations  :  2610
 total energy-change (2. order) :-0.3459510E-01  (-0.6991174E-01)
 number of electron     256.0000000 magnetization 
 augmentation part      -14.7147087 magnetization 

 Broyden mixing:
  rms(total) = 0.52576E-01    rms(broyden)= 0.52576E-01
  rms(prec ) = 0.56199E-01
  weight for this iteration     100.00

 eigenvalues of (default mixing * dielectric matrix)
  average eigenvalue GAMMA=   2.1010
  2.5523  1.8754  1.8754

 Free energy of the ion-electron system (eV)
  ---------------------------------------------------
  alpha Z        PSCENC =       113.93677380
  Ewald energy   TEWEN  =     -7453.66004510
  -Hartree energ DENC   =      -446.53715027
  -exchange      EXHF   =         0.00000000
  -V(xc)+E(xc)   XCENC  =      -531.36784069
  PAW double counting   =     31555.09835857   -30456.96091370
  entropy T*S    EENTRO =         0.03338913
  eigenvalues    EBANDS =       288.49952633
  atomic energy  EATOM  =      6564.79586099
  Solvation  Ediel_sol  =         0.00000000
  ---------------------------------------------------
  free energy    TOTEN  =      -366.16204094 eV

  energy without entropy =     -366.19543007  energy(sigma->0) =     -366.17317065


--------------------------------------------------------------------------------------------------------




--------------------------------------- Iteration      1(   9)  ---------------------------------------


    POTLOK:  cpu time      0.0730: real time      0.0879
    SETDIJ:  cpu time      0.0759: real time      0.0762
    EDDIAG:  cpu time      0.1338: real time      0.1341
  RMM-DIIS:  cpu time      0.7146: real time      0.7163
    ORTHCH:  cpu time      0.0206: real time      0.0207
       DOS:  cpu time      0.0020: real time      0.0020
    CHARGE:  cpu time      0.2336: real time      0.2345
    MIXING:  cpu time      0.0114: real time      0.0115
    --------------------------------------------
      LOOP:  cpu time      1.2650: real time      1.2831

 eigenvalue-minimisations  :  2672
 total energy-change (2. order) :-0.2267668E-01  (-0.2148096E-01)
 number of electron     256.0000000 magnetization 
 augmentation part      -14.7005221 magnetization 

 Broyden mixing:
  rms(total) = 0.60097E-01    rms(broyden)= 0.60096E-01
  rms(prec ) = 0.68386E-01
  weight for this iteration     100.00

 eigenvalues of (default mixing * dielectric matrix)
  average eigenvalue GAMMA=   1.9923
  2.5386  2.4818  2.4818  0.4671

 Free energy of the ion-electron system (eV)
  ---------------------------------------------------
  alpha Z        PSCENC =       113.93677380
  Ewald energy   TEWEN  =     -7453.66004510
  -Hartree energ DENC   =      -449.81444474
  -exchange      EXHF   =         0.00000000
  -V(xc)+E(xc)   XCENC  =      -530.92947618
  PAW double counting   =     31958.67766002   -30860.82324222
  entropy T*S    EENTRO =         0.03330681
  eigenvalues    EBANDS =       291.59888901
  atomic energy  EATOM  =      6564.79586099
  Solvation  Ediel_sol  =         0.00000000
  ---------------------------------------------------
  free energy    TOTEN  =      -366.18471762 eV

  energy without entropy =     -366.21802443  energy(sigma->0) =     -366.19581989


--------------------------------------------------------------------------------------------------------




--------------------------------------- Iteration      1(  10)  ---------------------------------------


    POTLOK:  cpu time      0.0841: real time      0.0960
    SETDIJ:  cpu time      0.0695: real time      0.0697
    EDDIAG:  cpu time      0.1320: real time      0.1323
  RMM-DIIS:  cpu time      0.7166: real time      0.7183
    ORTHCH:  cpu time      0.0206: real time      0.0206
       DOS:  cpu time      0.0015: real time      0.0015
    CHARGE:  cpu time      0.2336: real time      0.2345
    MIXING:  cpu time      0.0105: real time      0.0105
    --------------------------------------------
      LOOP:  cpu time      1.2684: real time      1.2835

 eigenvalue-minimisations  :  2732
 total energy-change (2. order) :-0.3832222E-02  (-0.3695103E-02)
 number of electron     256.0000000 magnetization 
 augmentation part      -14.7070970 magnetization 

 Broyden mixing:
  rms(total) = 0.75606E-01    rms(broyden)= 0.75606E-01
  rms(prec ) = 0.82896E-01
  weight for this iteration     100.00

 eigenvalues of (default mixing * dielectric matrix)
  average eigenvalue GAMMA=   1.5030
  2.6330  2.0250  2.0250  0.6360  0.1961

 Free energy of the ion-electron system (eV)
  ---------------------------------------------------
  alpha Z        PSCENC =       113.93677380
  Ewald energy   TEWEN  =     -7453.66004510
  -Hartree energ DENC   =      -449.85632346
  -exchange      EXHF   =         0.00000000
  -V(xc)+E(xc)   XCENC  =      -530.92470847
  PAW double counting   =     31968.80857294   -30870.95600725
  entropy T*S    EENTRO =         0.03330296
  eigenvalues    EBANDS =       291.63402377
  atomic energy  EATOM  =      6564.79586099
  Solvation  Ediel_sol  =         0.00000000
  ---------------------------------------------------
  free energy    TOTEN  =      -366.18854984 eV

  energy without entropy =     -366.22185280  energy(sigma->0) =     -366.19965082


--------------------------------------------------------------------------------------------------------




--------------------------------------- Iteration      1(  11)  ---------------------------------------


    POTLOK:  cpu time      0.0830: real time      0.0933
    SETDIJ:  cpu time      0.0692: real time      0.0694
    EDDIAG:  cpu time      0.1323: real time      0.1326
  RMM-DIIS:  cpu time      0.6927: real time      0.6943
    ORTHCH:  cpu time      0.0204: real time      0.0205
       DOS:  cpu time      0.0015: real time      0.0015
    CHARGE:  cpu time      0.2349: real time      0.2358
    MIXING:  cpu time      0.0109: real time      0.0109
    --------------------------------------------
      LOOP:  cpu time      1.2448: real time      1.2582

 eigenvalue-minimisations  :  2592
 total energy-change (2. order) : 0.3940133E-02  (-0.1241471E-02)
 number of electron     256.0000000 magnetization 
 augmentation part      -14.7214964 magnetization 

 Broyden mixing:
  rms(total) = 0.75908E-01    rms(broyden)= 0.75908E-01
  rms(prec ) = 0.76658E-01
  weight for this iteration     100.00

 eigenvalues of (default mixing * dielectric matrix)
  average eigenvalue GAMMA=   1.3332
  2.4922  2.4922  1.5087  0.6576  0.6576  0.1907

 Free energy of the ion-electron system (eV)
  ---------------------------------------------------
  alpha Z        PSCENC =       113.93677380
  Ewald energy   TEWEN  =     -7453.66004510
  -Hartree energ DENC   =      -447.29444452
  -exchange      EXHF   =         0.00000000
  -V(xc)+E(xc)   XCENC  =      -531.11022605
  PAW double counting   =     31969.42790931   -30871.30331811
  entropy T*S    EENTRO =         0.03337594
  eigenvalues    EBANDS =       288.98950403
  atomic energy  EATOM  =      6564.79586099
  Solvation  Ediel_sol  =         0.00000000
  ---------------------------------------------------
  free energy    TOTEN  =      -366.18460971 eV

  energy without entropy =     -366.21798565  energy(sigma->0) =     -366.19573502


--------------------------------------------------------------------------------------------------------




--------------------------------------- Iteration      1(  12)  ---------------------------------------


    POTLOK:  cpu time      0.0792: real time      0.0944
    SETDIJ:  cpu time      0.0691: real time      0.0693
    EDDIAG:  cpu time      0.1336: real time      0.1340
  RMM-DIIS:  cpu time      0.6945: real time      0.6962
    ORTHCH:  cpu time      0.0207: real time      0.0207
       DOS:  cpu time      0.0012: real time      0.0012
    CHARGE:  cpu time      0.2339: real time      0.2349
    MIXING:  cpu time      0.0116: real time      0.0116
    --------------------------------------------
      LOOP:  cpu time      1.2437: real time      1.2622

 eigenvalue-minimisations  :  2607
 total energy-change (2. order) :-0.6727941E-04  (-0.1857856E-03)
 number of electron     256.0000000 magnetization 
 augmentation part      -14.7249523 magnetization 

 Broyden mixing:
  rms(total) = 0.80414E-01    rms(broyden)= 0.80414E-01
  rms(prec ) = 0.80991E-01
  weight for this iteration     100.00

 eigenvalues of (default mixing * dielectric matrix)
  average eigenvalue GAMMA=   1.1471
  2.4890  2.4890  1.5041  0.4661  0.4661  0.3489  0.2670

 Free energy of the ion-electron system (eV)
  ---------------------------------------------------
  alpha Z        PSCENC =       113.93677380
  Ewald energy   TEWEN  =     -7453.66004510
  -Hartree energ DENC   =      -447.07390382
  -exchange      EXHF   =         0.00000000
  -V(xc)+E(xc)   XCENC  =      -531.14427736
  PAW double counting   =     31897.30159320   -30799.18319439
  entropy T*S    EENTRO =         0.03337255
  eigenvalues    EBANDS =       288.80914314
  atomic energy  EATOM  =      6564.79586099
  Solvation  Ediel_sol  =         0.00000000
  ---------------------------------------------------
  free energy    TOTEN  =      -366.18467699 eV

  energy without entropy =     -366.21804953  energy(sigma->0) =     -366.19580117


--------------------------------------------------------------------------------------------------------




--------------------------------------- Iteration      1(  13)  ---------------------------------------


    POTLOK:  cpu time      0.0785: real time      0.0925
    SETDIJ:  cpu time      0.0718: real time      0.0720
    EDDIAG:  cpu time      0.1322: real time      0.1325
  RMM-DIIS:  cpu time      0.7354: real time      0.7372
    ORTHCH:  cpu time      0.0205: real time      0.0206
       DOS:  cpu time      0.0013: real time      0.0013
    CHARGE:  cpu time      0.2341: real time      0.2348
    MIXING:  cpu time      0.0113: real time      0.0113
    --------------------------------------------
      LOOP:  cpu time      1.2851: real time      1.3023

 eigenvalue-minimisations  :  2750
 total energy-change (2. order) :-0.6762904E-04  (-0.3613231E-04)
 number of electron     256.0000000 magnetization 
 augmentation part      -14.7254311 magnetization 

 Broyden mixing:
  rms(total) = 0.84622E-01    rms(broyden)= 0.84622E-01
  rms(prec ) = 0.85162E-01
  weight for this iteration     100.00

 eigenvalues of (default mixing * dielectric matrix)
  average eigenvalue GAMMA=   1.5962
  2.8094  2.8094  2.5121  1.8399  1.0349  0.7788  0.7788  0.2060

 Free energy of the ion-electron system (eV)
  ---------------------------------------------------
  alpha Z        PSCENC =       113.93677380
  Ewald energy   TEWEN  =     -7453.66004510
  -Hartree energ DENC   =      -447.10406701
  -exchange      EXHF   =         0.00000000
  -V(xc)+E(xc)   XCENC  =      -531.13907853
  PAW double counting   =     31923.65893366   -30825.54006477
  entropy T*S    EENTRO =         0.03337273
  eigenvalues    EBANDS =       288.83356961
  atomic energy  EATOM  =      6564.79586099
  Solvation  Ediel_sol  =         0.00000000
  ---------------------------------------------------
  free energy    TOTEN  =      -366.18474461 eV

  energy without entropy =     -366.21811734  energy(sigma->0) =     -366.19586886


--------------------------------------------------------------------------------------------------------




--------------------------------------- Iteration      1(  14)  ---------------------------------------


    POTLOK:  cpu time      0.0748: real time      0.0916
    SETDIJ:  cpu time      0.0700: real time      0.0702
    EDDIAG:  cpu time      0.1334: real time      0.1337
  RMM-DIIS:  cpu time      0.6936: real time      0.6953
    ORTHCH:  cpu time      0.0204: real time      0.0204
       DOS:  cpu time      0.0013: real time      0.0013
    CHARGE:  cpu time      0.2333: real time      0.2341
    MIXING:  cpu time      0.0122: real time      0.0122
    --------------------------------------------
      LOOP:  cpu time      1.2391: real time      1.2588

 eigenvalue-minimisations  :  2592
 total energy-change (2. order) : 0.2940674E-03  (-0.1558580E-04)
 number of electron     256.0000000 magnetization 
 augmentation part      -14.7264063 magnetization 

 Broyden mixing:
  rms(total) = 0.66308E-01    rms(broyden)= 0.66308E-01
  rms(prec ) = 0.67082E-01
  weight for this iteration     100.00

 eigenvalues of (default mixing * dielectric matrix)
  average eigenvalue GAMMA=   1.4355
  2.7610  2.4622  2.4622  1.3808  1.0271  1.0271  0.7964  0.7964  0.2062

 Free energy of the ion-electron system (eV)
  ---------------------------------------------------
  alpha Z        PSCENC =       113.93677380
  Ewald energy   TEWEN  =     -7453.66004510
  -Hartree energ DENC   =      -446.70810679
  -exchange      EXHF   =         0.00000000
  -V(xc)+E(xc)   XCENC  =      -531.19197978
  PAW double counting   =     31685.95837601   -30587.87623186
  entropy T*S    EENTRO =         0.03336877
  eigenvalues    EBANDS =       288.52753341
  atomic energy  EATOM  =      6564.79586099
  Solvation  Ediel_sol  =         0.00000000
  ---------------------------------------------------
  free energy    TOTEN  =      -366.18445055 eV

  energy without entropy =     -366.21781932  energy(sigma->0) =     -366.19557347


--------------------------------------------------------------------------------------------------------




--------------------------------------- Iteration      1(  15)  ---------------------------------------


    POTLOK:  cpu time      0.0799: real time      0.0937
    SETDIJ:  cpu time      0.0692: real time      0.0694
    EDDIAG:  cpu time      0.1328: real time      0.1331
  RMM-DIIS:  cpu time      0.6949: real time      0.6967
    ORTHCH:  cpu time      0.0203: real time      0.0204
       DOS:  cpu time      0.0029: real time      0.0029
    CHARGE:  cpu time      0.2332: real time      0.2339
    MIXING:  cpu time      0.0114: real time      0.0114
    --------------------------------------------
      LOOP:  cpu time      1.2446: real time      1.2616

 eigenvalue-minimisations  :  2594
 total energy-change (2. order) :-0.2388713E-03  (-0.7725812E-05)
 number of electron     256.0000000 magnetization 
 augmentation part      -14.7270424 magnetization 

 Broyden mixing:
  rms(total) = 0.61834E-01    rms(broyden)= 0.61834E-01
  rms(prec ) = 0.62451E-01
  weight for this iteration     100.00

 eigenvalues of (default mixing * dielectric matrix)
  average eigenvalue GAMMA=   1.4347
  2.6188  2.6188  2.4434  1.4162  1.4162  1.0965  0.8687  0.8313  0.8313  0.2061

 Free energy of the ion-electron system (eV)
  ---------------------------------------------------
  alpha Z        PSCENC =       113.93677380
  Ewald energy   TEWEN  =     -7453.66004510
  -Hartree energ DENC   =      -446.66899337
  -exchange      EXHF   =         0.00000000
  -V(xc)+E(xc)   XCENC  =      -531.18667676
  PAW double counting   =     31699.40312826   -30601.31079135
  entropy T*S    EENTRO =         0.03336255
  eigenvalues    EBANDS =       288.47269156
  atomic energy  EATOM  =      6564.79586099
  Solvation  Ediel_sol  =         0.00000000
  ---------------------------------------------------
  free energy    TOTEN  =      -366.18468942 eV

  energy without entropy =     -366.21805197  energy(sigma->0) =     -366.19581027


--------------------------------------------------------------------------------------------------------




--------------------------------------- Iteration      1(  16)  ---------------------------------------


    POTLOK:  cpu time      0.0763: real time      0.0926
    SETDIJ:  cpu time      0.0730: real time      0.0732
    EDDIAG:  cpu time      0.1382: real time      0.1389
  RMM-DIIS:  cpu time      0.7001: real time      0.7018
    ORTHCH:  cpu time      0.0214: real time      0.0214
       DOS:  cpu time      0.0016: real time      0.0017
    CHARGE:  cpu time      0.2350: real time      0.2358
    MIXING:  cpu time      0.0119: real time      0.0120
    --------------------------------------------
      LOOP:  cpu time      1.2575: real time      1.2773

 eigenvalue-minimisations  :  2592
 total energy-change (2. order) :-0.2372385E-03  (-0.7123581E-05)
 number of electron     256.0000000 magnetization 
 augmentation part      -14.7261347 magnetization 

 Broyden mixing:
  rms(total) = 0.48787E-01    rms(broyden)= 0.48787E-01
  rms(prec ) = 0.49124E-01
  weight for this iteration     100.00

 eigenvalues of (default mixing * dielectric matrix)
  average eigenvalue GAMMA=   1.4302
  2.6580  2.6580  2.3983  1.3658  1.3658  1.6546  0.8733  0.8733  0.8394  0.8394
  0.2061

 Free energy of the ion-electron system (eV)
  ---------------------------------------------------
  alpha Z        PSCENC =       113.93677380
  Ewald energy   TEWEN  =     -7453.66004510
  -Hartree energ DENC   =      -446.97205845
  -exchange      EXHF   =         0.00000000
  -V(xc)+E(xc)   XCENC  =      -531.15587670
  PAW double counting   =     31703.22363717   -30605.13604694
  entropy T*S    EENTRO =         0.03336489
  eigenvalues    EBANDS =       288.74946368
  atomic energy  EATOM  =      6564.79586099
  Solvation  Ediel_sol  =         0.00000000
  ---------------------------------------------------
  free energy    TOTEN  =      -366.18492666 eV

  energy without entropy =     -366.21829155  energy(sigma->0) =     -366.19604829


--------------------------------------------------------------------------------------------------------




--------------------------------------- Iteration      1(  17)  ---------------------------------------


    POTLOK:  cpu time      0.0816: real time      0.0955
    SETDIJ:  cpu time      0.0699: real time      0.0700
    EDDIAG:  cpu time      0.1313: real time      0.1316
  RMM-DIIS:  cpu time      0.6939: real time      0.6958
    ORTHCH:  cpu time      0.0218: real time      0.0219
       DOS:  cpu time      0.0014: real time      0.0014
    CHARGE:  cpu time      0.2361: real time      0.2370
    MIXING:  cpu time      0.0104: real time      0.0104
    --------------------------------------------
      LOOP:  cpu time      1.2464: real time      1.2636

 eigenvalue-minimisations  :  2592
 total energy-change (2. order) :-0.8692269E-04  (-0.3055232E-05)
 number of electron     256.0000000 magnetization 
 augmentation part      -14.7255588 magnetization 

 Broyden mixing:
  rms(total) = 0.29117E-01    rms(broyden)= 0.29117E-01
  rms(prec ) = 0.29325E-01
  weight for this iteration     100.00

 eigenvalues of (default mixing * dielectric matrix)
  average eigenvalue GAMMA=   1.4877
  2.6261  2.6261  2.4666  1.8035  1.8035  1.7420  1.0405  1.0405  0.8686  0.8143
  0.8143  0.2061

 Free energy of the ion-electron system (eV)
  ---------------------------------------------------
  alpha Z        PSCENC =       113.93677380
  Ewald energy   TEWEN  =     -7453.66004510
  -Hartree energ DENC   =      -447.06895261
  -exchange      EXHF   =         0.00000000
  -V(xc)+E(xc)   XCENC  =      -531.15550935
  PAW double counting   =     31604.14036292   -30506.05629849
  entropy T*S    EENTRO =         0.03336409
  eigenvalues    EBANDS =       288.84943018
  atomic energy  EATOM  =      6564.79586099
  Solvation  Ediel_sol  =         0.00000000
  ---------------------------------------------------
  free energy    TOTEN  =      -366.18501358 eV

  energy without entropy =     -366.21837767  energy(sigma->0) =     -366.19613494


--------------------------------------------------------------------------------------------------------




--------------------------------------- Iteration      1(  18)  ---------------------------------------


    POTLOK:  cpu time      0.0759: real time      0.0916
    SETDIJ:  cpu time      0.0703: real time      0.0705
    EDDIAG:  cpu time      0.1347: real time      0.1350
  RMM-DIIS:  cpu time      0.6928: real time      0.6948
    ORTHCH:  cpu time      0.0205: real time      0.0205
       DOS:  cpu time      0.0015: real time      0.0015
    CHARGE:  cpu time      0.2343: real time      0.2351
    MIXING:  cpu time      0.0103: real time      0.0103
    --------------------------------------------
      LOOP:  cpu time      1.2403: real time      1.2594

 eigenvalue-minimisations  :  2592
 total energy-change (2. order) :-0.3137905E-04  (-0.1172473E-05)
 number of electron     256.0000000 magnetization 
 augmentation part      -14.7253049 magnetization 

 Broyden mixing:
  rms(total) = 0.13191E-01    rms(broyden)= 0.13191E-01
  rms(prec ) = 0.13321E-01
  weight for this iteration     100.00

 eigenvalues of (default mixing * dielectric matrix)
  average eigenvalue GAMMA=   1.6776
  2.8141  2.8141  2.7075  2.7075  2.4841  1.6404  1.6404  1.3195  0.8263  0.8263
  0.9245  0.8977  0.2061

 Free energy of the ion-electron system (eV)
  ---------------------------------------------------
  alpha Z        PSCENC =       113.93677380
  Ewald energy   TEWEN  =     -7453.66004510
  -Hartree energ DENC   =      -447.08327018
  -exchange      EXHF   =         0.00000000
  -V(xc)+E(xc)   XCENC  =      -531.16227832
  PAW double counting   =     31511.79708439   -30413.71405144
  entropy T*S    EENTRO =         0.03336189
  eigenvalues    EBANDS =       288.87151901
  atomic energy  EATOM  =      6564.79586099
  Solvation  Ediel_sol  =         0.00000000
  ---------------------------------------------------
  free energy    TOTEN  =      -366.18504496 eV

  energy without entropy =     -366.21840685  energy(sigma->0) =     -366.19616559


--------------------------------------------------------------------------------------------------------




--------------------------------------- Iteration      1(  19)  ---------------------------------------


    POTLOK:  cpu time      0.0770: real time      0.0940
    SETDIJ:  cpu time      0.0704: real time      0.0706
    EDDIAG:  cpu time      0.1322: real time      0.1325
  RMM-DIIS:  cpu time      0.6347: real time      0.6715
    ORTHCH:  cpu time      0.0204: real time      0.0205
       DOS:  cpu time      0.0021: real time      0.0021
    CHARGE:  cpu time      0.2347: real time      0.2360
    MIXING:  cpu time      0.0099: real time      0.0099
    --------------------------------------------
      LOOP:  cpu time      1.1814: real time      1.2371

 eigenvalue-minimisations  :  2326
 total energy-change (2. order) :-0.1329991E-04  (-0.6602836E-06)
 number of electron     256.0000000 magnetization 
 augmentation part      -14.7251082 magnetization 

 Broyden mixing:
  rms(total) = 0.32488E-02    rms(broyden)= 0.32488E-02
  rms(prec ) = 0.33259E-02
  weight for this iteration     100.00

 eigenvalues of (default mixing * dielectric matrix)
  average eigenvalue GAMMA=   1.8506
  6.4312  3.1231  2.4705  2.4705  2.4485  1.6812  1.6812  0.2061  1.2097  0.8250
  0.8250  0.9121  0.9121  0.7119

 Free energy of the ion-electron system (eV)
  ---------------------------------------------------
  alpha Z        PSCENC =       113.93677380
  Ewald energy   TEWEN  =     -7453.66004510
  -Hartree energ DENC   =      -447.10073391
  -exchange      EXHF   =         0.00000000
  -V(xc)+E(xc)   XCENC  =      -531.16538528
  PAW double counting   =     31458.85753187   -30360.77519327
  entropy T*S    EENTRO =         0.03336022
  eigenvalues    EBANDS =       288.89277242
  atomic energy  EATOM  =      6564.79586099
  Solvation  Ediel_sol  =         0.00000000
  ---------------------------------------------------
  free energy    TOTEN  =      -366.18505826 eV

  energy without entropy =     -366.21841848  energy(sigma->0) =     -366.19617833


--------------------------------------------------------------------------------------------------------




--------------------------------------- Iteration      1(  20)  ---------------------------------------


    POTLOK:  cpu time      0.0776: real time      0.0881
    SETDIJ:  cpu time      0.0735: real time      0.0737
    EDDIAG:  cpu time      0.1329: real time      0.1332
  RMM-DIIS:  cpu time      0.4986: real time      0.4999
    ORTHCH:  cpu time      0.0204: real time      0.0204
       DOS:  cpu time      0.0012: real time      0.0012
    CHARGE:  cpu time      0.2335: real time      0.2344
    MIXING:  cpu time      0.0112: real time      0.0112
    --------------------------------------------
      LOOP:  cpu time      1.0489: real time      1.0621

 eigenvalue-minimisations  :  1652
 total energy-change (2. order) :-0.3428580E-05  (-0.2374553E-06)
 number of electron     256.0000000 magnetization 
 augmentation part      -14.7249616 magnetization 

 Broyden mixing:
  rms(total) = 0.13470E-02    rms(broyden)= 0.13470E-02
  rms(prec ) = 0.13587E-02
  weight for this iteration     100.00

 eigenvalues of (default mixing * dielectric matrix)
  average eigenvalue GAMMA=   1.9997
  9.9002  2.8891  2.5952  2.5952  2.3964  1.6970  1.6970  0.2061  1.2087  0.8282
  0.8282  0.9023  0.9023  0.6751  0.6751

 Free energy of the ion-electron system (eV)
  ---------------------------------------------------
  alpha Z        PSCENC =       113.93677380
  Ewald energy   TEWEN  =     -7453.66004510
  -Hartree energ DENC   =      -447.11792917
  -exchange      EXHF   =         0.00000000
  -V(xc)+E(xc)   XCENC  =      -531.16487432
  PAW double counting   =     31447.33648817   -30349.25438308
  entropy T*S    EENTRO =         0.03335946
  eigenvalues    EBANDS =       288.90968757
  atomic energy  EATOM  =      6564.79586099
  Solvation  Ediel_sol  =         0.00000000
  ---------------------------------------------------
  free energy    TOTEN  =      -366.18506169 eV

  energy without entropy =     -366.21842114  energy(sigma->0) =     -366.19618151


--------------------------------------------------------------------------------------------------------




--------------------------------------- Iteration      1(  21)  ---------------------------------------


    POTLOK:  cpu time      0.0735: real time      0.0876
    SETDIJ:  cpu time      0.0728: real time      0.0730
    EDDIAG:  cpu time      0.1318: real time      0.1321
  RMM-DIIS:  cpu time      0.4460: real time      0.4471
    ORTHCH:  cpu time      0.0206: real time      0.0206
       DOS:  cpu time      0.0013: real time      0.0013
    --------------------------------------------
      LOOP:  cpu time      0.7458: real time      0.7616

 eigenvalue-minimisations  :  1562
 total energy-change (2. order) :-0.8884035E-06  (-0.4195148E-07)
 number of electron     256.0000000 magnetization 
 augmentation part      -14.7249616 magnetization 

 Free energy of the ion-electron system (eV)
  ---------------------------------------------------
  alpha Z        PSCENC =       113.93677380
  Ewald energy   TEWEN  =     -7453.66004510
  -Hartree energ DENC   =      -447.12848193
  -exchange      EXHF   =         0.00000000
  -V(xc)+E(xc)   XCENC  =      -531.16335919
  PAW double counting   =     31454.19357679   -30356.11158131
  entropy T*S    EENTRO =         0.03335932
  eigenvalues    EBANDS =       288.91883404
  atomic energy  EATOM  =      6564.79586099
  Solvation  Ediel_sol  =         0.00000000
  ---------------------------------------------------
  free energy    TOTEN  =      -366.18506258 eV

  energy without entropy =     -366.21842190  energy(sigma->0) =     -366.19618235


--------------------------------------------------------------------------------------------------------




 average (electrostatic) potential at core
  the test charge radii are     0.9892
  (the norm of the test charge is              1.0000)
       1 -82.3800       2 -82.3800       3 -82.3800       4 -82.3800       5 -82.3800
       6 -82.3800       7 -82.3800       8 -82.3800       9 -82.3800      10 -82.3800
      11 -82.3800      12 -82.3800      13 -82.3800      14 -82.3800      15 -82.3800
      16 -82.3800      17 -82.3800      18 -82.3800      19 -82.3800      20 -82.3800
      21 -82.3800      22 -82.3800      23 -82.3800      24 -82.3800      25 -82.3800
      26 -82.3800      27 -82.3800      28 -82.3800      29 -82.3800      30 -82.3800
      31 -82.3800      32 -82.3800      33 -82.3800      34 -82.3800      35 -82.3800
      36 -82.3800      37 -82.3800      38 -82.3800      39 -82.3800      40 -82.3800
      41 -82.3800      42 -82.3800      43 -82.3800      44 -82.3800      45 -82.3800
      46 -82.3800      47 -82.3800      48 -82.3800      49 -82.3800      50 -82.3800
      51 -82.3800      52 -82.3800      53 -82.3800      54 -82.3800      55 -82.3800
      56 -82.3800      57 -82.3800      58 -82.3800      59 -82.3800      60 -82.3800
      61 -82.3800      62 -82.3800      63 -82.3800      64 -82.3800
 
 
 
 E-fermi :   6.6293     XC(G=0):  -9.7730     alpha+bet :-12.6841

 val. band max:        6.4009050407   @ k =   0.0000   0.0000   0.0000
 cond. band min:       6.7757873283   @ k =   0.0000   0.0000   0.5000
 fundamental gap:      0.3748822876
 Fermi energy:         6.6293264418

 k-point     1 :       0.0000    0.0000    0.0000
  band No.  band energies     occupation 
      1      -6.0087      2.00000
      2      -4.8748      2.00000
      3      -4.8748      2.00000
      4      -4.8650      2.00000
      5      -4.8650      2.00000
      6      -4.8649      2.00000
      7      -4.8649      2.00000
      8      -3.8607      2.00000
      9      -3.8607      2.00000
     10      -3.8456      2.00000
     11      -3.8456      2.00000
     12      -3.8456      2.00000
     13      -3.8456      2.00000
     14      -3.8386      2.00000
     15      -3.8386      2.00000
     16      -3.8386      2.00000
     17      -3.8386      2.00000
     18      -3.8304      2.00000
     19      -3.8304      2.00000
     20      -3.5267      2.00000
     21      -3.5267      2.00000
     22      -3.4918      2.00000
     23      -3.4918      2.00000
     24      -1.6569      2.00000
     25      -1.6569      2.00000
     26      -1.6453      2.00000
     27      -1.6247      2.00000
     28      -1.6247      2.00000
     29      -1.6043      2.00000
     30      -1.4642      2.00000
     31      -1.4642      2.00000
     32      -1.4531      2.00000
     33      -1.4531      2.00000
     34      -1.4407      2.00000
     35      -1.4407      2.00000
     36      -1.4407      2.00000
     37      -1.4407      2.00000
     38      -1.4172      2.00000
     39      -1.4172      2.00000
     40      -1.4063      2.00000
     41      -1.4063      2.00000
     42      -0.9140      2.00000
     43      -0.9140      2.00000
     44      -0.9075      2.00000
     45      -0.9075      2.00000
     46       0.7693      2.00000
     47       0.7693      2.00000
     48       0.7693      2.00000
     49       0.7693      2.00000
     50       0.7794      2.00000
     51       0.7794      2.00000
     52       0.7886      2.00000
     53       0.7886      2.00000
     54       0.7886      2.00000
     55       0.7886      2.00000
     56       0.7976      2.00000
     57       0.7976      2.00000
     58       2.2258      2.00000
     59       2.2258      2.00000
     60       2.2264      2.00000
     61       2.2264      2.00000
     62       2.2264      2.00000
     63       2.2264      2.00000
     64       2.2267      2.00000
     65       2.2267      2.00000
     66       2.2287      2.00000
     67       2.2287      2.00000
     68       2.2297      2.00000
     69       2.2297      2.00000
     70       2.3361      2.00000
     71       2.3361      2.00000
     72       2.3361      2.00000
     73       2.3361      2.00000
     74       2.3592      2.00000
     75       2.3592      2.00000
     76       2.3653      2.00000
     77       2.3653      2.00000
     78       2.3653      2.00000
     79       2.3653      2.00000
     80       2.3712      2.00000
     81       2.3712      2.00000
     82       2.8491      2.00000
     83       2.8491      2.00000
     84       2.8870      2.00000
     85       2.8870      2.00000
     86       2.8873      2.00000
     87       2.8874      2.00000
     88       3.3166      2.00000
     89       3.3452      2.00000
     90       3.3452      2.00000
     91       3.3740      2.00000
     92       3.3855      2.00000
     93       3.3855      2.00000
     94       4.3326      2.00000
     95       4.3326      2.00000
     96       4.3526      2.00000
     97       4.3526      2.00000
     98       4.3638      2.00000
     99       4.3638      2.00000
    100       4.3841      2.00000
    101       4.3841      2.00000
    102       4.3895      2.00000
    103       4.3895      2.00000
    104       4.3895      2.00000
    105       4.3895      2.00000
    106       4.9567      2.00000
    107       4.9567      2.00000
    108       4.9704      2.00000
    109       4.9704      2.00000
    110       4.9704      2.00000
    111       4.9704      2.00000
    112       4.9842      2.00000
    113       4.9842      2.00000
    114       5.0126      2.00000
    115       5.0126      2.00000
    116       5.0126      2.00000
    117       5.0126      2.00000
    118       5.0954      2.00000
    119       5.0954      2.00000
    120       5.1206      2.00000
    121       5.1206      2.00000
    122       5.1455      2.00000
    123       5.1455      2.00000
    124       5.1716      2.00000
    125       5.1716      2.00000
    126       6.3618      2.06757
    127       6.3991      2.06906
    128       6.4009      2.06857
    129       6.8126     -0.02824
    130       6.8425     -0.06138
    131       6.8425     -0.06138
    132       6.8727     -0.07090
    133       6.8836     -0.07028
    134       6.8836     -0.07028
    135       7.3492     -0.00000
    136       7.3492     -0.00000
    137       7.3492     -0.00000
    138       7.3492     -0.00000
    139       7.3897     -0.00000
    140       7.3897     -0.00000
    141       8.0284     -0.00000
    142       8.0284     -0.00000
    143       8.0784     -0.00000
    144       8.0784     -0.00000
    145       8.7412     -0.00000
    146       8.7419     -0.00000
[...]
 -0.000  -0.000   4.170   0.000   0.000   7.768   0.000   0.000
  0.000   0.000   0.000   4.170   0.000   0.000   7.768   0.000
 -0.000  -0.000   0.000   0.000   4.170   0.000   0.000   7.768
 -0.000  -0.000   7.768   0.000   0.000  14.481   0.000   0.000
  0.001   0.001   0.000   7.768   0.000   0.000  14.481   0.000
 -0.000  -0.000   0.000   0.000   7.768   0.000   0.000  14.481
 total augmentation occupancy for first ion, spin component:           1
  6.424  -2.555   0.000  -0.014   0.000   0.000   0.005   0.000
 -2.555   1.124   0.000   0.007   0.000   0.000  -0.002   0.000
  0.000   0.000   3.150  -0.000  -0.002  -0.720  -0.000  -0.000
 -0.014   0.007   0.000   3.150   0.000   0.000  -0.720   0.000
  0.000   0.000  -0.002   0.000   3.160  -0.000   0.000  -0.724
  0.000   0.000  -0.720  -0.000  -0.000   0.174   0.000   0.000
  0.005  -0.002   0.000  -0.720   0.000  -0.000   0.174   0.000
  0.000   0.000  -0.000   0.000  -0.724   0.000   0.000   0.175


------------------------ aborting loop because EDIFF is reached ----------------------------------------


    CHARGE:  cpu time      0.2478: real time      0.2488
    FORLOC:  cpu time      0.0212: real time      0.0213
    FORNL :  cpu time      0.6800: real time      0.6821
    STRESS:  cpu time      2.0930: real time      2.1109
    FORCOR:  cpu time      0.0853: real time      0.0856
    FORHAR:  cpu time      0.0348: real time      0.0349
    MIXING:  cpu time      0.0259: real time      0.0259
    OFIELD:  cpu time      0.0000: real time      0.0000

  FORCE on cell =-STRESS in cart. coord.  units (eV):
  Direction    XX          YY          ZZ          XY          YZ          ZX
  --------------------------------------------------------------------------------------
  Alpha Z   113.93677   113.93677   113.93677
  Ewald   -2473.22604 -2490.27033 -2490.25831    -2.90122     0.00000    -0.00000
  Hartree   150.82114   148.13974   148.12528    -2.08978    -0.00000    -0.00000
  E(xc)    -829.17948  -829.02355  -829.02666     0.01985    -0.00000    -0.00000
  Local    -919.10726  -898.83007  -898.86845     5.55806    -0.00000    -0.00000
  n-local  2523.39273  2520.78082  2520.83587    -0.12106     0.00000     0.00000
  augment  -369.49653  -369.51366  -369.51585     0.18252     0.00000     0.00000
  Kinetic  1849.02841  1854.21824  1854.14808    -3.45616     0.00000    -0.00000
  Fock        0.00000     0.00000     0.00000     0.00000     0.00000     0.00000
  -------------------------------------------------------------------------------------
  Total      46.16974    49.43795    49.37673    -2.80779     0.00000     0.00000
  in kB      61.12480    65.45163    65.37058    -3.71727     0.00000     0.00000
  external pressure =       63.98 kB  Pullay stress =        0.00 kB


 VOLUME and BASIS-vectors are now :
 -----------------------------------------------------------------------------
  energy-cutoff  :      400.00
  volume of cell :     1210.18
      direct lattice vectors                 reciprocal lattice vectors
    10.692069579  0.026597004  0.000000000     0.093527844 -0.000233818  0.000000000
     0.026597004 10.638875571  0.000000000    -0.000233818  0.093995480  0.000000000
     0.000000000  0.000000000 10.638875571     0.000000000  0.000000000  0.093994896

  length of vectors
    10.692102660 10.638908817 10.638875571     0.093528137  0.093995771  0.093994896


 FORCES acting on ions
    electron-ion (+dipol)            ewald-force                    non-local-force                 convergence-correction
 -----------------------------------------------------------------------------------------------
   0.513E-09 0.867E-09 -.424E+00   -.400E-14 0.333E-14 0.300E+00   -.292E-21 0.278E-21 0.124E+00   -.391E-13 0.370E-13 0.761E-05
   0.513E-09 0.867E-09 -.424E+00   -.133E-13 -.755E-14 0.300E+00   -.152E-20 0.911E-22 0.124E+00   0.168E-13 0.680E-14 0.761E-05
   0.513E-09 0.866E-09 -.424E+00   -.102E-13 -.644E-14 0.300E+00   -.240E-20 -.357E-21 0.124E+00   -.435E-13 -.365E-13 0.761E-05
   0.513E-09 0.866E-09 -.424E+00   -.213E-13 0.666E-14 0.300E+00   0.413E-20 -.541E-21 0.124E+00   0.289E-13 -.152E-13 0.761E-05
   0.513E-09 0.867E-09 -.424E+00   -.888E-14 0.000E+00 0.300E+00   -.187E-20 -.803E-21 0.124E+00   0.409E-13 -.323E-13 0.761E-05
   0.513E-09 0.867E-09 -.424E+00   -.355E-14 0.000E+00 0.300E+00   0.160E-20 0.997E-21 0.124E+00   -.255E-13 0.403E-13 0.761E-05
   0.513E-09 0.866E-09 -.424E+00   -.178E-14 -.311E-14 0.300E+00   -.268E-20 0.670E-22 0.124E+00   0.480E-13 0.318E-13 0.761E-05
   0.513E-09 0.866E-09 -.424E+00   0.000E+00 -.355E-14 0.300E+00   -.242E-20 -.466E-21 0.124E+00   -.374E-13 -.458E-13 0.761E-05
   0.104E-08 0.603E-09 0.424E+00   0.000E+00 0.133E-14 -.300E+00   0.188E-21 0.225E-20 -.124E+00   0.839E-13 0.645E-13 -.761E-05
   0.104E-08 0.603E-09 0.424E+00   -.888E-14 -.178E-14 -.300E+00   -.107E-20 0.513E-21 -.124E+00   -.870E-13 -.862E-13 -.761E-05
   0.104E-08 0.603E-09 0.424E+00   -.444E-15 0.000E+00 -.300E+00   0.328E-20 -.676E-21 -.124E+00   0.638E-13 -.630E-13 -.761E-05
   0.104E-08 0.603E-09 0.424E+00   0.000E+00 -.533E-14 -.300E+00   -.828E-23 -.895E-21 -.124E+00   -.389E-13 0.836E-13 -.761E-05
   0.104E-08 0.604E-09 0.424E+00   -.266E-14 0.355E-14 -.300E+00   0.516E-21 -.166E-20 -.124E+00   -.778E-13 -.506E-13 -.761E-05
   0.104E-08 0.603E-09 0.424E+00   -.160E-13 0.355E-14 -.300E+00   0.213E-20 0.999E-23 -.124E+00   0.923E-13 0.130E-13 -.761E-05
   0.104E-08 0.602E-09 0.424E+00   -.107E-13 -.888E-15 -.300E+00   0.242E-21 0.238E-20 -.124E+00   -.598E-13 0.437E-13 -.761E-05
   0.104E-08 0.604E-09 0.424E+00   -.124E-13 -.711E-14 -.300E+00   0.926E-21 0.390E-21 -.124E+00   0.377E-13 -.572E-14 -.761E-05
   0.513E-09 0.867E-09 -.424E+00   -.644E-14 0.666E-15 0.300E+00   0.149E-20 -.513E-21 0.124E+00   -.809E-13 0.552E-13 0.761E-05
   0.513E-09 0.866E-09 -.424E+00   0.311E-14 -.444E-15 0.300E+00   -.104E-20 0.289E-21 0.124E+00   0.815E-13 -.762E-13 0.761E-05
   0.513E-09 0.867E-09 -.424E+00   -.844E-14 0.466E-14 0.300E+00   -.841E-21 -.164E-20 0.124E+00   -.648E-14 -.603E-13 0.761E-05
   0.513E-09 0.867E-09 -.424E+00   -.266E-14 0.488E-14 0.300E+00   -.312E-21 0.152E-20 0.124E+00   -.216E-13 0.797E-13 0.761E-05
   0.513E-09 0.866E-09 -.424E+00   -.777E-14 0.311E-14 0.300E+00   -.951E-23 -.858E-21 0.124E+00   0.801E-13 0.102E-12 0.761E-05
   0.513E-09 0.866E-09 -.424E+00   -.133E-13 -.444E-14 0.300E+00   -.515E-21 0.166E-20 0.124E+00   -.892E-13 -.107E-12 0.761E-05
   0.513E-09 0.866E-09 -.424E+00   -.533E-14 0.355E-14 0.300E+00   0.339E-21 -.124E-20 0.124E+00   0.107E-13 -.954E-13 0.761E-05
   0.513E-09 0.867E-09 -.424E+00   -.213E-13 0.711E-14 0.300E+00   -.236E-20 0.149E-21 0.124E+00   0.114E-13 0.101E-12 0.761E-05
   0.104E-08 0.604E-09 0.424E+00   0.444E-14 -.744E-14 -.300E+00   -.952E-21 -.200E-20 -.124E+00   -.111E-13 0.770E-13 -.761E-05
   0.104E-08 0.604E-09 0.424E+00   0.444E-14 -.148E-13 -.300E+00   0.498E-21 0.120E-20 -.124E+00   0.436E-15 -.587E-13 -.761E-05
   0.104E-08 0.603E-09 0.424E+00   0.711E-14 0.300E-14 -.300E+00   0.343E-20 0.753E-21 -.124E+00   -.310E-13 -.664E-13 -.761E-05
   0.104E-08 0.603E-09 0.424E+00   0.711E-14 0.121E-14 -.300E+00   -.458E-20 -.278E-21 -.124E+00   0.598E-13 0.620E-13 -.761E-05
   0.104E-08 0.603E-09 0.424E+00   -.355E-14 0.548E-15 -.300E+00   0.937E-22 -.384E-21 -.124E+00   0.536E-14 0.876E-13 -.761E-05
   0.104E-08 0.602E-09 0.424E+00   0.355E-14 -.300E-14 -.300E+00   -.262E-20 -.911E-21 -.124E+00   0.195E-13 -.721E-13 -.761E-05
   0.104E-08 0.603E-09 0.424E+00   0.711E-14 -.108E-13 -.300E+00   0.115E-20 -.184E-20 -.124E+00   0.342E-13 -.838E-13 -.761E-05
   0.104E-08 0.603E-09 0.424E+00   0.711E-14 -.500E-14 -.300E+00   0.251E-20 0.165E-20 -.124E+00   -.575E-13 0.863E-13 -.761E-05
   0.513E-09 0.867E-09 -.424E+00   0.266E-14 -.111E-14 0.300E+00   0.513E-20 -.254E-21 0.124E+00   -.219E-13 0.586E-13 0.761E-05
   0.513E-09 0.867E-09 -.424E+00   -.311E-14 0.129E-13 0.300E+00   0.114E-20 -.173E-20 0.124E+00   0.698E-14 -.213E-13 0.761E-05
   0.513E-09 0.867E-09 -.424E+00   0.400E-14 -.222E-14 0.300E+00   -.712E-21 0.212E-20 0.124E+00   0.208E-13 -.667E-13 0.761E-05
   0.513E-09 0.866E-09 -.424E+00   -.178E-14 -.844E-14 0.300E+00   0.300E-21 0.192E-20 0.124E+00   -.218E-13 0.196E-13 0.761E-05
   0.513E-09 0.867E-09 -.424E+00   0.400E-14 0.107E-13 0.300E+00   0.716E-21 0.189E-20 0.124E+00   0.168E-13 0.134E-12 0.761E-05
   0.513E-09 0.867E-09 -.424E+00   0.222E-14 0.711E-14 0.300E+00   0.180E-21 0.184E-20 0.124E+00   0.355E-14 -.124E-12 0.761E-05
   0.513E-09 0.866E-09 -.424E+00   -.124E-13 -.888E-15 0.300E+00   0.190E-20 0.625E-21 0.124E+00   -.222E-13 -.135E-12 0.761E-05
   0.513E-09 0.866E-09 -.424E+00   -.355E-14 -.711E-14 0.300E+00   0.166E-20 -.210E-20 0.124E+00   0.263E-13 0.122E-12 0.761E-05
   0.104E-08 0.603E-09 0.424E+00   -.316E-14 -.400E-14 -.300E+00   -.280E-21 0.260E-21 -.124E+00   -.373E-13 -.249E-13 -.761E-05
   0.104E-08 0.603E-09 0.424E+00   0.173E-14 0.311E-14 -.300E+00   0.335E-20 0.462E-21 -.124E+00   0.224E-13 -.246E-13 -.761E-05
   0.104E-08 0.603E-09 0.424E+00   0.111E-13 -.533E-14 -.300E+00   -.260E-20 0.146E-20 -.124E+00   -.205E-13 0.251E-13 -.761E-05
   0.104E-08 0.603E-09 0.424E+00   -.107E-13 -.533E-14 -.300E+00   0.299E-21 -.150E-20 -.124E+00   0.478E-14 0.255E-13 -.761E-05
   0.104E-08 0.603E-09 0.424E+00   0.148E-13 -.355E-14 -.300E+00   -.617E-21 0.218E-20 -.124E+00   0.401E-13 -.496E-13 -.761E-05
   0.104E-08 0.604E-09 0.424E+00   -.923E-15 0.355E-14 -.300E+00   0.153E-20 -.164E-20 -.124E+00   -.304E-13 0.425E-13 -.761E-05
   0.104E-08 0.604E-09 0.424E+00   0.175E-13 0.178E-14 -.300E+00   -.133E-20 0.403E-21 -.124E+00   0.292E-13 0.496E-13 -.761E-05
   0.104E-08 0.603E-09 0.424E+00   0.907E-14 0.178E-14 -.300E+00   0.246E-20 -.472E-21 -.124E+00   -.111E-13 -.443E-13 -.761E-05
   0.513E-09 0.866E-09 -.424E+00   0.644E-14 0.444E-15 0.300E+00   0.258E-20 -.131E-20 0.124E+00   0.128E-13 0.242E-13 0.761E-05
   0.513E-09 0.867E-09 -.424E+00   -.178E-14 0.799E-14 0.300E+00   0.134E-20 -.257E-21 0.124E+00   -.338E-13 -.346E-13 0.761E-05
   0.513E-09 0.867E-09 -.424E+00   0.622E-14 0.000E+00 0.300E+00   -.136E-20 -.104E-20 0.124E+00   0.817E-13 -.237E-13 0.761E-05
   0.513E-09 0.866E-09 -.424E+00   0.133E-13 0.799E-14 0.300E+00   -.163E-20 0.240E-21 0.124E+00   -.675E-13 0.380E-13 0.761E-05
   0.513E-09 0.866E-09 -.424E+00   0.444E-15 0.311E-14 0.300E+00   0.123E-20 -.902E-21 0.124E+00   -.169E-13 0.255E-13 0.761E-05
   0.513E-09 0.867E-09 -.424E+00   0.666E-14 0.355E-14 0.300E+00   -.150E-20 0.365E-21 0.124E+00   0.422E-13 -.468E-13 0.761E-05
   0.513E-09 0.867E-09 -.424E+00   0.444E-14 0.222E-14 0.300E+00   0.135E-20 -.373E-21 0.124E+00   -.846E-13 -.348E-13 0.761E-05
   0.513E-09 0.865E-09 -.424E+00   0.213E-13 0.355E-14 0.300E+00   0.270E-21 0.449E-21 0.124E+00   0.726E-13 0.495E-13 0.761E-05
   0.104E-08 0.603E-09 0.424E+00   0.803E-14 -.448E-14 -.300E+00   -.157E-20 -.107E-20 -.124E+00   -.744E-13 0.952E-13 -.761E-05
   0.104E-08 0.603E-09 0.424E+00   0.198E-13 -.492E-14 -.300E+00   -.564E-21 0.429E-21 -.124E+00   0.483E-13 -.600E-13 -.761E-05
   0.104E-08 0.603E-09 0.424E+00   0.112E-14 -.648E-14 -.300E+00   -.199E-20 0.876E-21 -.124E+00   0.368E-13 -.856E-13 -.761E-05
   0.104E-08 0.603E-09 0.424E+00   0.823E-14 -.111E-14 -.300E+00   -.501E-22 -.594E-21 -.124E+00   -.432E-13 0.637E-13 -.761E-05
   0.104E-08 0.604E-09 0.424E+00   0.135E-13 -.294E-14 -.300E+00   -.167E-20 0.404E-21 -.124E+00   0.730E-13 0.114E-12 -.761E-05
   0.104E-08 0.604E-09 0.424E+00   0.144E-13 -.337E-14 -.300E+00   -.211E-21 0.223E-21 -.124E+00   -.481E-13 -.109E-12 -.761E-05
   0.104E-08 0.604E-09 0.424E+00   0.238E-14 0.489E-14 -.300E+00   -.187E-20 -.998E-21 -.124E+00   -.360E-13 -.105E-12 -.761E-05
   0.104E-08 0.603E-09 0.424E+00   0.685E-14 0.359E-14 -.300E+00   0.560E-21 -.104E-20 -.124E+00   0.480E-13 0.117E-12 -.761E-05
 -----------------------------------------------------------------------------------------------
   0.495E-07 0.470E-07 0.226E-04   0.237E-13 -.175E-13 0.602E-13   0.509E-20 0.105E-22 -.833E-16   0.248E-13 0.296E-13 0.142E-09
 
 
 POSITION                                       TOTAL-FORCE (eV/Angst)
 -----------------------------------------------------------------------------------
      0.00000      0.00000      0.00211        -0.000000      0.000000      0.000057
      0.00000      0.00000      5.32155        -0.000000     -0.000000      0.000057
      0.01330      5.31944      0.00211         0.000000      0.000000      0.000057
      0.01330      5.31944      5.32155        -0.000000     -0.000000      0.000057
      5.34603      0.01330      0.00211         0.000000      0.000000      0.000057
      5.34603      0.01330      5.32155        -0.000000     -0.000000      0.000057
      5.35933      5.33274      0.00211         0.000000     -0.000000      0.000057
      5.35933      5.33274      5.32155         0.000000      0.000000      0.000057
      4.01950      3.99955      1.32775         0.000000     -0.000000     -0.000057
      4.01950      3.99955      6.64718         0.000000     -0.000000     -0.000057
      4.03280      9.31899      1.32775        -0.000000      0.000000     -0.000057
      4.03280      9.31899      6.64718        -0.000000      0.000000     -0.000057
      9.36553      4.01285      1.32775         0.000000      0.000000     -0.000057
      9.36553      4.01285      6.64718         0.000000     -0.000000     -0.000057
      9.37883      9.33229      1.32775         0.000000     -0.000000     -0.000057
      9.37883      9.33229      6.64718        -0.000000     -0.000000     -0.000057
      0.00665      2.65972      2.66183        -0.000000     -0.000000      0.000057
      0.00665      2.65972      7.98127        -0.000000      0.000000      0.000057
      0.01995      7.97916      2.66183        -0.000000      0.000000      0.000057
      0.01995      7.97916      7.98127        -0.000000      0.000000      0.000057
      5.35268      2.67302      2.66183        -0.000000     -0.000000      0.000057
      5.35268      2.67302      7.98127        -0.000000     -0.000000      0.000057
      5.36598      7.99246      2.66183        -0.000000      0.000000      0.000057
      5.36598      7.99246      7.98127        -0.000000     -0.000000      0.000057
      4.01285      1.33983      3.98747         0.000000      0.000000     -0.000057
      4.01285      1.33983      9.30690         0.000000      0.000000     -0.000057
      4.02615      6.65927      3.98747        -0.000000      0.000000     -0.000057
      4.02615      6.65927      9.30690         0.000000     -0.000000     -0.000057
      9.35889      1.35313      3.98747         0.000000     -0.000000     -0.000057
      9.35889      1.35313      9.30690         0.000000      0.000000     -0.000057
      9.37218      6.67257      3.98747         0.000000      0.000000     -0.000057
      9.37218      6.67257      9.30690        -0.000000     -0.000000     -0.000057
      2.67302      0.00665      2.66183         0.000000      0.000000      0.000057
      2.67302      0.00665      7.98127         0.000000      0.000000      0.000057
      2.68632      5.32609      2.66183        -0.000000     -0.000000      0.000057
      2.68632      5.32609      7.98127        -0.000000      0.000000      0.000057
      8.01905      0.01995      2.66183        -0.000000     -0.000000      0.000057
      8.01905      0.01995      7.98127         0.000000     -0.000000      0.000057
      8.03235      5.33939      2.66183         0.000000     -0.000000      0.000057
      8.03235      5.33939      7.98127         0.000000     -0.000000      0.000057
      1.34648      3.99290      3.98747        -0.000000     -0.000000     -0.000057
      1.34648      3.99290      9.30690         0.000000     -0.000000     -0.000057
      1.35978      9.31234      3.98747        -0.000000     -0.000000     -0.000057
      1.35978      9.31234      9.30690         0.000000     -0.000000     -0.000057
      6.69252      4.00620      3.98747        -0.000000      0.000000     -0.000057
      6.69252      4.00620      9.30690        -0.000000      0.000000     -0.000057
      6.70582      9.32564      3.98747         0.000000      0.000000     -0.000057
      6.70582      9.32564      9.30690         0.000000      0.000000     -0.000057
      2.67967      2.66637      0.00211        -0.000000      0.000000      0.000057
      2.67967      2.66637      5.32155         0.000000      0.000000      0.000057
      2.69297      7.98581      0.00211        -0.000000      0.000000      0.000057
      2.69297      7.98581      5.32155         0.000000      0.000000      0.000057
      8.02570      2.67967      0.00211         0.000000      0.000000      0.000057
      8.02570      2.67967      5.32155         0.000000     -0.000000      0.000057
      8.03900      7.99910      0.00211         0.000000     -0.000000      0.000057
      8.03900      7.99910      5.32155        -0.000000     -0.000000      0.000057
      1.33983      1.33318      1.32775        -0.000000     -0.000000     -0.000057
      1.33983      1.33318      6.64718        -0.000000     -0.000000     -0.000057
      1.35313      6.65262      1.32775         0.000000     -0.000000     -0.000057
      1.35313      6.65262      6.64718         0.000000     -0.000000     -0.000057
      6.68587      1.34648      1.32775         0.000000      0.000000     -0.000057
      6.68587      1.34648      6.64718         0.000000      0.000000     -0.000057
      6.69917      6.66592      1.32775        -0.000000      0.000000     -0.000057
      6.69917      6.66592      6.64718        -0.000000      0.000000     -0.000057
 -----------------------------------------------------------------------------------
    total drift:                                0.000000      0.000000      0.000023


--------------------------------------------------------------------------------------------------------



  FREE ENERGIE OF THE ION-ELECTRON SYSTEM (eV)
  ---------------------------------------------------
  free  energy   TOTEN  =      -366.18936107 eV

  energy  without entropy=     -366.22217433  energy(sigma->0) =     -366.20029882
 
 d Force = 0.8685442E-03[-0.348E-05, 0.174E-02]  d Energy = 0.8675993E-03 0.945E-06
 d Force =-0.1679458E-01[-0.183E-01,-0.153E-01]  d Ewald  =-0.1679457E-01-0.533E-08


--------------------------------------------------------------------------------------------------------


    POTLOK:  cpu time      0.1279: real time      0.1488


--------------------------------------------------------------------------------------------------------




--------------------------------------------------------------------------------------------------------


  
 reached required accuracy - stopping structural energy minimisation
     LOOP+:  cpu time     12.4342: real time     12.6576
    4ORBIT:  cpu time      0.0000: real time      0.0000

 total amount of memory used by VASP MPI-rank0    79141. kBytes
=======================================================================

   base      :      30000. kBytes
   nonlr-proj:       4677. kBytes
   fftplans  :      17991. kBytes
   grid      :       6881. kBytes
   one-center:         18. kBytes
   wavefun   :      19574. kBytes
 
  
  
 General timing and accounting informations for this job:
 ========================================================
  
                  Total CPU time used (sec):       61.222
                            User time (sec):       57.826
                          System time (sec):        3.396
                         Elapsed time (sec):       64.910
  
                   Maximum memory used (kb):      409584.
                   Average memory used (kb):          N/A
  
                          Minor page faults:        90459
                          Major page faults:            0
                 Voluntary context switches:         9849
