<?xml version="1.0" encoding="ISO-8859-1"?>
<modeling>
 <generator>
  <i name="program" type="string">vasp </i>
  <i name="version" type="string">6.4.3  </i>
  <i name="subversion" type="string">19Mar24 (build Oct 21 2024 22:36:34) complex                          parallel </i>
  <i name="platform" type="string">LinuxIFC </i>
  <i name="date" type="string">2024 11 01 </i>
  <i name="time" type="string">22:55:33 </i>
 </generator>
 <incar>
  <i type="string" name="SYSTEM">Si64</i>
  <i type="int" name="ISTART">     0</i>
  <i type="string" name="PREC">Accurate</i>
  <i type="string" name="ALGO">Fast</i>
  <i type="logical" name="ADDGRID"> T  </i>
  <i type="int" name="ICHARG">     2</i>
  <i type="int" name="NELM">    60</i>
  <i type="int" name="NELMIN">     8</i>
  <i type="int" name="IBRION">     2</i>
  <i name="EDIFF">      0.00000100</i>
  <i name="EDIFFG">     -0.01000000</i>
  <i type="int" name="NSW">    60</i>
  <i type="int" name="ISIF">     2</i>
  <i name="ENCUT">    400.00000000</i>
  <i type="string" name="LREAL">Auto</i>
  <i type="int" name="ISMEAR">     1</i>
  <i name="SIGMA">      0.20000000</i>
  <i type="logical" name="LWAVE"> F  </i>
  <i type="logical" name="LCHARG"> F  </i>
  <i type="logical" name="GGA_COMPAT"> F  </i>
  <i type="string" name="GGA">PS</i>
 </incar>
 <primitive_cell>
  <structure name="primitive_cell" >
   <crystal>
    <varray name="basis" >
     <v>       0.00664925       2.65971889      -2.65971889 </v>
     <v>       0.00664925       2.65971889       2.65971889 </v>
     <v>       2.66636814      -2.65306964       0.00000000 </v>
    </varray>
    <i name="volume">     37.81817405 </i>
    <varray name="rec_basis" >
     <v>       0.18658805       0.18752332      -0.18798979 </v>
     <v>       0.18658805       0.18752332       0.18798979 </v>
     <v>       0.37411138      -0.00093527      -0.00000000 </v>
    </varray>
   </crystal>
   <varray name="positions" >
    <v>       0.00000000       0.00000000       0.00000000 </v>
    <v>       0.25000000       0.75000000       0.50000000 </v>
   </varray>
  </structure>
  <varray name="primitive_index" >
   <v type="int" >        1 </v>
   <v type="int" >       15 </v>
  </varray>
 </primitive_cell>
 <kpoints>
  <generation param="Gamma">
   <v type="int" name="divisions">       2        2        2 </v>
   <v name="usershift">      0.00000000       0.00000000       0.00000000 </v>
   <v name="genvec1">      0.50000000      -0.00000000       0.00000000 </v>
   <v name="genvec2">     -0.00000000       0.50000000       0.00000000 </v>
   <v name="genvec3">      0.00000000       0.00000000       0.50000000 </v>
   <v name="shift">      0.00000000       0.00000000       0.00000000 </v>
  </generation>
  <varray name="kpointlist" >
   <v>       0.00000000       0.00000000       0.00000000 </v>
   <v>       0.50000000       0.00000000       0.00000000 </v>
   <v>       0.00000000       0.50000000       0.00000000 </v>
   <v>       0.50000000       0.50000000       0.00000000 </v>
   <v>       0.00000000       0.00000000       0.50000000 </v>
   <v>       0.50000000       0.00000000       0.50000000 </v>
   <v>       0.00000000       0.50000000       0.50000000 </v>
   <v>       0.50000000       0.50000000       0.50000000 </v>
  </varray>
  <varray name="weights" >
   <v>       0.12500000 </v>
   <v>       0.12500000 </v>
   <v>       0.12500000 </v>
   <v>       0.12500000 </v>
   <v>       0.12500000 </v>
   <v>       0.12500000 </v>
   <v>       0.12500000 </v>
   <v>       0.12500000 </v>
  </varray>
 </kpoints>
 <parameters>
  <separator name="general" >
   <i type="string" name="SYSTEM">Si64</i>
   <i type="logical" name="LCOMPAT"> F  </i>
  </separator>
  <separator name="electronic" >
   <i type="string" name="PREC">accura</i>
   <i name="ENMAX">    400.00000000</i>
   <i name="ENAUG">    322.06900000</i>
   <i name="EDIFF">      0.00000100</i>
   <i type="int" name="IALGO">    68</i>
   <i type="int" name="IWAVPR">    11</i>
   <i type="int" name="NBANDS">   162</i>
   <i type="int" name="NBANDSLOW">    -1</i>
   <i type="int" name="NBANDSHIGH">    -1</i>
   <i name="NELECT">    256.00000000</i>
   <i type="int" name="TURBO">     0</i>
   <i type="int" name="IRESTART">     0</i>
   <i type="int" name="NREBOOT">     0</i>
   <i type="int" name="NMIN">     0</i>
   <i name="EREF">      0.00000000</i>
   <separator name="electronic smearing" >
    <i type="int" name="ISMEAR">     1</i>
    <i name="SIGMA">      0.20000000</i>
    <i name="KSPACING">      0.50000000</i>
    <i type="logical" name="KGAMMA"> T  </i>
    <i type="logical" name="KBLOWUP"> T  </i>
   </separator>
   <separator name="electronic projectors" >
    <i type="logical" name="LREAL"> T  </i>
    <v name="ROPT">     -0.00025000</v>
    <i type="int" name="LMAXPAW">  -100</i>
    <i type="int" name="LMAXMIX">     2</i>
    <i type="logical" name="NLSPLINE"> F  </i>
   </separator>
   <separator name="electronic startup" >
    <i type="int" name="ISTART">     0</i>
    <i type="int" name="ICHARG">     2</i>
    <i type="int" name="INIWAV">     1</i>
   </separator>
   <separator name="electronic spin" >
    <i type="int" name="ISPIN">     1</i>
    <i type="logical" name="LNONCOLLINEAR"> F  </i>
    <v name="MAGMOM">      1.00000000      1.00000000      1.00000000      1.00000000      1.00000000      1.00000000      1.00000000      1.00000000      1.00000000      1.00000000      1.00000000      1.00000000      1.00000000      1.00000000      1.00000000      1.00000000      1.00000000      1.00000000      1.00000000      1.00000000
      1.00000000      1.00000000      1.00000000      1.00000000      1.00000000      1.00000000      1.00000000      1.00000000      1.00000000      1.00000000      1.00000000      1.00000000      1.00000000      1.00000000      1.00000000      1.00000000      1.00000000      1.00000000      1.00000000      1.00000000
      1.00000000      1.00000000      1.00000000      1.00000000      1.00000000      1.00000000      1.00000000      1.00000000      1.00000000      1.00000000      1.00000000      1.00000000      1.00000000      1.00000000      1.00000000      1.00000000      1.00000000      1.00000000      1.00000000      1.00000000
      1.00000000      1.00000000      1.00000000      1.00000000</v>
    <i name="NUPDOWN">     -1.00000000</i>
    <i type="logical" name="LSORBIT"> F  </i>
    <v name="SAXIS">      0.00000000      0.00000000      1.00000000</v>
    <i type="logical" name="LSPIRAL"> F  </i>
    <v name="QSPIRAL">      0.00000000      0.00000000      0.00000000</v>
    <i type="logical" name="LZEROZ"> F  </i>
   </separator>
   <separator name="electronic exchange-correlation" >
    <i type="logical" name="LASPH"> F  </i>
   </separator>
   <separator name="electronic convergence" >
    <i type="int" name="NELM">    60</i>
    <i type="int" name="NELMDL">    -5</i>
    <i type="int" name="NELMIN">     8</i>
    <i name="ENINI">    400.00000000</i>
    <separator name="electronic convergence detail" >
     <i type="logical" name="LDIAG"> T  </i>
     <i type="logical" name="LSUBROT"> F  </i>
     <i name="WEIMIN">      0.00100000</i>
     <i name="EBREAK">      0.00000000</i>
     <i name="DEPER">      0.30000000</i>
     <i type="int" name="NRMM">     4</i>
     <i name="TIME">      0.40000000</i>
    </separator>
   </separator>
   <separator name="electronic mixer" >
    <i name="AMIX">      0.40000000</i>
    <i name="BMIX">      1.00000000</i>
    <i name="AMIN">      0.10000000</i>
    <i name="AMIX_MAG">      1.60000000</i>
    <i name="BMIX_MAG">      1.00000000</i>
    <separator name="electronic mixer details" >
     <i type="int" name="IMIX">     4</i>
     <i type="logical" name="MIXFIRST"> F  </i>
     <i type="int" name="MAXMIX">   -45</i>
     <i name="WC">    100.00000000</i>
     <i type="int" name="INIMIX">     1</i>
     <i type="int" name="MIXPRE">     1</i>
     <i type="int" name="MREMOVE">     5</i>
    </separator>
   </separator>
   <separator name="electronic dipolcorrection" >
    <i type="logical" name="LDIPOL"> F  </i>
    <i type="logical" name="LMONO"> F  </i>
    <i type="int" name="IDIPOL">     0</i>
    <i name="EPSILON">      1.00000000</i>
    <v name="DIPOL">   -100.00000000   -100.00000000   -100.00000000</v>
    <i name="EFIELD">      0.00000000</i>
    <i type="logical" name="LVACPOTAV"> F  </i>
   </separator>
  </separator>
  <separator name="grids" >
   <i type="int" name="NGX">    70</i>
   <i type="int" name="NGY">    70</i>
   <i type="int" name="NGZ">    70</i>
   <i type="int" name="NGXF">   140</i>
   <i type="int" name="NGYF">   140</i>
   <i type="int" name="NGZF">   140</i>
   <i type="logical" name="ADDGRID"> T  </i>
  </separator>
  <separator name="ionic" >
   <i type="int" name="NSW">    60</i>
   <i type="int" name="IBRION">     2</i>
   <i type="int" name="MDALGO">     0</i>
   <i type="int" name="ISIF">     2</i>
   <i name="PSTRESS">      0.00000000</i>
   <i name="EDIFFG">     -0.01000000</i>
   <i type="int" name="NFREE">     1</i>
   <i name="POTIM">      0.50000000</i>
   <i name="SMASS">     -3.00000000</i>
   <i name="SCALEE">      1.00000000</i>
  </separator>
  <separator name="ionic md" >
   <i name="TEBEG">      0.00010000</i>
   <i name="TEEND">      0.00010000</i>
   <i type="int" name="NBLOCK">     1</i>
   <i type="int" name="KBLOCK">    60</i>
   <i type="int" name="NPACO">   256</i>
   <i name="APACO">     10.00000000</i>
  </separator>
  <separator name="symmetry" >
   <i type="int" name="ISYM">     2</i>
   <i name="SYMPREC">      0.00001000</i>
  </separator>
  <separator name="dos" >
   <i type="int" name="LORBIT">     0</i>
   <v name="RWIGS">     -1.00000000</v>
   <i type="int" name="NEDOS">   301</i>
   <i name="EMIN">     10.00000000</i>
   <i name="EMAX">    -10.00000000</i>
   <i name="EFERMI">      0.00000000</i>
  </separator>
  <separator name="writing" >
   <i type="int" name="NWRITE">     2</i>
   <i type="logical" name="LWAVE"> F  </i>
   <i type="logical" name="LDOWNSAMPLE"> F  </i>
   <i type="logical" name="LCHARG"> F  </i>
   <i type="logical" name="LPARD"> F  </i>
   <i type="logical" name="LVTOT"> F  </i>
   <i type="logical" name="LVHAR"> F  </i>
   <i type="logical" name="LELF"> F  </i>
   <i type="logical" name="LOPTICS"> F  </i>
   <v name="STM">      0.00000000      0.00000000      0.00000000      0.00000000      0.00000000      0.00000000      0.00000000</v>
  </separator>
  <separator name="performance" >
   <i type="int" name="NPAR">     2</i>
   <i type="int" name="NSIM">     4</i>
   <i type="int" name="NBLK">    -1</i>
   <i type="logical" name="LPLANE"> T  </i>
   <i type="logical" name="LSCALAPACK"> T  </i>
   <i type="logical" name="LSCAAWARE"> F  </i>
   <i type="logical" name="LSCALU"> F  </i>
   <i type="logical" name="LASYNC"> F  </i>
   <i type="logical" name="LORBITALREAL"> F  </i>
  </separator>
  <separator name="miscellaneous" >
   <i type="int" name="IDIOT">     3</i>
   <i type="int" name="PHON_NSTRUCT">    -1</i>
   <i type="logical" name="LMUSIC"> F  </i>
   <v name="POMASS">     28.08500000</v>
   <v name="DARWINR">      0.00000000</v>
   <v name="DARWINV">      1.00000000</v>
   <i type="logical" name="LCORR"> T  </i>
  </separator>
  <i type="logical" name="GGA_COMPAT"> F  </i>
  <i type="logical" name="LBERRY"> F  </i>
  <i type="int" name="ICORELEVEL">     0</i>
  <i type="logical" name="LDAU"> F  </i>
  <i type="int" name="I_CONSTRAINED_M">     0</i>
  <separator name="electronic exchange-correlation" >
   <i type="string" name="GGA    ">PS</i>
   <i type="string" name="XC_C">1</i>
   <i type="int" name="VOSKOWN">     0</i>
   <i type="logical" name="LHFCALC"> F  </i>
   <i type="string" name="PRECFOCK"></i>
   <i type="logical" name="LSYMGRAD"> F  </i>
   <i type="logical" name="LHFONE"> F  </i>
   <i type="logical" name="LRHFCALC"> F  </i>
   <i type="logical" name="LTHOMAS"> F  </i>
   <i type="logical" name="LMODELHF"> F  </i>
   <i type="logical" name="LFOCKACE"> F  </i>
   <i name="ENCUT4O">     -1.00000000</i>
   <i type="int" name="EXXOEP">     0</i>
   <i type="int" name="FOURORBIT">     0</i>
   <i name="AEXX">      0.00000000</i>
   <i name="HFALPHA">      0.00000000</i>
   <i name="MCALPHA">      0.00000000</i>
   <i name="ALDAX">      1.00000000</i>
   <i name="AGGAX">      1.00000000</i>
   <i name="AMGGAX">      1.00000000</i>
   <i name="ALDAC">      1.00000000</i>
   <i name="AGGAC">      1.00000000</i>
   <i name="AMGGAC">      1.00000000</i>
   <i type="int" name="NKREDX">     1</i>
   <i type="int" name="NKREDY">     1</i>
   <i type="int" name="NKREDZ">     1</i>
   <i type="logical" name="SHIFTRED"> F  </i>
   <i type="logical" name="ODDONLY"> F  </i>
   <i type="logical" name="EVENONLY"> F  </i>
   <i type="int" name="LMAXFOCK">     0</i>
   <i type="int" name="NMAXFOCKAE">     0</i>
   <i type="logical" name="LFOCKAEDFT"> F  </i>
   <i name="HFSCREEN">      0.00000000</i>
   <i name="HFSCREENC">      0.00000000</i>
   <i type="int" name="NBANDSGWLOW">     0</i>
  </separator>
  <separator name="vdW DFT" >
   <i type="logical" name="LUSE_VDW"> F  </i>
   <i type="int" name="IVDW_NL">    -1</i>
   <i type="logical" name="LSPIN_VDW"> F  </i>
   <i name="ZAB_VDW">     -0.84910000</i>
   <i name="GAMMA_VDW">      1.39626340</i>
   <i name="ALPHA_VDW">      0.00000000</i>
   <i name="PARAM1">      0.12340000</i>
   <i name="PARAM2">      1.00000000</i>
   <i name="BPARAM">      6.30000000</i>
   <i name="CPARAM">      0.00930000</i>
  </separator>
  <separator name="model GW" >
   <i type="int" name="MODEL_GW">     0</i>
   <i name="MODEL_EPS0">     11.34545221</i>
   <i name="MODEL_ALPHA">      1.00000000</i>
  </separator>
  <separator name="linear response parameters" >
   <i type="logical" name="LEPSILON"> F  </i>
   <i type="logical" name="LRPA"> F  </i>
   <i type="logical" name="LNABLA"> F  </i>
   <i type="logical" name="LVEL"> F  </i>
   <i name="CSHIFT">      0.10000000</i>
   <i name="OMEGAMAX">     -1.00000000</i>
   <i name="DEG_THRESHOLD">      0.00200000</i>
   <i name="RTIME">     -0.10000000</i>
   <i name="WPLASMAI">      0.00000000</i>
   <v name="DFIELD">      0.00000000      0.00000000      0.00000000</v>
   <v name="WPLASMA">      0.00000000      0.00000000      0.00000000      0.00000000      0.00000000      0.00000000      0.00000000      0.00000000      0.00000000</v>
  </separator>
  <separator name="orbital magnetization" >
   <i type="logical" name="NUCIND"> F  </i>
   <v name="MAGPOS">      0.00000000      0.00000000      0.00000000</v>
   <i type="logical" name="LNICSALL"> T  </i>
   <i type="logical" name="ORBITALMAG"> F  </i>
   <i type="logical" name="LMAGBLOCH"> F  </i>
   <i type="logical" name="LCHIMAG"> F  </i>
   <i type="logical" name="LGAUGE"> T  </i>
   <i type="int" name="MAGATOM">     0</i>
   <v name="MAGDIPOL">      0.00000000      0.00000000      0.00000000</v>
   <v name="AVECCONST">      0.00000000      0.00000000      0.00000000</v>
  </separator>
  <separator name="response functions" >
   <i type="logical" name="LALL_IN_ONE"> F  </i>
   <i type="int" name="IALL_IN_ONE">    -1</i>
   <i type="int" name="NBANDS_WAVE">    -1</i>
   <i type="logical" name="LFINITE_TEMPERATURE"> F  </i>
   <i type="logical" name="LADDER"> F  </i>
   <i type="logical" name="LRPAFORCE"> F  </i>
   <i type="logical" name="LFXC"> F  </i>
   <i type="logical" name="LHARTREE"> T  </i>
   <i type="int" name="IBSE">     0</i>
   <v type="int" name="KPOINT">    -1     0     0     0</v>
   <i type="logical" name="LTCTC"> F  </i>
   <i type="logical" name="LTCTE"> F  </i>
   <i type="logical" name="LTETE"> F  </i>
   <i type="logical" name="LTRIPLET"> F  </i>
   <i type="logical" name="LFXCEPS"> F  </i>
   <i type="logical" name="LFXHEG"> F  </i>
   <i type="int" name="NATURALO">     2</i>
   <i type="logical" name="LHOLEGF"> F  </i>
   <i type="logical" name="L2ORDER"> F  </i>
   <i type="logical" name="LDMP1"> F  </i>
   <i type="logical" name="LMP2LT"> F  </i>
   <i type="logical" name="LSMP2LT"> F  </i>
   <i type="logical" name="LGWLF"> F  </i>
   <i name="ENCUTGW">     -1.60000002</i>
   <i name="ENCUTGWSOFT">     -1.60000002</i>
   <i name="ENCUTLF">     -1.00000000</i>
   <i type="logical" name="ESF_SPLINES"> F  </i>
   <i name="ESF_CONV">      0.01000000</i>
   <i type="int" name="ESF_NINTER">    15</i>
   <i type="int" name="LMAXMP2">    -1</i>
   <i name="SCISSOR">      0.00000000</i>
   <i type="int" name="NOMEGA">     0</i>
   <i type="int" name="NOMEGAR">     0</i>
   <i type="int" name="NBANDSGW">    -1</i>
   <i type="int" name="NBANDSO">    -1</i>
   <i type="int" name="NBANDSV">    -1</i>
   <i type="int" name="NELMGW">     1</i>
   <i type="int" name="NELMHF">     1</i>
   <i type="int" name="DIM">     3</i>
   <i type="int" name="IESPILON">     4</i>
   <i type="int" name="ANTIRES">     0</i>
   <i name="OMEGAMAX">    -30.00000000</i>
   <i name="OMEGAMIN">    -30.00000000</i>
   <i name="OMEGATL">   -200.00000000</i>
   <i type="int" name="OMEGAGRID">     0</i>
   <i name="CSHIFT">     -0.10000000</i>
   <i type="logical" name="LSELFENERGY"> F  </i>
   <i type="logical" name="LSPECTRAL"> F  </i>
   <i type="logical" name="LSPECTRALGW"> F  </i>
   <i type="logical" name="LSINGLES"> F  </i>
   <i type="logical" name="LFERMIGW"> F  </i>
   <i type="logical" name="ODDONLYGW"> F  </i>
   <i type="logical" name="EVENONLYGW"> F  </i>
   <i type="int" name="NKREDLFX">     1</i>
   <i type="int" name="NKREDLFY">     1</i>
   <i type="int" name="NKREDLFZ">     1</i>
   <i type="int" name="MAXMEM">  2800</i>
   <i type="int" name="TELESCOPE">     0</i>
   <i type="int" name="NTAUPAR">    -1</i>
   <i type="int" name="NOMEGAPAR">    -1</i>
   <i name="DAMP_NEWTON">      0.80000001</i>
   <i name="LAMBDA">      1.00000000</i>
  </separator>
  <separator name="External order field" >
   <i name="OFIELD_KAPPA">      0.00000000</i>
   <v name="OFIELD_K">      0.00000000      0.00000000      0.00000000</v>
   <i name="OFIELD_Q6_NEAR">      0.00000000</i>
   <i name="OFIELD_Q6_FAR">      0.00000000</i>
   <i name="OFIELD_A">      0.00000000</i>
  </separator>
  <separator name="optional k-points parameters" >
   <i type="int" name="KPOINTS_OPT_MODE">     1</i>
   <i type="logical" name="LKPOINTS_OPT"> F  </i>
  </separator>
 </parameters>
 <atominfo>
  <atoms>      64 </atoms>
  <types>       1 </types>
  <array name="atoms" >
   <dimension dim="1">ion</dimension>
   <field type="string">element</field>
   <field type="int">atomtype</field>
   <set>
    <rc><c>Si</c><c>   1</c></rc>
    <rc><c>Si</c><c>   1</c></rc>
    <rc><c>Si</c><c>   1</c></rc>
    <rc><c>Si</c><c>   1</c></rc>
    <rc><c>Si</c><c>   1</c></rc>
    <rc><c>Si</c><c>   1</c></rc>
    <rc><c>Si</c><c>   1</c></rc>
    <rc><c>Si</c><c>   1</c></rc>
    <rc><c>Si</c><c>   1</c></rc>
    <rc><c>Si</c><c>   1</c></rc>
    <rc><c>Si</c><c>   1</c></rc>
    <rc><c>Si</c><c>   1</c></rc>
    <rc><c>Si</c><c>   1</c></rc>
    <rc><c>Si</c><c>   1</c></rc>
    <rc><c>Si</c><c>   1</c></rc>
    <rc><c>Si</c><c>   1</c></rc>
    <rc><c>Si</c><c>   1</c></rc>
    <rc><c>Si</c><c>   1</c></rc>
    <rc><c>Si</c><c>   1</c></rc>
    <rc><c>Si</c><c>   1</c></rc>
    <rc><c>Si</c><c>   1</c></rc>
    <rc><c>Si</c><c>   1</c></rc>
    <rc><c>Si</c><c>   1</c></rc>
    <rc><c>Si</c><c>   1</c></rc>
    <rc><c>Si</c><c>   1</c></rc>
    <rc><c>Si</c><c>   1</c></rc>
    <rc><c>Si</c><c>   1</c></rc>
    <rc><c>Si</c><c>   1</c></rc>
    <rc><c>Si</c><c>   1</c></rc>
    <rc><c>Si</c><c>   1</c></rc>
    <rc><c>Si</c><c>   1</c></rc>
    <rc><c>Si</c><c>   1</c></rc>
    <rc><c>Si</c><c>   1</c></rc>
    <rc><c>Si</c><c>   1</c></rc>
    <rc><c>Si</c><c>   1</c></rc>
    <rc><c>Si</c><c>   1</c></rc>
    <rc><c>Si</c><c>   1</c></rc>
    <rc><c>Si</c><c>   1</c></rc>
    <rc><c>Si</c><c>   1</c></rc>
    <rc><c>Si</c><c>   1</c></rc>
    <rc><c>Si</c><c>   1</c></rc>
    <rc><c>Si</c><c>   1</c></rc>
    <rc><c>Si</c><c>   1</c></rc>
    <rc><c>Si</c><c>   1</c></rc>
    <rc><c>Si</c><c>   1</c></rc>
    <rc><c>Si</c><c>   1</c></rc>
    <rc><c>Si</c><c>   1</c></rc>
    <rc><c>Si</c><c>   1</c></rc>
    <rc><c>Si</c><c>   1</c></rc>
    <rc><c>Si</c><c>   1</c></rc>
    <rc><c>Si</c><c>   1</c></rc>
    <rc><c>Si</c><c>   1</c></rc>
    <rc><c>Si</c><c>   1</c></rc>
    <rc><c>Si</c><c>   1</c></rc>
    <rc><c>Si</c><c>   1</c></rc>
    <rc><c>Si</c><c>   1</c></rc>
    <rc><c>Si</c><c>   1</c></rc>
    <rc><c>Si</c><c>   1</c></rc>
    <rc><c>Si</c><c>   1</c></rc>
    <rc><c>Si</c><c>   1</c></rc>
    <rc><c>Si</c><c>   1</c></rc>
    <rc><c>Si</c><c>   1</c></rc>
    <rc><c>Si</c><c>   1</c></rc>
    <rc><c>Si</c><c>   1</c></rc>
   </set>
  </array>
  <array name="atomtypes" >
   <dimension dim="1">type</dimension>
   <field type="int">atomspertype</field>
   <field type="string">element</field>
   <field>mass</field>
   <field>valence</field>
   <field type="string">pseudopotential</field>
   <set>
    <rc><c>  64</c><c>Si</c><c>     28.08500000</c><c>      4.00000000</c><c>  PAW_PBE Si 05Jan2001                  </c></rc>
   </set>
  </array>
 </atominfo>
 <structure name="initialpos" >
  <crystal>
   <varray name="basis" >
    <v>      10.69206958       0.02659700       0.00000000 </v>
    <v>       0.02659700      10.63887557       0.00000000 </v>
    <v>       0.00000000       0.00000000      10.63887557 </v>
   </varray>
   <i name="volume">   1210.18156959 </i>
   <varray name="rec_basis" >
    <v>       0.09352784      -0.00023382       0.00000000 </v>
    <v>      -0.00023382       0.09399548       0.00000000 </v>
    <v>       0.00000000       0.00000000       0.09399490 </v>
   </varray>
  </crystal>
  <varray name="positions" >
   <v>       0.00000000       0.00000000       0.00000000 </v>
   <v>       0.00000000       0.00000000       0.50000000 </v>
   <v>       0.00000000       0.50000000       0.00000000 </v>
   <v>       0.00000000       0.50000000       0.50000000 </v>
   <v>       0.50000000       0.00000000       0.00000000 </v>
   <v>       0.50000000       0.00000000       0.50000000 </v>
   <v>       0.50000000       0.50000000       0.00000000 </v>
   <v>       0.50000000       0.50000000       0.50000000 </v>
   <v>       0.37500000       0.37500000       0.12500000 </v>
   <v>       0.37500000       0.37500000       0.62500000 </v>
   <v>       0.37500000       0.87500000       0.12500000 </v>
   <v>       0.37500000       0.87500000       0.62500000 </v>
   <v>       0.87500000       0.37500000       0.12500000 </v>
   <v>       0.87500000       0.37500000       0.62500000 </v>
   <v>       0.87500000       0.87500000       0.12500000 </v>
   <v>       0.87500000       0.87500000       0.62500000 </v>
   <v>       0.00000000       0.25000000       0.25000000 </v>
   <v>       0.00000000       0.25000000       0.75000000 </v>
   <v>       0.00000000       0.75000000       0.25000000 </v>
   <v>       0.00000000       0.75000000       0.75000000 </v>
   <v>       0.50000000       0.25000000       0.25000000 </v>
   <v>       0.50000000       0.25000000       0.75000000 </v>
   <v>       0.50000000       0.75000000       0.25000000 </v>
   <v>       0.50000000       0.75000000       0.75000000 </v>
   <v>       0.37500000       0.12500000       0.37500000 </v>
   <v>       0.37500000       0.12500000       0.87500000 </v>
   <v>       0.37500000       0.62500000       0.37500000 </v>
   <v>       0.37500000       0.62500000       0.87500000 </v>
   <v>       0.87500000       0.12500000       0.37500000 </v>
   <v>       0.87500000       0.12500000       0.87500000 </v>
   <v>       0.87500000       0.62500000       0.37500000 </v>
   <v>       0.87500000       0.62500000       0.87500000 </v>
   <v>       0.25000000       0.00000000       0.25000000 </v>
   <v>       0.25000000       0.00000000       0.75000000 </v>
   <v>       0.25000000       0.50000000       0.25000000 </v>
   <v>       0.25000000       0.50000000       0.75000000 </v>
   <v>       0.75000000       0.00000000       0.25000000 </v>
   <v>       0.75000000       0.00000000       0.75000000 </v>
   <v>       0.75000000       0.50000000       0.25000000 </v>
   <v>       0.75000000       0.50000000       0.75000000 </v>
   <v>       0.12500000       0.37500000       0.37500000 </v>
   <v>       0.12500000       0.37500000       0.87500000 </v>
   <v>       0.12500000       0.87500000       0.37500000 </v>
   <v>       0.12500000       0.87500000       0.87500000 </v>
   <v>       0.62500000       0.37500000       0.37500000 </v>
   <v>       0.62500000       0.37500000       0.87500000 </v>
   <v>       0.62500000       0.87500000       0.37500000 </v>
   <v>       0.62500000       0.87500000       0.87500000 </v>
   <v>       0.25000000       0.25000000       0.00000000 </v>
   <v>       0.25000000       0.25000000       0.50000000 </v>
   <v>       0.25000000       0.75000000       0.00000000 </v>
   <v>       0.25000000       0.75000000       0.50000000 </v>
   <v>       0.75000000       0.25000000       0.00000000 </v>
   <v>       0.75000000       0.25000000       0.50000000 </v>
   <v>       0.75000000       0.75000000       0.00000000 </v>
   <v>       0.75000000       0.75000000       0.50000000 </v>
   <v>       0.12500000       0.12500000       0.12500000 </v>
   <v>       0.12500000       0.12500000       0.62500000 </v>
   <v>       0.12500000       0.62500000       0.12500000 </v>
   <v>       0.12500000       0.62500000       0.62500000 </v>
   <v>       0.62500000       0.12500000       0.12500000 </v>
   <v>       0.62500000       0.12500000       0.62500000 </v>
   <v>       0.62500000       0.62500000       0.12500000 </v>
   <v>       0.62500000       0.62500000       0.62500000 </v>
  </varray>
 </structure>
 <calculation>
  <scstep>
   <time name="dav">    1.27    1.32</time>
   <time name="total">    1.46    1.52</time>
   <energy>
    <i name="alphaZ">    113.93677380 </i>
    <i name="ewald">  -7453.66004510 </i>
    <i name="hartreedc">   -325.32583420 </i>
    <i name="XCdc">   -551.81346063 </i>
    <i name="pawpsdc">   5598.62625415 </i>
    <i name="pawaedc">  -4492.17844134 </i>
    <i name="eentropy">     -0.00711169 </i>
    <i name="bandstr">   1123.12624406 </i>
    <i name="atom">   6564.79586099 </i>
    <i name="e_fr_energy">    577.50024004 </i>
    <i name="e_wo_entrp">    577.50735174 </i>
    <i name="e_0_energy">    577.50261061 </i>
   </energy>
  </scstep>
  <scstep>
   <time name="dav">    1.34    1.36</time>
   <time name="total">    1.34    1.36</time>
   <energy>
    <i name="e_fr_energy">   -308.52942492 </i>
    <i name="e_wo_entrp">   -308.52544325 </i>
    <i name="e_0_energy">   -308.52809769 </i>
   </energy>
  </scstep>
  <scstep>
   <time name="dav">    1.35    1.37</time>
   <time name="total">    1.36    1.37</time>
   <energy>
    <i name="e_fr_energy">   -372.87249135 </i>
    <i name="e_wo_entrp">   -372.87979935 </i>
    <i name="e_0_energy">   -372.87492735 </i>
   </energy>
  </scstep>
  <scstep>
   <time name="dav">    1.31    1.32</time>
   <time name="total">    1.31    1.32</time>
   <energy>
    <i name="e_fr_energy">   -374.52310517 </i>
    <i name="e_wo_entrp">   -374.53120386 </i>
    <i name="e_0_energy">   -374.52580473 </i>
   </energy>
  </scstep>
  <scstep>
   <time name="dav">    1.32    1.33</time>
   <time name="total">    1.58    1.60</time>
   <energy>
    <i name="e_fr_energy">   -374.57732176 </i>
    <i name="e_wo_entrp">   -374.58540108 </i>
    <i name="e_0_energy">   -374.58001487 </i>
   </energy>
  </scstep>
  <scstep>
   <time name="diag">    0.14    0.14</time>
   <time name="diis">    0.70    0.70</time>
   <time name="orth">    0.02    0.02</time>
   <time name="total">    1.25    1.28</time>
   <energy>
    <i name="e_fr_energy">   -368.70843355 </i>
    <i name="e_wo_entrp">   -368.72007279 </i>
    <i name="e_0_energy">   -368.71231330 </i>
   </energy>
  </scstep>
  <scstep>
   <time name="diag">    0.14    0.14</time>
   <time name="diis">    0.69    0.70</time>
   <time name="orth">    0.02    0.02</time>
   <time name="total">    1.25    1.28</time>
   <energy>
    <i name="e_fr_energy">   -366.12744584 </i>
    <i name="e_wo_entrp">   -366.15929016 </i>
    <i name="e_0_energy">   -366.13806061 </i>
   </energy>
  </scstep>
  <scstep>
   <time name="diag">    0.14    0.14</time>
   <time name="diis">    0.74    0.74</time>
   <time name="orth">    0.02    0.02</time>
   <time name="total">    1.31    1.31</time>
   <energy>
    <i name="e_fr_energy">   -366.16204094 </i>
    <i name="e_wo_entrp">   -366.19543007 </i>
    <i name="e_0_energy">   -366.17317065 </i>
   </energy>
  </scstep>
  <scstep>
   <time name="diag">    0.13    0.13</time>
   <time name="diis">    0.71    0.72</time>
   <time name="orth">    0.02    0.02</time>
   <time name="total">    1.26    1.28</time>
   <energy>
    <i name="e_fr_energy">   -366.18471762 </i>
    <i name="e_wo_entrp">   -366.21802443 </i>
    <i name="e_0_energy">   -366.19581989 </i>
   </energy>
  </scstep>
  <scstep>
   <time name="diag">    0.13    0.13</time>
   <time name="diis">    0.72    0.72</time>
   <time name="orth">    0.02    0.02</time>
   <time name="total">    1.27    1.28</time>
   <energy>
    <i name="e_fr_energy">   -366.18854984 </i>
    <i name="e_wo_entrp">   -366.22185280 </i>
    <i name="e_0_energy">   -366.19965082 </i>
   </energy>
  </scstep>
  <scstep>
   <time name="diag">    0.13    0.13</time>
   <time name="diis">    0.69    0.69</time>
   <time name="orth">    0.02    0.02</time>
   <time name="total">    1.24    1.26</time>
   <energy>
    <i name="e_fr_energy">   -366.18460971 </i>
    <i name="e_wo_entrp">   -366.21798565 </i>
    <i name="e_0_energy">   -366.19573502 </i>
   </energy>
  </scstep>
  <scstep>
   <time name="diag">    0.13    0.13</time>
   <time name="diis">    0.69    0.70</time>
   <time name="orth">    0.02    0.02</time>
   <time name="total">    1.24    1.26</time>
   <energy>
    <i name="e_fr_energy">   -366.18467699 </i>
    <i name="e_wo_entrp">   -366.21804953 </i>
    <i name="e_0_energy">   -366.19580117 </i>
   </energy>
  </scstep>
  <scstep>
   <time name="diag">    0.13    0.13</time>
   <time name="diis">    0.74    0.74</time>
   <time name="orth">    0.02    0.02</time>
   <time name="total">    1.29    1.30</time>
   <energy>
    <i name="e_fr_energy">   -366.18474461 </i>
    <i name="e_wo_entrp">   -366.21811734 </i>
    <i name="e_0_energy">   -366.19586886 </i>
   </energy>
  </scstep>
  <scstep>
   <time name="diag">    0.13    0.13</time>
   <time name="diis">    0.69    0.70</time>
   <time name="orth">    0.02    0.02</time>
   <time name="total">    1.24    1.26</time>
   <energy>
    <i name="e_fr_energy">   -366.18445055 </i>
    <i name="e_wo_entrp">   -366.21781932 </i>
    <i name="e_0_energy">   -366.19557347 </i>
   </energy>
  </scstep>
  <scstep>
   <time name="diag">    0.13    0.13</time>
   <time name="diis">    0.69    0.70</time>
   <time name="orth">    0.02    0.02</time>
   <time name="total">    1.24    1.26</time>
   <energy>
    <i name="e_fr_energy">   -366.18468942 </i>
    <i name="e_wo_entrp">   -366.21805197 </i>
    <i name="e_0_energy">   -366.19581027 </i>
   </energy>
  </scstep>
  <scstep>
   <time name="diag">    0.14    0.14</time>
   <time name="diis">    0.70    0.70</time>
   <time name="orth">    0.02    0.02</time>
   <time name="total">    1.26    1.28</time>
   <energy>
    <i name="e_fr_energy">   -366.18492666 </i>
    <i name="e_wo_entrp">   -366.21829155 </i>
    <i name="e_0_energy">   -366.19604829 </i>
   </energy>
  </scstep>
  <scstep>
   <time name="diag">    0.13    0.13</time>
   <time name="diis">    0.69    0.70</time>
   <time name="orth">    0.02    0.02</time>
   <time name="total">    1.25    1.26</time>
   <energy>
    <i name="e_fr_energy">   -366.18501358 </i>
    <i name="e_wo_entrp">   -366.21837767 </i>
    <i name="e_0_energy">   -366.19613494 </i>
   </energy>
  </scstep>
  <scstep>
   <time name="diag">    0.13    0.14</time>
   <time name="diis">    0.69    0.69</time>
   <time name="orth">    0.02    0.02</time>
   <time name="total">    1.24    1.26</time>
   <energy>
    <i name="e_fr_energy">   -366.18504496 </i>
    <i name="e_wo_entrp">   -366.21840685 </i>
    <i name="e_0_energy">   -366.19616559 </i>
   </energy>
  </scstep>
  <scstep>
   <time name="diag">    0.13    0.13</time>
   <time name="diis">    0.63    0.67</time>
   <time name="orth">    0.02    0.02</time>
   <time name="total">    1.18    1.24</time>
   <energy>
    <i name="e_fr_energy">   -366.18505826 </i>
    <i name="e_wo_entrp">   -366.21841848 </i>
    <i name="e_0_energy">   -366.19617833 </i>
   </energy>
  </scstep>
  <scstep>
   <time name="diag">    0.13    0.13</time>
   <time name="diis">    0.50    0.50</time>
   <time name="orth">    0.02    0.02</time>
   <time name="total">    1.05    1.06</time>
   <energy>
    <i name="e_fr_energy">   -366.18506169 </i>
    <i name="e_wo_entrp">   -366.21842114 </i>
    <i name="e_0_energy">   -366.19618151 </i>
   </energy>
  </scstep>
  <scstep>
   <time name="diag">    0.13    0.13</time>
   <time name="diis">    0.45    0.45</time>
   <time name="orth">    0.02    0.02</time>
   <time name="total">    0.75    0.76</time>
   <energy>
    <i name="alphaZ">    113.93677380 </i>
    <i name="ewald">  -7453.66004510 </i>
    <i name="hartreedc">   -447.12848193 </i>
    <i name="XCdc">   -531.16335919 </i>
    <i name="pawpsdc">  31454.19357679 </i>
    <i name="pawaedc"> -30356.11158131 </i>
    <i name="eentropy">      0.03335932 </i>
    <i name="bandstr">    288.91883404 </i>
    <i name="atom">   6564.79586099 </i>
    <i name="e_fr_energy">   -366.18506258 </i>
    <i name="e_wo_entrp">   -366.21842190 </i>
    <i name="e_0_energy">   -366.19618235 </i>
   </energy>
  </scstep>
  <structure>
   <crystal>
    <varray name="basis" >
     <v>      10.69206958       0.02659700       0.00000000 </v>
     <v>       0.02659700      10.63887557       0.00000000 </v>
     <v>       0.00000000       0.00000000      10.63887557 </v>
    </varray>
    <i name="volume">   1210.18156959 </i>
    <varray name="rec_basis" >
     <v>       0.09352784      -0.00023382       0.00000000 </v>
     <v>      -0.00023382       0.09399548       0.00000000 </v>
     <v>       0.00000000       0.00000000       0.09399490 </v>
    </varray>
   </crystal>
   <varray name="positions" >
    <v>       0.00000000       0.00000000       0.00000000 </v>
    <v>       0.00000000       0.00000000       0.50000000 </v>
    <v>       0.00000000       0.50000000       0.00000000 </v>
    <v>       0.00000000       0.50000000       0.50000000 </v>
    <v>       0.50000000       0.00000000       0.00000000 </v>
    <v>       0.50000000       0.00000000       0.50000000 </v>
    <v>       0.50000000       0.50000000       0.00000000 </v>
    <v>       0.50000000       0.50000000       0.50000000 </v>
    <v>       0.37500000       0.37500000       0.12500000 </v>
    <v>       0.37500000       0.37500000       0.62500000 </v>
    <v>       0.37500000       0.87500000       0.12500000 </v>
    <v>       0.37500000       0.87500000       0.62500000 </v>
    <v>       0.87500000       0.37500000       0.12500000 </v>
    <v>       0.87500000       0.37500000       0.62500000 </v>
    <v>       0.87500000       0.87500000       0.12500000 </v>
    <v>       0.87500000       0.87500000       0.62500000 </v>
    <v>       0.00000000       0.25000000       0.25000000 </v>
    <v>       0.00000000       0.25000000       0.75000000 </v>
    <v>       0.00000000       0.75000000       0.25000000 </v>
    <v>       0.00000000       0.75000000       0.75000000 </v>
    <v>       0.50000000       0.25000000       0.25000000 </v>
    <v>       0.50000000       0.25000000       0.75000000 </v>
    <v>       0.50000000       0.75000000       0.25000000 </v>
    <v>       0.50000000       0.75000000       0.75000000 </v>
    <v>       0.37500000       0.12500000       0.37500000 </v>
    <v>       0.37500000       0.12500000       0.87500000 </v>
    <v>       0.37500000       0.62500000       0.37500000 </v>
    <v>       0.37500000       0.62500000       0.87500000 </v>
    <v>       0.87500000       0.12500000       0.37500000 </v>
    <v>       0.87500000       0.12500000       0.87500000 </v>
    <v>       0.87500000       0.62500000       0.37500000 </v>
    <v>       0.87500000       0.62500000       0.87500000 </v>
    <v>       0.25000000       0.00000000       0.25000000 </v>
    <v>       0.25000000       0.00000000       0.75000000 </v>
    <v>       0.25000000       0.50000000       0.25000000 </v>
    <v>       0.25000000       0.50000000       0.75000000 </v>
    <v>       0.75000000       0.00000000       0.25000000 </v>
    <v>       0.75000000       0.00000000       0.75000000 </v>
    <v>       0.75000000       0.50000000       0.25000000 </v>
    <v>       0.75000000       0.50000000       0.75000000 </v>
    <v>       0.12500000       0.37500000       0.37500000 </v>
    <v>       0.12500000       0.37500000       0.87500000 </v>
    <v>       0.12500000       0.87500000       0.37500000 </v>
    <v>       0.12500000       0.87500000       0.87500000 </v>
    <v>       0.62500000       0.37500000       0.37500000 </v>
    <v>       0.62500000       0.37500000       0.87500000 </v>
    <v>       0.62500000       0.87500000       0.37500000 </v>
    <v>       0.62500000       0.87500000       0.87500000 </v>
    <v>       0.25000000       0.25000000       0.00000000 </v>
    <v>       0.25000000       0.25000000       0.50000000 </v>
    <v>       0.25000000       0.75000000       0.00000000 </v>
    <v>       0.25000000       0.75000000       0.50000000 </v>
    <v>       0.75000000       0.25000000       0.00000000 </v>
    <v>       0.75000000       0.25000000       0.50000000 </v>
    <v>       0.75000000       0.75000000       0.00000000 </v>
    <v>       0.75000000       0.75000000       0.50000000 </v>
    <v>       0.12500000       0.12500000       0.12500000 </v>
    <v>       0.12500000       0.12500000       0.62500000 </v>
    <v>       0.12500000       0.62500000       0.12500000 </v>
    <v>       0.12500000       0.62500000       0.62500000 </v>
    <v>       0.62500000       0.12500000       0.12500000 </v>
    <v>       0.62500000       0.12500000       0.62500000 </v>
    <v>       0.62500000       0.62500000       0.12500000 </v>
    <v>       0.62500000       0.62500000       0.62500000 </v>
   </varray>
  </structure>
  <varray name="forces" >
   <v>      -0.00000000      -0.00000000       0.06350723 </v>
   <v>      -0.00000000      -0.00000000       0.06350723 </v>
   <v>      -0.00000000      -0.00000000       0.06350723 </v>
   <v>      -0.00000000      -0.00000000       0.06350723 </v>
   <v>       0.00000000       0.00000000       0.06350723 </v>
   <v>       0.00000000       0.00000000       0.06350723 </v>
   <v>       0.00000000       0.00000000       0.06350723 </v>
   <v>       0.00000000       0.00000000       0.06350723 </v>
   <v>      -0.00000000       0.00000000      -0.06350723 </v>
   <v>      -0.00000000      -0.00000000      -0.06350723 </v>
   <v>       0.00000000      -0.00000000      -0.06350723 </v>
   <v>       0.00000000      -0.00000000      -0.06350723 </v>
   <v>       0.00000000       0.00000000      -0.06350723 </v>
   <v>       0.00000000       0.00000000      -0.06350723 </v>
   <v>      -0.00000000      -0.00000000      -0.06350723 </v>
   <v>       0.00000000       0.00000000      -0.06350723 </v>
   <v>      -0.00000000      -0.00000000       0.06350723 </v>
   <v>      -0.00000000      -0.00000000       0.06350723 </v>
   <v>       0.00000000      -0.00000000       0.06350723 </v>
   <v>      -0.00000000      -0.00000000       0.06350723 </v>
   <v>       0.00000000       0.00000000       0.06350723 </v>
   <v>       0.00000000       0.00000000       0.06350723 </v>
   <v>       0.00000000       0.00000000       0.06350723 </v>
   <v>      -0.00000000       0.00000000       0.06350723 </v>
   <v>      -0.00000000       0.00000000      -0.06350723 </v>
   <v>      -0.00000000      -0.00000000      -0.06350723 </v>
   <v>      -0.00000000      -0.00000000      -0.06350723 </v>
   <v>       0.00000000      -0.00000000      -0.06350723 </v>
   <v>       0.00000000       0.00000000      -0.06350723 </v>
   <v>      -0.00000000       0.00000000      -0.06350723 </v>
   <v>       0.00000000       0.00000000      -0.06350723 </v>
   <v>       0.00000000       0.00000000      -0.06350723 </v>
   <v>       0.00000000      -0.00000000       0.06350723 </v>
   <v>      -0.00000000      -0.00000000       0.06350723 </v>
   <v>       0.00000000      -0.00000000       0.06350723 </v>
   <v>      -0.00000000       0.00000000       0.06350723 </v>
   <v>      -0.00000000      -0.00000000       0.06350723 </v>
   <v>      -0.00000000      -0.00000000       0.06350723 </v>
   <v>       0.00000000       0.00000000       0.06350723 </v>
   <v>       0.00000000       0.00000000       0.06350723 </v>
   <v>       0.00000000      -0.00000000      -0.06350723 </v>
   <v>       0.00000000      -0.00000000      -0.06350723 </v>
   <v>       0.00000000      -0.00000000      -0.06350723 </v>
   <v>       0.00000000       0.00000000      -0.06350723 </v>
   <v>      -0.00000000      -0.00000000      -0.06350723 </v>
   <v>       0.00000000      -0.00000000      -0.06350723 </v>
   <v>      -0.00000000       0.00000000      -0.06350723 </v>
   <v>      -0.00000000       0.00000000      -0.06350723 </v>
   <v>       0.00000000       0.00000000       0.06350723 </v>
   <v>      -0.00000000      -0.00000000       0.06350723 </v>
   <v>      -0.00000000      -0.00000000       0.06350723 </v>
   <v>      -0.00000000      -0.00000000       0.06350723 </v>
   <v>      -0.00000000       0.00000000       0.06350723 </v>
   <v>       0.00000000       0.00000000       0.06350723 </v>
   <v>      -0.00000000      -0.00000000       0.06350723 </v>
   <v>       0.00000000       0.00000000       0.06350723 </v>
   <v>       0.00000000      -0.00000000      -0.06350723 </v>
   <v>      -0.00000000      -0.00000000      -0.06350723 </v>
   <v>       0.00000000       0.00000000      -0.06350723 </v>
   <v>       0.00000000      -0.00000000      -0.06350723 </v>
   <v>       0.00000000      -0.00000000      -0.06350723 </v>
   <v>      -0.00000000      -0.00000000      -0.06350723 </v>
   <v>      -0.00000000       0.00000000      -0.06350723 </v>
   <v>      -0.00000000       0.00000000      -0.06350723 </v>
  </varray>
  <varray name="stress" >
   <v>      61.13654543      -6.00055957       0.00000000 </v>
   <v>      -6.00055947      65.45169424       0.00000000 </v>
   <v>       0.00000000       0.00000000      65.41271923 </v>
  </varray>
  <energy>
   <i name="e_fr_energy">   -366.18506258 </i>
   <i name="e_wo_entrp">   -366.21842190 </i>
   <i name="e_0_energy">   -366.19618235 </i>
  </energy>
  <time name="totalsc">   30.04   30.53</time>
 </calculation>
 <calculation>
  <scstep>
   <time name="dav">    1.27    1.28</time>
   <time name="total">    1.66    1.67</time>
   <energy>
    <i name="alphaZ">    113.93677380 </i>
    <i name="ewald">  -7453.72463940 </i>
    <i name="hartreedc">   -447.09725382 </i>
    <i name="XCdc">   -531.16371052 </i>
    <i name="pawpsdc">  31463.72498203 </i>
    <i name="pawaedc"> -30365.64294287 </i>
    <i name="eentropy">      0.03226719 </i>
    <i name="bandstr">    288.95108673 </i>
    <i name="atom">   6564.79586099 </i>
    <i name="e_fr_energy">   -366.18757585 </i>
    <i name="e_wo_entrp">   -366.21984304 </i>
    <i name="e_0_energy">   -366.19833158 </i>
   </energy>
  </scstep>
  <scstep>
   <time name="diag">    0.13    0.13</time>
   <time name="diis">    0.70    0.70</time>
   <time name="orth">    0.02    0.02</time>
   <time name="total">    1.25    1.26</time>
   <energy>
    <i name="e_fr_energy">   -366.18838090 </i>
    <i name="e_wo_entrp">   -366.22064652 </i>
    <i name="e_0_energy">   -366.19913611 </i>
   </energy>
  </scstep>
  <scstep>
   <time name="diag">    0.13    0.13</time>
   <time name="diis">    0.71    0.71</time>
   <time name="orth">    0.02    0.02</time>
   <time name="total">    1.26    1.28</time>
   <energy>
    <i name="e_fr_energy">   -366.18849377 </i>
    <i name="e_wo_entrp">   -366.22080640 </i>
    <i name="e_0_energy">   -366.19926465 </i>
   </energy>
  </scstep>
  <scstep>
   <time name="diag">    0.13    0.13</time>
   <time name="diis">    0.70    0.70</time>
   <time name="orth">    0.02    0.02</time>
   <time name="total">    1.24    1.26</time>
   <energy>
    <i name="e_fr_energy">   -366.18849104 </i>
    <i name="e_wo_entrp">   -366.22084474 </i>
    <i name="e_0_energy">   -366.19927561 </i>
   </energy>
  </scstep>
  <scstep>
   <time name="diag">    0.13    0.13</time>
   <time name="diis">    0.70    0.71</time>
   <time name="orth">    0.02    0.02</time>
   <time name="total">    1.25    1.27</time>
   <energy>
    <i name="e_fr_energy">   -366.18849259 </i>
    <i name="e_wo_entrp">   -366.22086132 </i>
    <i name="e_0_energy">   -366.19928217 </i>
   </energy>
  </scstep>
  <scstep>
   <time name="diag">    0.13    0.13</time>
   <time name="diis">    0.61    0.61</time>
   <time name="orth">    0.02    0.02</time>
   <time name="total">    1.16    1.18</time>
   <energy>
    <i name="e_fr_energy">   -366.18849335 </i>
    <i name="e_wo_entrp">   -366.22086151 </i>
    <i name="e_0_energy">   -366.19928274 </i>
   </energy>
  </scstep>
  <scstep>
   <time name="diag">    0.14    0.14</time>
   <time name="diis">    0.47    0.47</time>
   <time name="orth">    0.02    0.02</time>
   <time name="total">    1.02    1.04</time>
   <energy>
    <i name="e_fr_energy">   -366.18849345 </i>
    <i name="e_wo_entrp">   -366.22086129 </i>
    <i name="e_0_energy">   -366.19928273 </i>
   </energy>
  </scstep>
  <scstep>
   <time name="diag">    0.14    0.14</time>
   <time name="diis">    0.43    0.43</time>
   <time name="orth">    0.02    0.02</time>
   <time name="total">    0.74    0.75</time>
   <energy>
    <i name="alphaZ">    113.93677380 </i>
    <i name="ewald">  -7453.72463940 </i>
    <i name="hartreedc">   -447.07038650 </i>
    <i name="XCdc">   -531.16737949 </i>
    <i name="pawpsdc">  31461.86448523 </i>
    <i name="pawaedc"> -30363.78062867 </i>
    <i name="eentropy">      0.03236792 </i>
    <i name="bandstr">    288.92505263 </i>
    <i name="atom">   6564.79586099 </i>
    <i name="e_fr_energy">   -366.18849347 </i>
    <i name="e_wo_entrp">   -366.22086140 </i>
    <i name="e_0_energy">   -366.19928278 </i>
   </energy>
  </scstep>
  <structure>
   <crystal>
    <varray name="basis" >
     <v>      10.69206958       0.02659700       0.00000000 </v>
     <v>       0.02659700      10.63887557       0.00000000 </v>
     <v>       0.00000000       0.00000000      10.63887557 </v>
    </varray>
    <i name="volume">   1210.18156959 </i>
    <varray name="rec_basis" >
     <v>       0.09352784      -0.00023382       0.00000000 </v>
     <v>      -0.00023382       0.09399548       0.00000000 </v>
     <v>       0.00000000       0.00000000       0.09399490 </v>
    </varray>
   </crystal>
   <varray name="positions" >
    <v>       1.00000000       1.00000000       0.00028798 </v>
    <v>       1.00000000       1.00000000       0.50028798 </v>
    <v>       1.00000000       0.50000000       0.00028798 </v>
    <v>       1.00000000       0.50000000       0.50028798 </v>
    <v>       0.50000000       0.00000000       0.00028798 </v>
    <v>       0.50000000       0.00000000       0.50028798 </v>
    <v>       0.50000000       0.50000000       0.00028798 </v>
    <v>       0.50000000       0.50000000       0.50028798 </v>
    <v>       0.37500000       0.37500000       0.12471202 </v>
    <v>       0.37500000       0.37500000       0.62471202 </v>
    <v>       0.37500000       0.87500000       0.12471202 </v>
    <v>       0.37500000       0.87500000       0.62471202 </v>
    <v>       0.87500000       0.37500000       0.12471202 </v>
    <v>       0.87500000       0.37500000       0.62471202 </v>
    <v>       0.87500000       0.87500000       0.12471202 </v>
    <v>       0.87500000       0.87500000       0.62471202 </v>
    <v>       1.00000000       0.25000000       0.25028798 </v>
    <v>       1.00000000       0.25000000       0.75028798 </v>
    <v>       0.00000000       0.75000000       0.25028798 </v>
    <v>       1.00000000       0.75000000       0.75028798 </v>
    <v>       0.50000000       0.25000000       0.25028798 </v>
    <v>       0.50000000       0.25000000       0.75028798 </v>
    <v>       0.50000000       0.75000000       0.25028798 </v>
    <v>       0.50000000       0.75000000       0.75028798 </v>
    <v>       0.37500000       0.12500000       0.37471202 </v>
    <v>       0.37500000       0.12500000       0.87471202 </v>
    <v>       0.37500000       0.62500000       0.37471202 </v>
    <v>       0.37500000       0.62500000       0.87471202 </v>
    <v>       0.87500000       0.12500000       0.37471202 </v>
    <v>       0.87500000       0.12500000       0.87471202 </v>
    <v>       0.87500000       0.62500000       0.37471202 </v>
    <v>       0.87500000       0.62500000       0.87471202 </v>
    <v>       0.25000000       1.00000000       0.25028798 </v>
    <v>       0.25000000       1.00000000       0.75028798 </v>
    <v>       0.25000000       0.50000000       0.25028798 </v>
    <v>       0.25000000       0.50000000       0.75028798 </v>
    <v>       0.75000000       1.00000000       0.25028798 </v>
    <v>       0.75000000       1.00000000       0.75028798 </v>
    <v>       0.75000000       0.50000000       0.25028798 </v>
    <v>       0.75000000       0.50000000       0.75028798 </v>
    <v>       0.12500000       0.37500000       0.37471202 </v>
    <v>       0.12500000       0.37500000       0.87471202 </v>
    <v>       0.12500000       0.87500000       0.37471202 </v>
    <v>       0.12500000       0.87500000       0.87471202 </v>
    <v>       0.62500000       0.37500000       0.37471202 </v>
    <v>       0.62500000       0.37500000       0.87471202 </v>
    <v>       0.62500000       0.87500000       0.37471202 </v>
    <v>       0.62500000       0.87500000       0.87471202 </v>
    <v>       0.25000000       0.25000000       0.00028798 </v>
    <v>       0.25000000       0.25000000       0.50028798 </v>
    <v>       0.25000000       0.75000000       0.00028798 </v>
    <v>       0.25000000       0.75000000       0.50028798 </v>
    <v>       0.75000000       0.25000000       0.00028798 </v>
    <v>       0.75000000       0.25000000       0.50028798 </v>
    <v>       0.75000000       0.75000000       0.00028798 </v>
    <v>       0.75000000       0.75000000       0.50028798 </v>
    <v>       0.12500000       0.12500000       0.12471202 </v>
    <v>       0.12500000       0.12500000       0.62471202 </v>
    <v>       0.12500000       0.62500000       0.12471202 </v>
    <v>       0.12500000       0.62500000       0.62471202 </v>
    <v>       0.62500000       0.12500000       0.12471202 </v>
    <v>       0.62500000       0.12500000       0.62471202 </v>
    <v>       0.62500000       0.62500000       0.12471202 </v>
    <v>       0.62500000       0.62500000       0.62471202 </v>
   </varray>
  </structure>
  <varray name="forces" >
   <v>       0.00000000      -0.00000000      -0.02859292 </v>
   <v>       0.00000000      -0.00000000      -0.02859292 </v>
   <v>      -0.00000000       0.00000000      -0.02859292 </v>
   <v>       0.00000000      -0.00000000      -0.02859292 </v>
   <v>       0.00000000       0.00000000      -0.02859292 </v>
   <v>       0.00000000       0.00000000      -0.02859292 </v>
   <v>      -0.00000000       0.00000000      -0.02859292 </v>
   <v>      -0.00000000       0.00000000      -0.02859292 </v>
   <v>       0.00000000      -0.00000000       0.02859292 </v>
   <v>       0.00000000      -0.00000000       0.02859292 </v>
   <v>      -0.00000000      -0.00000000       0.02859292 </v>
   <v>      -0.00000000      -0.00000000       0.02859292 </v>
   <v>      -0.00000000       0.00000000       0.02859292 </v>
   <v>      -0.00000000       0.00000000       0.02859292 </v>
   <v>       0.00000000       0.00000000       0.02859292 </v>
   <v>       0.00000000      -0.00000000       0.02859292 </v>
   <v>       0.00000000       0.00000000      -0.02859292 </v>
   <v>       0.00000000      -0.00000000      -0.02859292 </v>
   <v>       0.00000000      -0.00000000      -0.02859292 </v>
   <v>      -0.00000000      -0.00000000      -0.02859292 </v>
   <v>      -0.00000000       0.00000000      -0.02859292 </v>
   <v>      -0.00000000       0.00000000      -0.02859292 </v>
   <v>       0.00000000       0.00000000      -0.02859292 </v>
   <v>       0.00000000       0.00000000      -0.02859292 </v>
   <v>      -0.00000000      -0.00000000       0.02859292 </v>
   <v>       0.00000000      -0.00000000       0.02859292 </v>
   <v>      -0.00000000      -0.00000000       0.02859292 </v>
   <v>       0.00000000      -0.00000000       0.02859292 </v>
   <v>       0.00000000       0.00000000       0.02859292 </v>
   <v>      -0.00000000       0.00000000       0.02859292 </v>
   <v>       0.00000000       0.00000000       0.02859292 </v>
   <v>       0.00000000       0.00000000       0.02859292 </v>
   <v>       0.00000000      -0.00000000      -0.02859292 </v>
   <v>       0.00000000      -0.00000000      -0.02859292 </v>
   <v>       0.00000000      -0.00000000      -0.02859292 </v>
   <v>      -0.00000000      -0.00000000      -0.02859292 </v>
   <v>      -0.00000000       0.00000000      -0.02859292 </v>
   <v>      -0.00000000       0.00000000      -0.02859292 </v>
   <v>       0.00000000       0.00000000      -0.02859292 </v>
   <v>      -0.00000000       0.00000000      -0.02859292 </v>
   <v>       0.00000000       0.00000000       0.02859292 </v>
   <v>       0.00000000       0.00000000       0.02859292 </v>
   <v>       0.00000000       0.00000000       0.02859292 </v>
   <v>       0.00000000       0.00000000       0.02859292 </v>
   <v>      -0.00000000      -0.00000000       0.02859292 </v>
   <v>      -0.00000000      -0.00000000       0.02859292 </v>
   <v>      -0.00000000       0.00000000       0.02859292 </v>
   <v>      -0.00000000      -0.00000000       0.02859292 </v>
   <v>      -0.00000000      -0.00000000      -0.02859292 </v>
   <v>      -0.00000000      -0.00000000      -0.02859292 </v>
   <v>       0.00000000      -0.00000000      -0.02859292 </v>
   <v>       0.00000000      -0.00000000      -0.02859292 </v>
   <v>      -0.00000000       0.00000000      -0.02859292 </v>
   <v>       0.00000000       0.00000000      -0.02859292 </v>
   <v>      -0.00000000       0.00000000      -0.02859292 </v>
   <v>       0.00000000       0.00000000      -0.02859292 </v>
   <v>       0.00000000       0.00000000       0.02859292 </v>
   <v>       0.00000000       0.00000000       0.02859292 </v>
   <v>       0.00000000       0.00000000       0.02859292 </v>
   <v>       0.00000000       0.00000000       0.02859292 </v>
   <v>      -0.00000000      -0.00000000       0.02859292 </v>
   <v>      -0.00000000      -0.00000000       0.02859292 </v>
   <v>      -0.00000000      -0.00000000       0.02859292 </v>
   <v>      -0.00000000       0.00000000       0.02859292 </v>
  </varray>
  <varray name="stress" >
   <v>      61.11648998      -2.68803932       0.00000000 </v>
   <v>      -2.68803923      65.43978653       0.00000000 </v>
   <v>       0.00000000       0.00000000      65.33957620 </v>
  </varray>
  <energy>
   <i name="e_fr_energy">   -366.18849347 </i>
   <i name="e_wo_entrp">   -366.22086140 </i>
   <i name="e_0_energy">   -366.19928278 </i>
  </energy>
  <time name="totalsc">   13.15   13.35</time>
 </calculation>
 <calculation>
  <scstep>
   <time name="dav">    1.27    1.27</time>
   <time name="total">    1.66    1.67</time>
   <energy>
    <i name="alphaZ">    113.93677380 </i>
    <i name="ewald">  -7453.70784483 </i>
    <i name="hartreedc">   -447.08036338 </i>
    <i name="XCdc">   -531.16691868 </i>
    <i name="pawpsdc">  31461.81538237 </i>
    <i name="pawaedc"> -30363.73151942 </i>
    <i name="eentropy">      0.03283650 </i>
    <i name="bandstr">    288.91651817 </i>
    <i name="atom">   6564.79586099 </i>
    <i name="e_fr_energy">   -366.18927447 </i>
    <i name="e_wo_entrp">   -366.22211097 </i>
    <i name="e_0_energy">   -366.20021997 </i>
   </energy>
  </scstep>
  <scstep>
   <time name="diag">    0.13    0.13</time>
   <time name="diis">    0.69    0.70</time>
   <time name="orth">    0.02    0.02</time>
   <time name="total">    1.24    1.26</time>
   <energy>
    <i name="e_fr_energy">   -366.18935071 </i>
    <i name="e_wo_entrp">   -366.22218720 </i>
    <i name="e_0_energy">   -366.20029621 </i>
   </energy>
  </scstep>
  <scstep>
   <time name="diag">    0.13    0.13</time>
   <time name="diis">    0.70    0.71</time>
   <time name="orth">    0.02    0.02</time>
   <time name="total">    1.25    1.27</time>
   <energy>
    <i name="e_fr_energy">   -366.18936105 </i>
    <i name="e_wo_entrp">   -366.22218687 </i>
    <i name="e_0_energy">   -366.20030299 </i>
   </energy>
  </scstep>
  <scstep>
   <time name="diag">    0.13    0.13</time>
   <time name="diis">    0.70    0.70</time>
   <time name="orth">    0.02    0.02</time>
   <time name="total">    1.24    1.27</time>
   <energy>
    <i name="e_fr_energy">   -366.18936086 </i>
    <i name="e_wo_entrp">   -366.22217740 </i>
    <i name="e_0_energy">   -366.20029971 </i>
   </energy>
  </scstep>
  <scstep>
   <time name="diag">    0.13    0.13</time>
   <time name="diis">    0.51    0.51</time>
   <time name="orth">    0.02    0.02</time>
   <time name="total">    1.06    1.08</time>
   <energy>
    <i name="e_fr_energy">   -366.18936100 </i>
    <i name="e_wo_entrp">   -366.22217405 </i>
    <i name="e_0_energy">   -366.20029868 </i>
   </energy>
  </scstep>
  <scstep>
   <time name="diag">    0.13    0.13</time>
   <time name="diis">    0.42    0.46</time>
   <time name="orth">    0.02    0.02</time>
   <time name="total">    0.99    1.03</time>
   <energy>
    <i name="e_fr_energy">   -366.18936105 </i>
    <i name="e_wo_entrp">   -366.22217426 </i>
    <i name="e_0_energy">   -366.20029879 </i>
   </energy>
  </scstep>
  <scstep>
   <time name="diag">    0.13    0.13</time>
   <time name="diis">    0.39    0.39</time>
   <time name="orth">    0.02    0.02</time>
   <time name="total">    0.94    0.96</time>
   <energy>
    <i name="e_fr_energy">   -366.18936107 </i>
    <i name="e_wo_entrp">   -366.22217433 </i>
    <i name="e_0_energy">   -366.20029882 </i>
   </energy>
  </scstep>
  <scstep>
   <time name="diag">    0.13    0.13</time>
   <time name="diis">    0.34    0.34</time>
   <time name="orth">    0.02    0.02</time>
   <time name="total">    0.64    0.66</time>
   <energy>
    <i name="alphaZ">    113.93677380 </i>
    <i name="ewald">  -7453.70784483 </i>
    <i name="hartreedc">   -447.08615417 </i>
    <i name="XCdc">   -531.16608165 </i>
    <i name="pawpsdc">  31462.75517499 </i>
    <i name="pawaedc"> -30364.67175274 </i>
    <i name="eentropy">      0.03281325 </i>
    <i name="bandstr">    288.92184927 </i>
    <i name="atom">   6564.79586099 </i>
    <i name="e_fr_energy">   -366.18936107 </i>
    <i name="e_wo_entrp">   -366.22217433 </i>
    <i name="e_0_energy">   -366.20029882 </i>
   </energy>
  </scstep>
  <structure>
   <crystal>
    <varray name="basis" >
     <v>      10.69206958       0.02659700       0.00000000 </v>
     <v>       0.02659700      10.63887557       0.00000000 </v>
     <v>       0.00000000       0.00000000      10.63887557 </v>
    </varray>
    <i name="volume">   1210.18156959 </i>
    <varray name="rec_basis" >
     <v>       0.09352784      -0.00023382       0.00000000 </v>
     <v>      -0.00023382       0.09399548       0.00000000 </v>
     <v>       0.00000000       0.00000000       0.09399490 </v>
    </varray>
   </crystal>
   <varray name="positions" >
    <v>       0.00000000       0.00000000       0.00019857 </v>
    <v>       0.00000000       0.00000000       0.50019857 </v>
    <v>       0.00000000       0.50000000       0.00019857 </v>
    <v>       0.00000000       0.50000000       0.50019857 </v>
    <v>       0.50000000       0.00000000       0.00019857 </v>
    <v>       0.50000000       0.00000000       0.50019857 </v>
    <v>       0.50000000       0.50000000       0.00019857 </v>
    <v>       0.50000000       0.50000000       0.50019857 </v>
    <v>       0.37500000       0.37500000       0.12480143 </v>
    <v>       0.37500000       0.37500000       0.62480143 </v>
    <v>       0.37500000       0.87500000       0.12480143 </v>
    <v>       0.37500000       0.87500000       0.62480143 </v>
    <v>       0.87500000       0.37500000       0.12480143 </v>
    <v>       0.87500000       0.37500000       0.62480143 </v>
    <v>       0.87500000       0.87500000       0.12480143 </v>
    <v>       0.87500000       0.87500000       0.62480143 </v>
    <v>       0.00000000       0.25000000       0.25019857 </v>
    <v>       0.00000000       0.25000000       0.75019857 </v>
    <v>       0.00000000       0.75000000       0.25019857 </v>
    <v>       0.00000000       0.75000000       0.75019857 </v>
    <v>       0.50000000       0.25000000       0.25019857 </v>
    <v>       0.50000000       0.25000000       0.75019857 </v>
    <v>       0.50000000       0.75000000       0.25019857 </v>
    <v>       0.50000000       0.75000000       0.75019857 </v>
    <v>       0.37500000       0.12500000       0.37480143 </v>
    <v>       0.37500000       0.12500000       0.87480143 </v>
    <v>       0.37500000       0.62500000       0.37480143 </v>
    <v>       0.37500000       0.62500000       0.87480143 </v>
    <v>       0.87500000       0.12500000       0.37480143 </v>
    <v>       0.87500000       0.12500000       0.87480143 </v>
    <v>       0.87500000       0.62500000       0.37480143 </v>
    <v>       0.87500000       0.62500000       0.87480143 </v>
    <v>       0.25000000       0.00000000       0.25019857 </v>
    <v>       0.25000000       0.00000000       0.75019857 </v>
    <v>       0.25000000       0.50000000       0.25019857 </v>
    <v>       0.25000000       0.50000000       0.75019857 </v>
    <v>       0.75000000       0.00000000       0.25019857 </v>
    <v>       0.75000000       0.00000000       0.75019857 </v>
    <v>       0.75000000       0.50000000       0.25019857 </v>
    <v>       0.75000000       0.50000000       0.75019857 </v>
    <v>       0.12500000       0.37500000       0.37480143 </v>
    <v>       0.12500000       0.37500000       0.87480143 </v>
    <v>       0.12500000       0.87500000       0.37480143 </v>
    <v>       0.12500000       0.87500000       0.87480143 </v>
    <v>       0.62500000       0.37500000       0.37480143 </v>
    <v>       0.62500000       0.37500000       0.87480143 </v>
    <v>       0.62500000       0.87500000       0.37480143 </v>
    <v>       0.62500000       0.87500000       0.87480143 </v>
    <v>       0.25000000       0.25000000       0.00019857 </v>
    <v>       0.25000000       0.25000000       0.50019857 </v>
    <v>       0.25000000       0.75000000       0.00019857 </v>
    <v>       0.25000000       0.75000000       0.50019857 </v>
    <v>       0.75000000       0.25000000       0.00019857 </v>
    <v>       0.75000000       0.25000000       0.50019857 </v>
    <v>       0.75000000       0.75000000       0.00019857 </v>
    <v>       0.75000000       0.75000000       0.50019857 </v>
    <v>       0.12500000       0.12500000       0.12480143 </v>
    <v>       0.12500000       0.12500000       0.62480143 </v>
    <v>       0.12500000       0.62500000       0.12480143 </v>
    <v>       0.12500000       0.62500000       0.62480143 </v>
    <v>       0.62500000       0.12500000       0.12480143 </v>
    <v>       0.62500000       0.12500000       0.62480143 </v>
    <v>       0.62500000       0.62500000       0.12480143 </v>
    <v>       0.62500000       0.62500000       0.62480143 </v>
   </varray>
  </structure>
  <varray name="forces" >
   <v>      -0.00000000       0.00000000       0.00005716 </v>
   <v>      -0.00000000      -0.00000000       0.00005716 </v>
   <v>       0.00000000       0.00000000       0.00005716 </v>
   <v>      -0.00000000      -0.00000000       0.00005716 </v>
   <v>       0.00000000       0.00000000       0.00005716 </v>
   <v>      -0.00000000      -0.00000000       0.00005716 </v>
   <v>       0.00000000      -0.00000000       0.00005716 </v>
   <v>       0.00000000       0.00000000       0.00005716 </v>
   <v>       0.00000000      -0.00000000      -0.00005716 </v>
   <v>       0.00000000      -0.00000000      -0.00005716 </v>
   <v>      -0.00000000       0.00000000      -0.00005716 </v>
   <v>      -0.00000000       0.00000000      -0.00005716 </v>
   <v>       0.00000000       0.00000000      -0.00005716 </v>
   <v>       0.00000000      -0.00000000      -0.00005716 </v>
   <v>       0.00000000      -0.00000000      -0.00005716 </v>
   <v>      -0.00000000      -0.00000000      -0.00005716 </v>
   <v>      -0.00000000      -0.00000000       0.00005716 </v>
   <v>      -0.00000000       0.00000000       0.00005716 </v>
   <v>      -0.00000000       0.00000000       0.00005716 </v>
   <v>      -0.00000000       0.00000000       0.00005716 </v>
   <v>      -0.00000000      -0.00000000       0.00005716 </v>
   <v>      -0.00000000      -0.00000000       0.00005716 </v>
   <v>      -0.00000000       0.00000000       0.00005716 </v>
   <v>      -0.00000000      -0.00000000       0.00005716 </v>
   <v>       0.00000000       0.00000000      -0.00005716 </v>
   <v>       0.00000000       0.00000000      -0.00005716 </v>
   <v>      -0.00000000       0.00000000      -0.00005716 </v>
   <v>       0.00000000      -0.00000000      -0.00005716 </v>
   <v>       0.00000000      -0.00000000      -0.00005716 </v>
   <v>       0.00000000       0.00000000      -0.00005716 </v>
   <v>       0.00000000       0.00000000      -0.00005716 </v>
   <v>      -0.00000000      -0.00000000      -0.00005716 </v>
   <v>       0.00000000       0.00000000       0.00005716 </v>
   <v>       0.00000000       0.00000000       0.00005716 </v>
   <v>      -0.00000000      -0.00000000       0.00005716 </v>
   <v>      -0.00000000       0.00000000       0.00005716 </v>
   <v>      -0.00000000      -0.00000000       0.00005716 </v>
   <v>       0.00000000      -0.00000000       0.00005716 </v>
   <v>       0.00000000      -0.00000000       0.00005716 </v>
   <v>       0.00000000      -0.00000000       0.00005716 </v>
   <v>      -0.00000000      -0.00000000      -0.00005716 </v>
   <v>       0.00000000      -0.00000000      -0.00005716 </v>
   <v>      -0.00000000      -0.00000000      -0.00005716 </v>
   <v>       0.00000000      -0.00000000      -0.00005716 </v>
   <v>      -0.00000000       0.00000000      -0.00005716 </v>
   <v>      -0.00000000       0.00000000      -0.00005716 </v>
   <v>       0.00000000       0.00000000      -0.00005716 </v>
   <v>       0.00000000       0.00000000      -0.00005716 </v>
   <v>      -0.00000000       0.00000000       0.00005716 </v>
   <v>       0.00000000       0.00000000       0.00005716 </v>
   <v>      -0.00000000       0.00000000       0.00005716 </v>
   <v>       0.00000000       0.00000000       0.00005716 </v>
   <v>       0.00000000       0.00000000       0.00005716 </v>
   <v>       0.00000000      -0.00000000       0.00005716 </v>
   <v>       0.00000000      -0.00000000       0.00005716 </v>
   <v>      -0.00000000      -0.00000000       0.00005716 </v>
   <v>      -0.00000000      -0.00000000      -0.00005716 </v>
   <v>      -0.00000000      -0.00000000      -0.00005716 </v>
   <v>       0.00000000      -0.00000000      -0.00005716 </v>
   <v>       0.00000000      -0.00000000      -0.00005716 </v>
   <v>       0.00000000       0.00000000      -0.00005716 </v>
   <v>       0.00000000       0.00000000      -0.00005716 </v>
   <v>      -0.00000000       0.00000000      -0.00005716 </v>
   <v>      -0.00000000       0.00000000      -0.00005716 </v>
  </varray>
  <varray name="stress" >
   <v>      61.12479779      -3.71726946       0.00000000 </v>
   <v>      -3.71726942      65.45163189       0.00000000 </v>
   <v>       0.00000000       0.00000000      65.37058155 </v>
  </varray>
  <energy>
   <i name="e_fr_energy">   -366.18936107 </i>
   <i name="e_wo_entrp">   -366.22217433 </i>
   <i name="e_0_energy">   -366.20029882 </i>
  </energy>
  <time name="totalsc">   12.43   12.66</time>
  <eigenvalues>
   <array>
    <dimension dim="1">band</dimension>
    <dimension dim="2">kpoint</dimension>
    <dimension dim="3">spin</dimension>
    <field>eigene</field>
    <field>occ</field>
    <set>
     <set comment="spin 1">
      <set comment="kpoint 1">
       <r>   -6.0087    1.0000 </r>
       <r>   -4.8747    1.0000 </r>
       <r>   -4.8747    1.0000 </r>
       <r>   -4.8649    1.0000 </r>
       <r>   -4.8649    1.0000 </r>
       <r>   -4.8649    1.0000 </r>
       <r>   -4.8649    1.0000 </r>
       <r>   -3.8578    1.0000 </r>
       <r>   -3.8578    1.0000 </r>
       <r>   -3.8456    1.0000 </r>
       <r>   -3.8456    1.0000 </r>
       <r>   -3.8456    1.0000 </r>
       <r>   -3.8456    1.0000 </r>
       <r>   -3.8385    1.0000 </r>
       <r>   -3.8385    1.0000 </r>
       <r>   -3.8385    1.0000 </r>
       <r>   -3.8385    1.0000 </r>
       <r>   -3.8334    1.0000 </r>
       <r>   -3.8333    1.0000 </r>
       <r>   -3.5219    1.0000 </r>
       <r>   -3.5219    1.0000 </r>
       <r>   -3.4965    1.0000 </r>
       <r>   -3.4965    1.0000 </r>
       <r>   -1.6569    1.0000 </r>
       <r>   -1.6569    1.0000 </r>
       <r>   -1.6322    1.0000 </r>
       <r>   -1.6246    1.0000 </r>
       <r>   -1.6246    1.0000 </r>
       <r>   -1.6173    1.0000 </r>
       <r>   -1.4541    1.0000 </r>
       <r>   -1.4541    1.0000 </r>
       <r>   -1.4429    1.0000 </r>
       <r>   -1.4429    1.0000 </r>
       <r>   -1.4407    1.0000 </r>
       <r>   -1.4407    1.0000 </r>
       <r>   -1.4407    1.0000 </r>
       <r>   -1.4407    1.0000 </r>
       <r>   -1.4273    1.0000 </r>
       <r>   -1.4273    1.0000 </r>
       <r>   -1.4164    1.0000 </r>
       <r>   -1.4164    1.0000 </r>
       <r>   -0.9173    1.0000 </r>
       <r>   -0.9173    1.0000 </r>
       <r>   -0.9042    1.0000 </r>
       <r>   -0.9042    1.0000 </r>
       <r>    0.7691    1.0000 </r>
       <r>    0.7691    1.0000 </r>
       <r>    0.7691    1.0000 </r>
       <r>    0.7691    1.0000 </r>
       <r>    0.7842    1.0000 </r>
       <r>    0.7842    1.0000 </r>
       <r>    0.7885    1.0000 </r>
       <r>    0.7885    1.0000 </r>
       <r>    0.7885    1.0000 </r>
       <r>    0.7885    1.0000 </r>
       <r>    0.7929    1.0000 </r>
       <r>    0.7929    1.0000 </r>
       <r>    2.2198    1.0000 </r>
       <r>    2.2198    1.0000 </r>
       <r>    2.2226    1.0000 </r>
       <r>    2.2226    1.0000 </r>
       <r>    2.2263    1.0000 </r>
       <r>    2.2263    1.0000 </r>
       <r>    2.2263    1.0000 </r>
       <r>    2.2263    1.0000 </r>
       <r>    2.2328    1.0000 </r>
       <r>    2.2328    1.0000 </r>
       <r>    2.2359    1.0000 </r>
       <r>    2.2359    1.0000 </r>
       <r>    2.3363    1.0000 </r>
       <r>    2.3363    1.0000 </r>
       <r>    2.3363    1.0000 </r>
       <r>    2.3363    1.0000 </r>
       <r>    2.3604    1.0000 </r>
       <r>    2.3605    1.0000 </r>
       <r>    2.3655    1.0000 </r>
       <r>    2.3655    1.0000 </r>
       <r>    2.3655    1.0000 </r>
       <r>    2.3655    1.0000 </r>
       <r>    2.3700    1.0000 </r>
       <r>    2.3700    1.0000 </r>
       <r>    2.8489    1.0000 </r>
       <r>    2.8490    1.0000 </r>
       <r>    2.8870    1.0000 </r>
       <r>    2.8870    1.0000 </r>
       <r>    2.8872    1.0000 </r>
       <r>    2.8872    1.0000 </r>
       <r>    3.3095    1.0000 </r>
       <r>    3.3452    1.0000 </r>
       <r>    3.3452    1.0000 </r>
       <r>    3.3812    1.0000 </r>
       <r>    3.3855    1.0000 </r>
       <r>    3.3855    1.0000 </r>
       <r>    4.3238    1.0000 </r>
       <r>    4.3238    1.0000 </r>
       <r>    4.3527    1.0000 </r>
       <r>    4.3527    1.0000 </r>
       <r>    4.3638    1.0000 </r>
       <r>    4.3638    1.0000 </r>
       <r>    4.3895    1.0000 </r>
       <r>    4.3895    1.0000 </r>
       <r>    4.3896    1.0000 </r>
       <r>    4.3896    1.0000 </r>
       <r>    4.3930    1.0000 </r>
       <r>    4.3930    1.0000 </r>
       <r>    4.9447    1.0000 </r>
       <r>    4.9447    1.0000 </r>
       <r>    4.9703    1.0000 </r>
       <r>    4.9703    1.0000 </r>
       <r>    4.9703    1.0000 </r>
       <r>    4.9703    1.0000 </r>
       <r>    4.9963    1.0000 </r>
       <r>    4.9963    1.0000 </r>
       <r>    5.0126    1.0000 </r>
       <r>    5.0126    1.0000 </r>
       <r>    5.0126    1.0000 </r>
       <r>    5.0126    1.0000 </r>
       <r>    5.0863    1.0000 </r>
       <r>    5.0863    1.0000 </r>
       <r>    5.1266    1.0000 </r>
       <r>    5.1266    1.0000 </r>
       <r>    5.1497    1.0000 </r>
       <r>    5.1497    1.0000 </r>
       <r>    5.1704    1.0000 </r>
       <r>    5.1704    1.0000 </r>
       <r>    6.3479    1.0316 </r>
       <r>    6.3991    1.0344 </r>
       <r>    6.4148    1.0309 </r>
       <r>    6.8030   -0.0062 </r>
       <r>    6.8425   -0.0309 </r>
       <r>    6.8425   -0.0309 </r>
       <r>    6.8822   -0.0352 </r>
       <r>    6.8836   -0.0351 </r>
       <r>    6.8836   -0.0351 </r>
       <r>    7.3488   -0.0000 </r>
       <r>    7.3488   -0.0000 </r>
       <r>    7.3492   -0.0000 </r>
       <r>    7.3492   -0.0000 </r>
       <r>    7.3896   -0.0000 </r>
       <r>    7.3896   -0.0000 </r>
       <r>    8.0265   -0.0000 </r>
       <r>    8.0265   -0.0000 </r>
       <r>    8.0802   -0.0000 </r>
       <r>    8.0802   -0.0000 </r>
       <r>    8.7300   -0.0000 </r>
       <r>    8.7300   -0.0000 </r>
       <r>    8.7579   -0.0000 </r>
       <r>    8.7579   -0.0000 </r>
       <r>    8.7579   -0.0000 </r>
       <r>    8.7579   -0.0000 </r>
       <r>    8.7860   -0.0000 </r>
       <r>    8.7860   -0.0000 </r>
       <r>    8.8059   -0.0000 </r>
       <r>    8.8059   -0.0000 </r>
       <r>    8.8059   -0.0000 </r>
       <r>    8.8059   -0.0000 </r>
       <r>    8.8975   -0.0000 </r>
       <r>    8.9168   -0.0000 </r>
       <r>    8.9569   -0.0000 </r>
       <r>    9.3740   -0.0000 </r>
       <r>    9.3811   -0.0000 </r>
       <r>    9.3834   -0.0000 </r>
      </set>
      <set comment="kpoint 2">
       <r>   -5.7228    1.0000 </r>
       <r>   -5.7228    1.0000 </r>
       <r>   -4.6095    1.0000 </r>
       <r>   -4.6095    1.0000 </r>
       <r>   -4.6032    1.0000 </r>
       <r>   -4.6032    1.0000 </r>
       <r>   -4.6032    1.0000 </r>
       <r>   -4.6032    1.0000 </r>
       <r>   -4.5968    1.0000 </r>
       <r>   -4.5968    1.0000 </r>
       <r>   -3.6999    1.0000 </r>
       <r>   -3.6999    1.0000 </r>
       <r>   -3.6999    1.0000 </r>
       <r>   -3.6999    1.0000 </r>
       <r>   -3.6843    1.0000 </r>
       <r>   -3.6843    1.0000 </r>
       <r>   -3.6843    1.0000 </r>
       <r>   -3.6843    1.0000 </r>
       <r>   -3.4970    1.0000 </r>
       <r>   -3.4970    1.0000 </r>
       <r>   -2.7184    1.0000 </r>
       <r>   -2.7184    1.0000 </r>
       <r>   -2.7024    1.0000 </r>
       <r>   -2.7024    1.0000 </r>
       <r>   -2.7024    1.0000 </r>
       <r>   -2.7024    1.0000 </r>
       <r>   -2.6864    1.0000 </r>
       <r>   -2.6864    1.0000 </r>
       <r>   -1.5426    1.0000 </r>
       <r>   -1.5426    1.0000 </r>
       <r>   -1.5423    1.0000 </r>
       <r>   -1.5423    1.0000 </r>
       <r>   -1.5234    1.0000 </r>
       <r>   -1.5234    1.0000 </r>
       <r>   -1.5228    1.0000 </r>
       <r>   -1.5228    1.0000 </r>
       <r>   -0.3293    1.0000 </r>
       <r>   -0.3293    1.0000 </r>
       <r>   -0.3254    1.0000 </r>
       <r>   -0.3254    1.0000 </r>
       <r>   -0.3254    1.0000 </r>
       <r>   -0.3254    1.0000 </r>
       <r>   -0.3218    1.0000 </r>
       <r>   -0.3218    1.0000 </r>
       <r>   -0.2672    1.0000 </r>
       <r>   -0.2672    1.0000 </r>
       <r>   -0.2672    1.0000 </r>
       <r>   -0.2672    1.0000 </r>
       <r>   -0.2469    1.0000 </r>
       <r>   -0.2469    1.0000 </r>
       <r>   -0.2469    1.0000 </r>
       <r>   -0.2469    1.0000 </r>
       <r>    0.5220    1.0000 </r>
       <r>    0.5220    1.0000 </r>
       <r>    1.8443    1.0000 </r>
       <r>    1.8443    1.0000 </r>
       <r>    1.8467    1.0000 </r>
       <r>    1.8467    1.0000 </r>
       <r>    1.8467    1.0000 </r>
       <r>    1.8467    1.0000 </r>
       <r>    1.8490    1.0000 </r>
       <r>    1.8490    1.0000 </r>
       <r>    2.0291    1.0000 </r>
       <r>    2.0291    1.0000 </r>
       <r>    2.0362    1.0000 </r>
       <r>    2.0362    1.0000 </r>
       <r>    2.0362    1.0000 </r>
       <r>    2.0362    1.0000 </r>
       <r>    2.0442    1.0000 </r>
       <r>    2.0442    1.0000 </r>
       <r>    2.6883    1.0000 </r>
       <r>    2.6883    1.0000 </r>
       <r>    2.7098    1.0000 </r>
       <r>    2.7098    1.0000 </r>
       <r>    2.7144    1.0000 </r>
       <r>    2.7144    1.0000 </r>
       <r>    2.7362    1.0000 </r>
       <r>    2.7362    1.0000 </r>
       <r>    3.4657    1.0000 </r>
       <r>    3.4657    1.0000 </r>
       <r>    3.4737    1.0000 </r>
       <r>    3.4737    1.0000 </r>
       <r>    3.4737    1.0000 </r>
       <r>    3.4737    1.0000 </r>
       <r>    3.4811    1.0000 </r>
       <r>    3.4811    1.0000 </r>
       <r>    3.5737    1.0000 </r>
       <r>    3.5737    1.0000 </r>
       <r>    3.5921    1.0000 </r>
       <r>    3.5921    1.0000 </r>
       <r>    3.5921    1.0000 </r>
       <r>    3.5921    1.0000 </r>
       <r>    3.6105    1.0000 </r>
       <r>    3.6105    1.0000 </r>
       <r>    3.6413    1.0000 </r>
       <r>    3.6413    1.0000 </r>
       <r>    3.6414    1.0000 </r>
       <r>    3.6414    1.0000 </r>
       <r>    3.7484    1.0000 </r>
       <r>    3.7484    1.0000 </r>
       <r>    3.7484    1.0000 </r>
       <r>    3.7484    1.0000 </r>
       <r>    3.7879    1.0000 </r>
       <r>    3.7879    1.0000 </r>
       <r>    3.7879    1.0000 </r>
       <r>    3.7879    1.0000 </r>
       <r>    4.8550    1.0000 </r>
       <r>    4.8550    1.0000 </r>
       <r>    4.8693    1.0000 </r>
       <r>    4.8693    1.0000 </r>
       <r>    4.8693    1.0000 </r>
       <r>    4.8693    1.0000 </r>
       <r>    4.8838    1.0000 </r>
       <r>    4.8838    1.0000 </r>
       <r>    5.0756    1.0000 </r>
       <r>    5.0756    1.0000 </r>
       <r>    5.0758    1.0000 </r>
       <r>    5.0758    1.0000 </r>
       <r>    5.0758    1.0000 </r>
       <r>    5.0758    1.0000 </r>
       <r>    5.0893    1.0000 </r>
       <r>    5.0893    1.0000 </r>
       <r>    5.0893    1.0000 </r>
       <r>    5.0893    1.0000 </r>
       <r>    5.5292    1.0000 </r>
       <r>    5.5292    1.0000 </r>
       <r>    5.5306    1.0000 </r>
       <r>    5.5306    1.0000 </r>
       <r>    6.8225   -0.0217 </r>
       <r>    6.8225   -0.0217 </r>
       <r>    7.7091   -0.0000 </r>
       <r>    7.7091   -0.0000 </r>
       <r>    8.1370   -0.0000 </r>
       <r>    8.1370   -0.0000 </r>
[...]
      </set>
     </set>
    </set>
   </array>
  </eigenvalues>
  <separator name="orbital magnetization" >
   <v name="MAGDIPOLOUT">      0.00000000      0.00000000      0.00000000</v>
  </separator>
  <dos>
   <i name="efermi">      6.62862569 </i>
   <total>
    <array>
     <dimension dim="1">gridpoints</dimension>
     <dimension dim="2">spin</dimension>
     <field>energy</field>
     <field>total</field>
     <field>integrated</field>
     <set>
      <set comment="spin 1">
       <r>    -8.0087     0.0000     0.0000 </r>
       <r>    -7.9424     0.0000     0.0000 </r>
       <r>    -7.8761     0.0000     0.0000 </r>
       <r>    -7.8098     0.0000     0.0000 </r>
       <r>    -7.7435     0.0000     0.0000 </r>
       <r>    -7.6772     0.0000     0.0000 </r>
       <r>    -7.6109    -0.0000    -0.0000 </r>
       <r>    -7.5446    -0.0000    -0.0000 </r>
       <r>    -7.4783    -0.0000    -0.0000 </r>
       <r>    -7.4120    -0.0000    -0.0000 </r>
       <r>    -7.3457    -0.0000    -0.0000 </r>
       <r>    -7.2794    -0.0000    -0.0000 </r>
       <r>    -7.2131    -0.0000    -0.0000 </r>
       <r>    -7.1468    -0.0000    -0.0000 </r>
       <r>    -7.0805    -0.0000    -0.0000 </r>
       <r>    -7.0142    -0.0000    -0.0000 </r>
       <r>    -6.9479    -0.0000    -0.0000 </r>
       <r>    -6.8816    -0.0000    -0.0000 </r>
       <r>    -6.8153    -0.0000    -0.0000 </r>
       <r>    -6.7490    -0.0000    -0.0000 </r>
       <r>    -6.6827    -0.0000    -0.0000 </r>
       <r>    -6.6164    -0.0002    -0.0000 </r>
       <r>    -6.5501    -0.0014    -0.0001 </r>
       <r>    -6.4838    -0.0058    -0.0005 </r>
       <r>    -6.4175    -0.0187    -0.0017 </r>
       <r>    -6.3512    -0.0426    -0.0046 </r>
       <r>    -6.2849    -0.0592    -0.0085 </r>
       <r>    -6.2186    -0.0112    -0.0092 </r>
       <r>    -6.1523     0.1612     0.0015 </r>
       <r>    -6.0860     0.4192     0.0293 </r>
       <r>    -6.0197     0.6288     0.0710 </r>
       <r>    -5.9534     0.8364     0.1264 </r>
       <r>    -5.8871     1.4822     0.2247 </r>
       <r>    -5.8208     2.9260     0.4187 </r>
       <r>    -5.7545     4.6581     0.7275 </r>
       <r>    -5.6883     5.6761     1.1038 </r>
       <r>    -5.6220     6.0723     1.5064 </r>
       <r>    -5.5557     7.2771     1.9889 </r>
       <r>    -5.4894     9.7982     2.6385 </r>
       <r>    -5.4231    11.7987     3.4207 </r>
       <r>    -5.3568    11.3992     4.1765 </r>
       <r>    -5.2905     9.4279     4.8016 </r>
       <r>    -5.2242     8.0885     5.3378 </r>
       <r>    -5.1579     7.7317     5.8504 </r>
       <r>    -5.0916     6.9680     6.3124 </r>
       <r>    -5.0253     5.4101     6.6711 </r>
       <r>    -4.9590     4.2202     6.9509 </r>
       <r>    -4.8927     4.1939     7.2289 </r>
       <r>    -4.8264     5.3831     7.5858 </r>
       <r>    -4.7601     8.5634     8.1536 </r>
       <r>    -4.6938    14.5248     9.1166 </r>
       <r>    -4.6275    21.3607    10.5328 </r>
       <r>    -4.5612    25.4474    12.2199 </r>
       <r>    -4.4949    26.1625    13.9545 </r>
       <r>    -4.4286    26.2097    15.6921 </r>
       <r>    -4.3623    26.1743    17.4275 </r>
       <r>    -4.2960    22.9410    18.9485 </r>
       <r>    -4.2297    15.0506    19.9463 </r>
       <r>    -4.1634     5.8045    20.3311 </r>
       <r>    -4.0971    -0.3359    20.3089 </r>
       <r>    -4.0308    -1.5387    20.2069 </r>
       <r>    -3.9645     1.8517    20.3296 </r>
       <r>    -3.8982     8.9375    20.9222 </r>
       <r>    -3.8319    18.1793    22.1274 </r>
       <r>    -3.7656    26.6859    23.8967 </r>
       <r>    -3.6993    30.8542    25.9423 </r>
       <r>    -3.6330    28.7456    27.8481 </r>
       <r>    -3.5667    22.1043    29.3136 </r>
       <r>    -3.5004    15.3733    30.3329 </r>
       <r>    -3.4341    12.7319    31.1770 </r>
       <r>    -3.3678    16.1152    32.2454 </r>
       <r>    -3.3015    24.3968    33.8629 </r>
       <r>    -3.2352    33.5485    36.0871 </r>
       <r>    -3.1689    39.1572    38.6832 </r>
       <r>    -3.1026    39.7670    41.3197 </r>
       <r>    -3.0363    37.0783    43.7780 </r>
       <r>    -2.9700    33.0659    45.9702 </r>
       <r>    -2.9037    28.5768    47.8649 </r>
       <r>    -2.8374    24.9771    49.5208 </r>
       <r>    -2.7711    24.1409    51.1213 </r>
       <r>    -2.7048    24.9855    52.7779 </r>
       <r>    -2.6385    23.1207    54.3108 </r>
       <r>    -2.5722    16.2628    55.3890 </r>
       <r>    -2.5059     7.3902    55.8789 </r>
       <r>    -2.4396     0.9363    55.9410 </r>
       <r>    -2.3733    -1.7180    55.8271 </r>
       <r>    -2.3070    -1.8023    55.7076 </r>
       <r>    -2.2407    -0.2602    55.6904 </r>
       <r>    -2.1744     3.0912    55.8953 </r>
       <r>    -2.1081     7.8267    56.4142 </r>
       <r>    -2.0418    11.5490    57.1799 </r>
       <r>    -1.9755    11.4479    57.9389 </r>
       <r>    -1.9092     7.3498    58.4262 </r>
       <r>    -1.8429     2.4380    58.5878 </r>
       <r>    -1.7766     1.0008    58.6542 </r>
       <r>    -1.7103     5.8656    59.0430 </r>
       <r>    -1.6440    16.7243    60.1519 </r>
       <r>    -1.5777    29.2544    62.0914 </r>
       <r>    -1.5114    36.6885    64.5238 </r>
       <r>    -1.4451    34.4761    66.8096 </r>
       <r>    -1.3788    24.0546    68.4044 </r>
       <r>    -1.3125    11.5555    69.1705 </r>
       <r>    -1.2462     3.0762    69.3744 </r>
       <r>    -1.1799     1.2926    69.4601 </r>
       <r>    -1.1136     5.0507    69.7950 </r>
       <r>    -1.0473    10.5323    70.4933 </r>
       <r>    -0.9810    13.4747    71.3866 </r>
       <r>    -0.9147    12.3695    72.2067 </r>
       <r>    -0.8484    10.1591    72.8803 </r>
       <r>    -0.7821    11.4876    73.6419 </r>
       <r>    -0.7158    17.0969    74.7754 </r>
       <r>    -0.6495    21.8449    76.2237 </r>
       <r>    -0.5832    20.4076    77.5767 </r>
       <r>    -0.5169    14.9588    78.5685 </r>
       <r>    -0.4506    14.6749    79.5414 </r>
       <r>    -0.3843    26.2741    81.2834 </r>
       <r>    -0.3180    45.9309    84.3286 </r>
       <r>    -0.2517    61.2777    88.3912 </r>
       <r>    -0.1854    61.5053    92.4690 </r>
       <r>    -0.1191    46.0273    95.5205 </r>
       <r>    -0.0528    24.0095    97.1124 </r>
       <r>     0.0135     6.2479    97.5266 </r>
       <r>     0.0798    -1.7671    97.4094 </r>
       <r>     0.1461    -0.0939    97.4032 </r>
       <r>     0.2124     8.3852    97.9591 </r>
       <r>     0.2787    18.6910    99.1983 </r>
       <r>     0.3450    24.6209   100.8307 </r>
       <r>     0.4113    22.8425   102.3451 </r>
       <r>     0.4776    15.8364   103.3951 </r>
       <r>     0.5439     8.9748   103.9901 </r>
       <r>     0.6102     5.8634   104.3788 </r>
       <r>     0.6765     7.5955   104.8824 </r>
       <r>     0.7428    13.9934   105.8102 </r>
       <r>     0.8091    23.0742   107.3400 </r>
       <r>     0.8754    30.2820   109.3476 </r>
       <r>     0.9417    30.7267   111.3848 </r>
       <r>     1.0080    23.3777   112.9347 </r>
       <r>     1.0743    12.4125   113.7577 </r>
       <r>     1.1406     3.5120   113.9905 </r>
       <r>     1.2069    -0.7573   113.9403 </r>
       <r>     1.2732    -1.5670   113.8364 </r>
       <r>     1.3395    -1.2425   113.7540 </r>
       <r>     1.4058    -1.2075   113.6740 </r>
       <r>     1.4721    -1.5802   113.5692 </r>
       <r>     1.5384    -1.2069   113.4892 </r>
       <r>     1.6047     2.1516   113.6318 </r>
       <r>     1.6710    10.3030   114.3149 </r>
       <r>     1.7373    21.9776   115.7720 </r>
       <r>     1.8036    32.3758   117.9185 </r>
       <r>     1.8699    37.0965   120.3780 </r>
       <r>     1.9362    36.1785   122.7766 </r>
       <r>     2.0025    32.7056   124.9449 </r>
       <r>     2.0688    28.8757   126.8594 </r>
       <r>     2.1351    25.8018   128.5700 </r>
       <r>     2.2014    24.8764   130.2193 </r>
       <r>     2.2677    25.8293   131.9317 </r>
       <r>     2.3340    25.2492   133.6058 </r>
       <r>     2.4003    20.7959   134.9845 </r>
       <r>     2.4666    16.6108   136.0858 </r>
       <r>     2.5329    21.6323   137.5200 </r>
       <r>     2.5992    40.7521   140.2218 </r>
       <r>     2.6655    67.4381   144.6929 </r>
       <r>     2.7318    86.0615   150.3987 </r>
       <r>     2.7981    83.7041   155.9483 </r>
       <r>     2.8644    61.1777   160.0043 </r>
       <r>     2.9307    31.7475   162.1091 </r>
       <r>     2.9970     8.9883   162.7051 </r>
       <r>     3.0633    -2.5726   162.5345 </r>
       <r>     3.1295    -5.7877   162.1508 </r>
       <r>     3.1958    -3.5897   161.9128 </r>
       <r>     3.2621     4.7489   162.2276 </r>
       <r>     3.3284    20.6988   163.5999 </r>
       <r>     3.3947    41.3393   166.3407 </r>
       <r>     3.4610    59.3906   170.2783 </r>
       <r>     3.5273    69.3122   174.8736 </r>
       <r>     3.5936    71.2897   179.6001 </r>
       <r>     3.6599    68.2920   184.1278 </r>
       <r>     3.7262    61.9035   188.2319 </r>
       <r>     3.7925    52.6451   191.7223 </r>
       <r>     3.8588    43.0849   194.5787 </r>
       <r>     3.9251    38.4680   197.1291 </r>
       <r>     3.9914    41.4552   199.8776 </r>
       <r>     4.0577    46.3156   202.9483 </r>
       <r>     4.1240    43.3563   205.8228 </r>
       <r>     4.1903    30.9584   207.8753 </r>
       <r>     4.2566    18.5622   209.1060 </r>
       <r>     4.3229    15.8512   210.1569 </r>
       <r>     4.3892    22.7651   211.6662 </r>
       <r>     4.4555    31.7732   213.7727 </r>
       <r>     4.5218    37.0017   216.2259 </r>
       <r>     4.5881    38.5391   218.7810 </r>
       <r>     4.6544    38.8917   221.3595 </r>
       <r>     4.7207    38.9267   223.9403 </r>
       <r>     4.7870    38.8619   226.5168 </r>
       <r>     4.8533    40.3177   229.1899 </r>
       <r>     4.9196    44.7078   232.1540 </r>
       <r>     4.9859    50.3418   235.4916 </r>
       <r>     5.0522    52.3341   238.9613 </r>
       <r>     5.1185    46.0483   242.0143 </r>
       <r>     5.1848    31.6456   244.1124 </r>
       <r>     5.2511    15.1638   245.1177 </r>
       <r>     5.3174     4.3446   245.4057 </r>
       <r>     5.3837     3.4199   245.6325 </r>
       <r>     5.4500    11.0260   246.3635 </r>
       <r>     5.5163    21.1608   247.7664 </r>
       <r>     5.5826    26.5085   249.5239 </r>
       <r>     5.6489    23.3593   251.0726 </r>
       <r>     5.7152    14.2113   252.0148 </r>
       <r>     5.7815     4.9570   252.3435 </r>
       <r>     5.8478    -0.0561   252.3398 </r>
       <r>     5.9141     0.1140   252.3473 </r>
       <r>     5.9804     4.0905   252.6185 </r>
       <r>     6.0467     9.1330   253.2240 </r>
       <r>     6.1130    11.9661   254.0174 </r>
       <r>     6.1793    10.8937   254.7396 </r>
       <r>     6.2456     7.3264   255.2253 </r>
       <r>     6.3119     4.1290   255.4991 </r>
       <r>     6.3782     2.6147   255.6724 </r>
       <r>     6.4445     1.9701   255.8031 </r>
       <r>     6.5108     1.1991   255.8826 </r>
       <r>     6.5771     0.6680   255.9269 </r>
       <r>     6.6434     1.6837   256.0385 </r>
       <r>     6.7097     4.8857   256.3624 </r>
       <r>     6.7760     9.0214   256.9605 </r>
       <r>     6.8423    11.4615   257.7204 </r>
       <r>     6.9086    10.3885   258.4092 </r>
       <r>     6.9749     6.4585   258.8374 </r>
       <r>     7.0412     2.0769   258.9750 </r>
       <r>     7.1075    -0.4874   258.9427 </r>
       <r>     7.1738     0.1215   258.9508 </r>
       <r>     7.2401     4.3369   259.2383 </r>
       <r>     7.3064    10.7961   259.9541 </r>
       <r>     7.3727    15.8278   261.0035 </r>
       <r>     7.4390    16.1373   262.0734 </r>
       <r>     7.5053    13.0691   262.9398 </r>
       <r>     7.5716    12.3902   263.7613 </r>
       <r>     7.6379    17.8897   264.9474 </r>
       <r>     7.7042    25.9310   266.6666 </r>
       <r>     7.7705    28.5111   268.5568 </r>
       <r>     7.8368    21.9734   270.0137 </r>
       <r>     7.9031    11.0422   270.7457 </r>
       <r>     7.9694     4.3688   271.0354 </r>
       <r>     8.0357     8.0065   271.5662 </r>
       <r>     8.1020    22.0858   273.0305 </r>
       <r>     8.1683    39.9642   275.6801 </r>
       <r>     8.2346    50.7262   279.0432 </r>
       <r>     8.3009    47.1578   282.1697 </r>
       <r>     8.3672    33.1416   284.3670 </r>
       <r>     8.4335    20.6907   285.7388 </r>
       <r>     8.4998    18.8154   286.9862 </r>
       <r>     8.5661    27.4874   288.8086 </r>
       <r>     8.6324    42.2617   291.6105 </r>
       <r>     8.6987    59.8261   295.5769 </r>
       <r>     8.7650    75.7756   300.6008 </r>
       <r>     8.8313    81.6700   306.0155 </r>
       <r>     8.8976    71.1465   310.7324 </r>
       <r>     8.9639    48.3691   313.9393 </r>
       <r>     9.0302    25.6648   315.6408 </r>
       <r>     9.0965    12.5247   316.4712 </r>
       <r>     9.1628     9.6093   317.1083 </r>
       <r>     9.2291    12.5702   317.9417 </r>
       <r>     9.2954    17.4982   319.1018 </r>
       <r>     9.3617    21.3934   320.5202 </r>
       <r>     9.4280    21.2092   321.9263 </r>
       <r>     9.4943    15.8929   322.9800 </r>
       <r>     9.5606     8.1506   323.5204 </r>
       <r>     9.6269     2.0584   323.6569 </r>
       <r>     9.6932    -0.4906   323.6243 </r>
       <r>     9.7595    -0.2922   323.6050 </r>
       <r>     9.8258     0.9190   323.6659 </r>
       <r>     9.8921     1.8086   323.7858 </r>
       <r>     9.9584     1.8297   323.9071 </r>
       <r>    10.0247     1.1856   323.9857 </r>
       <r>    10.0910     0.4466   324.0153 </r>
       <r>    10.1573     0.0094   324.0159 </r>
       <r>    10.2236    -0.1097   324.0087 </r>
       <r>    10.2899    -0.0812   324.0033 </r>
       <r>    10.3562    -0.0355   324.0009 </r>
       <r>    10.4225    -0.0110   324.0002 </r>
       <r>    10.4888    -0.0025   324.0000 </r>
       <r>    10.5551    -0.0005   324.0000 </r>
       <r>    10.6214    -0.0001   324.0000 </r>
       <r>    10.6877    -0.0000   324.0000 </r>
       <r>    10.7540    -0.0000   324.0000 </r>
       <r>    10.8203    -0.0000   324.0000 </r>
       <r>    10.8866    -0.0000   324.0000 </r>
       <r>    10.9529    -0.0000   324.0000 </r>
       <r>    11.0192    -0.0000   324.0000 </r>
       <r>    11.0855    -0.0000   324.0000 </r>
       <r>    11.1518    -0.0000   324.0000 </r>
       <r>    11.2181     0.0000   324.0000 </r>
       <r>    11.2844     0.0000   324.0000 </r>
       <r>    11.3507     0.0000   324.0000 </r>
       <r>    11.4170     0.0000   324.0000 </r>
       <r>    11.4833     0.0000   324.0000 </r>
       <r>    11.5496     0.0000   324.0000 </r>
       <r>    11.6159     0.0000   324.0000 </r>
       <r>    11.6822     0.0000   324.0000 </r>
       <r>    11.7485     0.0000   324.0000 </r>
       <r>    11.8148     0.0000   324.0000 </r>
       <r>    11.8811     0.0000   324.0000 </r>
      </set>
     </set>
    </array>
   </total>
  </dos>
 </calculation>
 <structure name="finalpos" >
  <crystal>
   <varray name="basis" >
    <v>      10.69206958       0.02659700       0.00000000 </v>
    <v>       0.02659700      10.63887557       0.00000000 </v>
    <v>       0.00000000       0.00000000      10.63887557 </v>
   </varray>
   <i name="volume">   1210.18156959 </i>
   <varray name="rec_basis" >
    <v>       0.09352784      -0.00023382       0.00000000 </v>
    <v>      -0.00023382       0.09399548       0.00000000 </v>
    <v>       0.00000000       0.00000000       0.09399490 </v>
   </varray>
  </crystal>
  <varray name="positions" >
   <v>       0.00000000       0.00000000       0.00019857 </v>
   <v>       0.00000000       0.00000000       0.50019857 </v>
   <v>       0.00000000       0.50000000       0.00019857 </v>
   <v>       0.00000000       0.50000000       0.50019857 </v>
   <v>       0.50000000       0.00000000       0.00019857 </v>
   <v>       0.50000000       0.00000000       0.50019857 </v>
   <v>       0.50000000       0.50000000       0.00019857 </v>
   <v>       0.50000000       0.50000000       0.50019857 </v>
   <v>       0.37500000       0.37500000       0.12480143 </v>
   <v>       0.37500000       0.37500000       0.62480143 </v>
   <v>       0.37500000       0.87500000       0.12480143 </v>
   <v>       0.37500000       0.87500000       0.62480143 </v>
   <v>       0.87500000       0.37500000       0.12480143 </v>
   <v>       0.87500000       0.37500000       0.62480143 </v>
   <v>       0.87500000       0.87500000       0.12480143 </v>
   <v>       0.87500000       0.87500000       0.62480143 </v>
   <v>       0.00000000       0.25000000       0.25019857 </v>
   <v>       0.00000000       0.25000000       0.75019857 </v>
   <v>       0.00000000       0.75000000       0.25019857 </v>
   <v>       0.00000000       0.75000000       0.75019857 </v>
   <v>       0.50000000       0.25000000       0.25019857 </v>
   <v>       0.50000000       0.25000000       0.75019857 </v>
   <v>       0.50000000       0.75000000       0.25019857 </v>
   <v>       0.50000000       0.75000000       0.75019857 </v>
   <v>       0.37500000       0.12500000       0.37480143 </v>
   <v>       0.37500000       0.12500000       0.87480143 </v>
   <v>       0.37500000       0.62500000       0.37480143 </v>
   <v>       0.37500000       0.62500000       0.87480143 </v>
   <v>       0.87500000       0.12500000       0.37480143 </v>
   <v>       0.87500000       0.12500000       0.87480143 </v>
   <v>       0.87500000       0.62500000       0.37480143 </v>
   <v>       0.87500000       0.62500000       0.87480143 </v>
   <v>       0.25000000       0.00000000       0.25019857 </v>
   <v>       0.25000000       0.00000000       0.75019857 </v>
   <v>       0.25000000       0.50000000       0.25019857 </v>
   <v>       0.25000000       0.50000000       0.75019857 </v>
   <v>       0.75000000       0.00000000       0.25019857 </v>
   <v>       0.75000000       0.00000000       0.75019857 </v>
   <v>       0.75000000       0.50000000       0.25019857 </v>
   <v>       0.75000000       0.50000000       0.75019857 </v>
   <v>       0.12500000       0.37500000       0.37480143 </v>
   <v>       0.12500000       0.37500000       0.87480143 </v>
   <v>       0.12500000       0.87500000       0.37480143 </v>
   <v>       0.12500000       0.87500000       0.87480143 </v>
   <v>       0.62500000       0.37500000       0.37480143 </v>
   <v>       0.62500000       0.37500000       0.87480143 </v>
   <v>       0.62500000       0.87500000       0.37480143 </v>
   <v>       0.62500000       0.87500000       0.87480143 </v>
   <v>       0.25000000       0.25000000       0.00019857 </v>
   <v>       0.25000000       0.25000000       0.50019857 </v>
   <v>       0.25000000       0.75000000       0.00019857 </v>
   <v>       0.25000000       0.75000000       0.50019857 </v>
   <v>       0.75000000       0.25000000       0.00019857 </v>
   <v>       0.75000000       0.25000000       0.50019857 </v>
   <v>       0.75000000       0.75000000       0.00019857 </v>
   <v>       0.75000000       0.75000000       0.50019857 </v>
   <v>       0.12500000       0.12500000       0.12480143 </v>
   <v>       0.12500000       0.12500000       0.62480143 </v>
   <v>       0.12500000       0.62500000       0.12480143 </v>
   <v>       0.12500000       0.62500000       0.62480143 </v>
   <v>       0.62500000       0.12500000       0.12480143 </v>
   <v>       0.62500000       0.12500000       0.62480143 </v>
   <v>       0.62500000       0.62500000       0.12480143 </v>
   <v>       0.62500000       0.62500000       0.62480143 </v>
  </varray>
 </structure>
</modeling>
