       N       E                     dE             d eps       ncg     rms          rms(c)
DAV:   1     0.566847224331E+03    0.56685E+03   -0.84427E+04  2592   0.106E+03
DAV:   2    -0.309911722378E+03   -0.87676E+03   -0.83098E+03  3112   0.174E+02
DAV:   3    -0.372986324663E+03   -0.63075E+02   -0.61713E+02  3144   0.411E+01
DAV:   4    -0.374610797323E+03   -0.16245E+01   -0.16125E+01  3152   0.798E+00
DAV:   5    -0.374658719906E+03   -0.47923E-01   -0.47799E-01  3102   0.129E+00    0.297E+01
RMM:   6    -0.368996247062E+03    0.56625E+01   -0.29349E+00  2592   0.268E+00    0.179E+01
RMM:   7    -0.366498400218E+03    0.24978E+01   -0.74488E+00  2644   0.428E+00    0.109E+00
RMM:   8    -0.366535902504E+03   -0.37502E-01   -0.70786E-01  2621   0.163E+00    0.528E-01
RMM:   9    -0.366557665136E+03   -0.21763E-01   -0.20808E-01  2659   0.803E-01    0.600E-01
RMM:  10    -0.366562004531E+03   -0.43394E-02   -0.38796E-02  2748   0.382E-01    0.830E-01
RMM:  11    -0.366558046165E+03    0.39584E-02   -0.13442E-02  2592   0.231E-01    0.603E-01
RMM:  12    -0.366558222817E+03   -0.17665E-03   -0.19073E-03  2615   0.103E-01    0.585E-01
RMM:  13    -0.366558294114E+03   -0.71297E-04   -0.36735E-04  2747   0.422E-02    0.674E-01
RMM:  14    -0.366558293094E+03    0.10203E-05   -0.99066E-05  2602   0.246E-02    0.254E-01
RMM:  15    -0.366558352935E+03   -0.59841E-04   -0.37881E-05  2629   0.130E-02    0.224E-01
RMM:  16    -0.366558396046E+03   -0.43112E-04   -0.28502E-05  2592   0.116E-02    0.148E-01
RMM:  17    -0.366558401142E+03   -0.50959E-05   -0.74540E-06  2507   0.652E-03    0.442E-02
RMM:  18    -0.366558404791E+03   -0.36483E-05   -0.26481E-06  1672   0.363E-03    0.104E-02
RMM:  19    -0.366558405433E+03   -0.64296E-06   -0.12625E-06  1570   0.239E-03
   1 F= -.36655841E+03 E0= -.36656621E+03  d E =-.366558E+03
       N       E                     dE             d eps       ncg     rms          rms(c)
DAV:   1    -0.366600855633E+03   -0.42451E-01   -0.23069E+00  2936   0.292E+00    0.680E-01
RMM:   2    -0.366612036701E+03   -0.11181E-01   -0.11606E-01  2592   0.722E-01    0.277E-01
RMM:   3    -0.366613503584E+03   -0.14669E-02   -0.18034E-02  2635   0.321E-01    0.118E-01
RMM:   4    -0.366613480966E+03    0.22618E-04   -0.25079E-03  2650   0.134E-01    0.446E-02
RMM:   5    -0.366613499878E+03   -0.18913E-04   -0.44996E-04  2675   0.529E-02    0.886E-03
RMM:   6    -0.366613510702E+03   -0.10823E-04   -0.10952E-04  2811   0.235E-02    0.220E-03
RMM:   7    -0.366613511984E+03   -0.12826E-05   -0.13459E-05  2301   0.821E-03    0.213E-03
RMM:   8    -0.366613512150E+03   -0.16536E-06   -0.24982E-06  1749   0.348E-03
   2 F= -.36661351E+03 E0= -.36661747E+03  d E =-.551067E-01
       N       E                     dE             d eps       ncg     rms          rms(c)
DAV:   1    -0.366621460430E+03   -0.79484E-02   -0.17161E-01  2920   0.794E-01    0.186E-01
RMM:   2    -0.366622273461E+03   -0.81303E-03   -0.84083E-03  2592   0.196E-01    0.765E-02
RMM:   3    -0.366622371853E+03   -0.98392E-04   -0.12711E-03  2637   0.866E-02    0.312E-02
RMM:   4    -0.366622370061E+03    0.17921E-05   -0.17653E-04  2645   0.360E-02    0.119E-02
RMM:   5    -0.366622371403E+03   -0.13425E-05   -0.31313E-05  2666   0.140E-02    0.230E-03
RMM:   6    -0.366622372054E+03   -0.65067E-06   -0.73626E-06  2102   0.628E-03    0.540E-04
RMM:   7    -0.366622372152E+03   -0.97435E-07   -0.10572E-06  1584   0.235E-03    0.666E-04
RMM:   8    -0.366622372197E+03   -0.45687E-07   -0.22411E-07  1322   0.108E-03
   3 F= -.36662237E+03 E0= -.36662753E+03  d E =-.639668E-01
