       N       E                     dE             d eps       ncg     rms          rms(c)
DAV:   1     0.569789700926E+03    0.56979E+03   -0.84694E+04  2592   0.107E+03
DAV:   2    -0.309793307735E+03   -0.87958E+03   -0.83397E+03  3088   0.174E+02
DAV:   3    -0.373211831884E+03   -0.63419E+02   -0.62192E+02  3128   0.411E+01
DAV:   4    -0.374860205361E+03   -0.16484E+01   -0.16356E+01  3112   0.801E+00
DAV:   5    -0.374912948368E+03   -0.52743E-01   -0.52604E-01  3060   0.135E+00    0.296E+01
RMM:   6    -0.369326619128E+03    0.55863E+01   -0.28682E+00  2592   0.266E+00    0.178E+01
RMM:   7    -0.366836015432E+03    0.24906E+01   -0.72925E+00  2649   0.424E+00    0.106E+00
RMM:   8    -0.366875700851E+03   -0.39685E-01   -0.68486E-01  2618   0.161E+00    0.514E-01
RMM:   9    -0.366897197335E+03   -0.21496E-01   -0.20096E-01  2675   0.786E-01    0.588E-01
RMM:  10    -0.366900734323E+03   -0.35370E-02   -0.34101E-02  2739   0.366E-01    0.740E-01
RMM:  11    -0.366897459104E+03    0.32752E-02   -0.11572E-02  2592   0.219E-01    0.757E-01
RMM:  12    -0.366897502114E+03   -0.43010E-04   -0.17871E-03  2609   0.100E-01    0.801E-01
RMM:  13    -0.366897550416E+03   -0.48302E-04   -0.34214E-04  2752   0.413E-02    0.834E-01
RMM:  14    -0.366897321915E+03    0.22850E-03   -0.12187E-04  2592   0.266E-02    0.719E-01
RMM:  15    -0.366897521377E+03   -0.19946E-03   -0.94438E-05  2600   0.173E-02    0.657E-01
RMM:  16    -0.366897706987E+03   -0.18561E-03   -0.38924E-05  2592   0.145E-02    0.517E-01
RMM:  17    -0.366897819312E+03   -0.11233E-03   -0.35753E-05  2592   0.142E-02    0.314E-01
RMM:  18    -0.366897864200E+03   -0.44888E-04   -0.15309E-05  2592   0.968E-03    0.152E-01
RMM:  19    -0.366897883132E+03   -0.18932E-04   -0.82640E-06  2584   0.695E-03    0.430E-02
RMM:  20    -0.366897888431E+03   -0.52990E-05   -0.36217E-06  1990   0.448E-03    0.162E-02
RMM:  21    -0.366897889466E+03   -0.10345E-05   -0.92956E-07  1564   0.208E-03    0.193E-02
RMM:  22    -0.366897889980E+03   -0.51406E-06   -0.21191E-07  1290   0.880E-04
   1 F= -.36689789E+03 E0= -.36690862E+03  d E =-.366898E+03
       N       E                     dE             d eps       ncg     rms          rms(c)
DAV:   1    -0.366900304480E+03   -0.24150E-02   -0.14151E-01  2968   0.722E-01    0.168E-01
RMM:   2    -0.366901006287E+03   -0.70181E-03   -0.72922E-03  2592   0.180E-01    0.673E-02
RMM:   3    -0.366901112807E+03   -0.10652E-03   -0.11706E-03  2646   0.806E-02    0.284E-02
RMM:   4    -0.366901111987E+03    0.81989E-06   -0.15574E-04  2651   0.333E-02    0.995E-03
RMM:   5    -0.366901113128E+03   -0.11404E-05   -0.27249E-05  2639   0.133E-02    0.219E-03
RMM:   6    -0.366901113786E+03   -0.65821E-06   -0.65579E-06  2128   0.589E-03    0.421E-04
RMM:   7    -0.366901113868E+03   -0.81896E-07   -0.86036E-07  1551   0.216E-03    0.480E-04
RMM:   8    -0.366901113886E+03   -0.18575E-07   -0.21310E-07  1328   0.103E-03
   2 F= -.36690111E+03 E0= -.36691170E+03  d E =-.322391E-02
       N       E                     dE             d eps       ncg     rms          rms(c)
DAV:   1    -0.366901678438E+03   -0.56457E-03   -0.11841E-02  2960   0.209E-01    0.483E-02
RMM:   2    -0.366901736253E+03   -0.57815E-04   -0.59806E-04  2592   0.518E-02    0.195E-02
RMM:   3    -0.366901744862E+03   -0.86090E-05   -0.93730E-05  2641   0.231E-02    0.815E-03
RMM:   4    -0.366901744858E+03    0.41027E-08   -0.12473E-05  2608   0.956E-03    0.287E-03
RMM:   5    -0.366901744963E+03   -0.10558E-06   -0.22213E-06  1683   0.381E-03    0.691E-04
RMM:   6    -0.366901745005E+03   -0.41390E-07   -0.45499E-07  1496   0.159E-03    0.157E-04
RMM:   7    -0.366901745014E+03   -0.97170E-08   -0.11033E-07  1029   0.800E-04    0.155E-04
RMM:   8    -0.366901745018E+03   -0.33815E-08   -0.20536E-08   636   0.511E-04
   3 F= -.36690175E+03 E0= -.36691240E+03  d E =-.385504E-02
