 vasp.6.4.3 19Mar24 (build Oct 21 2024 22:36:34) complex                        
  
 executed on             LinuxIFC date 2024.11.01  22:53:08
 running   96 mpi-ranks, on    1 nodes
 distrk:  each k-point on   24 cores,    4 groups
 distr:  one band on NCORE=  12 cores,    2 groups


--------------------------------------------------------------------------------------------------------


 INCAR:
   SYSTEM = Si64
   ISTART = 0
   ICHARG = 2
   LREAL = Auto
   PREC = Accurate
   LWAVE = .False.
   LCHARG = .False.
   ADDGRID = .True.
   ENCUT = 400
   GGA = PS
   GGA_COMPAT = .FALSE.
   ISMEAR = 1
   SIGMA = 0.2
   NELM = 60
   NELMIN = 8
   EDIFF = 1e-06
   EDIFFG = -0.01
   NSW = 60
   IBRION = 2
   ISIF = 2
   KPAR = 4
   NPAR = 2
   ALGO = Fast

 POTCAR:    PAW_PBE Si 05Jan2001                  
 POTCAR:    PAW_PBE Si 05Jan2001                  
   VRHFIN =Si: s2p2                                                                                 
   LEXCH  = PE                                                                                      
   EATOM  =   103.0669 eV,    7.5752 Ry                                                             
                                                                                                    
   TITEL  = PAW_PBE Si 05Jan2001                                                                    
   LULTRA =        F    use ultrasoft PP ?                                                          
   IUNSCR =        1    unscreen: 0-lin 1-nonlin 2-no                                               
   RPACOR =    1.500    partial core radius                                                         
   POMASS =   28.085; ZVAL   =    4.000    mass and valenz                                          
   RCORE  =    1.900    outmost cutoff radius                                                       
   RWIGS  =    2.480; RWIGS  =    1.312    wigner-seitz radius (au A)                               
   ENMAX  =  245.345; ENMIN  =  184.009 eV                                                          
   ICORE  =        2    local potential                                                             
   LCOR   =        T    correct aug charges                                                         
   LPAW   =        T    paw PP                                                                      
   EAUG   =  322.069                                                                                
   DEXC   =    0.000                                                                                
   RMAX   =    1.950    core radius for proj-oper                                                   
   RAUG   =    1.300    factor for augmentation sphere                                              
   RDEP   =    1.993    radius for radial grids                                                     
   RDEPT  =    1.837    core radius for aug-charge                                                  
                                                                                                    
   Atomic configuration                                                                             
    6 entries                                                                                       
     n  l   j            E        occ.                                                              
     1  0  0.50     -1785.8828   2.0000                                                             
     2  0  0.50      -139.4969   2.0000                                                             
     2  1  1.50       -95.5546   6.0000                                                             
     3  0  0.50       -10.8127   2.0000                                                             
     3  1  0.50        -4.0811   2.0000                                                             
     3  2  1.50        -4.0817   0.0000                                                             
   Description                                                                                      
     l       E           TYP  RCUT    TYP  RCUT                                                     
     0    -10.8127223     23  1.900                                                                 
     0     -7.6451159     23  1.900                                                                 
     1     -4.0811372     23  1.900                                                                 
     1      2.4879257     23  1.900                                                                 
     2     -4.0817478      7  1.900                                                                 
  local pseudopotential read in
  partial core-charges read in
  partial kinetic energy density read in
  atomic valenz-charges read in
  non local Contribution for L=           0  read in
    real space projection operators read in
  non local Contribution for L=           0  read in
    real space projection operators read in
  non local Contribution for L=           1  read in
    real space projection operators read in
  non local Contribution for L=           1  read in
    real space projection operators read in
    PAW grid and wavefunctions read in
 
   number of l-projection  operators is LMAX  =           4
   number of lm-projection operators is LMMAX =           8
 
 Optimization of the real space projectors (new method)

 maximal supplied QI-value         = 19.84
 optimisation between [QCUT,QGAM] = [ 10.12, 20.44] = [ 28.68,116.96] Ry 
 Optimized for a Real-space Cutoff    1.38 Angstroem

   l    n(q)    QCUT    max X(q) W(low)/X(q) W(high)/X(q)  e(spline) 
   0      8    10.119   159.560    0.58E-04    0.11E-03    0.54E-07
   0      8    10.119   115.863    0.56E-04    0.11E-03    0.54E-07
   1      8    10.119    88.339    0.22E-03    0.17E-03    0.19E-06
   1      8    10.119    48.592    0.22E-03    0.17E-03    0.18E-06
 -----------------------------------------------------------------------------
|                                                                             |
|               ----> ADVICE to this user running VASP <----                  |
|                                                                             |
|     You enforced a specific xc type in the INCAR file but a different       |
|     type was found in the POTCAR file.                                      |
|     I HOPE YOU KNOW WHAT YOU ARE DOING!                                     |
|                                                                             |
 -----------------------------------------------------------------------------

  PAW_PBE Si 05Jan2001                  :
 energy of atom  1       EATOM= -103.0669
 kinetic energy error for atom=    0.0012 (will be added to EATOM!!)
 
 
 POSCAR: Si8
  positions in direct lattice
  velocities in cartesian coordinates


 exchange-correlation table for PS
   RHO(1)=    0.500       N(1)  =     2000
   RHO(2)=  100.500       N(2)  =     4000
 


--------------------------------------------------------------------------------------------------------


 ion  position               nearest neighbor table
   1  0.000  0.000  0.000-  30 2.32  44 2.32  15 2.32  57 2.32
   2  0.000  0.000  0.500-  29 2.32  43 2.32  16 2.32  58 2.32
   3  0.000  0.500  0.000-  32 2.32  42 2.32  13 2.32  59 2.32
   4  0.000  0.500  0.500-  31 2.32  41 2.32  14 2.32  60 2.32
   5  0.500  0.000  0.000-  26 2.32  48 2.32  11 2.32  61 2.32
   6  0.500  0.000  0.500-  25 2.32  47 2.32  12 2.32  62 2.32
   7  0.500  0.500  0.000-  28 2.32  46 2.32   9 2.32  63 2.32
   8  0.500  0.500  0.500-  27 2.32  45 2.32  10 2.32  64 2.32
   9  0.375  0.375  0.125-  21 2.32  35 2.32   7 2.32  49 2.32
  10  0.375  0.375  0.625-  22 2.32  36 2.32   8 2.32  50 2.32
  11  0.375  0.875  0.125-  23 2.32  33 2.32   5 2.32  51 2.32
  12  0.375  0.875  0.625-  24 2.32  34 2.32   6 2.32  52 2.32
  13  0.875  0.375  0.125-  17 2.32  39 2.32   3 2.32  53 2.32
  14  0.875  0.375  0.625-  18 2.32  40 2.32   4 2.32  54 2.32
  15  0.875  0.875  0.125-  19 2.32  37 2.32   1 2.32  55 2.32
  16  0.875  0.875  0.625-  20 2.32  38 2.32   2 2.32  56 2.32
  17  0.000  0.250  0.250-  13 2.32  57 2.32  41 2.32  29 2.32
  18  0.000  0.250  0.750-  14 2.32  58 2.32  42 2.32  30 2.32
  19  0.000  0.750  0.250-  15 2.32  59 2.32  43 2.32  31 2.32
  20  0.000  0.750  0.750-  16 2.32  60 2.32  44 2.32  32 2.32
  21  0.500  0.250  0.250-   9 2.32  61 2.32  45 2.32  25 2.32
  22  0.500  0.250  0.750-  10 2.32  62 2.32  46 2.32  26 2.32
  23  0.500  0.750  0.250-  11 2.32  63 2.32  47 2.32  27 2.32
  24  0.500  0.750  0.750-  12 2.32  64 2.32  48 2.32  28 2.32
  25  0.375  0.125  0.375-   6 2.32  50 2.32  33 2.32  21 2.32
  26  0.375  0.125  0.875-   5 2.32  49 2.32  34 2.32  22 2.32
  27  0.375  0.625  0.375-   8 2.32  52 2.32  35 2.32  23 2.32
  28  0.375  0.625  0.875-   7 2.32  51 2.32  36 2.32  24 2.32
  29  0.875  0.125  0.375-   2 2.32  54 2.32  37 2.32  17 2.32
  30  0.875  0.125  0.875-   1 2.32  53 2.32  38 2.32  18 2.32
  31  0.875  0.625  0.375-   4 2.32  56 2.32  39 2.32  19 2.32
  32  0.875  0.625  0.875-   3 2.32  55 2.32  40 2.32  20 2.32
  33  0.250  0.000  0.250-  11 2.32  57 2.32  43 2.32  25 2.32
  34  0.250  0.000  0.750-  12 2.32  58 2.32  44 2.32  26 2.32
  35  0.250  0.500  0.250-   9 2.32  59 2.32  41 2.32  27 2.32
  36  0.250  0.500  0.750-  10 2.32  60 2.32  42 2.32  28 2.32
  37  0.750  0.000  0.250-  15 2.32  61 2.32  47 2.32  29 2.32
  38  0.750  0.000  0.750-  16 2.32  62 2.32  48 2.32  30 2.32
  39  0.750  0.500  0.250-  13 2.32  63 2.32  45 2.32  31 2.32
  40  0.750  0.500  0.750-  14 2.32  64 2.32  46 2.32  32 2.32
  41  0.125  0.375  0.375-   4 2.32  50 2.32  35 2.32  17 2.32
  42  0.125  0.375  0.875-   3 2.32  49 2.32  36 2.32  18 2.32
  43  0.125  0.875  0.375-   2 2.32  52 2.32  33 2.32  19 2.32
  44  0.125  0.875  0.875-   1 2.32  51 2.32  34 2.32  20 2.32
  45  0.625  0.375  0.375-   8 2.32  54 2.32  39 2.32  21 2.32
  46  0.625  0.375  0.875-   7 2.32  53 2.32  40 2.32  22 2.32
  47  0.625  0.875  0.375-   6 2.32  56 2.32  37 2.32  23 2.32
  48  0.625  0.875  0.875-   5 2.32  55 2.32  38 2.32  24 2.32
  49  0.250  0.250  0.000-  26 2.32  42 2.32   9 2.32  57 2.32
  50  0.250  0.250  0.500-  25 2.32  41 2.32  10 2.32  58 2.32
  51  0.250  0.750  0.000-  28 2.32  44 2.32  11 2.32  59 2.32
  52  0.250  0.750  0.500-  27 2.32  43 2.32  12 2.32  60 2.32
  53  0.750  0.250  0.000-  30 2.32  46 2.32  13 2.32  61 2.32
  54  0.750  0.250  0.500-  29 2.32  45 2.32  14 2.32  62 2.32
  55  0.750  0.750  0.000-  32 2.32  48 2.32  15 2.32  63 2.32
  56  0.750  0.750  0.500-  31 2.32  47 2.32  16 2.32  64 2.32
  57  0.125  0.125  0.125-  17 2.32  33 2.32   1 2.32  49 2.32
  58  0.125  0.125  0.625-  18 2.32  34 2.32   2 2.32  50 2.32
  59  0.125  0.625  0.125-  19 2.32  35 2.32   3 2.32  51 2.32
  60  0.125  0.625  0.625-  20 2.32  36 2.32   4 2.32  52 2.32
  61  0.625  0.125  0.125-  21 2.32  37 2.32   5 2.32  53 2.32
  62  0.625  0.125  0.625-  22 2.32  38 2.32   6 2.32  54 2.32
  63  0.625  0.625  0.125-  23 2.32  39 2.32   7 2.32  55 2.32
  64  0.625  0.625  0.625-  24 2.32  40 2.32   8 2.32  56 2.32
 
  LATTYP: Found a simple monoclinic cell.
 ALAT       =    10.7004540189
 B/A-ratio  =     0.9999968750
 C/A-ratio  =     1.0049999599
 COS(beta)  =    -0.0049875223
  
  Lattice vectors:
  
 A1 = (   0.0267510040,  10.7004205802,   0.0000000000)
 A2 = (   0.0000000000,   0.0000000000, -10.7004205802)
 A3 = ( -10.7539225881,  -0.0267510040,   0.0000000000)


Analysis of symmetry for initial positions (statically):
=====================================================================
 Subroutine PRICEL returns following result:
 
  LATTYP: Found a base centered monoclinic cell.
 ALAT       =     5.3502270094
 B/A-ratio  =     0.9999968750
 C/A-ratio  =     0.7071067812
 COS(beta)  =    -0.7035624369
  
  Lattice vectors:
  
 A1 = (   0.0066877510,   2.6751051451,  -2.6751051451)
 A2 = (   0.0066877510,   2.6751051451,   2.6751051451)
 A3 = (   2.6817928960,  -2.6684173941,   0.0000000000)
 
  32 primitive cells build up your supercell.
 

 Routine SETGRP: Setting up the symmetry group for a 
 simple monoclinic supercell.


 Subroutine GETGRP returns: Found  4 space group operations
 (whereof  2 operations were pure point group operations)
 out of a pool of  4 trial point group operations.


The static configuration has the point symmetry C_2 .
 The point group associated with its full space group is C_2h.


Analysis of symmetry for dynamics (positions and initial velocities):
=====================================================================
 Subroutine PRICEL returns following result:
 
  LATTYP: Found a base centered monoclinic cell.
 ALAT       =     5.3502270094
 B/A-ratio  =     0.9999968750
 C/A-ratio  =     0.7071067812
 COS(beta)  =    -0.7035624369
  
  Lattice vectors:
  
 A1 = (   0.0066877510,   2.6751051451,  -2.6751051451)
 A2 = (   0.0066877510,   2.6751051451,   2.6751051451)
 A3 = (   2.6817928960,  -2.6684173941,   0.0000000000)
 
  32 primitive cells build up your supercell.
 

 Routine SETGRP: Setting up the symmetry group for a 
 simple monoclinic supercell.


 Subroutine GETGRP returns: Found  4 space group operations
 (whereof  2 operations were pure point group operations)
 out of a pool of  4 trial point group operations.


The dynamic configuration has the point symmetry C_2 .
 The point group associated with its full space group is C_2h.


 Subroutine INISYM returns: Found  4 space group operations
 (whereof  2 operations are pure point group operations),
 and found    32 'primitive' translations


----------------------------------------------------------------------------------------

                                     Primitive cell                                     

  volume of cell :      38.4783

  direct lattice vectors                    reciprocal lattice vectors
     0.006687751  2.675105145 -2.675105145     0.185514857  0.186444755 -0.186908541
     0.006687751  2.675105145  2.675105145     0.185514857  0.186444755  0.186908541
     2.681792896 -2.668417394  0.000000000     0.371959612 -0.000929897 -0.000000000

  length of vectors
     3.783175888  3.783175888  3.783181799     0.322664240  0.322664240  0.371960775

  position of ions in fractional coordinates (direct lattice)
     0.000000000  0.000000000  0.000000000
     0.250000000  0.750000000  0.500000000

  ion indices of the primitive-cell ions
   primitive index   ion index
                 1           1
                 2          15

----------------------------------------------------------------------------------------

 
 
 KPOINTS: Automatic mesh                          

Automatic generation of k-mesh.
 Grid dimensions read from file:
 generate k-points for:    2    2    2

 Generating k-lattice:

  Cartesian coordinates                     Fractional coordinates (reciprocal lattice)
     0.046494952 -0.000116237  0.000000000     0.500000000  0.000000000  0.000000000
    -0.000116237  0.046727426  0.000000000     0.000000000  0.500000000  0.000000000
     0.000000000  0.000000000  0.046727135     0.000000000  0.000000000  0.500000000

  Length of vectors
     0.046495097  0.046727570  0.046727135

  Shift w.r.t. Gamma in fractional coordinates (k-lattice)
     0.000000000  0.000000000  0.000000000

 
 Subroutine IBZKPT returns following result:
 ===========================================
 
 Found      8 irreducible k-points:
 
 Following reciprocal coordinates:
            Coordinates               Weight
  0.000000  0.000000  0.000000      1.000000
  0.500000  0.000000  0.000000      1.000000
 -0.000000  0.500000  0.000000      1.000000
  0.500000  0.500000  0.000000      1.000000
  0.000000  0.000000  0.500000      1.000000
  0.500000  0.000000  0.500000      1.000000
 -0.000000  0.500000  0.500000      1.000000
  0.500000  0.500000  0.500000      1.000000
 
 Following cartesian coordinates:
            Coordinates               Weight
  0.000000  0.000000  0.000000      1.000000
  0.046495 -0.000116  0.000000      1.000000
 -0.000116  0.046727  0.000000      1.000000
  0.046379  0.046611  0.000000      1.000000
  0.000000  0.000000  0.046727      1.000000
  0.046495 -0.000116  0.046727      1.000000
 -0.000116  0.046727  0.046727      1.000000
  0.046379  0.046611  0.046727      1.000000
 


--------------------------------------------------------------------------------------------------------




 Dimension of arrays:
   k-points           NKPTS =      8   k-points in BZ     NKDIM =      8   number of bands    NBANDS=    162
   number of dos      NEDOS =    301   number of ions     NIONS =     64
   non local maximal  LDIM  =      4   non local SUM 2l+1 LMDIM =      8
   total plane-waves  NPLWV = 343000
   max r-space proj   IRMAX =   3120   max aug-charges    IRDMAX=  74701
   dimension x,y,z NGX =    70 NGY =   70 NGZ =   70
   dimension x,y,z NGXF=   140 NGYF=  140 NGZF=  140
   support grid    NGXF=   280 NGYF=  280 NGZF=  280
   ions per type =              64
   NGX,Y,Z   is equivalent  to a cutoff of  10.82, 10.88, 10.88 a.u.
   NGXF,Y,Z  is equivalent  to a cutoff of  21.64, 21.75, 21.75 a.u.

 SYSTEM =  Si64                                    
 POSCAR =  Si8                                     

 Startparameter for this run:
   NWRITE =      2    write-flag & timer
   PREC   = accura    normal or accurate (medium, high low for compatibility)
   ISTART =      0    job   : 0-new  1-cont  2-samecut
   ICHARG =      2    charge: 1-file 2-atom 10-const
   ISPIN  =      1    spin polarized calculation?
   LNONCOLLINEAR =      F non collinear calculations
   LSORBIT =      F    spin-orbit coupling
   INIWAV =      1    electr: 0-lowe 1-rand  2-diag
   LASPH  =      F    aspherical Exc in radial PAW
 Electronic Relaxation 1
   ENCUT  =  400.0 eV  29.40 Ry    5.42 a.u.  17.54 17.45 17.45*2*pi/ulx,y,z
   ENINI  =  400.0     initial cutoff
   ENAUG  =  322.1 eV  augmentation charge cutoff
   NELM   =     60;   NELMIN=  8; NELMDL= -5     # of ELM steps 
   EDIFF  = 0.1E-05   stopping-criterion for ELM
   LREAL  =      T    real-space projection
   NLSPLINE    = F    spline interpolate recip. space projectors
   LCOMPAT=      F    compatible to vasp.4.4
   GGA_COMPAT  = F    GGA compatible to vasp.4.4-vasp.4.6
   LMAXPAW     = -100 max onsite density
   LMAXMIX     =    2 max onsite mixed and CHGCAR
   VOSKOWN=      0    Vosko Wilk Nusair interpolation
   ROPT   =   -0.00025
 Ionic relaxation
   EDIFFG = -.1E-01   stopping-criterion for IOM
   NSW    =     60    number of steps for IOM
   NBLOCK =      1;   KBLOCK =     60    inner block; outer block 
   IBRION =      2    ionic relax: 0-MD 1-quasi-New 2-CG
   NFREE  =      1    steps in history (QN), initial steepest desc. (CG)
   ISIF   =      2    stress and relaxation
   IWAVPR =     11    prediction:  0-non 1-charg 2-wave 3-comb
   ISYM   =      2    0-nonsym 1-usesym 2-fastsym
   LCORR  =      T    Harris-Foulkes like correction to forces

   POTIM  = 0.5000    time-step for ionic-motion
   TEIN   =    0.0    initial temperature
   TEBEG  =    0.0;   TEEND  =   0.0 temperature during run
   SMASS  =  -3.00    Nose mass-parameter (am)
   estimated Nose-frequenzy (Omega)   =  0.10E-29 period in steps = 0.13E+47 mass=  -0.264E-26a.u.
   SCALEE = 1.0000    scale energy and forces
   NPACO  =    256;   APACO  = 10.0  distance and # of slots for P.C.
   PSTRESS=    0.0 pullay stress

  Mass of Ions in am
   POMASS =  28.09
  Ionic Valenz
   ZVAL   =   4.00
  Atomic Wigner-Seitz radii
   RWIGS  =  -1.00
  virtual crystal weights 
   VCA    =   1.00
   NELECT =     256.0000    total number of electrons
   NUPDOWN=      -1.0000    fix difference up-down

 DOS related values:
   EMIN   =  10.00;   EMAX   =-10.00  energy-range for DOS
   EFERMI =   0.00;   METHOD = LEGACY      
   ISMEAR =     1;   SIGMA  =   0.20  broadening in eV -4-tet -1-fermi 0-gaus

 Electronic relaxation 2 (details)
   IALGO  =     68    algorithm
   LDIAG  =      T    sub-space diagonalisation (order eigenvalues)
   LSUBROT=      F    optimize rotation matrix (better conditioning)
   TURBO    =      0    0=normal 1=particle mesh
   IRESTART =      0    0=no restart 2=restart with 2 vectors
   NREBOOT  =      0    no. of reboots
   NMIN     =      0    reboot dimension
   EREF     =   0.00    reference energy to select bands
   IMIX   =      4    mixing-type and parameters
     AMIX     =   0.40;   BMIX     =  1.00
     AMIX_MAG =   1.60;   BMIX_MAG =  1.00
     AMIN     =   0.10
     WC   =   100.;   INIMIX=   1;  MIXPRE=   1;  MAXMIX= -45

 Intra band minimization:
   WEIMIN = 0.0010     energy-eigenvalue tresh-hold
   EBREAK =  0.15E-08  absolut break condition
   DEPER  =   0.30     relativ break condition  

   TIME   =   0.40     timestep for ELM

  volume/ion in A,a.u.               =      19.24       129.83
  Fermi-wavevector in a.u.,A,eV,Ry     =   0.969839  1.832729 12.797465  0.940587
  Thomas-Fermi vector in A             =   2.099924
 
 Write flags
   LWAVE        =      F    write WAVECAR
   LDOWNSAMPLE  =      F    k-point downsampling of WAVECAR
   LCHARG       =      F    write CHGCAR
   LVTOT        =      F    write LOCPOT, total local potential
   LVHAR        =      F    write LOCPOT, Hartree potential only
   WRT_POTENTIAL= false  ! write potential to hdf5 file
   LELF         =      F    write electronic localiz. function (ELF)
   LORBIT       =      0    0 simple, 1 ext, 2 COOP (PROOUT), +10 PAW based schemes


 Dipole corrections
   LMONO      =      F    monopole corrections only (constant potential shift)
   LDIPOL     =      F    correct potential (dipole corrections)
   IDIPOL     =      0    1-x, 2-y, 3-z, 4-all directions 
   EPSILON    =  1.0000000 bulk dielectric constant
   LVACPOTAV  =      F  vacuum potentials using an averaging scheme for the charge density
   VACPOTFLAT =  0.1000000 required flatness to determine vacuum potential
 Exchange correlation treatment:
   GGA     = PS    functional components
   XC_C    = 1    coefficients multiplying the functional components
   LIBXC   =     F    Libxc                    
   VOSKOWN =     0    Vosko Wilk Nusair interpolation
   LHFCALC =     F    Hartree Fock is set to
   LHFONE  =     F    Hartree Fock one center treatment
   AEXX    =    0.0000 exact exchange contribution

 Parameters of functionals:
   PS:
     No parameter
 
 Van der Waals corrections
   IVDW    =     0    specifies the selected vdW correction

 Linear response parameters
   LEPSILON=     F    determine dielectric tensor
   LRPA    =     F    only Hartree local field effects (RPA)
   LNABLA  =     F    use nabla operator in PAW spheres
   LVEL    =     F    velocity operator in full k-point grid
   CSHIFT  =0.1000    complex shift for real part using Kramers Kronig
   OMEGAMAX=  -1.0    maximum frequency
   DEG_THRESHOLD= 0.2000000E-02 threshold for treating states as degnerate
   RTIME   =   -0.100 relaxation time in fs
  (WPLASMAI=    0.000 imaginary part of plasma frequency in eV, 0.658/RTIME)
   DFIELD  = 0.0000000 0.0000000 0.0000000 field for delta impulse in time
 
  Optional k-point grid parameters
   LKPOINTS_OPT  =     F    use optional k-point grid
   KPOINTS_OPT_MODE=     1    mode for optional k-point grid
 
 Orbital magnetization related:
   ORBITALMAG=     F  switch on orbital magnetization
   LCHIMAG   =     F  perturbation theory with respect to B field
   DQ        =  0.001000  dq finite difference perturbation B field
   LLRAUG    =     F  two centre corrections for induced B field
   LBONE     =     F  B-component reconstruction in AE one-centre
   LVGVCALC  =     T  calculate vGv susceptibility
   LVGVAPPL  =     F  apply vGv susceptibility instead of pGv for G=0

 Random number generation:
   RANDOM_GENERATOR = DEFAULT
   PCG_SEED         = not used


--------------------------------------------------------------------------------------------------------


 conjugate gradient relaxation of ions
 charge density and potential will be updated during run
 non-spin polarized calculation
 RMM-DIIS sequential band-by-band and
  variant of blocked Davidson during initial phase
 perform sub-space diagonalisation
    before iterative eigenvector-optimisation
 modified Broyden-mixing scheme, WC =      100.0
 initial mixing is a Kerker type mixing with AMIX =  0.4000 and BMIX =      1.0000
 Hartree-type preconditioning will be used
 using additional bands           34
 real space projection scheme for non local part
 use partial core corrections
 calculate Harris-corrections to forces 
   (improved forces if not selfconsistent)
 use gradient corrections 
 use of overlap-Matrix (Vanderbilt PP)
 Methfessel and Paxton  Order N= 1 SIGMA  =   0.20


--------------------------------------------------------------------------------------------------------


  energy-cutoff  :      400.00
  volume of cell :     1231.31
      direct lattice vectors                 reciprocal lattice vectors
    10.753922588  0.026751004  0.000000000     0.092989903 -0.000232474  0.000000000
     0.026751004 10.700420580  0.000000000    -0.000232474  0.093454852  0.000000000
     0.000000000  0.000000000 10.700420580     0.000000000  0.000000000  0.093454271

  length of vectors
    10.753955860 10.700454019 10.700420580     0.092990194  0.093455141  0.093454271


 
 k-points in units of 2pi/SCALE and weight: Automatic mesh                          
   0.00000000  0.00000000  0.00000000       0.125
   0.04649496 -0.00011624  0.00000000       0.125
  -0.00011624  0.04672743  0.00000000       0.125
   0.04637872  0.04661120  0.00000000       0.125
   0.00000000  0.00000000  0.04672714       0.125
   0.04649496 -0.00011624  0.04672714       0.125
  -0.00011624  0.04672743  0.04672714       0.125
   0.04637872  0.04661120  0.04672714       0.125
 
 k-points in reciprocal lattice and weights: Automatic mesh                          
   0.00000000  0.00000000  0.00000000       0.125
   0.50000000  0.00000000  0.00000000       0.125
  -0.00000000  0.50000000  0.00000000       0.125
   0.50000000  0.50000000  0.00000000       0.125
   0.00000000  0.00000000  0.50000000       0.125
   0.50000000  0.00000000  0.50000000       0.125
  -0.00000000  0.50000000  0.50000000       0.125
   0.50000000  0.50000000  0.50000000       0.125
 
 position of ions in fractional coordinates (direct lattice) 
   0.00000000  0.00000000  0.00000000
   0.00000000  0.00000000  0.50000000
   0.00000000  0.50000000  0.00000000
   0.00000000  0.50000000  0.50000000
   0.50000000  0.00000000  0.00000000
   0.50000000  0.00000000  0.50000000
   0.50000000  0.50000000  0.00000000
   0.50000000  0.50000000  0.50000000
   0.37500000  0.37500000  0.12500000
   0.37500000  0.37500000  0.62500000
   0.37500000  0.87500000  0.12500000
   0.37500000  0.87500000  0.62500000
   0.87500000  0.37500000  0.12500000
   0.87500000  0.37500000  0.62500000
   0.87500000  0.87500000  0.12500000
   0.87500000  0.87500000  0.62500000
   0.00000000  0.25000000  0.25000000
   0.00000000  0.25000000  0.75000000
   0.00000000  0.75000000  0.25000000
   0.00000000  0.75000000  0.75000000
   0.50000000  0.25000000  0.25000000
   0.50000000  0.25000000  0.75000000
   0.50000000  0.75000000  0.25000000
   0.50000000  0.75000000  0.75000000
   0.37500000  0.12500000  0.37500000
   0.37500000  0.12500000  0.87500000
   0.37500000  0.62500000  0.37500000
   0.37500000  0.62500000  0.87500000
   0.87500000  0.12500000  0.37500000
   0.87500000  0.12500000  0.87500000
   0.87500000  0.62500000  0.37500000
   0.87500000  0.62500000  0.87500000
   0.25000000  0.00000000  0.25000000
   0.25000000  0.00000000  0.75000000
   0.25000000  0.50000000  0.25000000
   0.25000000  0.50000000  0.75000000
   0.75000000  0.00000000  0.25000000
   0.75000000  0.00000000  0.75000000
   0.75000000  0.50000000  0.25000000
   0.75000000  0.50000000  0.75000000
   0.12500000  0.37500000  0.37500000
   0.12500000  0.37500000  0.87500000
   0.12500000  0.87500000  0.37500000
   0.12500000  0.87500000  0.87500000
   0.62500000  0.37500000  0.37500000
   0.62500000  0.37500000  0.87500000
   0.62500000  0.87500000  0.37500000
   0.62500000  0.87500000  0.87500000
   0.25000000  0.25000000  0.00000000
   0.25000000  0.25000000  0.50000000
   0.25000000  0.75000000  0.00000000
   0.25000000  0.75000000  0.50000000
   0.75000000  0.25000000  0.00000000
   0.75000000  0.25000000  0.50000000
   0.75000000  0.75000000  0.00000000
   0.75000000  0.75000000  0.50000000
   0.12500000  0.12500000  0.12500000
   0.12500000  0.12500000  0.62500000
   0.12500000  0.62500000  0.12500000
   0.12500000  0.62500000  0.62500000
   0.62500000  0.12500000  0.12500000
   0.62500000  0.12500000  0.62500000
   0.62500000  0.62500000  0.12500000
   0.62500000  0.62500000  0.62500000
 
 position of ions in cartesian coordinates  (Angst):
   0.00000000  0.00000000  0.00000000
   0.00000000  0.00000000  5.35021029
   0.01337550  5.35021029  0.00000000
   0.01337550  5.35021029  5.35021029
   5.37696129  0.01337550  0.00000000
   5.37696129  0.01337550  5.35021029
   5.39033680  5.36358579  0.00000000
   5.39033680  5.36358579  5.35021029
   4.04275260  4.02268934  1.33755257
   4.04275260  4.02268934  6.68776286
   4.05612810  9.37289963  1.33755257
   4.05612810  9.37289963  6.68776286
   9.41971389  4.03606485  1.33755257
   9.41971389  4.03606485  6.68776286
   9.43308939  9.38627514  1.33755257
   9.43308939  9.38627514  6.68776286
   0.00668775  2.67510515  2.67510515
   0.00668775  2.67510515  8.02531544
   0.02006325  8.02531544  2.67510515
   0.02006325  8.02531544  8.02531544
   5.38364905  2.68848065  2.67510515
   5.38364905  2.68848065  8.02531544
   5.39702455  8.03869094  2.67510515
   5.39702455  8.03869094  8.02531544
   4.03606485  1.34758420  4.01265772
   4.03606485  1.34758420  9.36286801
   4.04944035  6.69779449  4.01265772
   4.04944035  6.69779449  9.36286801
   9.41302614  1.36095970  4.01265772
   9.41302614  1.36095970  9.36286801
   9.42640164  6.71116999  4.01265772
   9.42640164  6.71116999  9.36286801
   2.68848065  0.00668775  2.67510515
   2.68848065  0.00668775  8.02531544
   2.70185615  5.35689804  2.67510515
   2.70185615  5.35689804  8.02531544
   8.06544194  0.02006325  2.67510515
   8.06544194  0.02006325  8.02531544
   8.07881744  5.37027354  2.67510515
   8.07881744  5.37027354  8.02531544
   1.35427195  4.01600159  4.01265772
   1.35427195  4.01600159  9.36286801
   1.36764745  9.36621188  4.01265772
   1.36764745  9.36621188  9.36286801
   6.73123324  4.02937710  4.01265772
   6.73123324  4.02937710  9.36286801
   6.74460875  9.37958739  4.01265772
   6.74460875  9.37958739  9.36286801
   2.69516840  2.68179290  0.00000000
   2.69516840  2.68179290  5.35021029
   2.70854390  8.03200319  0.00000000
   2.70854390  8.03200319  5.35021029
   8.07212969  2.69516840  0.00000000
   8.07212969  2.69516840  5.35021029
   8.08550519  8.04537869  0.00000000
   8.08550519  8.04537869  5.35021029
   1.34758420  1.34089645  1.33755257
   1.34758420  1.34089645  6.68776286
   1.36095970  6.69110674  1.33755257
   1.36095970  6.69110674  6.68776286
   6.72454549  1.35427195  1.33755257
   6.72454549  1.35427195  6.68776286
   6.73792100  6.70448224  1.33755257
   6.73792100  6.70448224  6.68776286
 


--------------------------------------------------------------------------------------------------------


 k-point     1 :   0.0000 0.0000 0.0000  plane waves:   22339
 k-point     2 :   0.5000 0.0000 0.0000  plane waves:   22366
 k-point     3 :  -0.0000 0.5000 0.0000  plane waves:   22362
 k-point     4 :   0.5000 0.5000 0.0000  plane waves:   22364
 k-point     5 :   0.0000 0.0000 0.5000  plane waves:   22370
 k-point     6 :   0.5000 0.0000 0.5000  plane waves:   22368
 k-point     7 :  -0.0000 0.5000 0.5000  plane waves:   22368
 k-point     8 :   0.5000 0.5000 0.5000  plane waves:   22372

 maximum and minimum number of plane-waves per node :      1903     1838

 maximum number of plane-waves:     22372
 maximum index in each direction: 
   IXMAX=   17   IYMAX=   17   IZMAX=   17
   IXMIN=  -18   IYMIN=  -17   IZMIN=  -17


 real space projection operators:
  total allocation   :      11943.50 KBytes
  max/ min on nodes  :       1035.50        859.25


 parallel 3D FFT for wavefunctions:
    minimum data exchange during FFTs selected (reduces bandwidth)
 parallel 3D FFT for charge:
    minimum data exchange during FFTs selected (reduces bandwidth)


 total amount of memory used by VASP MPI-rank0    79350. kBytes
=======================================================================

   base      :      30000. kBytes
   nonlr-proj:       4615. kBytes
   fftplans  :      17992. kBytes
   grid      :       6881. kBytes
   one-center:         18. kBytes
   wavefun   :      19844. kBytes
 
     INWAV:  cpu time      0.0000: real time      0.0000
 Broyden mixing: mesh for mixing (old mesh)
   NGX = 35   NGY = 35   NGZ = 35
  (NGX  =140   NGY  =140   NGZ  =140)
  gives a total of  42875 points

 initial charge density was supplied:
 charge density of overlapping atoms calculated
 number of electron     256.0000000 magnetization 
 keeping initial charge density in first step


--------------------------------------------------------------------------------------------------------


 Maximum index for non-local projection operator          276
 Maximum index for augmentation-charges         3673 (set IRDMAX)


--------------------------------------------------------------------------------------------------------


 First call to EWALD:  gamma=   0.165
 Maximum number of real-space cells 3x 3x 3
 Maximum number of reciprocal cells 3x 3x 3

    FEWALD:  cpu time      0.0079: real time      0.0079


--------------------------------------- Ionic step        1  -------------------------------------------




--------------------------------------- Iteration      1(   1)  ---------------------------------------


    POTLOK:  cpu time      0.0816: real time      0.0836
    SETDIJ:  cpu time      0.0795: real time      0.0800
     EDDAV:  cpu time      1.2452: real time      1.2850
       DOS:  cpu time      0.0042: real time      0.0042
    --------------------------------------------
      LOOP:  cpu time      1.4106: real time      1.4528

 eigenvalue-minimisations  :  2592
 total energy-change (2. order) : 0.5697897E+03  (-0.8469387E+04)
 number of electron     256.0000000 magnetization 
 augmentation part      256.0000000 magnetization 

 Free energy of the ion-electron system (eV)
  ---------------------------------------------------
  alpha Z        PSCENC =       111.98208555
  Ewald energy   TEWEN  =     -7410.78918297
  -Hartree energ DENC   =      -333.36020881
  -exchange      EXHF   =         0.00000000
  -V(xc)+E(xc)   XCENC  =      -553.89435740
  PAW double counting   =      5598.62625415    -4492.17844134
  entropy T*S    EENTRO =         0.00174839
  eigenvalues    EBANDS =      1084.60594237
  atomic energy  EATOM  =      6564.79586099
  Solvation  Ediel_sol  =         0.00000000
  ---------------------------------------------------
  free energy    TOTEN  =       569.78970093 eV

  energy without entropy =      569.78795254  energy(sigma->0) =      569.78911813


--------------------------------------------------------------------------------------------------------




--------------------------------------- Iteration      1(   2)  ---------------------------------------


     EDDAV:  cpu time      1.3189: real time      1.3300
       DOS:  cpu time      0.0012: real time      0.0013
    --------------------------------------------
      LOOP:  cpu time      1.3201: real time      1.3313

 eigenvalue-minimisations  :  3088
 total energy-change (2. order) :-0.8795830E+03  (-0.8339656E+03)
 number of electron     256.0000000 magnetization 
 augmentation part      256.0000000 magnetization 

 Free energy of the ion-electron system (eV)
  ---------------------------------------------------
  alpha Z        PSCENC =       111.98208555
  Ewald energy   TEWEN  =     -7410.78918297
  -Hartree energ DENC   =      -333.36020881
  -exchange      EXHF   =         0.00000000
  -V(xc)+E(xc)   XCENC  =      -553.89435740
  PAW double counting   =      5598.62625415    -4492.17844134
  entropy T*S    EENTRO =         0.01474565
  eigenvalues    EBANDS =       205.00993645
  atomic energy  EATOM  =      6564.79586099
  Solvation  Ediel_sol  =         0.00000000
  ---------------------------------------------------
  free energy    TOTEN  =      -309.79330773 eV

  energy without entropy =     -309.80805338  energy(sigma->0) =     -309.79822295


--------------------------------------------------------------------------------------------------------




--------------------------------------- Iteration      1(   3)  ---------------------------------------


     EDDAV:  cpu time      1.3375: real time      1.3423
       DOS:  cpu time      0.0012: real time      0.0014
    --------------------------------------------
      LOOP:  cpu time      1.3387: real time      1.3436

 eigenvalue-minimisations  :  3128
 total energy-change (2. order) :-0.6341852E+02  (-0.6219242E+02)
 number of electron     256.0000000 magnetization 
 augmentation part      256.0000000 magnetization 

 Free energy of the ion-electron system (eV)
  ---------------------------------------------------
  alpha Z        PSCENC =       111.98208555
  Ewald energy   TEWEN  =     -7410.78918297
  -Hartree energ DENC   =      -333.36020881
  -exchange      EXHF   =         0.00000000
  -V(xc)+E(xc)   XCENC  =      -553.89435740
  PAW double counting   =      5598.62625415    -4492.17844134
  entropy T*S    EENTRO =         0.00705717
  eigenvalues    EBANDS =       141.59910078
  atomic energy  EATOM  =      6564.79586099
  Solvation  Ediel_sol  =         0.00000000
  ---------------------------------------------------
  free energy    TOTEN  =      -373.21183188 eV

  energy without entropy =     -373.21888905  energy(sigma->0) =     -373.21418427


--------------------------------------------------------------------------------------------------------




--------------------------------------- Iteration      1(   4)  ---------------------------------------


     EDDAV:  cpu time      1.3094: real time      1.3245
       DOS:  cpu time      0.0013: real time      0.0013
    --------------------------------------------
      LOOP:  cpu time      1.3107: real time      1.3258

 eigenvalue-minimisations  :  3112
 total energy-change (2. order) :-0.1648373E+01  (-0.1635585E+01)
 number of electron     256.0000000 magnetization 
 augmentation part      256.0000000 magnetization 

 Free energy of the ion-electron system (eV)
  ---------------------------------------------------
  alpha Z        PSCENC =       111.98208555
  Ewald energy   TEWEN  =     -7410.78918297
  -Hartree energ DENC   =      -333.36020881
  -exchange      EXHF   =         0.00000000
  -V(xc)+E(xc)   XCENC  =      -553.89435740
  PAW double counting   =      5598.62625415    -4492.17844134
  entropy T*S    EENTRO =         0.00819772
  eigenvalues    EBANDS =       139.94958675
  atomic energy  EATOM  =      6564.79586099
  Solvation  Ediel_sol  =         0.00000000
  ---------------------------------------------------
  free energy    TOTEN  =      -374.86020536 eV

  energy without entropy =     -374.86840308  energy(sigma->0) =     -374.86293793


--------------------------------------------------------------------------------------------------------




--------------------------------------- Iteration      1(   5)  ---------------------------------------


     EDDAV:  cpu time      1.2980: real time      1.3157
       DOS:  cpu time      0.0012: real time      0.0012
    CHARGE:  cpu time      0.2440: real time      0.2457
    MIXING:  cpu time      0.0051: real time      0.0051
    --------------------------------------------
      LOOP:  cpu time      1.5483: real time      1.5678

 eigenvalue-minimisations  :  3060
 total energy-change (2. order) :-0.5274301E-01  (-0.5260370E-01)
 number of electron     256.0000002 magnetization 
 augmentation part      -15.0557928 magnetization 

 Broyden mixing:
  rms(total) = 0.29619E+01    rms(broyden)= 0.29619E+01
  rms(prec ) = 0.32628E+01
  weight for this iteration     100.00

 Free energy of the ion-electron system (eV)
  ---------------------------------------------------
  alpha Z        PSCENC =       111.98208555
  Ewald energy   TEWEN  =     -7410.78918297
  -Hartree energ DENC   =      -333.36020881
  -exchange      EXHF   =         0.00000000
  -V(xc)+E(xc)   XCENC  =      -553.89435740
  PAW double counting   =      5598.62625415    -4492.17844134
  entropy T*S    EENTRO =         0.00818654
  eigenvalues    EBANDS =       139.89685492
  atomic energy  EATOM  =      6564.79586099
  Solvation  Ediel_sol  =         0.00000000
  ---------------------------------------------------
  free energy    TOTEN  =      -374.91294837 eV

  energy without entropy =     -374.92113491  energy(sigma->0) =     -374.91567721


--------------------------------------------------------------------------------------------------------




--------------------------------------- Iteration      1(   6)  ---------------------------------------


    POTLOK:  cpu time      0.0846: real time      0.0939
    SETDIJ:  cpu time      0.0674: real time      0.0675
    EDDIAG:  cpu time      0.1325: real time      0.1361
  RMM-DIIS:  cpu time      0.6873: real time      0.6976
    ORTHCH:  cpu time      0.0205: real time      0.0205
       DOS:  cpu time      0.0019: real time      0.0019
    CHARGE:  cpu time      0.2342: real time      0.2347
    MIXING:  cpu time      0.0057: real time      0.0072
    --------------------------------------------
      LOOP:  cpu time      1.2341: real time      1.2595

 eigenvalue-minimisations  :  2592
 total energy-change (2. order) : 0.5586329E+01  (-0.2868240E+00)
 number of electron     256.0000002 magnetization 
 augmentation part      -14.8805756 magnetization 

 Broyden mixing:
  rms(total) = 0.17848E+01    rms(broyden)= 0.17848E+01
  rms(prec ) = 0.19550E+01
  weight for this iteration     100.00

 eigenvalues of (default mixing * dielectric matrix)
  average eigenvalue GAMMA=   2.5105
  2.5105

 Free energy of the ion-electron system (eV)
  ---------------------------------------------------
  alpha Z        PSCENC =       111.98208555
  Ewald energy   TEWEN  =     -7410.78918297
  -Hartree energ DENC   =      -381.57768173
  -exchange      EXHF   =         0.00000000
  -V(xc)+E(xc)   XCENC  =      -546.26295740
  PAW double counting   =     12894.97967743   -11792.22651665
  entropy T*S    EENTRO =         0.01002825
  eigenvalues    EBANDS =       189.76206740
  atomic energy  EATOM  =      6564.79586099
  Solvation  Ediel_sol  =         0.00000000
  ---------------------------------------------------
  free energy    TOTEN  =      -369.32661913 eV

  energy without entropy =     -369.33664738  energy(sigma->0) =     -369.32996188


--------------------------------------------------------------------------------------------------------




--------------------------------------- Iteration      1(   7)  ---------------------------------------


    POTLOK:  cpu time      0.0780: real time      0.0871
    SETDIJ:  cpu time      0.0699: real time      0.0700
    EDDIAG:  cpu time      0.1338: real time      0.1341
  RMM-DIIS:  cpu time      0.6998: real time      0.7016
    ORTHCH:  cpu time      0.0205: real time      0.0205
       DOS:  cpu time      0.0017: real time      0.0017
    CHARGE:  cpu time      0.2350: real time      0.2355
    MIXING:  cpu time      0.0047: real time      0.0048
    --------------------------------------------
      LOOP:  cpu time      1.2434: real time      1.2554

 eigenvalue-minimisations  :  2649
 total energy-change (2. order) : 0.2490604E+01  (-0.7292532E+00)
 number of electron     256.0000002 magnetization 
 augmentation part      -14.6336581 magnetization 

 Broyden mixing:
  rms(total) = 0.10625E+00    rms(broyden)= 0.10625E+00
  rms(prec ) = 0.13337E+00
  weight for this iteration     100.00

 eigenvalues of (default mixing * dielectric matrix)
  average eigenvalue GAMMA=   2.2803
  2.2803  2.2803

 Free energy of the ion-electron system (eV)
  ---------------------------------------------------
  alpha Z        PSCENC =       111.98208555
  Ewald energy   TEWEN  =     -7410.78918297
  -Hartree energ DENC   =      -461.08380752
  -exchange      EXHF   =         0.00000000
  -V(xc)+E(xc)   XCENC  =      -533.10087993
  PAW double counting   =     30693.10647235   -29595.50438601
  entropy T*S    EENTRO =         0.03343326
  eigenvalues    EBANDS =       263.72438885
  atomic energy  EATOM  =      6564.79586099
  Solvation  Ediel_sol  =         0.00000000
  ---------------------------------------------------
  free energy    TOTEN  =      -366.83601543 eV

  energy without entropy =     -366.86944869  energy(sigma->0) =     -366.84715985


--------------------------------------------------------------------------------------------------------




--------------------------------------- Iteration      1(   8)  ---------------------------------------


    POTLOK:  cpu time      0.0857: real time      0.0878
    SETDIJ:  cpu time      0.0703: real time      0.0705
    EDDIAG:  cpu time      0.1354: real time      0.1361
  RMM-DIIS:  cpu time      0.7086: real time      0.7107
    ORTHCH:  cpu time      0.0206: real time      0.0206
       DOS:  cpu time      0.0016: real time      0.0017
    CHARGE:  cpu time      0.2354: real time      0.2359
    MIXING:  cpu time      0.0045: real time      0.0045
    --------------------------------------------
      LOOP:  cpu time      1.2620: real time      1.2679

 eigenvalue-minimisations  :  2618
 total energy-change (2. order) :-0.3968542E-01  (-0.6848601E-01)
 number of electron     256.0000002 magnetization 
 augmentation part      -14.6881053 magnetization 

 Broyden mixing:
  rms(total) = 0.51418E-01    rms(broyden)= 0.51418E-01
  rms(prec ) = 0.54817E-01
  weight for this iteration     100.00

 eigenvalues of (default mixing * dielectric matrix)
  average eigenvalue GAMMA=   2.1351
  2.5544  1.9254  1.9254

 Free energy of the ion-electron system (eV)
  ---------------------------------------------------
  alpha Z        PSCENC =       111.98208555
  Ewald energy   TEWEN  =     -7410.78918297
  -Hartree energ DENC   =      -452.98581878
  -exchange      EXHF   =         0.00000000
  -V(xc)+E(xc)   XCENC  =      -533.76522294
  PAW double counting   =     30413.20230461   -29314.61674876
  entropy T*S    EENTRO =         0.03244922
  eigenvalues    EBANDS =       255.26857223
  atomic energy  EATOM  =      6564.79586099
  Solvation  Ediel_sol  =         0.00000000
  ---------------------------------------------------
  free energy    TOTEN  =      -366.87570085 eV

  energy without entropy =     -366.90815008  energy(sigma->0) =     -366.88651726


--------------------------------------------------------------------------------------------------------




--------------------------------------- Iteration      1(   9)  ---------------------------------------


    POTLOK:  cpu time      0.0713: real time      0.0867
    SETDIJ:  cpu time      0.0728: real time      0.0730
    EDDIAG:  cpu time      0.1365: real time      0.1368
  RMM-DIIS:  cpu time      0.7260: real time      0.7446
    ORTHCH:  cpu time      0.0206: real time      0.0207
       DOS:  cpu time      0.0016: real time      0.0016
    CHARGE:  cpu time      0.2359: real time      0.2365
    MIXING:  cpu time      0.0043: real time      0.0043
    --------------------------------------------
      LOOP:  cpu time      1.2690: real time      1.3043

 eigenvalue-minimisations  :  2675
 total energy-change (2. order) :-0.2149648E-01  (-0.2009561E-01)
 number of electron     256.0000002 magnetization 
 augmentation part      -14.6754439 magnetization 

 Broyden mixing:
  rms(total) = 0.58827E-01    rms(broyden)= 0.58827E-01
  rms(prec ) = 0.66503E-01
  weight for this iteration     100.00

 eigenvalues of (default mixing * dielectric matrix)
  average eigenvalue GAMMA=   1.9768
  2.5430  2.4690  2.4690  0.4260

 Free energy of the ion-electron system (eV)
  ---------------------------------------------------
  alpha Z        PSCENC =       111.98208555
  Ewald energy   TEWEN  =     -7410.78918297
  -Hartree energ DENC   =      -455.97159638
  -exchange      EXHF   =         0.00000000
  -V(xc)+E(xc)   XCENC  =      -533.36063847
  PAW double counting   =     30786.36588079   -29688.03272351
  entropy T*S    EENTRO =         0.03290502
  eigenvalues    EBANDS =       258.08021165
  atomic energy  EATOM  =      6564.79586099
  Solvation  Ediel_sol  =         0.00000000
  ---------------------------------------------------
  free energy    TOTEN  =      -366.89719733 eV

  energy without entropy =     -366.93010235  energy(sigma->0) =     -366.90816567


--------------------------------------------------------------------------------------------------------




--------------------------------------- Iteration      1(  10)  ---------------------------------------


    POTLOK:  cpu time      0.0723: real time      0.0892
    SETDIJ:  cpu time      0.0760: real time      0.0764
    EDDIAG:  cpu time      0.1334: real time      0.1355
  RMM-DIIS:  cpu time      0.7244: real time      0.7265
    ORTHCH:  cpu time      0.0205: real time      0.0205
       DOS:  cpu time      0.0026: real time      0.0026
    CHARGE:  cpu time      0.2347: real time      0.2353
    MIXING:  cpu time      0.0049: real time      0.0049
    --------------------------------------------
      LOOP:  cpu time      1.2687: real time      1.2909

 eigenvalue-minimisations  :  2739
 total energy-change (2. order) :-0.3536988E-02  (-0.3410125E-02)
 number of electron     256.0000002 magnetization 
 augmentation part      -14.6819946 magnetization 

 Broyden mixing:
  rms(total) = 0.74004E-01    rms(broyden)= 0.74004E-01
  rms(prec ) = 0.80726E-01
  weight for this iteration     100.00

 eigenvalues of (default mixing * dielectric matrix)
  average eigenvalue GAMMA=   1.5071
  2.6452  2.0492  2.0492  0.5862  0.2059

 Free energy of the ion-electron system (eV)
  ---------------------------------------------------
  alpha Z        PSCENC =       111.98208555
  Ewald energy   TEWEN  =     -7410.78918297
  -Hartree energ DENC   =      -456.01417243
  -exchange      EXHF   =         0.00000000
  -V(xc)+E(xc)   XCENC  =      -533.35573378
  PAW double counting   =     30796.31542025   -29697.98413468
  entropy T*S    EENTRO =         0.03291429
  eigenvalues    EBANDS =       258.11620846
  atomic energy  EATOM  =      6564.79586099
  Solvation  Ediel_sol  =         0.00000000
  ---------------------------------------------------
  free energy    TOTEN  =      -366.90073432 eV

  energy without entropy =     -366.93364861  energy(sigma->0) =     -366.91170575


--------------------------------------------------------------------------------------------------------




--------------------------------------- Iteration      1(  11)  ---------------------------------------


    POTLOK:  cpu time      0.0781: real time      0.0880
    SETDIJ:  cpu time      0.0730: real time      0.0732
    EDDIAG:  cpu time      0.1344: real time      0.1348
  RMM-DIIS:  cpu time      0.6905: real time      0.6924
    ORTHCH:  cpu time      0.0206: real time      0.0206
       DOS:  cpu time      0.0024: real time      0.0024
    CHARGE:  cpu time      0.2347: real time      0.2352
    MIXING:  cpu time      0.0042: real time      0.0042
    --------------------------------------------
      LOOP:  cpu time      1.2378: real time      1.2508

 eigenvalue-minimisations  :  2592
 total energy-change (2. order) : 0.3275219E-02  (-0.1157225E-02)
 number of electron     256.0000002 magnetization 
 augmentation part      -14.6958752 magnetization 

 Broyden mixing:
  rms(total) = 0.75701E-01    rms(broyden)= 0.75701E-01
  rms(prec ) = 0.76428E-01
  weight for this iteration     100.00

 eigenvalues of (default mixing * dielectric matrix)
  average eigenvalue GAMMA=   1.3498
  2.5035  2.5035  1.4688  0.7113  0.7113  0.2002

 Free energy of the ion-electron system (eV)
  ---------------------------------------------------
  alpha Z        PSCENC =       111.98208555
  Ewald energy   TEWEN  =     -7410.78918297
  -Hartree energ DENC   =      -453.61116707
  -exchange      EXHF   =         0.00000000
  -V(xc)+E(xc)   XCENC  =      -533.52234360
  PAW double counting   =     30797.41706588   -29698.82612840
  entropy T*S    EENTRO =         0.03229936
  eigenvalues    EBANDS =       255.62405116
  atomic energy  EATOM  =      6564.79586099
  Solvation  Ediel_sol  =         0.00000000
  ---------------------------------------------------
  free energy    TOTEN  =      -366.89745910 eV

  energy without entropy =     -366.92975847  energy(sigma->0) =     -366.90822556


--------------------------------------------------------------------------------------------------------




--------------------------------------- Iteration      1(  12)  ---------------------------------------


    POTLOK:  cpu time      0.0809: real time      0.0957
    SETDIJ:  cpu time      0.0677: real time      0.0679
    EDDIAG:  cpu time      0.1334: real time      0.1337
  RMM-DIIS:  cpu time      0.6906: real time      0.6925
    ORTHCH:  cpu time      0.0206: real time      0.0206
       DOS:  cpu time      0.0023: real time      0.0023
    CHARGE:  cpu time      0.2349: real time      0.2355
    MIXING:  cpu time      0.0043: real time      0.0043
    --------------------------------------------
      LOOP:  cpu time      1.2348: real time      1.2525

 eigenvalue-minimisations  :  2609
 total energy-change (2. order) :-0.4300982E-04  (-0.1787116E-03)
 number of electron     256.0000002 magnetization 
 augmentation part      -14.6994519 magnetization 

 Broyden mixing:
  rms(total) = 0.80091E-01    rms(broyden)= 0.80091E-01
  rms(prec ) = 0.80640E-01
  weight for this iteration     100.00

 eigenvalues of (default mixing * dielectric matrix)
  average eigenvalue GAMMA=   1.2500
  2.4930  2.4930  1.4529  0.7331  0.7331  0.6215  0.2232

 Free energy of the ion-electron system (eV)
  ---------------------------------------------------
  alpha Z        PSCENC =       111.98208555
  Ewald energy   TEWEN  =     -7410.78918297
  -Hartree energ DENC   =      -453.35900636
  -exchange      EXHF   =         0.00000000
  -V(xc)+E(xc)   XCENC  =      -533.56106471
  PAW double counting   =     30722.86255539   -29624.27866462
  entropy T*S    EENTRO =         0.03226852
  eigenvalues    EBANDS =       255.41764608
  atomic energy  EATOM  =      6564.79586099
  Solvation  Ediel_sol  =         0.00000000
  ---------------------------------------------------
  free energy    TOTEN  =      -366.89750211 eV

  energy without entropy =     -366.92977064  energy(sigma->0) =     -366.90825829


--------------------------------------------------------------------------------------------------------




--------------------------------------- Iteration      1(  13)  ---------------------------------------


    POTLOK:  cpu time      0.0781: real time      0.0937
    SETDIJ:  cpu time      0.0676: real time      0.0677
    EDDIAG:  cpu time      0.1333: real time      0.1336
  RMM-DIIS:  cpu time      0.7274: real time      0.7295
    ORTHCH:  cpu time      0.0205: real time      0.0205
       DOS:  cpu time      0.0017: real time      0.0017
    CHARGE:  cpu time      0.2347: real time      0.2352
    MIXING:  cpu time      0.0047: real time      0.0047
    --------------------------------------------
      LOOP:  cpu time      1.2678: real time      1.2865

 eigenvalue-minimisations  :  2752
 total energy-change (2. order) :-0.4830191E-04  (-0.3421395E-04)
 number of electron     256.0000002 magnetization 
 augmentation part      -14.6999114 magnetization 

 Broyden mixing:
  rms(total) = 0.83414E-01    rms(broyden)= 0.83414E-01
  rms(prec ) = 0.83946E-01
  weight for this iteration     100.00

 eigenvalues of (default mixing * dielectric matrix)
  average eigenvalue GAMMA=   1.4991
  2.6176  2.6176  2.5062  1.7100  1.0372  0.6438  0.6438  0.2168

 Free energy of the ion-electron system (eV)
  ---------------------------------------------------
  alpha Z        PSCENC =       111.98208555
  Ewald energy   TEWEN  =     -7410.78918297
  -Hartree energ DENC   =      -453.37791041
  -exchange      EXHF   =         0.00000000
  -V(xc)+E(xc)   XCENC  =      -533.55828262
  PAW double counting   =     30734.58487656   -29636.00051968
  entropy T*S    EENTRO =         0.03226998
  eigenvalues    EBANDS =       255.43325219
  atomic energy  EATOM  =      6564.79586099
  Solvation  Ediel_sol  =         0.00000000
  ---------------------------------------------------
  free energy    TOTEN  =      -366.89755042 eV

  energy without entropy =     -366.92982040  energy(sigma->0) =     -366.90830708


--------------------------------------------------------------------------------------------------------




--------------------------------------- Iteration      1(  14)  ---------------------------------------


    POTLOK:  cpu time      0.0735: real time      0.0880
    SETDIJ:  cpu time      0.0741: real time      0.0743
    EDDIAG:  cpu time      0.1300: real time      0.1303
  RMM-DIIS:  cpu time      0.6948: real time      0.6969
    ORTHCH:  cpu time      0.0203: real time      0.0203
       DOS:  cpu time      0.0029: real time      0.0029
    CHARGE:  cpu time      0.2333: real time      0.2338
    MIXING:  cpu time      0.0046: real time      0.0046
    --------------------------------------------
      LOOP:  cpu time      1.2335: real time      1.2512

 eigenvalue-minimisations  :  2592
 total energy-change (2. order) : 0.2285007E-03  (-0.1218704E-04)
 number of electron     256.0000002 magnetization 
 augmentation part      -14.7006181 magnetization 

 Broyden mixing:
  rms(total) = 0.71930E-01    rms(broyden)= 0.71930E-01
  rms(prec ) = 0.72594E-01
  weight for this iteration     100.00

 eigenvalues of (default mixing * dielectric matrix)
  average eigenvalue GAMMA=   1.4086
  2.7737  2.4688  2.4688  1.4178  0.9998  0.9998  0.6655  0.6655  0.2174

 Free energy of the ion-electron system (eV)
  ---------------------------------------------------
  alpha Z        PSCENC =       111.98208555
  Ewald energy   TEWEN  =     -7410.78918297
  -Hartree energ DENC   =      -453.08210854
  -exchange      EXHF   =         0.00000000
  -V(xc)+E(xc)   XCENC  =      -533.59500752
  PAW double counting   =     30600.67920374   -29502.13259576
  entropy T*S    EENTRO =         0.03225731
  eigenvalues    EBANDS =       255.21216528
  atomic energy  EATOM  =      6564.79586099
  Solvation  Ediel_sol  =         0.00000000
  ---------------------------------------------------
  free energy    TOTEN  =      -366.89732192 eV

  energy without entropy =     -366.92957923  energy(sigma->0) =     -366.90807435


--------------------------------------------------------------------------------------------------------




--------------------------------------- Iteration      1(  15)  ---------------------------------------


    POTLOK:  cpu time      0.0716: real time      0.0881
    SETDIJ:  cpu time      0.0736: real time      0.0738
    EDDIAG:  cpu time      0.1314: real time      0.1317
  RMM-DIIS:  cpu time      0.6936: real time      0.6957
    ORTHCH:  cpu time      0.0202: real time      0.0203
       DOS:  cpu time      0.0020: real time      0.0020
    CHARGE:  cpu time      0.2361: real time      0.2367
    MIXING:  cpu time      0.0050: real time      0.0050
    --------------------------------------------
      LOOP:  cpu time      1.2335: real time      1.2533

 eigenvalue-minimisations  :  2600
 total energy-change (2. order) :-0.1994616E-03  (-0.9443818E-05)
 number of electron     256.0000002 magnetization 
 augmentation part      -14.7015043 magnetization 

 Broyden mixing:
  rms(total) = 0.65731E-01    rms(broyden)= 0.65731E-01
  rms(prec ) = 0.66296E-01
  weight for this iteration     100.00

 eigenvalues of (default mixing * dielectric matrix)
  average eigenvalue GAMMA=   1.4215
  2.6482  2.6482  2.4142  1.5168  1.5168  1.0829  0.8593  0.6555  0.6555  0.2173

 Free energy of the ion-electron system (eV)
  ---------------------------------------------------
  alpha Z        PSCENC =       111.98208555
  Ewald energy   TEWEN  =     -7410.78918297
  -Hartree energ DENC   =      -452.95717134
  -exchange      EXHF   =         0.00000000
  -V(xc)+E(xc)   XCENC  =      -533.60092186
  PAW double counting   =     30579.57508841   -29481.01705420
  entropy T*S    EENTRO =         0.03220256
  eigenvalues    EBANDS =       255.08157148
  atomic energy  EATOM  =      6564.79586099
  Solvation  Ediel_sol  =         0.00000000
  ---------------------------------------------------
  free energy    TOTEN  =      -366.89752138 eV

  energy without entropy =     -366.92972394  energy(sigma->0) =     -366.90825556


--------------------------------------------------------------------------------------------------------




--------------------------------------- Iteration      1(  16)  ---------------------------------------


    POTLOK:  cpu time      0.0727: real time      0.0876
    SETDIJ:  cpu time      0.0703: real time      0.0705
    EDDIAG:  cpu time      0.1320: real time      0.1323
  RMM-DIIS:  cpu time      0.6871: real time      0.6891
    ORTHCH:  cpu time      0.0207: real time      0.0207
       DOS:  cpu time      0.0024: real time      0.0024
    CHARGE:  cpu time      0.2410: real time      0.2415
    MIXING:  cpu time      0.0052: real time      0.0052
    --------------------------------------------
      LOOP:  cpu time      1.2313: real time      1.2495

 eigenvalue-minimisations  :  2592
 total energy-change (2. order) :-0.1856105E-03  (-0.3892356E-05)
 number of electron     256.0000002 magnetization 
 augmentation part      -14.7009064 magnetization 

 Broyden mixing:
  rms(total) = 0.51676E-01    rms(broyden)= 0.51676E-01
  rms(prec ) = 0.52041E-01
  weight for this iteration     100.00

 eigenvalues of (default mixing * dielectric matrix)
  average eigenvalue GAMMA=   1.3931
  2.6713  2.6713  2.3810  1.4136  1.4136  1.4754  0.8441  0.8441  0.6963  0.6963
  0.2173

 Free energy of the ion-electron system (eV)
  ---------------------------------------------------
  alpha Z        PSCENC =       111.98208555
  Ewald energy   TEWEN  =     -7410.78918297
  -Hartree energ DENC   =      -453.16725087
  -exchange      EXHF   =         0.00000000
  -V(xc)+E(xc)   XCENC  =      -533.58265012
  PAW double counting   =     30540.96187036   -29442.40734396
  entropy T*S    EENTRO =         0.03220890
  eigenvalues    EBANDS =       255.27669514
  atomic energy  EATOM  =      6564.79586099
  Solvation  Ediel_sol  =         0.00000000
  ---------------------------------------------------
  free energy    TOTEN  =      -366.89770699 eV

  energy without entropy =     -366.92991588  energy(sigma->0) =     -366.90844329


--------------------------------------------------------------------------------------------------------




--------------------------------------- Iteration      1(  17)  ---------------------------------------


    POTLOK:  cpu time      0.0814: real time      0.0981
    SETDIJ:  cpu time      0.0697: real time      0.0699
    EDDIAG:  cpu time      0.1344: real time      0.1348
  RMM-DIIS:  cpu time      0.6850: real time      0.6869
    ORTHCH:  cpu time      0.0207: real time      0.0207
       DOS:  cpu time      0.0022: real time      0.0022
    CHARGE:  cpu time      0.2362: real time      0.2368
    MIXING:  cpu time      0.0046: real time      0.0046
    --------------------------------------------
      LOOP:  cpu time      1.2343: real time      1.2539

 eigenvalue-minimisations  :  2592
 total energy-change (2. order) :-0.1123252E-03  (-0.3575284E-05)
 number of electron     256.0000002 magnetization 
 augmentation part      -14.7002120 magnetization 

 Broyden mixing:
  rms(total) = 0.31433E-01    rms(broyden)= 0.31433E-01
  rms(prec ) = 0.31649E-01
  weight for this iteration     100.00

 eigenvalues of (default mixing * dielectric matrix)
  average eigenvalue GAMMA=   1.5049
  2.0478  2.0478  2.6333  2.6333  2.4635  1.5604  1.1281  1.1281  0.8778  0.6607
  0.6607  0.2173

 Free energy of the ion-electron system (eV)
  ---------------------------------------------------
  alpha Z        PSCENC =       111.98208555
  Ewald energy   TEWEN  =     -7410.78918297
  -Hartree energ DENC   =      -453.30515650
  -exchange      EXHF   =         0.00000000
  -V(xc)+E(xc)   XCENC  =      -533.57764733
  PAW double counting   =     30445.60216506   -29347.05163483
  entropy T*S    EENTRO =         0.03220686
  eigenvalues    EBANDS =       255.41348387
  atomic energy  EATOM  =      6564.79586099
  Solvation  Ediel_sol  =         0.00000000
  ---------------------------------------------------
  free energy    TOTEN  =      -366.89781931 eV

  energy without entropy =     -366.93002617  energy(sigma->0) =     -366.90855493


--------------------------------------------------------------------------------------------------------




--------------------------------------- Iteration      1(  18)  ---------------------------------------


    POTLOK:  cpu time      0.0775: real time      0.0939
    SETDIJ:  cpu time      0.0672: real time      0.0674
    EDDIAG:  cpu time      0.1336: real time      0.1339
  RMM-DIIS:  cpu time      0.6922: real time      0.6941
    ORTHCH:  cpu time      0.0206: real time      0.0207
       DOS:  cpu time      0.0014: real time      0.0014
    CHARGE:  cpu time      0.2363: real time      0.2368
    MIXING:  cpu time      0.0044: real time      0.0044
    --------------------------------------------
      LOOP:  cpu time      1.2333: real time      1.2527

 eigenvalue-minimisations  :  2592
 total energy-change (2. order) :-0.4488804E-04  (-0.1530868E-05)
 number of electron     256.0000002 magnetization 
 augmentation part      -14.6998229 magnetization 

 Broyden mixing:
  rms(total) = 0.15210E-01    rms(broyden)= 0.15210E-01
  rms(prec ) = 0.15343E-01
  weight for this iteration     100.00

 eigenvalues of (default mixing * dielectric matrix)
  average eigenvalue GAMMA=   1.4009
  2.6351  2.6351  2.4601  1.9651  1.9651  1.6000  1.1170  1.1170  0.8788  0.6613
  0.6613  0.2173  0.2982

 Free energy of the ion-electron system (eV)
  ---------------------------------------------------
  alpha Z        PSCENC =       111.98208555
  Ewald energy   TEWEN  =     -7410.78918297
  -Hartree energ DENC   =      -453.35207203
  -exchange      EXHF   =         0.00000000
  -V(xc)+E(xc)   XCENC  =      -533.58099856
  PAW double counting   =     30356.12252167   -29257.57359105
  entropy T*S    EENTRO =         0.03219726
  eigenvalues    EBANDS =       255.46531494
  atomic energy  EATOM  =      6564.79586099
  Solvation  Ediel_sol  =         0.00000000
  ---------------------------------------------------
  free energy    TOTEN  =      -366.89786420 eV

  energy without entropy =     -366.93006146  energy(sigma->0) =     -366.90859662


--------------------------------------------------------------------------------------------------------




--------------------------------------- Iteration      1(  19)  ---------------------------------------


    POTLOK:  cpu time      0.0866: real time      0.0876
    SETDIJ:  cpu time      0.0708: real time      0.0710
    EDDIAG:  cpu time      0.1313: real time      0.1316
  RMM-DIIS:  cpu time      0.6875: real time      0.6895
    ORTHCH:  cpu time      0.0203: real time      0.0204
       DOS:  cpu time      0.0027: real time      0.0027
    CHARGE:  cpu time      0.2699: real time      0.2742
    MIXING:  cpu time      0.0046: real time      0.0046
    --------------------------------------------
      LOOP:  cpu time      1.2737: real time      1.2816

 eigenvalue-minimisations  :  2584
 total energy-change (2. order) :-0.1893173E-04  (-0.8263990E-06)
 number of electron     256.0000002 magnetization 
 augmentation part      -14.6995393 magnetization 

 Broyden mixing:
  rms(total) = 0.43004E-02    rms(broyden)= 0.43004E-02
  rms(prec ) = 0.43859E-02
  weight for this iteration     100.00

 eigenvalues of (default mixing * dielectric matrix)
  average eigenvalue GAMMA=   1.7891
  4.1119  4.1119  2.7443  2.7443  2.3884  1.4541  1.4541  1.5625  0.2173  1.0153
  1.0153  0.8981  0.6647  0.6647

 Free energy of the ion-electron system (eV)
  ---------------------------------------------------
  alpha Z        PSCENC =       111.98208555
  Ewald energy   TEWEN  =     -7410.78918297
  -Hartree energ DENC   =      -453.38950353
  -exchange      EXHF   =         0.00000000
  -V(xc)+E(xc)   XCENC  =      -533.58244151
  PAW double counting   =     30296.64240460   -29198.09438301
  entropy T*S    EENTRO =         0.03219009
  eigenvalues    EBANDS =       255.50508666
  atomic energy  EATOM  =      6564.79586099
  Solvation  Ediel_sol  =         0.00000000
  ---------------------------------------------------
  free energy    TOTEN  =      -366.89788313 eV

  energy without entropy =     -366.93007322  energy(sigma->0) =     -366.90861316


--------------------------------------------------------------------------------------------------------




--------------------------------------- Iteration      1(  20)  ---------------------------------------


    POTLOK:  cpu time      0.0796: real time      0.0948
    SETDIJ:  cpu time      0.0691: real time      0.0693
    EDDIAG:  cpu time      0.1315: real time      0.1318
  RMM-DIIS:  cpu time      0.5596: real time      0.5612
    ORTHCH:  cpu time      0.0202: real time      0.0203
       DOS:  cpu time      0.0020: real time      0.0020
    CHARGE:  cpu time      0.2346: real time      0.2352
    MIXING:  cpu time      0.0047: real time      0.0047
    --------------------------------------------
      LOOP:  cpu time      1.1015: real time      1.1193

 eigenvalue-minimisations  :  1990
 total energy-change (2. order) :-0.5298976E-05  (-0.3621687E-06)
 number of electron     256.0000002 magnetization 
 augmentation part      -14.6993396 magnetization 

 Broyden mixing:
  rms(total) = 0.16190E-02    rms(broyden)= 0.16190E-02
  rms(prec ) = 0.16364E-02
  weight for this iteration     100.00

 eigenvalues of (default mixing * dielectric matrix)
  average eigenvalue GAMMA=   1.6288
  3.3982  3.3982  2.7269  2.7269  2.4412  0.9852  1.7173  1.2939  1.2939  1.0018
  1.0018  0.9005  0.2173  0.6645  0.6645

 Free energy of the ion-electron system (eV)
  ---------------------------------------------------
  alpha Z        PSCENC =       111.98208555
  Ewald energy   TEWEN  =     -7410.78918297
  -Hartree energ DENC   =      -453.42016346
  -exchange      EXHF   =         0.00000000
  -V(xc)+E(xc)   XCENC  =      -533.58111088
  PAW double counting   =     30274.88517329   -29176.33738307
  entropy T*S    EENTRO =         0.03218655
  eigenvalues    EBANDS =       255.53464558
  atomic energy  EATOM  =      6564.79586099
  Solvation  Ediel_sol  =         0.00000000
  ---------------------------------------------------
  free energy    TOTEN  =      -366.89788843 eV

  energy without entropy =     -366.93007498  energy(sigma->0) =     -366.90861728


--------------------------------------------------------------------------------------------------------




--------------------------------------- Iteration      1(  21)  ---------------------------------------


    POTLOK:  cpu time      0.0753: real time      0.0870
    SETDIJ:  cpu time      0.0728: real time      0.0729
    EDDIAG:  cpu time      0.1328: real time      0.1331
  RMM-DIIS:  cpu time      0.4645: real time      0.4680
    ORTHCH:  cpu time      0.0203: real time      0.0203
       DOS:  cpu time      0.0029: real time      0.0029
    CHARGE:  cpu time      0.2362: real time      0.2368
    MIXING:  cpu time      0.0050: real time      0.0050
    --------------------------------------------
      LOOP:  cpu time      1.0097: real time      1.0262

 eigenvalue-minimisations  :  1564
 total energy-change (2. order) :-0.1034534E-05  (-0.9295565E-07)
 number of electron     256.0000002 magnetization 
 augmentation part      -14.6992390 magnetization 

 Broyden mixing:
  rms(total) = 0.19288E-02    rms(broyden)= 0.19288E-02
  rms(prec ) = 0.19304E-02
  weight for this iteration     100.00

 eigenvalues of (default mixing * dielectric matrix)
  average eigenvalue GAMMA=   1.9563
  5.9276  5.9276  2.6693  2.6693  2.4511  1.7306  1.7306  1.8644  0.2173  0.9367
  0.9367  1.0067  1.0067  0.8972  0.6645  0.6645

 Free energy of the ion-electron system (eV)
  ---------------------------------------------------
  alpha Z        PSCENC =       111.98208555
  Ewald energy   TEWEN  =     -7410.78918297
  -Hartree energ DENC   =      -453.43980467
  -exchange      EXHF   =         0.00000000
  -V(xc)+E(xc)   XCENC  =      -533.57884376
  PAW double counting   =     30276.85637671   -29178.30867236
  entropy T*S    EENTRO =         0.03218638
  eigenvalues    EBANDS =       255.55210466
  atomic energy  EATOM  =      6564.79586099
  Solvation  Ediel_sol  =         0.00000000
  ---------------------------------------------------
  free energy    TOTEN  =      -366.89788947 eV

  energy without entropy =     -366.93007585  energy(sigma->0) =     -366.90861826


--------------------------------------------------------------------------------------------------------




--------------------------------------- Iteration      1(  22)  ---------------------------------------


    POTLOK:  cpu time      0.0816: real time      0.0965
    SETDIJ:  cpu time      0.0680: real time      0.0682
    EDDIAG:  cpu time      0.1330: real time      0.1333
  RMM-DIIS:  cpu time      0.4100: real time      0.4112
    ORTHCH:  cpu time      0.0205: real time      0.0206
       DOS:  cpu time      0.0025: real time      0.0025
    --------------------------------------------
      LOOP:  cpu time      0.7156: real time      0.7322

 eigenvalue-minimisations  :  1290
 total energy-change (2. order) :-0.5140628E-06  (-0.2119055E-07)
 number of electron     256.0000002 magnetization 
 augmentation part      -14.6992390 magnetization 

 Free energy of the ion-electron system (eV)
  ---------------------------------------------------
  alpha Z        PSCENC =       111.98208555
  Ewald energy   TEWEN  =     -7410.78918297
  -Hartree energ DENC   =      -453.44952895
  -exchange      EXHF   =         0.00000000
  -V(xc)+E(xc)   XCENC  =      -533.57707263
  PAW double counting   =     30285.49853848   -29186.95085137
  entropy T*S    EENTRO =         0.03218699
  eigenvalues    EBANDS =       255.56007393
  atomic energy  EATOM  =      6564.79586099
  Solvation  Ediel_sol  =         0.00000000
  ---------------------------------------------------
  free energy    TOTEN  =      -366.89788998 eV

  energy without entropy =     -366.93007697  energy(sigma->0) =     -366.90861897


--------------------------------------------------------------------------------------------------------




 average (electrostatic) potential at core
  the test charge radii are     0.9892
  (the norm of the test charge is              1.0000)
       1 -82.5798       2 -82.5798       3 -82.5798       4 -82.5798       5 -82.5798
       6 -82.5798       7 -82.5798       8 -82.5798       9 -82.5798      10 -82.5798
      11 -82.5798      12 -82.5798      13 -82.5798      14 -82.5798      15 -82.5798
      16 -82.5798      17 -82.5798      18 -82.5798      19 -82.5798      20 -82.5798
      21 -82.5798      22 -82.5798      23 -82.5798      24 -82.5798      25 -82.5798
      26 -82.5798      27 -82.5798      28 -82.5798      29 -82.5798      30 -82.5798
      31 -82.5798      32 -82.5798      33 -82.5798      34 -82.5798      35 -82.5798
      36 -82.5798      37 -82.5798      38 -82.5798      39 -82.5798      40 -82.5798
      41 -82.5798      42 -82.5798      43 -82.5798      44 -82.5798      45 -82.5798
      46 -82.5798      47 -82.5798      48 -82.5798      49 -82.5798      50 -82.5798
      51 -82.5798      52 -82.5798      53 -82.5798      54 -82.5798      55 -82.5798
      56 -82.5798      57 -82.5798      58 -82.5798      59 -82.5798      60 -82.5798
      61 -82.5798      62 -82.5798      63 -82.5798      64 -82.5798
 
 
 
 E-fermi :   6.4787     XC(G=0):  -9.7058     alpha+bet :-12.4665

 val. band max:        6.2173782251   @ k =   0.0000   0.0000   0.0000
 cond. band min:       6.6232767378   @ k =   0.0000   0.0000   0.5000
 fundamental gap:      0.4058985127
 Fermi energy:         6.4787323445

 k-point     1 :       0.0000    0.0000    0.0000
  band No.  band energies     occupation 
      1      -6.0674      2.00000
      2      -4.9499      2.00000
      3      -4.9499      2.00000
      4      -4.9403      2.00000
      5      -4.9403      2.00000
      6      -4.9403      2.00000
      7      -4.9403      2.00000
      8      -3.9532      2.00000
      9      -3.9532      2.00000
     10      -3.9383      2.00000
     11      -3.9383      2.00000
     12      -3.9383      2.00000
     13      -3.9383      2.00000
     14      -3.9314      2.00000
     15      -3.9314      2.00000
     16      -3.9314      2.00000
     17      -3.9314      2.00000
     18      -3.9232      2.00000
     19      -3.9232      2.00000
     20      -3.6312      2.00000
     21      -3.6312      2.00000
     22      -3.5967      2.00000
     23      -3.5967      2.00000
     24      -1.7800      2.00000
     25      -1.7800      2.00000
     26      -1.7692      2.00000
     27      -1.7486      2.00000
     28      -1.7486      2.00000
     29      -1.7281      2.00000
     30      -1.5965      2.00000
     31      -1.5965      2.00000
     32      -1.5856      2.00000
     33      -1.5856      2.00000
     34      -1.5732      2.00000
     35      -1.5732      2.00000
     36      -1.5732      2.00000
     37      -1.5732      2.00000
     38      -1.5500      2.00000
     39      -1.5500      2.00000
     40      -1.5392      2.00000
     41      -1.5392      2.00000
     42      -1.0099      2.00000
     43      -1.0099      2.00000
     44      -1.0030      2.00000
     45      -1.0030      2.00000
     46       0.6214      2.00000
     47       0.6214      2.00000
     48       0.6214      2.00000
     49       0.6214      2.00000
     50       0.6308      2.00000
     51       0.6308      2.00000
     52       0.6402      2.00000
     53       0.6402      2.00000
     54       0.6402      2.00000
     55       0.6402      2.00000
     56       0.6494      2.00000
     57       0.6494      2.00000
     58       2.1200      2.00000
     59       2.1200      2.00000
     60       2.1205      2.00000
     61       2.1205      2.00000
     62       2.1205      2.00000
     63       2.1205      2.00000
     64       2.1208      2.00000
     65       2.1208      2.00000
     66       2.1227      2.00000
     67       2.1227      2.00000
     68       2.1236      2.00000
     69       2.1236      2.00000
     70       2.2224      2.00000
     71       2.2224      2.00000
     72       2.2224      2.00000
     73       2.2224      2.00000
     74       2.2452      2.00000
     75       2.2452      2.00000
     76       2.2511      2.00000
     77       2.2511      2.00000
     78       2.2511      2.00000
     79       2.2511      2.00000
     80       2.2568      2.00000
     81       2.2568      2.00000
     82       2.6650      2.00000
     83       2.6650      2.00000
     84       2.7020      2.00000
[...]
 -0.000  -0.000   4.172   0.000   0.000   7.772   0.000   0.000
  0.000   0.000   0.000   4.172   0.000   0.000   7.772   0.000
 -0.000  -0.000   0.000   0.000   4.172   0.000   0.000   7.772
 -0.000  -0.000   7.772   0.000   0.000  14.489   0.000   0.000
  0.001   0.001   0.000   7.772   0.000   0.000  14.489   0.000
 -0.000  -0.000   0.000   0.000   7.772   0.000   0.000  14.489
 total augmentation occupancy for first ion, spin component:           1
  6.266  -2.467  -0.000  -0.014  -0.000   0.000   0.005  -0.000
 -2.467   1.079   0.000   0.007   0.000  -0.000  -0.002  -0.000
 -0.000   0.000   3.083  -0.000  -0.002  -0.699   0.000  -0.000
 -0.014   0.007  -0.000   3.083   0.000   0.000  -0.700   0.000
 -0.000   0.000  -0.002   0.000   3.092  -0.000   0.000  -0.703
  0.000  -0.000  -0.699   0.000  -0.000   0.168   0.000   0.000
  0.005  -0.002   0.000  -0.700   0.000  -0.000   0.168   0.000
 -0.000  -0.000  -0.000   0.000  -0.703   0.000   0.000   0.169


------------------------ aborting loop because EDIFF is reached ----------------------------------------


    CHARGE:  cpu time      0.2367: real time      0.2373
    FORLOC:  cpu time      0.0210: real time      0.0211
    FORNL :  cpu time      0.6718: real time      0.6737
    STRESS:  cpu time      2.1058: real time      2.1120
    FORCOR:  cpu time      0.0849: real time      0.0851
    FORHAR:  cpu time      0.0342: real time      0.0343
    MIXING:  cpu time      0.0041: real time      0.0041
    OFIELD:  cpu time      0.0000: real time      0.0000

  FORCE on cell =-STRESS in cart. coord.  units (eV):
  Direction    XX          YY          ZZ          XY          YZ          ZX
  --------------------------------------------------------------------------------------
  Alpha Z   111.98209   111.98209   111.98209
  Ewald   -2459.00070 -2475.94707 -2475.93366    -3.37909    -0.00000    -0.00000
  Hartree   152.96181   150.23046   150.21620    -2.14817    -0.00000    -0.00000
  E(xc)    -825.66702  -825.51723  -825.51998     0.02833    -0.00000    -0.00000
  Local    -926.27680  -906.01228  -906.04358     6.09496     0.00000    -0.00000
  n-local  2511.21803  2508.70167  2508.74790    -0.24638    -0.00000     0.00000
  augment  -369.06535  -369.08375  -369.08487     0.18971     0.00000     0.00000
  Kinetic  1835.40288  1840.57644  1840.50555    -3.39654    -0.00001     0.00000
  Fock        0.00000     0.00000     0.00000     0.00000     0.00000     0.00000
  -------------------------------------------------------------------------------------
  Total      31.55494    34.93032    34.86964    -2.85718     0.00000     0.00000
  in kB      41.05935    45.45140    45.37244    -3.71777     0.00000     0.00000
  external pressure =       43.96 kB  Pullay stress =        0.00 kB


 VOLUME and BASIS-vectors are now :
 -----------------------------------------------------------------------------
  energy-cutoff  :      400.00
  volume of cell :     1231.31
      direct lattice vectors                 reciprocal lattice vectors
    10.753922588  0.026751004  0.000000000     0.092989903 -0.000232474  0.000000000
     0.026751004 10.700420580  0.000000000    -0.000232474  0.093454852  0.000000000
     0.000000000  0.000000000 10.700420580     0.000000000  0.000000000  0.093454271

  length of vectors
    10.753955860 10.700454019 10.700420580     0.092990194  0.093455141  0.093454271


 FORCES acting on ions
    electron-ion (+dipol)            ewald-force                    non-local-force                 convergence-correction
 -----------------------------------------------------------------------------------------------
   0.267E-08 0.304E-08 -.425E+00   -.107E-13 -.129E-13 0.301E+00   0.888E-20 0.824E-21 0.123E+00   0.842E-13 -.569E-13 0.544E-05
   0.267E-08 0.304E-08 -.425E+00   -.400E-14 -.888E-14 0.301E+00   -.264E-20 -.179E-20 0.123E+00   -.890E-13 0.122E-14 0.544E-05
   0.267E-08 0.304E-08 -.425E+00   -.147E-13 -.129E-13 0.301E+00   -.553E-20 0.670E-21 0.123E+00   0.751E-13 0.505E-13 0.544E-05
   0.267E-08 0.304E-08 -.425E+00   -.266E-14 -.844E-14 0.301E+00   0.856E-20 0.133E-21 0.123E+00   -.791E-13 -.939E-15 0.544E-05
   0.267E-08 0.304E-08 -.425E+00   -.118E-13 -.755E-14 0.301E+00   -.381E-20 0.695E-21 0.123E+00   -.997E-13 -.262E-13 0.544E-05
   0.267E-08 0.304E-08 -.425E+00   -.844E-14 -.107E-13 0.301E+00   0.843E-20 0.873E-21 0.123E+00   0.786E-13 -.216E-13 0.544E-05
   0.267E-08 0.304E-08 -.425E+00   -.666E-14 -.147E-13 0.301E+00   0.363E-20 0.616E-21 0.123E+00   -.932E-13 0.218E-13 0.544E-05
   0.267E-08 0.304E-08 -.425E+00   0.355E-14 -.107E-13 0.301E+00   -.828E-20 -.198E-20 0.123E+00   0.690E-13 0.179E-13 0.544E-05
   -.993E-09 -.149E-08 0.425E+00   -.222E-14 0.755E-14 -.301E+00   -.129E-19 -.145E-20 -.123E+00   -.540E-13 -.730E-13 -.544E-05
   -.993E-09 -.149E-08 0.425E+00   -.178E-14 0.355E-14 -.301E+00   0.687E-21 0.753E-21 -.123E+00   0.520E-13 0.954E-13 -.544E-05
   -.993E-09 -.149E-08 0.425E+00   -.577E-14 0.133E-14 -.301E+00   0.986E-20 0.187E-20 -.123E+00   -.348E-14 0.641E-13 -.544E-05
   -.993E-09 -.149E-08 0.425E+00   -.888E-14 0.533E-14 -.301E+00   0.152E-20 -.145E-20 -.123E+00   0.251E-14 -.844E-13 -.544E-05
   -.993E-09 -.150E-08 0.425E+00   -.799E-14 0.129E-13 -.301E+00   0.107E-19 0.202E-20 -.123E+00   0.448E-13 0.275E-13 -.544E-05
   -.993E-09 -.149E-08 0.425E+00   0.888E-14 0.124E-13 -.301E+00   0.195E-20 -.374E-21 -.123E+00   -.420E-13 -.526E-14 -.544E-05
   -.993E-09 -.149E-08 0.425E+00   -.755E-14 0.133E-14 -.301E+00   -.103E-19 -.121E-20 -.123E+00   0.408E-14 -.262E-13 -.544E-05
   -.993E-09 -.150E-08 0.425E+00   0.178E-14 0.124E-13 -.301E+00   -.240E-20 0.261E-21 -.123E+00   0.401E-14 0.506E-14 -.544E-05
   0.267E-08 0.304E-08 -.425E+00   -.127E-13 -.189E-13 0.301E+00   -.322E-20 -.160E-20 0.123E+00   0.812E-13 -.121E-13 0.544E-05
   0.267E-08 0.304E-08 -.425E+00   -.933E-14 -.151E-13 0.301E+00   0.866E-20 0.604E-21 0.123E+00   -.751E-13 -.124E-13 0.544E-05
   0.267E-08 0.304E-08 -.425E+00   -.622E-14 -.644E-14 0.301E+00   0.272E-20 0.600E-21 0.123E+00   0.314E-13 0.180E-13 0.544E-05
   0.267E-08 0.304E-08 -.425E+00   -.622E-14 -.222E-14 0.301E+00   -.393E-20 -.102E-20 0.123E+00   -.296E-13 0.692E-14 0.544E-05
   0.267E-08 0.304E-08 -.425E+00   0.444E-15 -.129E-13 0.301E+00   0.172E-21 0.377E-21 0.123E+00   -.938E-13 -.972E-13 0.544E-05
   0.267E-08 0.304E-08 -.425E+00   -.844E-14 -.169E-13 0.301E+00   -.989E-21 -.117E-20 0.123E+00   0.588E-13 0.834E-13 0.544E-05
   0.267E-08 0.304E-08 -.425E+00   -.124E-13 -.151E-13 0.301E+00   -.396E-20 -.196E-20 0.123E+00   -.465E-13 0.908E-13 0.544E-05
   0.267E-08 0.304E-08 -.425E+00   0.355E-14 -.711E-14 0.301E+00   0.115E-19 0.369E-21 0.123E+00   0.156E-13 -.769E-13 0.544E-05
   -.993E-09 -.149E-08 0.425E+00   0.000E+00 0.493E-15 -.301E+00   -.982E-20 -.129E-21 -.123E+00   -.135E-13 -.217E-13 -.544E-05
   -.993E-09 -.149E-08 0.425E+00   0.000E+00 0.471E-14 -.301E+00   0.339E-22 0.102E-20 -.123E+00   0.893E-14 -.132E-13 -.544E-05
   -.993E-09 -.149E-08 0.425E+00   0.888E-14 0.561E-14 -.301E+00   0.475E-20 -.749E-21 -.123E+00   -.135E-13 0.288E-13 -.544E-05
   -.993E-09 -.149E-08 0.425E+00   0.178E-14 0.538E-14 -.301E+00   -.422E-20 0.867E-21 -.123E+00   0.111E-13 0.208E-13 -.544E-05
   -.993E-09 -.149E-08 0.425E+00   -.311E-14 -.128E-14 -.301E+00   0.744E-20 -.225E-20 -.123E+00   0.172E-13 -.152E-13 -.544E-05
   -.993E-09 -.149E-08 0.425E+00   0.111E-13 0.272E-14 -.301E+00   -.703E-20 0.107E-20 -.123E+00   -.152E-13 -.273E-13 -.544E-05
   -.993E-09 -.149E-08 0.425E+00   -.178E-14 0.694E-14 -.301E+00   -.844E-20 -.329E-22 -.123E+00   0.153E-13 0.281E-13 -.544E-05
   -.993E-09 -.149E-08 0.425E+00   -.888E-14 0.383E-14 -.301E+00   0.465E-20 0.184E-20 -.123E+00   -.110E-13 0.359E-13 -.544E-05
   0.267E-08 0.304E-08 -.425E+00   -.266E-14 -.622E-14 0.301E+00   0.217E-21 0.500E-21 0.123E+00   0.635E-13 0.131E-13 0.544E-05
   0.267E-08 0.304E-08 -.425E+00   0.355E-14 0.444E-15 0.301E+00   0.122E-20 -.820E-21 0.123E+00   -.484E-13 -.637E-13 0.544E-05
   0.267E-08 0.304E-08 -.425E+00   0.355E-14 -.533E-14 0.301E+00   -.860E-20 -.161E-20 0.123E+00   -.169E-13 -.147E-13 0.544E-05
   0.267E-08 0.304E-08 -.425E+00   -.888E-14 -.533E-14 0.301E+00   -.271E-20 -.745E-21 0.123E+00   0.431E-13 0.586E-13 0.544E-05
   0.267E-08 0.304E-08 -.425E+00   -.400E-14 -.111E-13 0.301E+00   -.601E-20 -.151E-20 0.123E+00   -.480E-13 -.386E-13 0.544E-05
   0.267E-08 0.304E-08 -.425E+00   0.133E-14 -.444E-14 0.301E+00   -.347E-20 -.472E-21 0.123E+00   0.609E-13 -.177E-13 0.544E-05
   0.267E-08 0.304E-08 -.425E+00   0.133E-14 -.355E-14 0.301E+00   0.711E-20 0.123E-20 0.123E+00   0.279E-13 0.317E-13 0.544E-05
   0.267E-08 0.304E-08 -.425E+00   0.711E-14 -.355E-14 0.301E+00   0.190E-20 -.450E-21 0.123E+00   -.266E-13 0.158E-13 0.544E-05
   -.993E-09 -.149E-08 0.425E+00   0.819E-15 0.138E-13 -.301E+00   0.122E-19 0.205E-22 -.123E+00   -.456E-13 -.164E-13 -.544E-05
   -.993E-09 -.149E-08 0.425E+00   -.296E-14 0.138E-13 -.301E+00   -.839E-20 0.153E-20 -.123E+00   0.559E-13 0.360E-13 -.544E-05
   -.993E-09 -.149E-08 0.425E+00   0.436E-14 0.142E-13 -.301E+00   -.161E-20 -.283E-21 -.123E+00   -.438E-13 0.147E-13 -.544E-05
   -.993E-09 -.149E-08 0.425E+00   0.128E-13 0.711E-14 -.301E+00   0.535E-20 -.287E-20 -.123E+00   0.399E-13 -.393E-13 -.544E-05
   -.993E-09 -.149E-08 0.425E+00   0.903E-14 0.107E-13 -.301E+00   -.429E-20 0.129E-20 -.123E+00   0.412E-13 -.155E-13 -.544E-05
   -.993E-09 -.150E-08 0.425E+00   0.179E-13 0.107E-13 -.301E+00   0.492E-20 -.278E-20 -.123E+00   -.553E-13 0.383E-13 -.544E-05
   -.993E-09 -.150E-08 0.425E+00   0.108E-13 0.142E-13 -.301E+00   0.117E-19 0.485E-21 -.123E+00   0.358E-13 0.137E-13 -.544E-05
   -.993E-09 -.149E-08 0.425E+00   0.201E-13 0.711E-14 -.301E+00   -.899E-20 0.973E-21 -.123E+00   -.423E-13 -.347E-13 -.544E-05
   0.267E-08 0.304E-08 -.425E+00   0.688E-14 -.999E-14 0.301E+00   0.501E-20 -.322E-20 0.123E+00   0.986E-13 -.339E-13 0.544E-05
   0.267E-08 0.304E-08 -.425E+00   -.888E-14 -.102E-13 0.301E+00   -.539E-20 0.825E-21 0.123E+00   -.776E-13 0.176E-13 0.544E-05
   0.267E-08 0.304E-08 -.425E+00   -.311E-14 -.120E-13 0.301E+00   -.535E-20 0.332E-21 0.123E+00   0.692E-13 0.298E-13 0.544E-05
   0.267E-08 0.304E-08 -.425E+00   -.888E-15 -.111E-13 0.301E+00   0.839E-20 -.309E-20 0.123E+00   -.567E-13 -.137E-13 0.544E-05
   0.267E-08 0.304E-08 -.425E+00   0.311E-14 -.178E-14 0.301E+00   -.789E-20 0.235E-21 0.123E+00   -.819E-13 -.203E-13 0.544E-05
   0.267E-08 0.304E-08 -.425E+00   -.147E-13 -.178E-14 0.301E+00   0.102E-19 -.298E-20 0.123E+00   0.875E-13 0.948E-15 0.544E-05
   0.267E-08 0.304E-08 -.425E+00   0.666E-14 -.400E-14 0.301E+00   0.306E-20 -.266E-20 0.123E+00   -.524E-13 0.280E-13 0.544E-05
   0.267E-08 0.304E-08 -.425E+00   0.107E-13 -.711E-14 0.301E+00   -.538E-20 0.372E-21 0.123E+00   0.670E-13 -.103E-13 0.544E-05
   -.993E-09 -.149E-08 0.425E+00   0.178E-14 0.996E-14 -.301E+00   0.314E-20 -.999E-22 -.123E+00   0.172E-12 -.265E-13 -.544E-05
   -.993E-09 -.149E-08 0.425E+00   0.341E-14 0.102E-13 -.301E+00   -.284E-20 -.931E-21 -.123E+00   -.161E-12 -.167E-13 -.544E-05
   -.993E-09 -.149E-08 0.425E+00   -.245E-14 0.498E-14 -.301E+00   0.514E-20 -.187E-22 -.123E+00   0.727E-13 0.394E-13 -.544E-05
   -.993E-09 -.149E-08 0.425E+00   -.816E-14 0.409E-14 -.301E+00   -.741E-20 -.499E-21 -.123E+00   -.639E-13 0.176E-13 -.544E-05
   -.993E-09 -.149E-08 0.425E+00   0.112E-13 0.874E-14 -.301E+00   0.444E-20 -.400E-21 -.123E+00   -.168E-12 -.736E-13 -.544E-05
   -.993E-09 -.149E-08 0.425E+00   0.148E-13 0.875E-14 -.301E+00   -.135E-19 -.122E-20 -.123E+00   0.148E-12 0.330E-13 -.544E-05
   -.993E-09 -.149E-08 0.425E+00   0.771E-14 0.111E-13 -.301E+00   0.643E-20 0.470E-21 -.123E+00   -.769E-13 0.835E-13 -.544E-05
   -.993E-09 -.149E-08 0.425E+00   -.334E-14 0.107E-13 -.301E+00   -.346E-21 -.198E-21 -.123E+00   0.561E-13 -.292E-13 -.544E-05
 -----------------------------------------------------------------------------------------------
   0.535E-07 0.496E-07 0.130E-04   -.231E-13 -.330E-13 0.158E-13   0.508E-20 -.203E-19 0.375E-15   -.315E-13 0.328E-13 -.175E-10
 
 
 POSITION                                       TOTAL-FORCE (eV/Angst)
 -----------------------------------------------------------------------------------
      0.00000      0.00000      0.00203         0.000000     -0.000000      0.000205
      0.00000      0.00000      5.35224         0.000000     -0.000000      0.000205
      0.01338      5.35021      0.00203         0.000000     -0.000000      0.000205
      0.01338      5.35021      5.35224         0.000000     -0.000000      0.000205
      5.37696      0.01338      0.00203         0.000000      0.000000      0.000205
      5.37696      0.01338      5.35224         0.000000      0.000000      0.000205
      5.39034      5.36359      0.00203         0.000000      0.000000      0.000205
      5.39034      5.36359      5.35224         0.000000      0.000000      0.000205
      4.04275      4.02269      1.33552         0.000000      0.000000     -0.000205
      4.04275      4.02269      6.68573         0.000000      0.000000     -0.000205
      4.05613      9.37290      1.33552         0.000000     -0.000000     -0.000205
      4.05613      9.37290      6.68573        -0.000000     -0.000000     -0.000205
      9.41971      4.03606      1.33552        -0.000000      0.000000     -0.000205
      9.41971      4.03606      6.68573        -0.000000     -0.000000     -0.000205
      9.43309      9.38628      1.33552        -0.000000      0.000000     -0.000205
      9.43309      9.38628      6.68573        -0.000000      0.000000     -0.000205
      0.00669      2.67511      2.67713         0.000000     -0.000000      0.000205
      0.00669      2.67511      8.02734         0.000000     -0.000000      0.000205
      0.02006      8.02532      2.67713         0.000000     -0.000000      0.000205
      0.02006      8.02532      8.02734         0.000000     -0.000000      0.000205
      5.38365      2.68848      2.67713         0.000000     -0.000000      0.000205
      5.38365      2.68848      8.02734         0.000000      0.000000      0.000205
      5.39702      8.03869      2.67713        -0.000000      0.000000      0.000205
      5.39702      8.03869      8.02734         0.000000      0.000000      0.000205
      4.03606      1.34758      4.01063         0.000000      0.000000     -0.000205
      4.03606      1.34758      9.36084         0.000000     -0.000000     -0.000205
      4.04944      6.69779      4.01063         0.000000     -0.000000     -0.000205
      4.04944      6.69779      9.36084         0.000000      0.000000     -0.000205
      9.41303      1.36096      4.01063        -0.000000      0.000000     -0.000205
      9.41303      1.36096      9.36084        -0.000000      0.000000     -0.000205
      9.42640      6.71117      4.01063        -0.000000     -0.000000     -0.000205
      9.42640      6.71117      9.36084        -0.000000     -0.000000     -0.000205
      2.68848      0.00669      2.67713        -0.000000      0.000000      0.000205
      2.68848      0.00669      8.02734        -0.000000     -0.000000      0.000205
      2.70186      5.35690      2.67713        -0.000000      0.000000      0.000205
      2.70186      5.35690      8.02734        -0.000000     -0.000000      0.000205
      8.06544      0.02006      2.67713        -0.000000      0.000000      0.000205
      8.06544      0.02006      8.02734        -0.000000      0.000000      0.000205
      8.07882      5.37027      2.67713         0.000000     -0.000000      0.000205
      8.07882      5.37027      8.02734         0.000000      0.000000      0.000205
      1.35427      4.01600      4.01063         0.000000     -0.000000     -0.000205
      1.35427      4.01600      9.36084         0.000000      0.000000     -0.000205
      1.36765      9.36621      4.01063        -0.000000      0.000000     -0.000205
      1.36765      9.36621      9.36084        -0.000000      0.000000     -0.000205
      6.73123      4.02938      4.01063         0.000000     -0.000000     -0.000205
      6.73123      4.02938      9.36084         0.000000     -0.000000     -0.000205
      6.74461      9.37959      4.01063         0.000000     -0.000000     -0.000205
      6.74461      9.37959      9.36084         0.000000     -0.000000     -0.000205
      2.69517      2.68179      0.00203        -0.000000      0.000000      0.000205
      2.69517      2.68179      5.35224        -0.000000      0.000000      0.000205
      2.70854      8.03200      0.00203        -0.000000     -0.000000      0.000205
      2.70854      8.03200      5.35224        -0.000000     -0.000000      0.000205
      8.07213      2.69517      0.00203        -0.000000      0.000000      0.000205
      8.07213      2.69517      5.35224        -0.000000      0.000000      0.000205
      8.08551      8.04538      0.00203         0.000000     -0.000000      0.000205
      8.08551      8.04538      5.35224         0.000000      0.000000      0.000205
      1.34758      1.34090      1.33552        -0.000000      0.000000     -0.000205
      1.34758      1.34090      6.68573        -0.000000      0.000000     -0.000205
      1.36096      6.69111      1.33552        -0.000000      0.000000     -0.000205
      1.36096      6.69111      6.68573        -0.000000      0.000000     -0.000205
      6.72455      1.35427      1.33552         0.000000     -0.000000     -0.000205
      6.72455      1.35427      6.68573         0.000000     -0.000000     -0.000205
      6.73792      6.70448      1.33552         0.000000     -0.000000     -0.000205
      6.73792      6.70448      6.68573         0.000000     -0.000000     -0.000205
 -----------------------------------------------------------------------------------
    total drift:                                0.000000      0.000000      0.000013


--------------------------------------------------------------------------------------------------------



  FREE ENERGIE OF THE ION-ELECTRON SYSTEM (eV)
  ---------------------------------------------------
  free  energy   TOTEN  =      -366.90174502 eV

  energy  without entropy=     -366.93369859  energy(sigma->0) =     -366.91239621
 
 d Force = 0.6292141E-03[-0.108E-04, 0.127E-02]  d Energy = 0.6311314E-03-0.192E-05
 d Force =-0.1482128E-01[-0.159E-01,-0.137E-01]  d Ewald  =-0.1482128E-01-0.281E-08


--------------------------------------------------------------------------------------------------------


    POTLOK:  cpu time      0.1417: real time      0.1422


--------------------------------------------------------------------------------------------------------




--------------------------------------------------------------------------------------------------------


  
 reached required accuracy - stopping structural energy minimisation
     LOOP+:  cpu time     12.3598: real time     12.5424
    4ORBIT:  cpu time      0.0000: real time      0.0000

 total amount of memory used by VASP MPI-rank0    79350. kBytes
=======================================================================

   base      :      30000. kBytes
   nonlr-proj:       4615. kBytes
   fftplans  :      17992. kBytes
   grid      :       6881. kBytes
   one-center:         18. kBytes
   wavefun   :      19844. kBytes
 
  
  
 General timing and accounting informations for this job:
 ========================================================
  
                  Total CPU time used (sec):       61.565
                            User time (sec):       58.531
                          System time (sec):        3.034
                         Elapsed time (sec):       65.138
  
                   Maximum memory used (kb):      408528.
                   Average memory used (kb):          N/A
  
                          Minor page faults:        91094
                          Major page faults:            0
                 Voluntary context switches:         8535
