Si64                                    
           1
    10.753923    0.026751    0.000000
     0.026751   10.700421    0.000000
     0.000000    0.000000   10.700421
   Si
    64
Direct configuration=     1
   0.00000000  0.00000000  0.00000000
   0.00000000  0.00000000  0.50000000
   0.00000000  0.50000000  0.00000000
   0.00000000  0.50000000  0.50000000
   0.50000000  0.00000000  0.00000000
   0.50000000  0.00000000  0.50000000
   0.50000000  0.50000000  0.00000000
   0.50000000  0.50000000  0.50000000
   0.37500000  0.37500000  0.12500000
   0.37500000  0.37500000  0.62500000
   0.37500000  0.87500000  0.12500000
   0.37500000  0.87500000  0.62500000
   0.87500000  0.37500000  0.12500000
   0.87500000  0.37500000  0.62500000
   0.87500000  0.87500000  0.12500000
   0.87500000  0.87500000  0.62500000
   0.00000000  0.25000000  0.25000000
   0.00000000  0.25000000  0.75000000
   0.00000000  0.75000000  0.25000000
   0.00000000  0.75000000  0.75000000
   0.50000000  0.25000000  0.25000000
   0.50000000  0.25000000  0.75000000
   0.50000000  0.75000000  0.25000000
   0.50000000  0.75000000  0.75000000
   0.37500000  0.12500000  0.37500000
   0.37500000  0.12500000  0.87500000
   0.37500000  0.62500000  0.37500000
   0.37500000  0.62500000  0.87500000
   0.87500000  0.12500000  0.37500000
   0.87500000  0.12500000  0.87500000
   0.87500000  0.62500000  0.37500000
   0.87500000  0.62500000  0.87500000
   0.25000000  0.00000000  0.25000000
   0.25000000  0.00000000  0.75000000
   0.25000000  0.50000000  0.25000000
   0.25000000  0.50000000  0.75000000
   0.75000000  0.00000000  0.25000000
   0.75000000  0.00000000  0.75000000
   0.75000000  0.50000000  0.25000000
   0.75000000  0.50000000  0.75000000
   0.12500000  0.37500000  0.37500000
   0.12500000  0.37500000  0.87500000
   0.12500000  0.87500000  0.37500000
   0.12500000  0.87500000  0.87500000
   0.62500000  0.37500000  0.37500000
   0.62500000  0.37500000  0.87500000
   0.62500000  0.87500000  0.37500000
   0.62500000  0.87500000  0.87500000
   0.25000000  0.25000000  0.00000000
   0.25000000  0.25000000  0.50000000
   0.25000000  0.75000000  0.00000000
   0.25000000  0.75000000  0.50000000
   0.75000000  0.25000000  0.00000000
   0.75000000  0.25000000  0.50000000
   0.75000000  0.75000000  0.00000000
   0.75000000  0.75000000  0.50000000
   0.12500000  0.12500000  0.12500000
   0.12500000  0.12500000  0.62500000
   0.12500000  0.62500000  0.12500000
   0.12500000  0.62500000  0.62500000
   0.62500000  0.12500000  0.12500000
   0.62500000  0.12500000  0.62500000
   0.62500000  0.62500000  0.12500000
   0.62500000  0.62500000  0.62500000
Direct configuration=     2
   0.00000000  0.00000000  0.00026670
   1.00000000  0.00000000  0.50026670
   0.00000000  0.50000000  0.00026670
   1.00000000  0.50000000  0.50026670
   0.50000000  1.00000000  0.00026670
   0.50000000  0.00000000  0.50026670
   0.50000000  0.50000000  0.00026670
   0.50000000  0.50000000  0.50026670
   0.37500000  0.37500000  0.12473330
   0.37500000  0.37500000  0.62473330
   0.37500000  0.87500000  0.12473330
   0.37500000  0.87500000  0.62473330
   0.87500000  0.37500000  0.12473330
   0.87500000  0.37500000  0.62473330
   0.87500000  0.87500000  0.12473330
   0.87500000  0.87500000  0.62473330
   1.00000000  0.25000000  0.25026670
   1.00000000  0.25000000  0.75026670
   0.00000000  0.75000000  0.25026670
   1.00000000  0.75000000  0.75026670
   0.50000000  0.25000000  0.25026670
   0.50000000  0.25000000  0.75026670
   0.50000000  0.75000000  0.25026670
   0.50000000  0.75000000  0.75026670
   0.37500000  0.12500000  0.37473330
   0.37500000  0.12500000  0.87473330
   0.37500000  0.62500000  0.37473330
   0.37500000  0.62500000  0.87473330
   0.87500000  0.12500000  0.37473330
   0.87500000  0.12500000  0.87473330
   0.87500000  0.62500000  0.37473330
   0.87500000  0.62500000  0.87473330
   0.25000000  0.00000000  0.25026670
   0.25000000  1.00000000  0.75026670
   0.25000000  0.50000000  0.25026670
   0.25000000  0.50000000  0.75026670
   0.75000000  0.00000000  0.25026670
   0.75000000  0.00000000  0.75026670
   0.75000000  0.50000000  0.25026670
   0.75000000  0.50000000  0.75026670
   0.12500000  0.37500000  0.37473330
   0.12500000  0.37500000  0.87473330
   0.12500000  0.87500000  0.37473330
   0.12500000  0.87500000  0.87473330
   0.62500000  0.37500000  0.37473330
   0.62500000  0.37500000  0.87473330
   0.62500000  0.87500000  0.37473330
   0.62500000  0.87500000  0.87473330
   0.25000000  0.25000000  0.00026670
   0.25000000  0.25000000  0.50026670
   0.25000000  0.75000000  0.00026670
   0.25000000  0.75000000  0.50026670
   0.75000000  0.25000000  0.00026670
   0.75000000  0.25000000  0.50026670
   0.75000000  0.75000000  0.00026670
   0.75000000  0.75000000  0.50026670
   0.12500000  0.12500000  0.12473330
   0.12500000  0.12500000  0.62473330
   0.12500000  0.62500000  0.12473330
   0.12500000  0.62500000  0.62473330
   0.62500000  0.12500000  0.12473330
   0.62500000  0.12500000  0.62473330
   0.62500000  0.62500000  0.12473330
   0.62500000  0.62500000  0.62473330
Direct configuration=     3
   0.00000000  0.00000000  0.00018962
   0.00000000  0.00000000  0.50018962
   0.00000000  0.50000000  0.00018962
   0.00000000  0.50000000  0.50018962
   0.50000000  0.00000000  0.00018962
   0.50000000  0.00000000  0.50018962
   0.50000000  0.50000000  0.00018962
   0.50000000  0.50000000  0.50018962
   0.37500000  0.37500000  0.12481038
   0.37500000  0.37500000  0.62481038
   0.37500000  0.87500000  0.12481038
   0.37500000  0.87500000  0.62481038
   0.87500000  0.37500000  0.12481038
   0.87500000  0.37500000  0.62481038
   0.87500000  0.87500000  0.12481038
   0.87500000  0.87500000  0.62481038
   0.00000000  0.25000000  0.25018962
   0.00000000  0.25000000  0.75018962
   0.00000000  0.75000000  0.25018962
   0.00000000  0.75000000  0.75018962
   0.50000000  0.25000000  0.25018962
   0.50000000  0.25000000  0.75018962
   0.50000000  0.75000000  0.25018962
   0.50000000  0.75000000  0.75018962
   0.37500000  0.12500000  0.37481038
   0.37500000  0.12500000  0.87481038
   0.37500000  0.62500000  0.37481038
   0.37500000  0.62500000  0.87481038
   0.87500000  0.12500000  0.37481038
   0.87500000  0.12500000  0.87481038
   0.87500000  0.62500000  0.37481038
   0.87500000  0.62500000  0.87481038
   0.25000000  0.00000000  0.25018962
   0.25000000  0.00000000  0.75018962
   0.25000000  0.50000000  0.25018962
   0.25000000  0.50000000  0.75018962
   0.75000000  0.00000000  0.25018962
   0.75000000  0.00000000  0.75018962
   0.75000000  0.50000000  0.25018962
   0.75000000  0.50000000  0.75018962
   0.12500000  0.37500000  0.37481038
   0.12500000  0.37500000  0.87481038
   0.12500000  0.87500000  0.37481038
   0.12500000  0.87500000  0.87481038
   0.62500000  0.37500000  0.37481038
   0.62500000  0.37500000  0.87481038
   0.62500000  0.87500000  0.37481038
   0.62500000  0.87500000  0.87481038
   0.25000000  0.25000000  0.00018962
   0.25000000  0.25000000  0.50018962
   0.25000000  0.75000000  0.00018962
   0.25000000  0.75000000  0.50018962
   0.75000000  0.25000000  0.00018962
   0.75000000  0.25000000  0.50018962
   0.75000000  0.75000000  0.00018962
   0.75000000  0.75000000  0.50018962
   0.12500000  0.12500000  0.12481038
   0.12500000  0.12500000  0.62481038
   0.12500000  0.62500000  0.12481038
   0.12500000  0.62500000  0.62481038
   0.62500000  0.12500000  0.12481038
   0.62500000  0.12500000  0.62481038
   0.62500000  0.62500000  0.12481038
   0.62500000  0.62500000  0.62481038
