  64  64   0   0
  0.1946968E+02  0.1061780E-08  0.1083446E-08  0.1083392E-08  0.5000000E-15
  1.000000000000000E-004
  CAR 
 Si64                                    
     11.51425486     -8.10690811  301      6.32213390      1.00000000
     -8.107  0.0000E+00  0.0000E+00
     -8.042  0.0000E+00  0.0000E+00
     -7.976  0.0000E+00  0.0000E+00
     -7.911  0.0000E+00  0.0000E+00
     -7.845  0.0000E+00  0.0000E+00
     -7.780  0.0000E+00  0.0000E+00
     -7.714 -0.1262E-28 -0.8253E-30
     -7.649 -0.2075E-26 -0.1365E-27
     -7.584 -0.2763E-24 -0.1821E-25
     -7.518 -0.2963E-22 -0.1956E-23
     -7.453 -0.2560E-20 -0.1694E-21
     -7.387 -0.1780E-18 -0.1181E-19
     -7.322 -0.9964E-17 -0.6635E-18
     -7.257 -0.4344E-15 -0.2908E-16
     -7.191 -0.1569E-13 -0.1055E-14
     -7.126 -0.4542E-12 -0.3076E-13
     -7.060 -0.1054E-10 -0.7202E-12
     -6.995 -0.1959E-09 -0.1354E-10
     -6.930 -0.2911E-08 -0.2039E-09
     -6.864 -0.3449E-07 -0.2460E-08
     -6.799 -0.3248E-06 -0.2370E-07
     -6.733 -0.2419E-05 -0.1819E-06
     -6.668 -0.1415E-04 -0.1108E-05
     -6.603 -0.6432E-04 -0.5315E-05
     -6.537 -0.2227E-03 -0.1988E-04
     -6.472 -0.5660E-03 -0.5690E-04
     -6.406 -0.9606E-03 -0.1197E-03
     -6.341 -0.7152E-03 -0.1665E-03
     -6.276  0.1247E-02 -0.8497E-04
     -6.210  0.5064E-02  0.2462E-03
     -6.145  0.9046E-02  0.8379E-03
     -6.079  0.1249E-01  0.1654E-02
     -6.014  0.2026E-01  0.2979E-02
     -5.949  0.3967E-01  0.5574E-02
     -5.883  0.6815E-01  0.1003E-01
     -5.818  0.9097E-01  0.1598E-01
     -5.752  0.1017E+00  0.2264E-01
     -5.687  0.1171E+00  0.3029E-01
     -5.622  0.1528E+00  0.4029E-01
     -5.556  0.1912E+00  0.5279E-01
     -5.491  0.1986E+00  0.6578E-01
     -5.425  0.1728E+00  0.7708E-01
     -5.360  0.1452E+00  0.8658E-01
     -5.295  0.1331E+00  0.9529E-01
     -5.229  0.1218E+00  0.1033E+00
     -5.164  0.9876E-01  0.1097E+00
     -5.098  0.7616E-01  0.1147E+00
     -5.033  0.7057E-01  0.1193E+00
     -4.968  0.8790E-01  0.1251E+00
     -4.902  0.1376E+00  0.1341E+00
     -4.837  0.2301E+00  0.1491E+00
     -4.771  0.3426E+00  0.1715E+00
     -4.706  0.4233E+00  0.1992E+00
     -4.641  0.4510E+00  0.2287E+00
     -4.575  0.4532E+00  0.2583E+00
     -4.510  0.4434E+00  0.2873E+00
     -4.444  0.3878E+00  0.3127E+00
     -4.379  0.2649E+00  0.3300E+00
     -4.313  0.1161E+00  0.3376E+00
     -4.248  0.9721E-02  0.3383E+00
     -4.183 -0.1529E-01  0.3373E+00
     -4.117  0.4301E-01  0.3401E+00
     -4.052  0.1671E+00  0.3510E+00
     -3.986  0.3221E+00  0.3721E+00
     -3.921  0.4540E+00  0.4018E+00
     -3.856  0.5084E+00  0.4350E+00
     -3.790  0.4659E+00  0.4655E+00
     -3.725  0.3604E+00  0.4890E+00
     -3.659  0.2611E+00  0.5061E+00
     -3.594  0.2325E+00  0.5213E+00
     -3.529  0.3009E+00  0.5410E+00
     -3.463  0.4402E+00  0.5698E+00
     -3.398  0.5855E+00  0.6081E+00
     -3.332  0.6745E+00  0.6522E+00
     -3.267  0.6852E+00  0.6970E+00
     -3.202  0.6343E+00  0.7385E+00
     -3.136  0.5521E+00  0.7746E+00
     -3.071  0.4714E+00  0.8054E+00
     -3.005  0.4238E+00  0.8332E+00
     -2.940  0.4162E+00  0.8604E+00
     -2.875  0.4082E+00  0.8871E+00
     -2.809  0.3464E+00  0.9097E+00
     -2.744  0.2257E+00  0.9245E+00
     -2.678  0.9649E-01  0.9308E+00
     -2.613  0.9157E-02  0.9314E+00
     -2.548 -0.2425E-01  0.9298E+00
     -2.482 -0.1609E-01  0.9288E+00
     -2.417  0.2430E-01  0.9304E+00
     -2.351  0.9001E-01  0.9363E+00
     -2.286  0.1574E+00  0.9465E+00
     -2.221  0.1871E+00  0.9588E+00
     -2.155  0.1564E+00  0.9690E+00
     -2.090  0.8834E-01  0.9748E+00
     -2.024  0.4201E-01  0.9775E+00
     -1.959  0.7211E-01  0.9823E+00
     -1.894  0.1939E+00  0.9949E+00
     -1.828  0.3699E+00  0.1019E+01
     -1.763  0.5219E+00  0.1053E+01
     -1.697  0.5712E+00  0.1091E+01
     -1.632  0.4896E+00  0.1123E+01
     -1.567  0.3212E+00  0.1144E+01
     -1.501  0.1527E+00  0.1154E+01
     -1.436  0.5802E-01  0.1157E+01
     -1.370  0.5641E-01  0.1161E+01
     -1.305  0.1123E+00  0.1168E+01
     -1.240  0.1677E+00  0.1179E+01
     -1.174  0.1833E+00  0.1191E+01
     -1.109  0.1624E+00  0.1202E+01
     -1.043  0.1477E+00  0.1212E+01
     -0.978  0.1870E+00  0.1224E+01
     -0.912  0.2814E+00  0.1242E+01
     -0.847  0.3658E+00  0.1266E+01
     -0.782  0.3749E+00  0.1291E+01
     -0.716  0.3359E+00  0.1313E+01
     -0.651  0.3589E+00  0.1336E+01
     -0.585  0.5192E+00  0.1370E+01
     -0.520  0.7675E+00  0.1420E+01
     -0.455  0.9556E+00  0.1483E+01
     -0.389  0.9454E+00  0.1545E+01
     -0.324  0.7156E+00  0.1592E+01
     -0.258  0.3837E+00  0.1617E+01
     -0.193  0.1188E+00  0.1624E+01
     -0.128  0.2524E-01  0.1626E+01
     -0.062  0.9845E-01  0.1632E+01
      0.003  0.2523E+00  0.1649E+01
      0.069  0.3742E+00  0.1673E+01
      0.134  0.3894E+00  0.1699E+01
      0.199  0.3037E+00  0.1719E+01
      0.265  0.1851E+00  0.1731E+01
      0.330  0.1048E+00  0.1738E+01
      0.396  0.9876E-01  0.1744E+01
      0.461  0.1658E+00  0.1755E+01
      0.526  0.2786E+00  0.1773E+01
      0.592  0.3931E+00  0.1799E+01
      0.657  0.4591E+00  0.1829E+01
      0.723  0.4410E+00  0.1858E+01
      0.788  0.3402E+00  0.1880E+01
      0.853  0.1997E+00  0.1893E+01
      0.919  0.7708E-01  0.1898E+01
      0.984  0.6133E-02  0.1899E+01
      1.050 -0.1715E-01  0.1897E+01
      1.115 -0.1689E-01  0.1896E+01
      1.180 -0.1455E-01  0.1895E+01
      1.246 -0.2003E-01  0.1894E+01
      1.311 -0.3031E-01  0.1892E+01
      1.377 -0.2437E-01  0.1891E+01
      1.442  0.3870E-01  0.1893E+01
      1.507  0.1979E+00  0.1906E+01
      1.573  0.4454E+00  0.1935E+01
      1.638  0.6991E+00  0.1981E+01
      1.704  0.8360E+00  0.2036E+01
      1.769  0.7796E+00  0.2087E+01
      1.834  0.5730E+00  0.2124E+01
      1.900  0.3600E+00  0.2148E+01
      1.965  0.2695E+00  0.2165E+01
      2.031  0.3068E+00  0.2185E+01
      2.096  0.3694E+00  0.2209E+01
      2.162  0.3693E+00  0.2234E+01
      2.227  0.3341E+00  0.2255E+01
      2.292  0.3855E+00  0.2281E+01
      2.358  0.6163E+00  0.2321E+01
      2.423  0.9789E+00  0.2385E+01
      2.489  0.1291E+01  0.2469E+01
      2.554  0.1363E+01  0.2559E+01
      2.619  0.1143E+01  0.2633E+01
      2.685  0.7454E+00  0.2682E+01
      2.750  0.3481E+00  0.2705E+01
      2.816  0.7463E-01  0.2710E+01
      2.881 -0.5267E-01  0.2706E+01
      2.946 -0.6739E-01  0.2702E+01
      3.012  0.1364E-01  0.2703E+01
      3.077  0.2127E+00  0.2717E+01
      3.143  0.5371E+00  0.2752E+01
      3.208  0.9140E+00  0.2812E+01
      3.273  0.1209E+01  0.2891E+01
      3.339  0.1323E+01  0.2977E+01
      3.404  0.1255E+01  0.3059E+01
      3.470  0.1074E+01  0.3129E+01
      3.535  0.8641E+00  0.3186E+01
      3.600  0.6988E+00  0.3232E+01
      3.666  0.6296E+00  0.3273E+01
      3.731  0.6512E+00  0.3315E+01
      3.797  0.6953E+00  0.3361E+01
      3.862  0.6843E+00  0.3406E+01
      3.927  0.6009E+00  0.3445E+01
      3.993  0.5000E+00  0.3478E+01
      4.058  0.4475E+00  0.3507E+01
      4.124  0.4584E+00  0.3537E+01
      4.189  0.5007E+00  0.3570E+01
      4.254  0.5413E+00  0.3605E+01
      4.320  0.5696E+00  0.3642E+01
      4.385  0.5908E+00  0.3681E+01
      4.451  0.6237E+00  0.3722E+01
      4.516  0.6939E+00  0.3767E+01
      4.581  0.7997E+00  0.3819E+01
      4.647  0.8901E+00  0.3878E+01
      4.712  0.8984E+00  0.3936E+01
      4.778  0.7994E+00  0.3989E+01
      4.843  0.6231E+00  0.4029E+01
      4.908  0.4262E+00  0.4057E+01
      4.974  0.2646E+00  0.4075E+01
      5.039  0.1819E+00  0.4087E+01
      5.105  0.1915E+00  0.4099E+01
      5.170  0.2596E+00  0.4116E+01
      5.235  0.3213E+00  0.4137E+01
      5.301  0.3277E+00  0.4159E+01
      5.366  0.2772E+00  0.4177E+01
      5.432  0.1998E+00  0.4190E+01
      5.497  0.1278E+00  0.4198E+01
      5.563  0.8376E-01  0.4204E+01
      5.628  0.8002E-01  0.4209E+01
      5.693  0.1101E+00  0.4216E+01
      5.759  0.1473E+00  0.4226E+01
      5.824  0.1633E+00  0.4236E+01
      5.890  0.1494E+00  0.4246E+01
      5.955  0.1158E+00  0.4254E+01
      6.020  0.7745E-01  0.4259E+01
      6.086  0.4470E-01  0.4262E+01
      6.151  0.2306E-01  0.4263E+01
      6.217  0.1452E-01  0.4264E+01
      6.282  0.1926E-01  0.4265E+01
      6.347  0.3793E-01  0.4268E+01
      6.413  0.7019E-01  0.4272E+01
      6.478  0.1090E+00  0.4280E+01
      6.544  0.1384E+00  0.4289E+01
      6.609  0.1422E+00  0.4298E+01
      6.674  0.1163E+00  0.4306E+01
      6.740  0.7568E-01  0.4310E+01
      6.805  0.4632E-01  0.4313E+01
      6.871  0.4937E-01  0.4317E+01
      6.936  0.8737E-01  0.4322E+01
      7.001  0.1413E+00  0.4332E+01
      7.067  0.1835E+00  0.4344E+01
      7.132  0.2006E+00  0.4357E+01
      7.198  0.2074E+00  0.4370E+01
      7.263  0.2349E+00  0.4386E+01
      7.328  0.2971E+00  0.4405E+01
      7.394  0.3683E+00  0.4429E+01
      7.459  0.4026E+00  0.4456E+01
      7.525  0.3795E+00  0.4480E+01
      7.590  0.3287E+00  0.4502E+01
      7.655  0.3055E+00  0.4522E+01
      7.721  0.3391E+00  0.4544E+01
      7.786  0.4101E+00  0.4571E+01
      7.852  0.4836E+00  0.4603E+01
      7.917  0.5450E+00  0.4638E+01
      7.982  0.5886E+00  0.4677E+01
      8.048  0.6054E+00  0.4716E+01
      8.113  0.6068E+00  0.4756E+01
      8.179  0.6328E+00  0.4797E+01
      8.244  0.7084E+00  0.4844E+01
      8.309  0.8117E+00  0.4897E+01
      8.375  0.9012E+00  0.4956E+01
      8.440  0.9526E+00  0.5018E+01
      8.506  0.9593E+00  0.5081E+01
      8.571  0.9172E+00  0.5141E+01
      8.636  0.8220E+00  0.5194E+01
      8.702  0.6784E+00  0.5239E+01
      8.767  0.5123E+00  0.5272E+01
      8.833  0.3744E+00  0.5297E+01
      8.898  0.3092E+00  0.5317E+01
      8.964  0.3096E+00  0.5337E+01
      9.029  0.3155E+00  0.5358E+01
      9.094  0.2719E+00  0.5376E+01
      9.160  0.1786E+00  0.5387E+01
      9.225  0.7960E-01  0.5393E+01
      9.291  0.1561E-01  0.5394E+01
      9.356 -0.3662E-02  0.5393E+01
      9.421  0.6442E-02  0.5394E+01
      9.487  0.2360E-01  0.5395E+01
      9.552  0.3156E-01  0.5397E+01
      9.618  0.2618E-01  0.5399E+01
      9.683  0.1393E-01  0.5400E+01
      9.748  0.3580E-02  0.5400E+01
      9.814 -0.1149E-02  0.5400E+01
      9.879 -0.1771E-02  0.5400E+01
      9.945 -0.1033E-02  0.5400E+01
     10.010 -0.3976E-03  0.5400E+01
     10.075 -0.1122E-03  0.5400E+01
     10.141 -0.2417E-04  0.5400E+01
     10.206 -0.4049E-05  0.5400E+01
     10.272 -0.5332E-06  0.5400E+01
     10.337 -0.5560E-07  0.5400E+01
     10.402 -0.4611E-08  0.5400E+01
     10.468 -0.3052E-09  0.5400E+01
     10.533 -0.1615E-10  0.5400E+01
     10.599 -0.6852E-12  0.5400E+01
     10.664 -0.2331E-13  0.5400E+01
     10.729 -0.6366E-15  0.5400E+01
     10.795 -0.1415E-16  0.5400E+01
     10.860  0.0000E+00  0.5400E+01
     10.926  0.0000E+00  0.5400E+01
     10.991  0.0000E+00  0.5400E+01
     11.056  0.0000E+00  0.5400E+01
     11.122  0.0000E+00  0.5400E+01
     11.187  0.0000E+00  0.5400E+01
     11.253  0.0000E+00  0.5400E+01
     11.318  0.0000E+00  0.5400E+01
     11.383  0.0000E+00  0.5400E+01
     11.449  0.0000E+00  0.5400E+01
     11.514  0.0000E+00  0.5400E+01
