<?xml version="1.0" encoding="ISO-8859-1"?>
<modeling>
 <generator>
  <i name="program" type="string">vasp </i>
  <i name="version" type="string">6.4.3  </i>
  <i name="subversion" type="string">19Mar24 (build Oct 21 2024 22:36:34) complex                          parallel </i>
  <i name="platform" type="string">LinuxIFC </i>
  <i name="date" type="string">2024 11 01 </i>
  <i name="time" type="string">22:45:15 </i>
 </generator>
 <incar>
  <i type="string" name="SYSTEM">Si64</i>
  <i type="int" name="ISTART">     0</i>
  <i type="string" name="PREC">Accurate</i>
  <i type="string" name="ALGO">Fast</i>
  <i type="logical" name="ADDGRID"> T  </i>
  <i type="int" name="ICHARG">     2</i>
  <i type="int" name="NELM">    60</i>
  <i type="int" name="NELMIN">     8</i>
  <i type="int" name="IBRION">     2</i>
  <i name="EDIFF">      0.00000100</i>
  <i name="EDIFFG">     -0.01000000</i>
  <i type="int" name="NSW">    60</i>
  <i type="int" name="ISIF">     2</i>
  <i name="ENCUT">    400.00000000</i>
  <i type="string" name="LREAL">Auto</i>
  <i type="int" name="ISMEAR">     1</i>
  <i name="SIGMA">      0.20000000</i>
  <i type="logical" name="LWAVE"> F  </i>
  <i type="logical" name="LCHARG"> F  </i>
  <i type="logical" name="GGA_COMPAT"> F  </i>
  <i type="string" name="GGA">PS</i>
 </incar>
 <primitive_cell>
  <structure name="primitive_cell" >
   <crystal>
    <varray name="basis" >
     <v>      -2.65431064       0.02708475      -2.70848015 </v>
     <v>      -2.65431064       0.02708475       2.70848015 </v>
     <v>       2.62722589       2.68139540       0.00000000 </v>
    </varray>
    <i name="volume">     38.93935381 </i>
    <varray name="rec_basis" >
     <v>      -0.18650813       0.18274030      -0.18460538 </v>
     <v>      -0.18650813       0.18274030       0.18460538 </v>
     <v>       0.00376783       0.36924843      -0.00000000 </v>
    </varray>
   </crystal>
   <varray name="positions" >
    <v>       0.00000000       0.00000000       0.00000000 </v>
    <v>       0.75000000       0.25000000       0.50000000 </v>
   </varray>
  </structure>
  <varray name="primitive_index" >
   <v type="int" >        1 </v>
   <v type="int" >       15 </v>
  </varray>
 </primitive_cell>
 <kpoints>
  <generation param="Gamma">
   <v type="int" name="divisions">       2        2        2 </v>
   <v name="usershift">      0.00000000       0.00000000       0.00000000 </v>
   <v name="genvec1">      0.50000000      -0.00000000       0.00000000 </v>
   <v name="genvec2">     -0.00000000       0.50000000       0.00000000 </v>
   <v name="genvec3">      0.00000000       0.00000000       0.50000000 </v>
   <v name="shift">      0.00000000       0.00000000       0.00000000 </v>
  </generation>
  <varray name="kpointlist" >
   <v>       0.00000000       0.00000000       0.00000000 </v>
   <v>       0.50000000      -0.00000000       0.00000000 </v>
   <v>       0.00000000       0.50000000       0.00000000 </v>
   <v>       0.50000000       0.50000000       0.00000000 </v>
   <v>       0.00000000       0.00000000       0.50000000 </v>
   <v>       0.50000000      -0.00000000       0.50000000 </v>
   <v>       0.00000000       0.50000000       0.50000000 </v>
   <v>       0.50000000       0.50000000       0.50000000 </v>
  </varray>
  <varray name="weights" >
   <v>       0.12500000 </v>
   <v>       0.12500000 </v>
   <v>       0.12500000 </v>
   <v>       0.12500000 </v>
   <v>       0.12500000 </v>
   <v>       0.12500000 </v>
   <v>       0.12500000 </v>
   <v>       0.12500000 </v>
  </varray>
 </kpoints>
 <parameters>
  <separator name="general" >
   <i type="string" name="SYSTEM">Si64</i>
   <i type="logical" name="LCOMPAT"> F  </i>
  </separator>
  <separator name="electronic" >
   <i type="string" name="PREC">accura</i>
   <i name="ENMAX">    400.00000000</i>
   <i name="ENAUG">    322.06900000</i>
   <i name="EDIFF">      0.00000100</i>
   <i type="int" name="IALGO">    68</i>
   <i type="int" name="IWAVPR">    11</i>
   <i type="int" name="NBANDS">   162</i>
   <i type="int" name="NBANDSLOW">    -1</i>
   <i type="int" name="NBANDSHIGH">    -1</i>
   <i name="NELECT">    256.00000000</i>
   <i type="int" name="TURBO">     0</i>
   <i type="int" name="IRESTART">     0</i>
   <i type="int" name="NREBOOT">     0</i>
   <i type="int" name="NMIN">     0</i>
   <i name="EREF">      0.00000000</i>
   <separator name="electronic smearing" >
    <i type="int" name="ISMEAR">     1</i>
    <i name="SIGMA">      0.20000000</i>
    <i name="KSPACING">      0.50000000</i>
    <i type="logical" name="KGAMMA"> T  </i>
    <i type="logical" name="KBLOWUP"> T  </i>
   </separator>
   <separator name="electronic projectors" >
    <i type="logical" name="LREAL"> T  </i>
    <v name="ROPT">     -0.00025000</v>
    <i type="int" name="LMAXPAW">  -100</i>
    <i type="int" name="LMAXMIX">     2</i>
    <i type="logical" name="NLSPLINE"> F  </i>
   </separator>
   <separator name="electronic startup" >
    <i type="int" name="ISTART">     0</i>
    <i type="int" name="ICHARG">     2</i>
    <i type="int" name="INIWAV">     1</i>
   </separator>
   <separator name="electronic spin" >
    <i type="int" name="ISPIN">     1</i>
    <i type="logical" name="LNONCOLLINEAR"> F  </i>
    <v name="MAGMOM">      1.00000000      1.00000000      1.00000000      1.00000000      1.00000000      1.00000000      1.00000000      1.00000000      1.00000000      1.00000000      1.00000000      1.00000000      1.00000000      1.00000000      1.00000000      1.00000000      1.00000000      1.00000000      1.00000000      1.00000000
      1.00000000      1.00000000      1.00000000      1.00000000      1.00000000      1.00000000      1.00000000      1.00000000      1.00000000      1.00000000      1.00000000      1.00000000      1.00000000      1.00000000      1.00000000      1.00000000      1.00000000      1.00000000      1.00000000      1.00000000
      1.00000000      1.00000000      1.00000000      1.00000000      1.00000000      1.00000000      1.00000000      1.00000000      1.00000000      1.00000000      1.00000000      1.00000000      1.00000000      1.00000000      1.00000000      1.00000000      1.00000000      1.00000000      1.00000000      1.00000000
      1.00000000      1.00000000      1.00000000      1.00000000</v>
    <i name="NUPDOWN">     -1.00000000</i>
    <i type="logical" name="LSORBIT"> F  </i>
    <v name="SAXIS">      0.00000000      0.00000000      1.00000000</v>
    <i type="logical" name="LSPIRAL"> F  </i>
    <v name="QSPIRAL">      0.00000000      0.00000000      0.00000000</v>
    <i type="logical" name="LZEROZ"> F  </i>
   </separator>
   <separator name="electronic exchange-correlation" >
    <i type="logical" name="LASPH"> F  </i>
   </separator>
   <separator name="electronic convergence" >
    <i type="int" name="NELM">    60</i>
    <i type="int" name="NELMDL">    -5</i>
    <i type="int" name="NELMIN">     8</i>
    <i name="ENINI">    400.00000000</i>
    <separator name="electronic convergence detail" >
     <i type="logical" name="LDIAG"> T  </i>
     <i type="logical" name="LSUBROT"> F  </i>
     <i name="WEIMIN">      0.00100000</i>
     <i name="EBREAK">      0.00000000</i>
     <i name="DEPER">      0.30000000</i>
     <i type="int" name="NRMM">     4</i>
     <i name="TIME">      0.40000000</i>
    </separator>
   </separator>
   <separator name="electronic mixer" >
    <i name="AMIX">      0.40000000</i>
    <i name="BMIX">      1.00000000</i>
    <i name="AMIN">      0.10000000</i>
    <i name="AMIX_MAG">      1.60000000</i>
    <i name="BMIX_MAG">      1.00000000</i>
    <separator name="electronic mixer details" >
     <i type="int" name="IMIX">     4</i>
     <i type="logical" name="MIXFIRST"> F  </i>
     <i type="int" name="MAXMIX">   -45</i>
     <i name="WC">    100.00000000</i>
     <i type="int" name="INIMIX">     1</i>
     <i type="int" name="MIXPRE">     1</i>
     <i type="int" name="MREMOVE">     5</i>
    </separator>
   </separator>
   <separator name="electronic dipolcorrection" >
    <i type="logical" name="LDIPOL"> F  </i>
    <i type="logical" name="LMONO"> F  </i>
    <i type="int" name="IDIPOL">     0</i>
    <i name="EPSILON">      1.00000000</i>
    <v name="DIPOL">   -100.00000000   -100.00000000   -100.00000000</v>
    <i name="EFIELD">      0.00000000</i>
    <i type="logical" name="LVACPOTAV"> F  </i>
   </separator>
  </separator>
  <separator name="grids" >
   <i type="int" name="NGX">    70</i>
   <i type="int" name="NGY">    72</i>
   <i type="int" name="NGZ">    72</i>
   <i type="int" name="NGXF">   140</i>
   <i type="int" name="NGYF">   144</i>
   <i type="int" name="NGZF">   144</i>
   <i type="logical" name="ADDGRID"> T  </i>
  </separator>
  <separator name="ionic" >
   <i type="int" name="NSW">    60</i>
   <i type="int" name="IBRION">     2</i>
   <i type="int" name="MDALGO">     0</i>
   <i type="int" name="ISIF">     2</i>
   <i name="PSTRESS">      0.00000000</i>
   <i name="EDIFFG">     -0.01000000</i>
   <i type="int" name="NFREE">     1</i>
   <i name="POTIM">      0.50000000</i>
   <i name="SMASS">     -3.00000000</i>
   <i name="SCALEE">      1.00000000</i>
  </separator>
  <separator name="ionic md" >
   <i name="TEBEG">      0.00010000</i>
   <i name="TEEND">      0.00010000</i>
   <i type="int" name="NBLOCK">     1</i>
   <i type="int" name="KBLOCK">    60</i>
   <i type="int" name="NPACO">   256</i>
   <i name="APACO">     10.00000000</i>
  </separator>
  <separator name="symmetry" >
   <i type="int" name="ISYM">     2</i>
   <i name="SYMPREC">      0.00001000</i>
  </separator>
  <separator name="dos" >
   <i type="int" name="LORBIT">     0</i>
   <v name="RWIGS">     -1.00000000</v>
   <i type="int" name="NEDOS">   301</i>
   <i name="EMIN">     10.00000000</i>
   <i name="EMAX">    -10.00000000</i>
   <i name="EFERMI">      0.00000000</i>
  </separator>
  <separator name="writing" >
   <i type="int" name="NWRITE">     2</i>
   <i type="logical" name="LWAVE"> F  </i>
   <i type="logical" name="LDOWNSAMPLE"> F  </i>
   <i type="logical" name="LCHARG"> F  </i>
   <i type="logical" name="LPARD"> F  </i>
   <i type="logical" name="LVTOT"> F  </i>
   <i type="logical" name="LVHAR"> F  </i>
   <i type="logical" name="LELF"> F  </i>
   <i type="logical" name="LOPTICS"> F  </i>
   <v name="STM">      0.00000000      0.00000000      0.00000000      0.00000000      0.00000000      0.00000000      0.00000000</v>
  </separator>
  <separator name="performance" >
   <i type="int" name="NPAR">     2</i>
   <i type="int" name="NSIM">     4</i>
   <i type="int" name="NBLK">    -1</i>
   <i type="logical" name="LPLANE"> T  </i>
   <i type="logical" name="LSCALAPACK"> T  </i>
   <i type="logical" name="LSCAAWARE"> F  </i>
   <i type="logical" name="LSCALU"> F  </i>
   <i type="logical" name="LASYNC"> F  </i>
   <i type="logical" name="LORBITALREAL"> F  </i>
  </separator>
  <separator name="miscellaneous" >
   <i type="int" name="IDIOT">     3</i>
   <i type="int" name="PHON_NSTRUCT">    -1</i>
   <i type="logical" name="LMUSIC"> F  </i>
   <v name="POMASS">     28.08500000</v>
   <v name="DARWINR">      0.00000000</v>
   <v name="DARWINV">      1.00000000</v>
   <i type="logical" name="LCORR"> T  </i>
  </separator>
  <i type="logical" name="GGA_COMPAT"> F  </i>
  <i type="logical" name="LBERRY"> F  </i>
  <i type="int" name="ICORELEVEL">     0</i>
  <i type="logical" name="LDAU"> F  </i>
  <i type="int" name="I_CONSTRAINED_M">     0</i>
  <separator name="electronic exchange-correlation" >
   <i type="string" name="GGA    ">PS</i>
   <i type="string" name="XC_C">1</i>
   <i type="int" name="VOSKOWN">     0</i>
   <i type="logical" name="LHFCALC"> F  </i>
   <i type="string" name="PRECFOCK"></i>
   <i type="logical" name="LSYMGRAD"> F  </i>
   <i type="logical" name="LHFONE"> F  </i>
   <i type="logical" name="LRHFCALC"> F  </i>
   <i type="logical" name="LTHOMAS"> F  </i>
   <i type="logical" name="LMODELHF"> F  </i>
   <i type="logical" name="LFOCKACE"> F  </i>
   <i name="ENCUT4O">     -1.00000000</i>
   <i type="int" name="EXXOEP">     0</i>
   <i type="int" name="FOURORBIT">     0</i>
   <i name="AEXX">      0.00000000</i>
   <i name="HFALPHA">      0.00000000</i>
   <i name="MCALPHA">      0.00000000</i>
   <i name="ALDAX">      1.00000000</i>
   <i name="AGGAX">      1.00000000</i>
   <i name="AMGGAX">      1.00000000</i>
   <i name="ALDAC">      1.00000000</i>
   <i name="AGGAC">      1.00000000</i>
   <i name="AMGGAC">      1.00000000</i>
   <i type="int" name="NKREDX">     1</i>
   <i type="int" name="NKREDY">     1</i>
   <i type="int" name="NKREDZ">     1</i>
   <i type="logical" name="SHIFTRED"> F  </i>
   <i type="logical" name="ODDONLY"> F  </i>
   <i type="logical" name="EVENONLY"> F  </i>
   <i type="int" name="LMAXFOCK">     0</i>
   <i type="int" name="NMAXFOCKAE">     0</i>
   <i type="logical" name="LFOCKAEDFT"> F  </i>
   <i name="HFSCREEN">      0.00000000</i>
   <i name="HFSCREENC">      0.00000000</i>
   <i type="int" name="NBANDSGWLOW">     0</i>
  </separator>
  <separator name="vdW DFT" >
   <i type="logical" name="LUSE_VDW"> F  </i>
   <i type="int" name="IVDW_NL">    -1</i>
   <i type="logical" name="LSPIN_VDW"> F  </i>
   <i name="ZAB_VDW">     -0.84910000</i>
   <i name="GAMMA_VDW">      1.39626340</i>
   <i name="ALPHA_VDW">      0.00000000</i>
   <i name="PARAM1">      0.12340000</i>
   <i name="PARAM2">      1.00000000</i>
   <i name="BPARAM">      6.30000000</i>
   <i name="CPARAM">      0.00930000</i>
  </separator>
  <separator name="model GW" >
   <i type="int" name="MODEL_GW">     0</i>
   <i name="MODEL_EPS0">     11.68180614</i>
   <i name="MODEL_ALPHA">      1.00000000</i>
  </separator>
  <separator name="linear response parameters" >
   <i type="logical" name="LEPSILON"> F  </i>
   <i type="logical" name="LRPA"> F  </i>
   <i type="logical" name="LNABLA"> F  </i>
   <i type="logical" name="LVEL"> F  </i>
   <i name="CSHIFT">      0.10000000</i>
   <i name="OMEGAMAX">     -1.00000000</i>
   <i name="DEG_THRESHOLD">      0.00200000</i>
   <i name="RTIME">     -0.10000000</i>
   <i name="WPLASMAI">      0.00000000</i>
   <v name="DFIELD">      0.00000000      0.00000000      0.00000000</v>
   <v name="WPLASMA">      0.00000000      0.00000000      0.00000000      0.00000000      0.00000000      0.00000000      0.00000000      0.00000000      0.00000000</v>
  </separator>
  <separator name="orbital magnetization" >
   <i type="logical" name="NUCIND"> F  </i>
   <v name="MAGPOS">      0.00000000      0.00000000      0.00000000</v>
   <i type="logical" name="LNICSALL"> T  </i>
   <i type="logical" name="ORBITALMAG"> F  </i>
   <i type="logical" name="LMAGBLOCH"> F  </i>
   <i type="logical" name="LCHIMAG"> F  </i>
   <i type="logical" name="LGAUGE"> T  </i>
   <i type="int" name="MAGATOM">     0</i>
   <v name="MAGDIPOL">      0.00000000      0.00000000      0.00000000</v>
   <v name="AVECCONST">      0.00000000      0.00000000      0.00000000</v>
  </separator>
  <separator name="response functions" >
   <i type="logical" name="LALL_IN_ONE"> F  </i>
   <i type="int" name="IALL_IN_ONE">    -1</i>
   <i type="int" name="NBANDS_WAVE">    -1</i>
   <i type="logical" name="LFINITE_TEMPERATURE"> F  </i>
   <i type="logical" name="LADDER"> F  </i>
   <i type="logical" name="LRPAFORCE"> F  </i>
   <i type="logical" name="LFXC"> F  </i>
   <i type="logical" name="LHARTREE"> T  </i>
   <i type="int" name="IBSE">     0</i>
   <v type="int" name="KPOINT">    -1     0     0     0</v>
   <i type="logical" name="LTCTC"> F  </i>
   <i type="logical" name="LTCTE"> F  </i>
   <i type="logical" name="LTETE"> F  </i>
   <i type="logical" name="LTRIPLET"> F  </i>
   <i type="logical" name="LFXCEPS"> F  </i>
   <i type="logical" name="LFXHEG"> F  </i>
   <i type="int" name="NATURALO">     2</i>
   <i type="logical" name="LHOLEGF"> F  </i>
   <i type="logical" name="L2ORDER"> F  </i>
   <i type="logical" name="LDMP1"> F  </i>
   <i type="logical" name="LMP2LT"> F  </i>
   <i type="logical" name="LSMP2LT"> F  </i>
   <i type="logical" name="LGWLF"> F  </i>
   <i name="ENCUTGW">     -1.60000002</i>
   <i name="ENCUTGWSOFT">     -1.60000002</i>
   <i name="ENCUTLF">     -1.00000000</i>
   <i type="logical" name="ESF_SPLINES"> F  </i>
   <i name="ESF_CONV">      0.01000000</i>
   <i type="int" name="ESF_NINTER">    15</i>
   <i type="int" name="LMAXMP2">    -1</i>
   <i name="SCISSOR">      0.00000000</i>
   <i type="int" name="NOMEGA">     0</i>
   <i type="int" name="NOMEGAR">     0</i>
   <i type="int" name="NBANDSGW">    -1</i>
   <i type="int" name="NBANDSO">    -1</i>
   <i type="int" name="NBANDSV">    -1</i>
   <i type="int" name="NELMGW">     1</i>
   <i type="int" name="NELMHF">     1</i>
   <i type="int" name="DIM">     3</i>
   <i type="int" name="IESPILON">     4</i>
   <i type="int" name="ANTIRES">     0</i>
   <i name="OMEGAMAX">    -30.00000000</i>
   <i name="OMEGAMIN">    -30.00000000</i>
   <i name="OMEGATL">   -200.00000000</i>
   <i type="int" name="OMEGAGRID">     0</i>
   <i name="CSHIFT">     -0.10000000</i>
   <i type="logical" name="LSELFENERGY"> F  </i>
   <i type="logical" name="LSPECTRAL"> F  </i>
   <i type="logical" name="LSPECTRALGW"> F  </i>
   <i type="logical" name="LSINGLES"> F  </i>
   <i type="logical" name="LFERMIGW"> F  </i>
   <i type="logical" name="ODDONLYGW"> F  </i>
   <i type="logical" name="EVENONLYGW"> F  </i>
   <i type="int" name="NKREDLFX">     1</i>
   <i type="int" name="NKREDLFY">     1</i>
   <i type="int" name="NKREDLFZ">     1</i>
   <i type="int" name="MAXMEM">  2800</i>
   <i type="int" name="TELESCOPE">     0</i>
   <i type="int" name="NTAUPAR">    -1</i>
   <i type="int" name="NOMEGAPAR">    -1</i>
   <i name="DAMP_NEWTON">      0.80000001</i>
   <i name="LAMBDA">      1.00000000</i>
  </separator>
  <separator name="External order field" >
   <i name="OFIELD_KAPPA">      0.00000000</i>
   <v name="OFIELD_K">      0.00000000      0.00000000      0.00000000</v>
   <i name="OFIELD_Q6_NEAR">      0.00000000</i>
   <i name="OFIELD_Q6_FAR">      0.00000000</i>
   <i name="OFIELD_A">      0.00000000</i>
  </separator>
  <separator name="optional k-points parameters" >
   <i type="int" name="KPOINTS_OPT_MODE">     1</i>
   <i type="logical" name="LKPOINTS_OPT"> F  </i>
  </separator>
 </parameters>
 <atominfo>
  <atoms>      64 </atoms>
  <types>       1 </types>
  <array name="atoms" >
   <dimension dim="1">ion</dimension>
   <field type="string">element</field>
   <field type="int">atomtype</field>
   <set>
    <rc><c>Si</c><c>   1</c></rc>
    <rc><c>Si</c><c>   1</c></rc>
    <rc><c>Si</c><c>   1</c></rc>
    <rc><c>Si</c><c>   1</c></rc>
    <rc><c>Si</c><c>   1</c></rc>
    <rc><c>Si</c><c>   1</c></rc>
    <rc><c>Si</c><c>   1</c></rc>
    <rc><c>Si</c><c>   1</c></rc>
    <rc><c>Si</c><c>   1</c></rc>
    <rc><c>Si</c><c>   1</c></rc>
    <rc><c>Si</c><c>   1</c></rc>
    <rc><c>Si</c><c>   1</c></rc>
    <rc><c>Si</c><c>   1</c></rc>
    <rc><c>Si</c><c>   1</c></rc>
    <rc><c>Si</c><c>   1</c></rc>
    <rc><c>Si</c><c>   1</c></rc>
    <rc><c>Si</c><c>   1</c></rc>
    <rc><c>Si</c><c>   1</c></rc>
    <rc><c>Si</c><c>   1</c></rc>
    <rc><c>Si</c><c>   1</c></rc>
    <rc><c>Si</c><c>   1</c></rc>
    <rc><c>Si</c><c>   1</c></rc>
    <rc><c>Si</c><c>   1</c></rc>
    <rc><c>Si</c><c>   1</c></rc>
    <rc><c>Si</c><c>   1</c></rc>
    <rc><c>Si</c><c>   1</c></rc>
    <rc><c>Si</c><c>   1</c></rc>
    <rc><c>Si</c><c>   1</c></rc>
    <rc><c>Si</c><c>   1</c></rc>
    <rc><c>Si</c><c>   1</c></rc>
    <rc><c>Si</c><c>   1</c></rc>
    <rc><c>Si</c><c>   1</c></rc>
    <rc><c>Si</c><c>   1</c></rc>
    <rc><c>Si</c><c>   1</c></rc>
    <rc><c>Si</c><c>   1</c></rc>
    <rc><c>Si</c><c>   1</c></rc>
    <rc><c>Si</c><c>   1</c></rc>
    <rc><c>Si</c><c>   1</c></rc>
    <rc><c>Si</c><c>   1</c></rc>
    <rc><c>Si</c><c>   1</c></rc>
    <rc><c>Si</c><c>   1</c></rc>
    <rc><c>Si</c><c>   1</c></rc>
    <rc><c>Si</c><c>   1</c></rc>
    <rc><c>Si</c><c>   1</c></rc>
    <rc><c>Si</c><c>   1</c></rc>
    <rc><c>Si</c><c>   1</c></rc>
    <rc><c>Si</c><c>   1</c></rc>
    <rc><c>Si</c><c>   1</c></rc>
    <rc><c>Si</c><c>   1</c></rc>
    <rc><c>Si</c><c>   1</c></rc>
    <rc><c>Si</c><c>   1</c></rc>
    <rc><c>Si</c><c>   1</c></rc>
    <rc><c>Si</c><c>   1</c></rc>
    <rc><c>Si</c><c>   1</c></rc>
    <rc><c>Si</c><c>   1</c></rc>
    <rc><c>Si</c><c>   1</c></rc>
    <rc><c>Si</c><c>   1</c></rc>
    <rc><c>Si</c><c>   1</c></rc>
    <rc><c>Si</c><c>   1</c></rc>
    <rc><c>Si</c><c>   1</c></rc>
    <rc><c>Si</c><c>   1</c></rc>
    <rc><c>Si</c><c>   1</c></rc>
    <rc><c>Si</c><c>   1</c></rc>
    <rc><c>Si</c><c>   1</c></rc>
   </set>
  </array>
  <array name="atomtypes" >
   <dimension dim="1">type</dimension>
   <field type="int">atomspertype</field>
   <field type="string">element</field>
   <field>mass</field>
   <field>valence</field>
   <field type="string">pseudopotential</field>
   <set>
    <rc><c>  64</c><c>Si</c><c>     28.08500000</c><c>      4.00000000</c><c>  PAW_PBE Si 05Jan2001                  </c></rc>
   </set>
  </array>
 </atominfo>
 <structure name="initialpos" >
  <crystal>
   <varray name="basis" >
    <v>      10.61724257      -0.10833902       0.00000000 </v>
    <v>      -0.10833902      10.83392060       0.00000000 </v>
    <v>       0.00000000       0.00000000      10.83392060 </v>
   </varray>
   <i name="volume">   1246.05932190 </i>
   <varray name="rec_basis" >
    <v>       0.09419603       0.00094196       0.00000000 </v>
    <v>       0.00094196       0.09231211       0.00000000 </v>
    <v>       0.00000000       0.00000000       0.09230269 </v>
   </varray>
  </crystal>
  <varray name="positions" >
   <v>       0.00000000       0.00000000       0.00000000 </v>
   <v>       0.00000000       0.00000000       0.50000000 </v>
   <v>       0.00000000       0.50000000       0.00000000 </v>
   <v>       0.00000000       0.50000000       0.50000000 </v>
   <v>       0.50000000       0.00000000       0.00000000 </v>
   <v>       0.50000000       0.00000000       0.50000000 </v>
   <v>       0.50000000       0.50000000       0.00000000 </v>
   <v>       0.50000000       0.50000000       0.50000000 </v>
   <v>       0.37500000       0.37500000       0.12500000 </v>
   <v>       0.37500000       0.37500000       0.62500000 </v>
   <v>       0.37500000       0.87500000       0.12500000 </v>
   <v>       0.37500000       0.87500000       0.62500000 </v>
   <v>       0.87500000       0.37500000       0.12500000 </v>
   <v>       0.87500000       0.37500000       0.62500000 </v>
   <v>       0.87500000       0.87500000       0.12500000 </v>
   <v>       0.87500000       0.87500000       0.62500000 </v>
   <v>       0.00000000       0.25000000       0.25000000 </v>
   <v>       0.00000000       0.25000000       0.75000000 </v>
   <v>       0.00000000       0.75000000       0.25000000 </v>
   <v>       0.00000000       0.75000000       0.75000000 </v>
   <v>       0.50000000       0.25000000       0.25000000 </v>
   <v>       0.50000000       0.25000000       0.75000000 </v>
   <v>       0.50000000       0.75000000       0.25000000 </v>
   <v>       0.50000000       0.75000000       0.75000000 </v>
   <v>       0.37500000       0.12500000       0.37500000 </v>
   <v>       0.37500000       0.12500000       0.87500000 </v>
   <v>       0.37500000       0.62500000       0.37500000 </v>
   <v>       0.37500000       0.62500000       0.87500000 </v>
   <v>       0.87500000       0.12500000       0.37500000 </v>
   <v>       0.87500000       0.12500000       0.87500000 </v>
   <v>       0.87500000       0.62500000       0.37500000 </v>
   <v>       0.87500000       0.62500000       0.87500000 </v>
   <v>       0.25000000       0.00000000       0.25000000 </v>
   <v>       0.25000000       0.00000000       0.75000000 </v>
   <v>       0.25000000       0.50000000       0.25000000 </v>
   <v>       0.25000000       0.50000000       0.75000000 </v>
   <v>       0.75000000       0.00000000       0.25000000 </v>
   <v>       0.75000000       0.00000000       0.75000000 </v>
   <v>       0.75000000       0.50000000       0.25000000 </v>
   <v>       0.75000000       0.50000000       0.75000000 </v>
   <v>       0.12500000       0.37500000       0.37500000 </v>
   <v>       0.12500000       0.37500000       0.87500000 </v>
   <v>       0.12500000       0.87500000       0.37500000 </v>
   <v>       0.12500000       0.87500000       0.87500000 </v>
   <v>       0.62500000       0.37500000       0.37500000 </v>
   <v>       0.62500000       0.37500000       0.87500000 </v>
   <v>       0.62500000       0.87500000       0.37500000 </v>
   <v>       0.62500000       0.87500000       0.87500000 </v>
   <v>       0.25000000       0.25000000       0.00000000 </v>
   <v>       0.25000000       0.25000000       0.50000000 </v>
   <v>       0.25000000       0.75000000       0.00000000 </v>
   <v>       0.25000000       0.75000000       0.50000000 </v>
   <v>       0.75000000       0.25000000       0.00000000 </v>
   <v>       0.75000000       0.25000000       0.50000000 </v>
   <v>       0.75000000       0.75000000       0.00000000 </v>
   <v>       0.75000000       0.75000000       0.50000000 </v>
   <v>       0.12500000       0.12500000       0.12500000 </v>
   <v>       0.12500000       0.12500000       0.62500000 </v>
   <v>       0.12500000       0.62500000       0.12500000 </v>
   <v>       0.12500000       0.62500000       0.62500000 </v>
   <v>       0.62500000       0.12500000       0.12500000 </v>
   <v>       0.62500000       0.12500000       0.62500000 </v>
   <v>       0.62500000       0.62500000       0.12500000 </v>
   <v>       0.62500000       0.62500000       0.62500000 </v>
  </varray>
 </structure>
 <calculation>
  <scstep>
   <time name="dav">    1.28    1.35</time>
   <time name="total">    1.46    1.54</time>
   <energy>
    <i name="alphaZ">    110.65619536 </i>
    <i name="ewald">  -7381.32685261 </i>
    <i name="hartreedc">   -339.00569935 </i>
    <i name="XCdc">   -555.31969672 </i>
    <i name="pawpsdc">   5598.62625415 </i>
    <i name="pawaedc">  -4492.17844134 </i>
    <i name="eentropy">     -0.00107257 </i>
    <i name="bandstr">   1058.33664984 </i>
    <i name="atom">   6564.79586099 </i>
    <i name="e_fr_energy">    564.58319775 </i>
    <i name="e_wo_entrp">    564.58427032 </i>
    <i name="e_0_energy">    564.58355527 </i>
   </energy>
  </scstep>
  <scstep>
   <time name="dav">    1.38    1.40</time>
   <time name="total">    1.38    1.40</time>
   <energy>
    <i name="e_fr_energy">   -309.75396875 </i>
    <i name="e_wo_entrp">   -309.75844510 </i>
    <i name="e_0_energy">   -309.75546087 </i>
   </energy>
  </scstep>
  <scstep>
   <time name="dav">    1.36    1.37</time>
   <time name="total">    1.36    1.38</time>
   <energy>
    <i name="e_fr_energy">   -373.08667919 </i>
    <i name="e_wo_entrp">   -373.09446031 </i>
    <i name="e_0_energy">   -373.08927289 </i>
   </energy>
  </scstep>
  <scstep>
   <time name="dav">    1.35    1.36</time>
   <time name="total">    1.35    1.36</time>
   <energy>
    <i name="e_fr_energy">   -374.72969567 </i>
    <i name="e_wo_entrp">   -374.73706592 </i>
    <i name="e_0_energy">   -374.73215242 </i>
   </energy>
  </scstep>
  <scstep>
   <time name="dav">    1.33    1.34</time>
   <time name="total">    1.59    1.61</time>
   <energy>
    <i name="e_fr_energy">   -374.78560524 </i>
    <i name="e_wo_entrp">   -374.79294206 </i>
    <i name="e_0_energy">   -374.78805084 </i>
   </energy>
  </scstep>
  <scstep>
   <time name="diag">    0.14    0.14</time>
   <time name="diis">    0.72    0.73</time>
   <time name="orth">    0.02    0.02</time>
   <time name="total">    1.30    1.32</time>
   <energy>
    <i name="e_fr_energy">   -369.35296504 </i>
    <i name="e_wo_entrp">   -369.37409440 </i>
    <i name="e_0_energy">   -369.36000816 </i>
   </energy>
  </scstep>
  <scstep>
   <time name="diag">    0.14    0.14</time>
   <time name="diis">    0.73    0.74</time>
   <time name="orth">    0.02    0.02</time>
   <time name="total">    1.29    1.31</time>
   <energy>
    <i name="e_fr_energy">   -366.93182359 </i>
    <i name="e_wo_entrp">   -366.95477209 </i>
    <i name="e_0_energy">   -366.93947309 </i>
   </energy>
  </scstep>
  <scstep>
   <time name="diag">    0.14    0.14</time>
   <time name="diis">    0.72    0.73</time>
   <time name="orth">    0.02    0.02</time>
   <time name="total">    1.28    1.30</time>
   <energy>
    <i name="e_fr_energy">   -366.97041280 </i>
    <i name="e_wo_entrp">   -366.99507940 </i>
    <i name="e_0_energy">   -366.97863500 </i>
   </energy>
  </scstep>
  <scstep>
   <time name="diag">    0.13    0.14</time>
   <time name="diis">    0.72    0.74</time>
   <time name="orth">    0.02    0.02</time>
   <time name="total">    1.27    1.31</time>
   <energy>
    <i name="e_fr_energy">   -366.99107308 </i>
    <i name="e_wo_entrp">   -367.01539730 </i>
    <i name="e_0_energy">   -366.99918115 </i>
   </energy>
  </scstep>
  <scstep>
   <time name="diag">    0.13    0.13</time>
   <time name="diis">    0.75    0.75</time>
   <time name="orth">    0.02    0.02</time>
   <time name="total">    1.30    1.31</time>
   <energy>
    <i name="e_fr_energy">   -366.99496932 </i>
    <i name="e_wo_entrp">   -367.01925444 </i>
    <i name="e_0_energy">   -367.00306436 </i>
   </energy>
  </scstep>
  <scstep>
   <time name="diag">    0.13    0.13</time>
   <time name="diis">    0.72    0.72</time>
   <time name="orth">    0.02    0.02</time>
   <time name="total">    1.27    1.28</time>
   <energy>
    <i name="e_fr_energy">   -366.99167477 </i>
    <i name="e_wo_entrp">   -367.01644474 </i>
    <i name="e_0_energy">   -366.99993142 </i>
   </energy>
  </scstep>
  <scstep>
   <time name="diag">    0.13    0.13</time>
   <time name="diis">    0.71    0.71</time>
   <time name="orth">    0.02    0.02</time>
   <time name="total">    1.26    1.28</time>
   <energy>
    <i name="e_fr_energy">   -366.99185773 </i>
    <i name="e_wo_entrp">   -367.01663955 </i>
    <i name="e_0_energy">   -367.00011834 </i>
   </energy>
  </scstep>
  <scstep>
   <time name="diag">    0.13    0.13</time>
   <time name="diis">    0.75    0.76</time>
   <time name="orth">    0.02    0.02</time>
   <time name="total">    1.30    1.32</time>
   <energy>
    <i name="e_fr_energy">   -366.99191971 </i>
    <i name="e_wo_entrp">   -367.01670296 </i>
    <i name="e_0_energy">   -367.00018079 </i>
   </energy>
  </scstep>
  <scstep>
   <time name="diag">    0.13    0.13</time>
   <time name="diis">    0.72    0.72</time>
   <time name="orth">    0.02    0.02</time>
   <time name="total">    1.27    1.29</time>
   <energy>
    <i name="e_fr_energy">   -366.99194600 </i>
    <i name="e_wo_entrp">   -367.01673026 </i>
    <i name="e_0_energy">   -367.00020742 </i>
   </energy>
  </scstep>
  <scstep>
   <time name="diag">    0.13    0.13</time>
   <time name="diis">    0.73    0.73</time>
   <time name="orth">    0.02    0.02</time>
   <time name="total">    1.28    1.30</time>
   <energy>
    <i name="e_fr_energy">   -366.99199071 </i>
    <i name="e_wo_entrp">   -367.01678944 </i>
    <i name="e_0_energy">   -367.00025695 </i>
   </energy>
  </scstep>
  <scstep>
   <time name="diag">    0.14    0.14</time>
   <time name="diis">    0.72    0.72</time>
   <time name="orth">    0.02    0.02</time>
   <time name="total">    1.29    1.30</time>
   <energy>
    <i name="e_fr_energy">   -366.99202095 </i>
    <i name="e_wo_entrp">   -367.01682540 </i>
    <i name="e_0_energy">   -367.00028910 </i>
   </energy>
  </scstep>
  <scstep>
   <time name="diag">    0.13    0.13</time>
   <time name="diis">    0.71    0.71</time>
   <time name="orth">    0.02    0.02</time>
   <time name="total">    1.26    1.28</time>
   <energy>
    <i name="e_fr_energy">   -366.99202564 </i>
    <i name="e_wo_entrp">   -367.01683296 </i>
    <i name="e_0_energy">   -367.00029474 </i>
   </energy>
  </scstep>
  <scstep>
   <time name="diag">    0.14    0.14</time>
   <time name="diis">    0.48    0.48</time>
   <time name="orth">    0.02    0.02</time>
   <time name="total">    1.04    1.06</time>
   <energy>
    <i name="e_fr_energy">   -366.99202686 </i>
    <i name="e_wo_entrp">   -367.01683378 </i>
    <i name="e_0_energy">   -367.00029584 </i>
   </energy>
  </scstep>
  <scstep>
   <time name="diag">    0.13    0.14</time>
   <time name="diis">    0.46    0.46</time>
   <time name="orth">    0.02    0.02</time>
   <time name="total">    0.77    0.78</time>
   <energy>
    <i name="alphaZ">    110.65619536 </i>
    <i name="ewald">  -7381.32685261 </i>
    <i name="hartreedc">   -457.78984720 </i>
    <i name="XCdc">   -535.25941812 </i>
    <i name="pawpsdc">  29497.02931956 </i>
    <i name="pawaedc"> -28398.16570785 </i>
    <i name="eentropy">      0.02480719 </i>
    <i name="bandstr">    233.04361571 </i>
    <i name="atom">   6564.79586099 </i>
    <i name="e_fr_energy">   -366.99202696 </i>
    <i name="e_wo_entrp">   -367.01683415 </i>
    <i name="e_0_energy">   -367.00029602 </i>
   </energy>
  </scstep>
  <structure>
   <crystal>
    <varray name="basis" >
     <v>      10.61724257      -0.10833902       0.00000000 </v>
     <v>      -0.10833902      10.83392060       0.00000000 </v>
     <v>       0.00000000       0.00000000      10.83392060 </v>
    </varray>
    <i name="volume">   1246.05932190 </i>
    <varray name="rec_basis" >
     <v>       0.09419603       0.00094196       0.00000000 </v>
     <v>       0.00094196       0.09231211       0.00000000 </v>
     <v>       0.00000000       0.00000000       0.09230269 </v>
    </varray>
   </crystal>
   <varray name="positions" >
    <v>       0.00000000       0.00000000       0.00000000 </v>
    <v>       0.00000000       0.00000000       0.50000000 </v>
    <v>       0.00000000       0.50000000       0.00000000 </v>
    <v>       0.00000000       0.50000000       0.50000000 </v>
    <v>       0.50000000       0.00000000       0.00000000 </v>
    <v>       0.50000000       0.00000000       0.50000000 </v>
    <v>       0.50000000       0.50000000       0.00000000 </v>
    <v>       0.50000000       0.50000000       0.50000000 </v>
    <v>       0.37500000       0.37500000       0.12500000 </v>
    <v>       0.37500000       0.37500000       0.62500000 </v>
    <v>       0.37500000       0.87500000       0.12500000 </v>
    <v>       0.37500000       0.87500000       0.62500000 </v>
    <v>       0.87500000       0.37500000       0.12500000 </v>
    <v>       0.87500000       0.37500000       0.62500000 </v>
    <v>       0.87500000       0.87500000       0.12500000 </v>
    <v>       0.87500000       0.87500000       0.62500000 </v>
    <v>       0.00000000       0.25000000       0.25000000 </v>
    <v>       0.00000000       0.25000000       0.75000000 </v>
    <v>       0.00000000       0.75000000       0.25000000 </v>
    <v>       0.00000000       0.75000000       0.75000000 </v>
    <v>       0.50000000       0.25000000       0.25000000 </v>
    <v>       0.50000000       0.25000000       0.75000000 </v>
    <v>       0.50000000       0.75000000       0.25000000 </v>
    <v>       0.50000000       0.75000000       0.75000000 </v>
    <v>       0.37500000       0.12500000       0.37500000 </v>
    <v>       0.37500000       0.12500000       0.87500000 </v>
    <v>       0.37500000       0.62500000       0.37500000 </v>
    <v>       0.37500000       0.62500000       0.87500000 </v>
    <v>       0.87500000       0.12500000       0.37500000 </v>
    <v>       0.87500000       0.12500000       0.87500000 </v>
    <v>       0.87500000       0.62500000       0.37500000 </v>
    <v>       0.87500000       0.62500000       0.87500000 </v>
    <v>       0.25000000       0.00000000       0.25000000 </v>
    <v>       0.25000000       0.00000000       0.75000000 </v>
    <v>       0.25000000       0.50000000       0.25000000 </v>
    <v>       0.25000000       0.50000000       0.75000000 </v>
    <v>       0.75000000       0.00000000       0.25000000 </v>
    <v>       0.75000000       0.00000000       0.75000000 </v>
    <v>       0.75000000       0.50000000       0.25000000 </v>
    <v>       0.75000000       0.50000000       0.75000000 </v>
    <v>       0.12500000       0.37500000       0.37500000 </v>
    <v>       0.12500000       0.37500000       0.87500000 </v>
    <v>       0.12500000       0.87500000       0.37500000 </v>
    <v>       0.12500000       0.87500000       0.87500000 </v>
    <v>       0.62500000       0.37500000       0.37500000 </v>
    <v>       0.62500000       0.37500000       0.87500000 </v>
    <v>       0.62500000       0.87500000       0.37500000 </v>
    <v>       0.62500000       0.87500000       0.87500000 </v>
    <v>       0.25000000       0.25000000       0.00000000 </v>
    <v>       0.25000000       0.25000000       0.50000000 </v>
    <v>       0.25000000       0.75000000       0.00000000 </v>
    <v>       0.25000000       0.75000000       0.50000000 </v>
    <v>       0.75000000       0.25000000       0.00000000 </v>
    <v>       0.75000000       0.25000000       0.50000000 </v>
    <v>       0.75000000       0.75000000       0.00000000 </v>
    <v>       0.75000000       0.75000000       0.50000000 </v>
    <v>       0.12500000       0.12500000       0.12500000 </v>
    <v>       0.12500000       0.12500000       0.62500000 </v>
    <v>       0.12500000       0.62500000       0.12500000 </v>
    <v>       0.12500000       0.62500000       0.62500000 </v>
    <v>       0.62500000       0.12500000       0.12500000 </v>
    <v>       0.62500000       0.12500000       0.62500000 </v>
    <v>       0.62500000       0.62500000       0.12500000 </v>
    <v>       0.62500000       0.62500000       0.62500000 </v>
   </varray>
  </structure>
  <varray name="forces" >
   <v>      -0.00000000      -0.00000000      -0.22547798 </v>
   <v>      -0.00000000      -0.00000000      -0.22547798 </v>
   <v>       0.00000000       0.00000000      -0.22547798 </v>
   <v>       0.00000000       0.00000000      -0.22547798 </v>
   <v>      -0.00000000       0.00000000      -0.22547798 </v>
   <v>      -0.00000000       0.00000000      -0.22547798 </v>
   <v>       0.00000000       0.00000000      -0.22547798 </v>
   <v>       0.00000000       0.00000000      -0.22547798 </v>
   <v>       0.00000000      -0.00000000       0.22547798 </v>
   <v>       0.00000000       0.00000000       0.22547798 </v>
   <v>       0.00000000      -0.00000000       0.22547798 </v>
   <v>       0.00000000       0.00000000       0.22547798 </v>
   <v>      -0.00000000      -0.00000000       0.22547798 </v>
   <v>       0.00000000      -0.00000000       0.22547798 </v>
   <v>       0.00000000      -0.00000000       0.22547798 </v>
   <v>       0.00000000      -0.00000000       0.22547798 </v>
   <v>      -0.00000000      -0.00000000      -0.22547798 </v>
   <v>      -0.00000000      -0.00000000      -0.22547798 </v>
   <v>       0.00000000       0.00000000      -0.22547798 </v>
   <v>       0.00000000       0.00000000      -0.22547798 </v>
   <v>      -0.00000000      -0.00000000      -0.22547798 </v>
   <v>      -0.00000000      -0.00000000      -0.22547798 </v>
   <v>       0.00000000      -0.00000000      -0.22547798 </v>
   <v>       0.00000000      -0.00000000      -0.22547798 </v>
   <v>      -0.00000000       0.00000000       0.22547798 </v>
   <v>       0.00000000       0.00000000       0.22547798 </v>
   <v>      -0.00000000       0.00000000       0.22547798 </v>
   <v>      -0.00000000       0.00000000       0.22547798 </v>
   <v>      -0.00000000       0.00000000       0.22547798 </v>
   <v>      -0.00000000       0.00000000       0.22547798 </v>
   <v>      -0.00000000      -0.00000000       0.22547798 </v>
   <v>      -0.00000000       0.00000000       0.22547798 </v>
   <v>      -0.00000000       0.00000000      -0.22547798 </v>
   <v>      -0.00000000       0.00000000      -0.22547798 </v>
   <v>       0.00000000       0.00000000      -0.22547798 </v>
   <v>       0.00000000       0.00000000      -0.22547798 </v>
   <v>      -0.00000000      -0.00000000      -0.22547798 </v>
   <v>      -0.00000000      -0.00000000      -0.22547798 </v>
   <v>       0.00000000       0.00000000      -0.22547798 </v>
   <v>       0.00000000       0.00000000      -0.22547798 </v>
   <v>       0.00000000       0.00000000       0.22547798 </v>
   <v>       0.00000000       0.00000000       0.22547798 </v>
   <v>       0.00000000      -0.00000000       0.22547798 </v>
   <v>       0.00000000      -0.00000000       0.22547798 </v>
   <v>       0.00000000      -0.00000000       0.22547798 </v>
   <v>      -0.00000000      -0.00000000       0.22547798 </v>
   <v>       0.00000000       0.00000000       0.22547798 </v>
   <v>       0.00000000       0.00000000       0.22547798 </v>
   <v>      -0.00000000      -0.00000000      -0.22547798 </v>
   <v>      -0.00000000      -0.00000000      -0.22547798 </v>
   <v>       0.00000000       0.00000000      -0.22547798 </v>
   <v>       0.00000000      -0.00000000      -0.22547798 </v>
   <v>      -0.00000000      -0.00000000      -0.22547798 </v>
   <v>      -0.00000000      -0.00000000      -0.22547798 </v>
   <v>       0.00000000       0.00000000      -0.22547798 </v>
   <v>       0.00000000       0.00000000      -0.22547798 </v>
   <v>      -0.00000000       0.00000000       0.22547798 </v>
   <v>      -0.00000000       0.00000000       0.22547798 </v>
   <v>      -0.00000000      -0.00000000       0.22547798 </v>
   <v>      -0.00000000       0.00000000       0.22547798 </v>
   <v>      -0.00000000       0.00000000       0.22547798 </v>
   <v>      -0.00000000       0.00000000       0.22547798 </v>
   <v>      -0.00000000       0.00000000       0.22547798 </v>
   <v>      -0.00000000       0.00000000       0.22547798 </v>
  </varray>
  <varray name="stress" >
   <v>      42.64209183      22.71854974       0.00000000 </v>
   <v>      22.71854965      25.37254348       0.00000000 </v>
   <v>       0.00000000       0.00000000      25.22003823 </v>
  </varray>
  <energy>
   <i name="e_fr_energy">   -366.99202696 </i>
   <i name="e_wo_entrp">   -367.01683415 </i>
   <i name="e_0_energy">   -367.00029602 </i>
  </energy>
  <time name="totalsc">   27.92   28.38</time>
 </calculation>
 <calculation>
  <scstep>
   <time name="dav">    1.28    1.28</time>
   <time name="total">    1.67    1.68</time>
   <energy>
    <i name="alphaZ">    110.65619536 </i>
    <i name="ewald">  -7382.25884594 </i>
    <i name="hartreedc">   -457.29702026 </i>
    <i name="XCdc">   -535.27847230 </i>
    <i name="pawpsdc">  29500.85234929 </i>
    <i name="pawaedc"> -28401.98856632 </i>
    <i name="eentropy">      0.01490574 </i>
    <i name="bandstr">    233.47280046 </i>
    <i name="atom">   6564.79586099 </i>
    <i name="e_fr_energy">   -367.03079298 </i>
    <i name="e_wo_entrp">   -367.04569872 </i>
    <i name="e_0_energy">   -367.03576156 </i>
   </energy>
  </scstep>
  <scstep>
   <time name="diag">    0.13    0.13</time>
   <time name="diis">    0.72    0.72</time>
   <time name="orth">    0.02    0.02</time>
   <time name="total">    1.26    1.28</time>
   <energy>
    <i name="e_fr_energy">   -367.04107101 </i>
    <i name="e_wo_entrp">   -367.05597263 </i>
    <i name="e_0_energy">   -367.04603822 </i>
   </energy>
  </scstep>
  <scstep>
   <time name="diag">    0.13    0.13</time>
   <time name="diis">    0.73    0.73</time>
   <time name="orth">    0.02    0.02</time>
   <time name="total">    1.27    1.29</time>
   <energy>
    <i name="e_fr_energy">   -367.04245009 </i>
    <i name="e_wo_entrp">   -367.05769085 </i>
    <i name="e_0_energy">   -367.04753034 </i>
   </energy>
  </scstep>
  <scstep>
   <time name="diag">    0.13    0.13</time>
   <time name="diis">    0.74    0.74</time>
   <time name="orth">    0.02    0.02</time>
   <time name="total">    1.29    1.30</time>
   <energy>
    <i name="e_fr_energy">   -367.04243586 </i>
    <i name="e_wo_entrp">   -367.05796313 </i>
    <i name="e_0_energy">   -367.04761162 </i>
   </energy>
  </scstep>
  <scstep>
   <time name="diag">    0.13    0.13</time>
   <time name="diis">    0.74    0.75</time>
   <time name="orth">    0.02    0.02</time>
   <time name="total">    1.29    1.31</time>
   <energy>
    <i name="e_fr_energy">   -367.04245216 </i>
    <i name="e_wo_entrp">   -367.05808704 </i>
    <i name="e_0_energy">   -367.04766379 </i>
   </energy>
  </scstep>
  <scstep>
   <time name="diag">    0.13    0.13</time>
   <time name="diis">    0.77    0.77</time>
   <time name="orth">    0.02    0.02</time>
   <time name="total">    1.31    1.33</time>
   <energy>
    <i name="e_fr_energy">   -367.04246123 </i>
    <i name="e_wo_entrp">   -367.05809137 </i>
    <i name="e_0_energy">   -367.04767128 </i>
   </energy>
  </scstep>
  <scstep>
   <time name="diag">    0.13    0.13</time>
   <time name="diis">    0.66    0.66</time>
   <time name="orth">    0.02    0.02</time>
   <time name="total">    1.21    1.23</time>
   <energy>
    <i name="e_fr_energy">   -367.04246238 </i>
    <i name="e_wo_entrp">   -367.05809045 </i>
    <i name="e_0_energy">   -367.04767174 </i>
   </energy>
  </scstep>
  <scstep>
   <time name="diag">    0.14    0.14</time>
   <time name="diis">    0.51    0.51</time>
   <time name="orth">    0.02    0.02</time>
   <time name="total">    0.82    0.83</time>
   <energy>
    <i name="alphaZ">    110.65619536 </i>
    <i name="ewald">  -7382.25884594 </i>
    <i name="hartreedc">   -457.08531746 </i>
    <i name="XCdc">   -535.31262381 </i>
    <i name="pawpsdc">  29461.10545093 </i>
    <i name="pawaedc"> -28362.22088324 </i>
    <i name="eentropy">      0.01562844 </i>
    <i name="bandstr">    233.26207219 </i>
    <i name="atom">   6564.79586099 </i>
    <i name="e_fr_energy">   -367.04246253 </i>
    <i name="e_wo_entrp">   -367.05809097 </i>
    <i name="e_0_energy">   -367.04767201 </i>
   </energy>
  </scstep>
  <structure>
   <crystal>
    <varray name="basis" >
     <v>      10.61724257      -0.10833902       0.00000000 </v>
     <v>      -0.10833902      10.83392060       0.00000000 </v>
     <v>       0.00000000       0.00000000      10.83392060 </v>
    </varray>
    <i name="volume">   1246.05932190 </i>
    <varray name="rec_basis" >
     <v>       0.09419603       0.00094196       0.00000000 </v>
     <v>       0.00094196       0.09231211       0.00000000 </v>
     <v>       0.00000000       0.00000000       0.09230269 </v>
    </varray>
   </crystal>
   <varray name="positions" >
    <v>       1.00000000       1.00000000       0.99899596 </v>
    <v>       1.00000000       1.00000000       0.49899596 </v>
    <v>       0.00000000       0.50000000       0.99899596 </v>
    <v>       0.00000000       0.50000000       0.49899596 </v>
    <v>       0.50000000       0.00000000       0.99899596 </v>
    <v>       0.50000000       0.00000000       0.49899596 </v>
    <v>       0.50000000       0.50000000       0.99899596 </v>
    <v>       0.50000000       0.50000000       0.49899596 </v>
    <v>       0.37500000       0.37500000       0.12600404 </v>
    <v>       0.37500000       0.37500000       0.62600404 </v>
    <v>       0.37500000       0.87500000       0.12600404 </v>
    <v>       0.37500000       0.87500000       0.62600404 </v>
    <v>       0.87500000       0.37500000       0.12600404 </v>
    <v>       0.87500000       0.37500000       0.62600404 </v>
    <v>       0.87500000       0.87500000       0.12600404 </v>
    <v>       0.87500000       0.87500000       0.62600404 </v>
    <v>       1.00000000       0.25000000       0.24899596 </v>
    <v>       1.00000000       0.25000000       0.74899596 </v>
    <v>       0.00000000       0.75000000       0.24899596 </v>
    <v>       0.00000000       0.75000000       0.74899596 </v>
    <v>       0.50000000       0.25000000       0.24899596 </v>
    <v>       0.50000000       0.25000000       0.74899596 </v>
    <v>       0.50000000       0.75000000       0.24899596 </v>
    <v>       0.50000000       0.75000000       0.74899596 </v>
    <v>       0.37500000       0.12500000       0.37600404 </v>
    <v>       0.37500000       0.12500000       0.87600404 </v>
    <v>       0.37500000       0.62500000       0.37600404 </v>
    <v>       0.37500000       0.62500000       0.87600404 </v>
    <v>       0.87500000       0.12500000       0.37600404 </v>
    <v>       0.87500000       0.12500000       0.87600404 </v>
    <v>       0.87500000       0.62500000       0.37600404 </v>
    <v>       0.87500000       0.62500000       0.87600404 </v>
    <v>       0.25000000       0.00000000       0.24899596 </v>
    <v>       0.25000000       0.00000000       0.74899596 </v>
    <v>       0.25000000       0.50000000       0.24899596 </v>
    <v>       0.25000000       0.50000000       0.74899596 </v>
    <v>       0.75000000       1.00000000       0.24899596 </v>
    <v>       0.75000000       1.00000000       0.74899596 </v>
    <v>       0.75000000       0.50000000       0.24899596 </v>
    <v>       0.75000000       0.50000000       0.74899596 </v>
    <v>       0.12500000       0.37500000       0.37600404 </v>
    <v>       0.12500000       0.37500000       0.87600404 </v>
    <v>       0.12500000       0.87500000       0.37600404 </v>
    <v>       0.12500000       0.87500000       0.87600404 </v>
    <v>       0.62500000       0.37500000       0.37600404 </v>
    <v>       0.62500000       0.37500000       0.87600404 </v>
    <v>       0.62500000       0.87500000       0.37600404 </v>
    <v>       0.62500000       0.87500000       0.87600404 </v>
    <v>       0.25000000       0.25000000       0.99899596 </v>
    <v>       0.25000000       0.25000000       0.49899596 </v>
    <v>       0.25000000       0.75000000       0.99899596 </v>
    <v>       0.25000000       0.75000000       0.49899596 </v>
    <v>       0.75000000       0.25000000       0.99899596 </v>
    <v>       0.75000000       0.25000000       0.49899596 </v>
    <v>       0.75000000       0.75000000       0.99899596 </v>
    <v>       0.75000000       0.75000000       0.49899596 </v>
    <v>       0.12500000       0.12500000       0.12600404 </v>
    <v>       0.12500000       0.12500000       0.62600404 </v>
    <v>       0.12500000       0.62500000       0.12600404 </v>
    <v>       0.12500000       0.62500000       0.62600404 </v>
    <v>       0.62500000       0.12500000       0.12600404 </v>
    <v>       0.62500000       0.12500000       0.62600404 </v>
    <v>       0.62500000       0.62500000       0.12600404 </v>
    <v>       0.62500000       0.62500000       0.62600404 </v>
   </varray>
  </structure>
  <varray name="forces" >
   <v>      -0.00000000      -0.00000000       0.07899294 </v>
   <v>      -0.00000000      -0.00000000       0.07899294 </v>
   <v>       0.00000000      -0.00000000       0.07899294 </v>
   <v>       0.00000000      -0.00000000       0.07899294 </v>
   <v>      -0.00000000       0.00000000       0.07899294 </v>
   <v>      -0.00000000       0.00000000       0.07899294 </v>
   <v>       0.00000000      -0.00000000       0.07899294 </v>
   <v>       0.00000000      -0.00000000       0.07899294 </v>
   <v>      -0.00000000       0.00000000      -0.07899294 </v>
   <v>      -0.00000000       0.00000000      -0.07899294 </v>
   <v>       0.00000000       0.00000000      -0.07899294 </v>
   <v>       0.00000000      -0.00000000      -0.07899294 </v>
   <v>       0.00000000       0.00000000      -0.07899294 </v>
   <v>       0.00000000       0.00000000      -0.07899294 </v>
   <v>       0.00000000      -0.00000000      -0.07899294 </v>
   <v>      -0.00000000      -0.00000000      -0.07899294 </v>
   <v>      -0.00000000       0.00000000       0.07899294 </v>
   <v>      -0.00000000       0.00000000       0.07899294 </v>
   <v>       0.00000000      -0.00000000       0.07899294 </v>
   <v>       0.00000000      -0.00000000       0.07899294 </v>
   <v>       0.00000000       0.00000000       0.07899294 </v>
   <v>      -0.00000000       0.00000000       0.07899294 </v>
   <v>       0.00000000       0.00000000       0.07899294 </v>
   <v>      -0.00000000      -0.00000000       0.07899294 </v>
   <v>       0.00000000      -0.00000000      -0.07899294 </v>
   <v>       0.00000000      -0.00000000      -0.07899294 </v>
   <v>      -0.00000000       0.00000000      -0.07899294 </v>
   <v>      -0.00000000       0.00000000      -0.07899294 </v>
   <v>       0.00000000      -0.00000000      -0.07899294 </v>
   <v>      -0.00000000      -0.00000000      -0.07899294 </v>
   <v>       0.00000000       0.00000000      -0.07899294 </v>
   <v>      -0.00000000       0.00000000      -0.07899294 </v>
   <v>      -0.00000000       0.00000000       0.07899294 </v>
   <v>      -0.00000000       0.00000000       0.07899294 </v>
   <v>       0.00000000      -0.00000000       0.07899294 </v>
   <v>       0.00000000      -0.00000000       0.07899294 </v>
   <v>      -0.00000000       0.00000000       0.07899294 </v>
   <v>      -0.00000000       0.00000000       0.07899294 </v>
   <v>       0.00000000      -0.00000000       0.07899294 </v>
   <v>       0.00000000      -0.00000000       0.07899294 </v>
   <v>      -0.00000000       0.00000000      -0.07899294 </v>
   <v>      -0.00000000       0.00000000      -0.07899294 </v>
   <v>       0.00000000      -0.00000000      -0.07899294 </v>
   <v>       0.00000000      -0.00000000      -0.07899294 </v>
   <v>      -0.00000000       0.00000000      -0.07899294 </v>
   <v>      -0.00000000       0.00000000      -0.07899294 </v>
   <v>       0.00000000       0.00000000      -0.07899294 </v>
   <v>      -0.00000000      -0.00000000      -0.07899294 </v>
   <v>       0.00000000       0.00000000       0.07899294 </v>
   <v>      -0.00000000       0.00000000       0.07899294 </v>
   <v>       0.00000000      -0.00000000       0.07899294 </v>
   <v>       0.00000000      -0.00000000       0.07899294 </v>
   <v>      -0.00000000      -0.00000000       0.07899294 </v>
   <v>      -0.00000000      -0.00000000       0.07899294 </v>
   <v>       0.00000000       0.00000000       0.07899294 </v>
   <v>       0.00000000      -0.00000000       0.07899294 </v>
   <v>       0.00000000      -0.00000000      -0.07899294 </v>
   <v>       0.00000000      -0.00000000      -0.07899294 </v>
   <v>      -0.00000000       0.00000000      -0.07899294 </v>
   <v>      -0.00000000      -0.00000000      -0.07899294 </v>
   <v>       0.00000000      -0.00000000      -0.07899294 </v>
   <v>      -0.00000000      -0.00000000      -0.07899294 </v>
   <v>      -0.00000000       0.00000000      -0.07899294 </v>
   <v>      -0.00000000       0.00000000      -0.07899294 </v>
  </varray>
  <varray name="stress" >
   <v>      41.65185378      12.64098114       0.00000000 </v>
   <v>      12.64098108      24.90910440       0.00000000 </v>
   <v>       0.00000000       0.00000000      24.50479491 </v>
  </varray>
  <energy>
   <i name="e_fr_energy">   -367.04246253 </i>
   <i name="e_wo_entrp">   -367.05809097 </i>
   <i name="e_0_energy">   -367.04767201 </i>
  </energy>
  <time name="totalsc">   13.67   13.83</time>
 </calculation>
 <calculation>
  <scstep>
   <time name="dav">    1.29    1.34</time>
   <time name="total">    1.68    1.73</time>
   <energy>
    <i name="alphaZ">    110.65619536 </i>
    <i name="ewald">  -7382.05161764 </i>
    <i name="hartreedc">   -457.20755659 </i>
    <i name="XCdc">   -535.30710260 </i>
    <i name="pawpsdc">  29460.50113222 </i>
    <i name="pawaedc"> -28361.61653150 </i>
    <i name="eentropy">      0.01887555 </i>
    <i name="bandstr">    233.16183477 </i>
    <i name="atom">   6564.79586099 </i>
    <i name="e_fr_energy">   -367.04890943 </i>
    <i name="e_wo_entrp">   -367.06778498 </i>
    <i name="e_0_energy">   -367.05520128 </i>
   </energy>
  </scstep>
  <scstep>
   <time name="diag">    0.13    0.13</time>
   <time name="diis">    0.72    0.72</time>
   <time name="orth">    0.02    0.02</time>
   <time name="total">    1.26    1.28</time>
   <energy>
    <i name="e_fr_energy">   -367.04960512 </i>
    <i name="e_wo_entrp">   -367.06847451 </i>
    <i name="e_0_energy">   -367.05589492 </i>
   </energy>
  </scstep>
  <scstep>
   <time name="diag">    0.13    0.13</time>
   <time name="diis">    0.73    0.73</time>
   <time name="orth">    0.02    0.02</time>
   <time name="total">    1.28    1.30</time>
   <energy>
    <i name="e_fr_energy">   -367.04969506 </i>
    <i name="e_wo_entrp">   -367.06847399 </i>
    <i name="e_0_energy">   -367.05595470 </i>
   </energy>
  </scstep>
  <scstep>
   <time name="diag">    0.13    0.13</time>
   <time name="diis">    0.73    0.73</time>
   <time name="orth">    0.02    0.02</time>
   <time name="total">    1.28    1.30</time>
   <energy>
    <i name="e_fr_energy">   -367.04969477 </i>
    <i name="e_wo_entrp">   -367.06840243 </i>
    <i name="e_0_energy">   -367.05593066 </i>
   </energy>
  </scstep>
  <scstep>
   <time name="diag">    0.13    0.13</time>
   <time name="diis">    0.73    0.74</time>
   <time name="orth">    0.02    0.02</time>
   <time name="total">    1.28    1.30</time>
   <energy>
    <i name="e_fr_energy">   -367.04969601 </i>
    <i name="e_wo_entrp">   -367.06837668 </i>
    <i name="e_0_energy">   -367.05592290 </i>
   </energy>
  </scstep>
  <scstep>
   <time name="diag">    0.13    0.13</time>
   <time name="diis">    0.60    0.60</time>
   <time name="orth">    0.02    0.02</time>
   <time name="total">    1.16    1.16</time>
   <energy>
    <i name="e_fr_energy">   -367.04969653 </i>
    <i name="e_wo_entrp">   -367.06837794 </i>
    <i name="e_0_energy">   -367.05592366 </i>
   </energy>
  </scstep>
  <scstep>
   <time name="diag">    0.13    0.13</time>
   <time name="diis">    0.47    0.47</time>
   <time name="orth">    0.02    0.02</time>
   <time name="total">    1.02    1.04</time>
   <energy>
    <i name="e_fr_energy">   -367.04969662 </i>
    <i name="e_wo_entrp">   -367.06837879 </i>
    <i name="e_0_energy">   -367.05592401 </i>
   </energy>
  </scstep>
  <scstep>
   <time name="diag">    0.13    0.13</time>
   <time name="diis">    0.43    0.43</time>
   <time name="orth">    0.02    0.02</time>
   <time name="total">    0.73    0.75</time>
   <energy>
    <i name="alphaZ">    110.65619536 </i>
    <i name="ewald">  -7382.05161764 </i>
    <i name="hartreedc">   -457.28204455 </i>
    <i name="XCdc">   -535.29650050 </i>
    <i name="pawpsdc">  29471.03313956 </i>
    <i name="pawaedc"> -28372.15375017 </i>
    <i name="eentropy">      0.01868208 </i>
    <i name="bandstr">    233.23033821 </i>
    <i name="atom">   6564.79586099 </i>
    <i name="e_fr_energy">   -367.04969666 </i>
    <i name="e_wo_entrp">   -367.06837874 </i>
    <i name="e_0_energy">   -367.05592402 </i>
   </energy>
  </scstep>
  <structure>
   <crystal>
    <varray name="basis" >
     <v>      10.61724257      -0.10833902       0.00000000 </v>
     <v>      -0.10833902      10.83392060       0.00000000 </v>
     <v>       0.00000000       0.00000000      10.83392060 </v>
    </varray>
    <i name="volume">   1246.05932190 </i>
    <varray name="rec_basis" >
     <v>       0.09419603       0.00094196       0.00000000 </v>
     <v>       0.00094196       0.09231211       0.00000000 </v>
     <v>       0.00000000       0.00000000       0.09230269 </v>
    </varray>
   </crystal>
   <varray name="positions" >
    <v>       0.00000000       0.00000000       0.99925950 </v>
    <v>       0.00000000       0.00000000       0.49925950 </v>
    <v>       0.00000000       0.50000000       0.99925950 </v>
    <v>       0.00000000       0.50000000       0.49925950 </v>
    <v>       0.50000000       0.00000000       0.99925950 </v>
    <v>       0.50000000       0.00000000       0.49925950 </v>
    <v>       0.50000000       0.50000000       0.99925950 </v>
    <v>       0.50000000       0.50000000       0.49925950 </v>
    <v>       0.37500000       0.37500000       0.12574050 </v>
    <v>       0.37500000       0.37500000       0.62574050 </v>
    <v>       0.37500000       0.87500000       0.12574050 </v>
    <v>       0.37500000       0.87500000       0.62574050 </v>
    <v>       0.87500000       0.37500000       0.12574050 </v>
    <v>       0.87500000       0.37500000       0.62574050 </v>
    <v>       0.87500000       0.87500000       0.12574050 </v>
    <v>       0.87500000       0.87500000       0.62574050 </v>
    <v>       0.00000000       0.25000000       0.24925950 </v>
    <v>       0.00000000       0.25000000       0.74925950 </v>
    <v>       0.00000000       0.75000000       0.24925950 </v>
    <v>       0.00000000       0.75000000       0.74925950 </v>
    <v>       0.50000000       0.25000000       0.24925950 </v>
    <v>       0.50000000       0.25000000       0.74925950 </v>
    <v>       0.50000000       0.75000000       0.24925950 </v>
    <v>       0.50000000       0.75000000       0.74925950 </v>
    <v>       0.37500000       0.12500000       0.37574050 </v>
    <v>       0.37500000       0.12500000       0.87574050 </v>
    <v>       0.37500000       0.62500000       0.37574050 </v>
    <v>       0.37500000       0.62500000       0.87574050 </v>
    <v>       0.87500000       0.12500000       0.37574050 </v>
    <v>       0.87500000       0.12500000       0.87574050 </v>
    <v>       0.87500000       0.62500000       0.37574050 </v>
    <v>       0.87500000       0.62500000       0.87574050 </v>
    <v>       0.25000000       0.00000000       0.24925950 </v>
    <v>       0.25000000       0.00000000       0.74925950 </v>
    <v>       0.25000000       0.50000000       0.24925950 </v>
    <v>       0.25000000       0.50000000       0.74925950 </v>
    <v>       0.75000000       0.00000000       0.24925950 </v>
    <v>       0.75000000       0.00000000       0.74925950 </v>
    <v>       0.75000000       0.50000000       0.24925950 </v>
    <v>       0.75000000       0.50000000       0.74925950 </v>
    <v>       0.12500000       0.37500000       0.37574050 </v>
    <v>       0.12500000       0.37500000       0.87574050 </v>
    <v>       0.12500000       0.87500000       0.37574050 </v>
    <v>       0.12500000       0.87500000       0.87574050 </v>
    <v>       0.62500000       0.37500000       0.37574050 </v>
    <v>       0.62500000       0.37500000       0.87574050 </v>
    <v>       0.62500000       0.87500000       0.37574050 </v>
    <v>       0.62500000       0.87500000       0.87574050 </v>
    <v>       0.25000000       0.25000000       0.99925950 </v>
    <v>       0.25000000       0.25000000       0.49925950 </v>
    <v>       0.25000000       0.75000000       0.99925950 </v>
    <v>       0.25000000       0.75000000       0.49925950 </v>
    <v>       0.75000000       0.25000000       0.99925950 </v>
    <v>       0.75000000       0.25000000       0.49925950 </v>
    <v>       0.75000000       0.75000000       0.99925950 </v>
    <v>       0.75000000       0.75000000       0.49925950 </v>
    <v>       0.12500000       0.12500000       0.12574050 </v>
    <v>       0.12500000       0.12500000       0.62574050 </v>
    <v>       0.12500000       0.62500000       0.12574050 </v>
    <v>       0.12500000       0.62500000       0.62574050 </v>
    <v>       0.62500000       0.12500000       0.12574050 </v>
    <v>       0.62500000       0.12500000       0.62574050 </v>
    <v>       0.62500000       0.62500000       0.12574050 </v>
    <v>       0.62500000       0.62500000       0.62574050 </v>
   </varray>
  </structure>
  <varray name="forces" >
   <v>       0.00000000      -0.00000000      -0.00016590 </v>
   <v>       0.00000000      -0.00000000      -0.00016590 </v>
   <v>       0.00000000       0.00000000      -0.00016590 </v>
   <v>       0.00000000       0.00000000      -0.00016590 </v>
   <v>       0.00000000      -0.00000000      -0.00016590 </v>
   <v>       0.00000000      -0.00000000      -0.00016590 </v>
   <v>       0.00000000       0.00000000      -0.00016590 </v>
   <v>       0.00000000      -0.00000000      -0.00016590 </v>
   <v>      -0.00000000      -0.00000000       0.00016590 </v>
   <v>      -0.00000000      -0.00000000       0.00016590 </v>
   <v>      -0.00000000       0.00000000       0.00016590 </v>
   <v>      -0.00000000       0.00000000       0.00016590 </v>
   <v>      -0.00000000       0.00000000       0.00016590 </v>
   <v>      -0.00000000      -0.00000000       0.00016590 </v>
   <v>      -0.00000000       0.00000000       0.00016590 </v>
   <v>      -0.00000000       0.00000000       0.00016590 </v>
   <v>      -0.00000000      -0.00000000      -0.00016590 </v>
   <v>      -0.00000000      -0.00000000      -0.00016590 </v>
   <v>      -0.00000000       0.00000000      -0.00016590 </v>
   <v>      -0.00000000       0.00000000      -0.00016590 </v>
   <v>      -0.00000000       0.00000000      -0.00016590 </v>
   <v>      -0.00000000       0.00000000      -0.00016590 </v>
   <v>      -0.00000000       0.00000000      -0.00016590 </v>
   <v>      -0.00000000       0.00000000      -0.00016590 </v>
   <v>       0.00000000       0.00000000       0.00016590 </v>
   <v>       0.00000000       0.00000000       0.00016590 </v>
   <v>       0.00000000      -0.00000000       0.00016590 </v>
   <v>       0.00000000      -0.00000000       0.00016590 </v>
   <v>       0.00000000       0.00000000       0.00016590 </v>
   <v>       0.00000000      -0.00000000       0.00016590 </v>
   <v>      -0.00000000      -0.00000000       0.00016590 </v>
   <v>       0.00000000      -0.00000000       0.00016590 </v>
   <v>       0.00000000      -0.00000000      -0.00016590 </v>
   <v>       0.00000000      -0.00000000      -0.00016590 </v>
   <v>       0.00000000      -0.00000000      -0.00016590 </v>
   <v>       0.00000000      -0.00000000      -0.00016590 </v>
   <v>       0.00000000      -0.00000000      -0.00016590 </v>
   <v>       0.00000000      -0.00000000      -0.00016590 </v>
   <v>       0.00000000       0.00000000      -0.00016590 </v>
   <v>       0.00000000       0.00000000      -0.00016590 </v>
   <v>      -0.00000000      -0.00000000       0.00016590 </v>
   <v>      -0.00000000      -0.00000000       0.00016590 </v>
   <v>      -0.00000000       0.00000000       0.00016590 </v>
   <v>      -0.00000000       0.00000000       0.00016590 </v>
   <v>      -0.00000000       0.00000000       0.00016590 </v>
   <v>      -0.00000000      -0.00000000       0.00016590 </v>
   <v>      -0.00000000       0.00000000       0.00016590 </v>
   <v>      -0.00000000       0.00000000       0.00016590 </v>
   <v>      -0.00000000       0.00000000      -0.00016590 </v>
   <v>      -0.00000000       0.00000000      -0.00016590 </v>
   <v>      -0.00000000       0.00000000      -0.00016590 </v>
   <v>      -0.00000000       0.00000000      -0.00016590 </v>
   <v>      -0.00000000      -0.00000000      -0.00016590 </v>
   <v>      -0.00000000      -0.00000000      -0.00016590 </v>
   <v>      -0.00000000       0.00000000      -0.00016590 </v>
   <v>       0.00000000       0.00000000      -0.00016590 </v>
   <v>       0.00000000       0.00000000       0.00016590 </v>
   <v>       0.00000000       0.00000000       0.00016590 </v>
   <v>       0.00000000      -0.00000000       0.00016590 </v>
   <v>       0.00000000      -0.00000000       0.00016590 </v>
   <v>       0.00000000       0.00000000       0.00016590 </v>
   <v>       0.00000000       0.00000000       0.00016590 </v>
   <v>      -0.00000000      -0.00000000       0.00016590 </v>
   <v>       0.00000000      -0.00000000       0.00016590 </v>
  </varray>
  <varray name="stress" >
   <v>      41.88091715      15.30895023       0.00000000 </v>
   <v>      15.30895013      24.97467968       0.00000000 </v>
   <v>       0.00000000       0.00000000      24.70009635 </v>
  </varray>
  <energy>
   <i name="e_fr_energy">   -367.04969666 </i>
   <i name="e_wo_entrp">   -367.06837874 </i>
   <i name="e_0_energy">   -367.05592402 </i>
  </energy>
  <time name="totalsc">   13.09   13.29</time>
  <eigenvalues>
   <array>
    <dimension dim="1">band</dimension>
    <dimension dim="2">kpoint</dimension>
    <dimension dim="3">spin</dimension>
    <field>eigene</field>
    <field>occ</field>
    <set>
     <set comment="spin 1">
      <set comment="kpoint 1">
       <r>   -6.1069    1.0000 </r>
       <r>   -5.0073    1.0000 </r>
       <r>   -5.0073    1.0000 </r>
       <r>   -5.0067    1.0000 </r>
       <r>   -5.0067    1.0000 </r>
       <r>   -4.9680    1.0000 </r>
       <r>   -4.9680    1.0000 </r>
       <r>   -4.0379    1.0000 </r>
       <r>   -4.0379    1.0000 </r>
       <r>   -4.0166    1.0000 </r>
       <r>   -4.0166    1.0000 </r>
       <r>   -4.0166    1.0000 </r>
       <r>   -4.0166    1.0000 </r>
       <r>   -3.9890    1.0000 </r>
       <r>   -3.9890    1.0000 </r>
       <r>   -3.9890    1.0000 </r>
       <r>   -3.9890    1.0000 </r>
       <r>   -3.9390    1.0000 </r>
       <r>   -3.9390    1.0000 </r>
       <r>   -3.7350    1.0000 </r>
       <r>   -3.7350    1.0000 </r>
       <r>   -3.6319    1.0000 </r>
       <r>   -3.6319    1.0000 </r>
       <r>   -1.9170    1.0000 </r>
       <r>   -1.8829    1.0000 </r>
       <r>   -1.8829    1.0000 </r>
       <r>   -1.8534    1.0000 </r>
       <r>   -1.7578    1.0000 </r>
       <r>   -1.7578    1.0000 </r>
       <r>   -1.7415    1.0000 </r>
       <r>   -1.7415    1.0000 </r>
       <r>   -1.6984    1.0000 </r>
       <r>   -1.6984    1.0000 </r>
       <r>   -1.6447    1.0000 </r>
       <r>   -1.6447    1.0000 </r>
       <r>   -1.6447    1.0000 </r>
       <r>   -1.6447    1.0000 </r>
       <r>   -1.6320    1.0000 </r>
       <r>   -1.6319    1.0000 </r>
       <r>   -1.5932    1.0000 </r>
       <r>   -1.5932    1.0000 </r>
       <r>   -1.0949    1.0000 </r>
       <r>   -1.0949    1.0000 </r>
       <r>   -1.0475    1.0000 </r>
       <r>   -1.0475    1.0000 </r>
       <r>    0.4925    1.0000 </r>
       <r>    0.4925    1.0000 </r>
       <r>    0.5068    1.0000 </r>
       <r>    0.5068    1.0000 </r>
       <r>    0.5068    1.0000 </r>
       <r>    0.5068    1.0000 </r>
       <r>    0.5230    1.0000 </r>
       <r>    0.5230    1.0000 </r>
       <r>    0.5822    1.0000 </r>
       <r>    0.5822    1.0000 </r>
       <r>    0.5822    1.0000 </r>
       <r>    0.5822    1.0000 </r>
       <r>    2.0189    1.0000 </r>
       <r>    2.0189    1.0000 </r>
       <r>    2.0303    1.0000 </r>
       <r>    2.0303    1.0000 </r>
       <r>    2.0564    1.0000 </r>
       <r>    2.0564    1.0000 </r>
       <r>    2.0564    1.0000 </r>
       <r>    2.0564    1.0000 </r>
       <r>    2.0669    1.0000 </r>
       <r>    2.0669    1.0000 </r>
       <r>    2.0831    1.0000 </r>
       <r>    2.0831    1.0000 </r>
       <r>    2.1086    1.0000 </r>
       <r>    2.1086    1.0000 </r>
       <r>    2.1305    1.0000 </r>
       <r>    2.1305    1.0000 </r>
       <r>    2.1305    1.0000 </r>
       <r>    2.1305    1.0000 </r>
       <r>    2.1445    1.0000 </r>
       <r>    2.1445    1.0000 </r>
       <r>    2.2458    1.0000 </r>
       <r>    2.2458    1.0000 </r>
       <r>    2.2458    1.0000 </r>
       <r>    2.2458    1.0000 </r>
       <r>    2.5113    1.0000 </r>
       <r>    2.5113    1.0000 </r>
       <r>    2.5161    1.0000 </r>
       <r>    2.5161    1.0000 </r>
       <r>    2.6596    1.0000 </r>
       <r>    2.6596    1.0000 </r>
       <r>    3.0261    1.0000 </r>
       <r>    3.0261    1.0000 </r>
       <r>    3.0465    1.0000 </r>
       <r>    3.1852    1.0000 </r>
       <r>    3.1852    1.0000 </r>
       <r>    3.3283    1.0000 </r>
       <r>    4.0269    1.0000 </r>
       <r>    4.0269    1.0000 </r>
       <r>    4.0367    1.0000 </r>
       <r>    4.0367    1.0000 </r>
       <r>    4.0389    1.0000 </r>
       <r>    4.0389    1.0000 </r>
       <r>    4.1372    1.0000 </r>
       <r>    4.1372    1.0000 </r>
       <r>    4.1835    1.0000 </r>
       <r>    4.1835    1.0000 </r>
       <r>    4.2983    1.0000 </r>
       <r>    4.2983    1.0000 </r>
       <r>    4.6021    1.0000 </r>
       <r>    4.6021    1.0000 </r>
       <r>    4.6021    1.0000 </r>
       <r>    4.6021    1.0000 </r>
       <r>    4.6676    1.0000 </r>
       <r>    4.6676    1.0000 </r>
       <r>    4.7066    1.0000 </r>
       <r>    4.7066    1.0000 </r>
       <r>    4.7639    1.0000 </r>
       <r>    4.7639    1.0000 </r>
       <r>    4.7639    1.0000 </r>
       <r>    4.7639    1.0000 </r>
       <r>    4.7893    1.0000 </r>
       <r>    4.7893    1.0000 </r>
       <r>    4.8671    1.0000 </r>
       <r>    4.8671    1.0000 </r>
       <r>    4.8811    1.0000 </r>
       <r>    4.8811    1.0000 </r>
       <r>    5.0342    1.0000 </r>
       <r>    5.0342    1.0000 </r>
       <r>    5.9766    1.0173 </r>
       <r>    6.0299    1.0293 </r>
       <r>    6.2347    0.8336 </r>
       <r>    6.5030   -0.0122 </r>
       <r>    6.5030   -0.0122 </r>
       <r>    6.5112   -0.0185 </r>
       <r>    6.6668   -0.0175 </r>
       <r>    6.6668   -0.0175 </r>
       <r>    6.8249   -0.0011 </r>
       <r>    6.9786   -0.0000 </r>
       <r>    6.9786   -0.0000 </r>
       <r>    7.1359   -0.0000 </r>
       <r>    7.1359   -0.0000 </r>
       <r>    7.1426   -0.0000 </r>
       <r>    7.1426   -0.0000 </r>
       <r>    7.5262   -0.0000 </r>
       <r>    7.5262   -0.0000 </r>
       <r>    7.7228   -0.0000 </r>
       <r>    7.7228   -0.0000 </r>
       <r>    8.3302   -0.0000 </r>
       <r>    8.3302   -0.0000 </r>
       <r>    8.3302   -0.0000 </r>
       <r>    8.3302   -0.0000 </r>
       <r>    8.4102   -0.0000 </r>
       <r>    8.4102   -0.0000 </r>
       <r>    8.4784   -0.0000 </r>
       <r>    8.5207   -0.0000 </r>
       <r>    8.5207   -0.0000 </r>
       <r>    8.5207   -0.0000 </r>
       <r>    8.5207   -0.0000 </r>
       <r>    8.5939   -0.0000 </r>
       <r>    8.6349   -0.0000 </r>
       <r>    8.6349   -0.0000 </r>
       <r>    8.7193   -0.0000 </r>
       <r>    9.0879   -0.0000 </r>
       <r>    9.0986   -0.0000 </r>
       <r>    9.1063   -0.0000 </r>
      </set>
      <set comment="kpoint 2">
       <r>   -5.8195    1.0000 </r>
       <r>   -5.8195    1.0000 </r>
       <r>   -4.7702    1.0000 </r>
       <r>   -4.7702    1.0000 </r>
       <r>   -4.7451    1.0000 </r>
       <r>   -4.7451    1.0000 </r>
       <r>   -4.7451    1.0000 </r>
       <r>   -4.7451    1.0000 </r>
       <r>   -4.7188    1.0000 </r>
       <r>   -4.7188    1.0000 </r>
       <r>   -3.9002    1.0000 </r>
       <r>   -3.9002    1.0000 </r>
       <r>   -3.9002    1.0000 </r>
       <r>   -3.9002    1.0000 </r>
       <r>   -3.8368    1.0000 </r>
       <r>   -3.8368    1.0000 </r>
       <r>   -3.8368    1.0000 </r>
       <r>   -3.8368    1.0000 </r>
       <r>   -3.5889    1.0000 </r>
       <r>   -3.5889    1.0000 </r>
       <r>   -2.9250    1.0000 </r>
       <r>   -2.9250    1.0000 </r>
       <r>   -2.8608    1.0000 </r>
       <r>   -2.8608    1.0000 </r>
       <r>   -2.8608    1.0000 </r>
       <r>   -2.8608    1.0000 </r>
       <r>   -2.7960    1.0000 </r>
       <r>   -2.7960    1.0000 </r>
       <r>   -1.8319    1.0000 </r>
       <r>   -1.8319    1.0000 </r>
       <r>   -1.8306    1.0000 </r>
       <r>   -1.8306    1.0000 </r>
       <r>   -1.7521    1.0000 </r>
       <r>   -1.7521    1.0000 </r>
       <r>   -1.7493    1.0000 </r>
       <r>   -1.7493    1.0000 </r>
       <r>   -0.5966    1.0000 </r>
       <r>   -0.5966    1.0000 </r>
       <r>   -0.5799    1.0000 </r>
       <r>   -0.5799    1.0000 </r>
       <r>   -0.5799    1.0000 </r>
       <r>   -0.5799    1.0000 </r>
       <r>   -0.5673    1.0000 </r>
       <r>   -0.5673    1.0000 </r>
       <r>   -0.4567    1.0000 </r>
       <r>   -0.4567    1.0000 </r>
       <r>   -0.4567    1.0000 </r>
       <r>   -0.4567    1.0000 </r>
       <r>   -0.3804    1.0000 </r>
       <r>   -0.3804    1.0000 </r>
       <r>   -0.3804    1.0000 </r>
       <r>   -0.3804    1.0000 </r>
       <r>    0.3893    1.0000 </r>
       <r>    0.3893    1.0000 </r>
       <r>    1.6163    1.0000 </r>
       <r>    1.6163    1.0000 </r>
       <r>    1.6256    1.0000 </r>
       <r>    1.6256    1.0000 </r>
       <r>    1.6256    1.0000 </r>
       <r>    1.6256    1.0000 </r>
       <r>    1.6333    1.0000 </r>
       <r>    1.6333    1.0000 </r>
       <r>    1.7033    1.0000 </r>
       <r>    1.7033    1.0000 </r>
       <r>    1.7229    1.0000 </r>
       <r>    1.7229    1.0000 </r>
       <r>    1.7229    1.0000 </r>
       <r>    1.7229    1.0000 </r>
       <r>    1.7538    1.0000 </r>
       <r>    1.7538    1.0000 </r>
       <r>    2.4437    1.0000 </r>
       <r>    2.4437    1.0000 </r>
       <r>    2.5241    1.0000 </r>
       <r>    2.5241    1.0000 </r>
       <r>    2.5458    1.0000 </r>
       <r>    2.5458    1.0000 </r>
       <r>    2.6298    1.0000 </r>
       <r>    2.6298    1.0000 </r>
       <r>    3.2093    1.0000 </r>
       <r>    3.2093    1.0000 </r>
       <r>    3.2448    1.0000 </r>
       <r>    3.2448    1.0000 </r>
       <r>    3.2448    1.0000 </r>
       <r>    3.2448    1.0000 </r>
       <r>    3.2696    1.0000 </r>
       <r>    3.2696    1.0000 </r>
       <r>    3.2837    1.0000 </r>
       <r>    3.2837    1.0000 </r>
       <r>    3.2845    1.0000 </r>
       <r>    3.2845    1.0000 </r>
       <r>    3.3879    1.0000 </r>
       <r>    3.3879    1.0000 </r>
       <r>    3.4606    1.0000 </r>
       <r>    3.4606    1.0000 </r>
       <r>    3.4606    1.0000 </r>
       <r>    3.4606    1.0000 </r>
       <r>    3.5359    1.0000 </r>
       <r>    3.5359    1.0000 </r>
       <r>    3.5605    1.0000 </r>
       <r>    3.5605    1.0000 </r>
       <r>    3.5605    1.0000 </r>
       <r>    3.5605    1.0000 </r>
       <r>    3.7107    1.0000 </r>
       <r>    3.7107    1.0000 </r>
       <r>    3.7107    1.0000 </r>
       <r>    3.7107    1.0000 </r>
       <r>    4.5751    1.0000 </r>
       <r>    4.5751    1.0000 </r>
       <r>    4.6229    1.0000 </r>
       <r>    4.6229    1.0000 </r>
       <r>    4.6229    1.0000 </r>
       <r>    4.6229    1.0000 </r>
       <r>    4.6475    1.0000 </r>
       <r>    4.6475    1.0000 </r>
       <r>    4.6475    1.0000 </r>
       <r>    4.6475    1.0000 </r>
       <r>    4.6746    1.0000 </r>
       <r>    4.6746    1.0000 </r>
       <r>    4.7024    1.0000 </r>
       <r>    4.7024    1.0000 </r>
       <r>    4.7024    1.0000 </r>
       <r>    4.7024    1.0000 </r>
       <r>    4.8297    1.0000 </r>
       <r>    4.8297    1.0000 </r>
       <r>    5.1751    1.0000 </r>
       <r>    5.1751    1.0000 </r>
       <r>    5.2029    1.0000 </r>
       <r>    5.2029    1.0000 </r>
       <r>    6.4127    0.1568 </r>
       <r>    6.4127    0.1568 </r>
       <r>    7.3912   -0.0000 </r>
       <r>    7.3912   -0.0000 </r>
       <r>    7.8424   -0.0000 </r>
       <r>    7.8424   -0.0000 </r>
       <r>    7.9455   -0.0000 </r>
       <r>    7.9455   -0.0000 </r>
       <r>    8.0118   -0.0000 </r>
       <r>    8.0118   -0.0000 </r>
       <r>    8.0568   -0.0000 </r>
       <r>    8.0568   -0.0000 </r>
       <r>    8.2289   -0.0000 </r>
       <r>    8.2289   -0.0000 </r>
       <r>    8.2567   -0.0000 </r>
       <r>    8.2568   -0.0000 </r>
       <r>    8.2568   -0.0000 </r>
       <r>    8.2568   -0.0000 </r>
       <r>    8.3717   -0.0000 </r>
       <r>    8.3717   -0.0000 </r>
       <r>    8.3717   -0.0000 </r>
       <r>    8.3717   -0.0000 </r>
       <r>    8.4861   -0.0000 </r>
       <r>    8.4862   -0.0000 </r>
       <r>    8.5325   -0.0000 </r>
       <r>    8.5325   -0.0000 </r>
       <r>    8.5326   -0.0000 </r>
[...]
      </set>
     </set>
    </set>
   </array>
  </eigenvalues>
  <separator name="orbital magnetization" >
   <v name="MAGDIPOLOUT">      0.00000000      0.00000000      0.00000000</v>
  </separator>
  <dos>
   <i name="efermi">      6.32213390 </i>
   <total>
    <array>
     <dimension dim="1">gridpoints</dimension>
     <dimension dim="2">spin</dimension>
     <field>energy</field>
     <field>total</field>
     <field>integrated</field>
     <set>
      <set comment="spin 1">
       <r>    -8.1069     0.0000     0.0000 </r>
       <r>    -8.0415     0.0000     0.0000 </r>
       <r>    -7.9761     0.0000     0.0000 </r>
       <r>    -7.9107     0.0000     0.0000 </r>
       <r>    -7.8453     0.0000     0.0000 </r>
       <r>    -7.7799     0.0000     0.0000 </r>
       <r>    -7.7145    -0.0000    -0.0000 </r>
       <r>    -7.6491    -0.0000    -0.0000 </r>
       <r>    -7.5837    -0.0000    -0.0000 </r>
       <r>    -7.5183    -0.0000    -0.0000 </r>
       <r>    -7.4529    -0.0000    -0.0000 </r>
       <r>    -7.3875    -0.0000    -0.0000 </r>
       <r>    -7.3221    -0.0000    -0.0000 </r>
       <r>    -7.2567    -0.0000    -0.0000 </r>
       <r>    -7.1913    -0.0000    -0.0000 </r>
       <r>    -7.1258    -0.0000    -0.0000 </r>
       <r>    -7.0604    -0.0000    -0.0000 </r>
       <r>    -6.9950    -0.0000    -0.0000 </r>
       <r>    -6.9296    -0.0000    -0.0000 </r>
       <r>    -6.8642    -0.0000    -0.0000 </r>
       <r>    -6.7988    -0.0000    -0.0000 </r>
       <r>    -6.7334    -0.0001    -0.0000 </r>
       <r>    -6.6680    -0.0008    -0.0001 </r>
       <r>    -6.6026    -0.0039    -0.0003 </r>
       <r>    -6.5372    -0.0134    -0.0012 </r>
       <r>    -6.4718    -0.0340    -0.0034 </r>
       <r>    -6.4064    -0.0576    -0.0072 </r>
       <r>    -6.3410    -0.0429    -0.0100 </r>
       <r>    -6.2756     0.0748    -0.0051 </r>
       <r>    -6.2102     0.3038     0.0148 </r>
       <r>    -6.1448     0.5428     0.0503 </r>
       <r>    -6.0794     0.7491     0.0993 </r>
       <r>    -6.0140     1.2155     0.1788 </r>
       <r>    -5.9486     2.3804     0.3345 </r>
       <r>    -5.8832     4.0888     0.6019 </r>
       <r>    -5.8178     5.4581     0.9589 </r>
       <r>    -5.7524     6.1048     1.3581 </r>
       <r>    -5.6870     7.0265     1.8177 </r>
       <r>    -5.6216     9.1667     2.4172 </r>
       <r>    -5.5562    11.4709     3.1675 </r>
       <r>    -5.4908    11.9142     3.9467 </r>
       <r>    -5.4253    10.3697     4.6249 </r>
       <r>    -5.3599     8.7137     5.1948 </r>
       <r>    -5.2945     7.9873     5.7172 </r>
       <r>    -5.2291     7.3080     6.1952 </r>
       <r>    -5.1637     5.9259     6.5828 </r>
       <r>    -5.0983     4.5697     6.8817 </r>
       <r>    -5.0329     4.2341     7.1586 </r>
       <r>    -4.9675     5.2738     7.5035 </r>
       <r>    -4.9021     8.2579     8.0436 </r>
       <r>    -4.8367    13.8031     8.9464 </r>
       <r>    -4.7713    20.5533    10.2907 </r>
       <r>    -4.7059    25.3993    11.9519 </r>
       <r>    -4.6405    27.0612    13.7218 </r>
       <r>    -4.5751    27.1931    15.5003 </r>
       <r>    -4.5097    26.6048    17.2404 </r>
       <r>    -4.4443    23.2693    18.7623 </r>
       <r>    -4.3789    15.8939    19.8018 </r>
       <r>    -4.3135     6.9632    20.2572 </r>
       <r>    -4.2481     0.5833    20.2954 </r>
       <r>    -4.1827    -0.9171    20.2354 </r>
       <r>    -4.1173     2.5804    20.4042 </r>
       <r>    -4.0519    10.0264    21.0599 </r>
       <r>    -3.9865    19.3286    22.3241 </r>
       <r>    -3.9211    27.2379    24.1056 </r>
       <r>    -3.8557    30.5019    26.1005 </r>
       <r>    -3.7903    27.9521    27.9287 </r>
       <r>    -3.7248    21.6238    29.3430 </r>
       <r>    -3.6594    15.6664    30.3676 </r>
       <r>    -3.5940    13.9498    31.2800 </r>
       <r>    -3.5286    18.0538    32.4608 </r>
       <r>    -3.4632    26.4124    34.1882 </r>
       <r>    -3.3978    35.1274    36.4857 </r>
       <r>    -3.3324    40.4678    39.1325 </r>
       <r>    -3.2670    41.1104    41.8212 </r>
       <r>    -3.2016    38.0569    44.3103 </r>
       <r>    -3.1362    33.1282    46.4770 </r>
       <r>    -3.0708    28.2827    48.3268 </r>
       <r>    -3.0054    25.4303    49.9901 </r>
       <r>    -2.9400    24.9716    51.6233 </r>
       <r>    -2.8746    24.4932    53.2252 </r>
       <r>    -2.8092    20.7819    54.5845 </r>
       <r>    -2.7438    13.5435    55.4703 </r>
       <r>    -2.6784     5.7891    55.8489 </r>
       <r>    -2.6130     0.5494    55.8848 </r>
       <r>    -2.5476    -1.4548    55.7897 </r>
       <r>    -2.4822    -0.9657    55.7265 </r>
       <r>    -2.4168     1.4578    55.8219 </r>
       <r>    -2.3514     5.4006    56.1751 </r>
       <r>    -2.2860     9.4469    56.7929 </r>
       <r>    -2.2206    11.2289    57.5273 </r>
       <r>    -2.1552     9.3816    58.1409 </r>
       <r>    -2.0898     5.3001    58.4876 </r>
       <r>    -2.0243     2.5207    58.6525 </r>
       <r>    -1.9589     4.3265    58.9354 </r>
       <r>    -1.8935    11.6361    59.6965 </r>
       <r>    -1.8281    22.1954    61.1481 </r>
       <r>    -1.7627    31.3111    63.1960 </r>
       <r>    -1.6973    34.2699    65.4374 </r>
       <r>    -1.6319    29.3787    67.3589 </r>
       <r>    -1.5665    19.2691    68.6191 </r>
       <r>    -1.5011     9.1642    69.2185 </r>
       <r>    -1.4357     3.4814    69.4462 </r>
       <r>    -1.3703     3.3848    69.6676 </r>
       <r>    -1.3049     6.7394    70.1084 </r>
       <r>    -1.2395    10.0648    70.7667 </r>
       <r>    -1.1741    10.9965    71.4859 </r>
       <r>    -1.1087     9.7449    72.1232 </r>
       <r>    -1.0433     8.8632    72.7029 </r>
       <r>    -0.9779    11.2227    73.4369 </r>
       <r>    -0.9125    16.8821    74.5411 </r>
       <r>    -0.8471    21.9451    75.9764 </r>
       <r>    -0.7817    22.4966    77.4477 </r>
       <r>    -0.7163    20.1568    78.7661 </r>
       <r>    -0.6509    21.5317    80.1743 </r>
       <r>    -0.5855    31.1520    82.2118 </r>
       <r>    -0.5201    46.0499    85.2236 </r>
       <r>    -0.4547    57.3385    88.9738 </r>
       <r>    -0.3893    56.7269    92.6840 </r>
       <r>    -0.3238    42.9337    95.4920 </r>
       <r>    -0.2584    23.0240    96.9978 </r>
       <r>    -0.1930     7.1287    97.4641 </r>
       <r>    -0.1276     1.5141    97.5631 </r>
       <r>    -0.0622     5.9071    97.9495 </r>
       <r>     0.0032    15.1369    98.9395 </r>
       <r>     0.0686    22.4495   100.4078 </r>
       <r>     0.1340    23.3628   101.9358 </r>
       <r>     0.1994    18.2242   103.1277 </r>
       <r>     0.2648    11.1059   103.8541 </r>
       <r>     0.3302     6.2879   104.2653 </r>
       <r>     0.3956     5.9256   104.6529 </r>
       <r>     0.4610     9.9467   105.3034 </r>
       <r>     0.5264    16.7187   106.3969 </r>
       <r>     0.5918    23.5844   107.9394 </r>
       <r>     0.6572    27.5457   109.7410 </r>
       <r>     0.7226    26.4620   111.4717 </r>
       <r>     0.7880    20.4130   112.8068 </r>
       <r>     0.8534    11.9809   113.5904 </r>
       <r>     0.9188     4.6250   113.8929 </r>
       <r>     0.9842     0.3680   113.9170 </r>
       <r>     1.0496    -1.0292   113.8497 </r>
       <r>     1.1150    -1.0137   113.7834 </r>
       <r>     1.1804    -0.8732   113.7263 </r>
       <r>     1.2458    -1.2016   113.6477 </r>
       <r>     1.3113    -1.8188   113.5287 </r>
       <r>     1.3767    -1.4624   113.4331 </r>
       <r>     1.4421     2.3223   113.5850 </r>
       <r>     1.5075    11.8747   114.3616 </r>
       <r>     1.5729    26.7250   116.1095 </r>
       <r>     1.6383    41.9442   118.8528 </r>
       <r>     1.7037    50.1598   122.1335 </r>
       <r>     1.7691    46.7769   125.1929 </r>
       <r>     1.8345    34.3770   127.4413 </r>
       <r>     1.8999    21.5995   128.8540 </r>
       <r>     1.9653    16.1693   129.9115 </r>
       <r>     2.0307    18.4101   131.1156 </r>
       <r>     2.0961    22.1623   132.5651 </r>
       <r>     2.1615    22.1573   134.0143 </r>
       <r>     2.2269    20.0486   135.3255 </r>
       <r>     2.2923    23.1279   136.8382 </r>
       <r>     2.3577    36.9751   139.2565 </r>
       <r>     2.4231    58.7357   143.0980 </r>
       <r>     2.4885    77.4378   148.1628 </r>
       <r>     2.5539    81.7662   153.5106 </r>
       <r>     2.6193    68.6036   157.9975 </r>
       <r>     2.6847    44.7244   160.9227 </r>
       <r>     2.7501    20.8838   162.2886 </r>
       <r>     2.8155     4.4776   162.5814 </r>
       <r>     2.8809    -3.1604   162.3747 </r>
       <r>     2.9463    -4.0436   162.1102 </r>
       <r>     3.0118     0.8181   162.1637 </r>
       <r>     3.0772    12.7596   162.9983 </r>
       <r>     3.1426    32.2271   165.1061 </r>
       <r>     3.2080    54.8417   168.6929 </r>
       <r>     3.2734    72.5280   173.4365 </r>
       <r>     3.3388    79.3568   178.6268 </r>
       <r>     3.4042    75.2961   183.5514 </r>
       <r>     3.4696    64.4656   187.7677 </r>
       <r>     3.5350    51.8439   191.1585 </r>
       <r>     3.6004    41.9287   193.9008 </r>
       <r>     3.6658    37.7780   196.3716 </r>
       <r>     3.7312    39.0725   198.9271 </r>
       <r>     3.7966    41.7202   201.6558 </r>
       <r>     3.8620    41.0564   204.3410 </r>
       <r>     3.9274    36.0539   206.6991 </r>
       <r>     3.9928    30.0012   208.6613 </r>
       <r>     4.0582    26.8517   210.4175 </r>
       <r>     4.1236    27.5066   212.2166 </r>
       <r>     4.1890    30.0401   214.1813 </r>
       <r>     4.2544    32.4760   216.3054 </r>
       <r>     4.3198    34.1766   218.5406 </r>
       <r>     4.3852    35.4504   220.8592 </r>
       <r>     4.4506    37.4236   223.3069 </r>
       <r>     4.5160    41.6320   226.0298 </r>
       <r>     4.5814    47.9840   229.1681 </r>
       <r>     4.6468    53.4061   232.6611 </r>
       <r>     4.7123    53.9034   236.1866 </r>
       <r>     4.7777    47.9614   239.3234 </r>
       <r>     4.8431    37.3865   241.7687 </r>
       <r>     4.9085    25.5690   243.4410 </r>
       <r>     4.9739    15.8754   244.4793 </r>
       <r>     5.0393    10.9158   245.1932 </r>
       <r>     5.1047    11.4924   245.9449 </r>
       <r>     5.1701    15.5787   246.9638 </r>
       <r>     5.2355    19.2766   248.2245 </r>
       <r>     5.3009    19.6645   249.5107 </r>
       <r>     5.3663    16.6304   250.5984 </r>
       <r>     5.4317    11.9888   251.3825 </r>
       <r>     5.4971     7.6664   251.8839 </r>
       <r>     5.5625     5.0258   252.2126 </r>
       <r>     5.6279     4.8014   252.5266 </r>
       <r>     5.6933     6.6086   252.9588 </r>
       <r>     5.7587     8.8391   253.5370 </r>
       <r>     5.8241     9.7994   254.1779 </r>
       <r>     5.8895     8.9627   254.7641 </r>
       <r>     5.9549     6.9476   255.2185 </r>
       <r>     6.0203     4.6467   255.5224 </r>
       <r>     6.0857     2.6821   255.6978 </r>
       <r>     6.1511     1.3837   255.7883 </r>
       <r>     6.2165     0.8711   255.8453 </r>
       <r>     6.2819     1.1554   255.9208 </r>
       <r>     6.3473     2.2757   256.0697 </r>
       <r>     6.4128     4.2116   256.3451 </r>
       <r>     6.4782     6.5379   256.7727 </r>
       <r>     6.5436     8.3059   257.3160 </r>
       <r>     6.6090     8.5295   257.8738 </r>
       <r>     6.6744     6.9775   258.3302 </r>
       <r>     6.7398     4.5410   258.6272 </r>
       <r>     6.8052     2.7792   258.8090 </r>
       <r>     6.8706     2.9621   259.0027 </r>
       <r>     6.9360     5.2421   259.3456 </r>
       <r>     7.0014     8.4791   259.9001 </r>
       <r>     7.0668    11.0128   260.6204 </r>
       <r>     7.1322    12.0376   261.4077 </r>
       <r>     7.1976    12.4444   262.2216 </r>
       <r>     7.2630    14.0955   263.1435 </r>
       <r>     7.3284    17.8233   264.3092 </r>
       <r>     7.3938    22.0965   265.7544 </r>
       <r>     7.4592    24.1574   267.3344 </r>
       <r>     7.5246    22.7714   268.8238 </r>
       <r>     7.5900    19.7201   270.1135 </r>
       <r>     7.6554    18.3304   271.3124 </r>
       <r>     7.7208    20.3473   272.6432 </r>
       <r>     7.7862    24.6053   274.2525 </r>
       <r>     7.8516    29.0189   276.1504 </r>
       <r>     7.9170    32.6975   278.2890 </r>
       <r>     7.9824    35.3144   280.5987 </r>
       <r>     8.0478    36.3226   282.9743 </r>
       <r>     8.1133    36.4075   285.3555 </r>
       <r>     8.1787    37.9708   287.8389 </r>
       <r>     8.2441    42.5048   290.6189 </r>
       <r>     8.3095    48.7028   293.8043 </r>
       <r>     8.3749    54.0727   297.3408 </r>
       <r>     8.4403    57.1557   301.0790 </r>
       <r>     8.5057    57.5601   304.8437 </r>
       <r>     8.5711    55.0334   308.4431 </r>
       <r>     8.6365    49.3208   311.6689 </r>
       <r>     8.7019    40.7013   314.3309 </r>
       <r>     8.7673    30.7409   316.3415 </r>
       <r>     8.8327    22.4637   317.8107 </r>
       <r>     8.8981    18.5506   319.0239 </r>
       <r>     8.9635    18.5740   320.2388 </r>
       <r>     9.0289    18.9329   321.4770 </r>
       <r>     9.0943    16.3156   322.5441 </r>
       <r>     9.1597    10.7180   323.2451 </r>
       <r>     9.2251     4.7762   323.5575 </r>
       <r>     9.2905     0.9366   323.6188 </r>
       <r>     9.3559    -0.2197   323.6044 </r>
       <r>     9.4213     0.3865   323.6297 </r>
       <r>     9.4867     1.4163   323.7223 </r>
       <r>     9.5521     1.8937   323.8462 </r>
       <r>     9.6175     1.5708   323.9489 </r>
       <r>     9.6829     0.8358   324.0036 </r>
       <r>     9.7484     0.2148   324.0176 </r>
       <r>     9.8138    -0.0690   324.0131 </r>
       <r>     9.8792    -0.1063   324.0062 </r>
       <r>     9.9446    -0.0620   324.0021 </r>
       <r>    10.0100    -0.0239   324.0006 </r>
       <r>    10.0754    -0.0067   324.0001 </r>
       <r>    10.1408    -0.0015   324.0000 </r>
       <r>    10.2062    -0.0002   324.0000 </r>
       <r>    10.2716    -0.0000   324.0000 </r>
       <r>    10.3370    -0.0000   324.0000 </r>
       <r>    10.4024    -0.0000   324.0000 </r>
       <r>    10.4678    -0.0000   324.0000 </r>
       <r>    10.5332    -0.0000   324.0000 </r>
       <r>    10.5986    -0.0000   324.0000 </r>
       <r>    10.6640    -0.0000   324.0000 </r>
       <r>    10.7294    -0.0000   324.0000 </r>
       <r>    10.7948    -0.0000   324.0000 </r>
       <r>    10.8602     0.0000   324.0000 </r>
       <r>    10.9256     0.0000   324.0000 </r>
       <r>    10.9910     0.0000   324.0000 </r>
       <r>    11.0564     0.0000   324.0000 </r>
       <r>    11.1218     0.0000   324.0000 </r>
       <r>    11.1872     0.0000   324.0000 </r>
       <r>    11.2526     0.0000   324.0000 </r>
       <r>    11.3180     0.0000   324.0000 </r>
       <r>    11.3834     0.0000   324.0000 </r>
       <r>    11.4489     0.0000   324.0000 </r>
       <r>    11.5143     0.0000   324.0000 </r>
      </set>
     </set>
    </array>
   </total>
  </dos>
 </calculation>
 <structure name="finalpos" >
  <crystal>
   <varray name="basis" >
    <v>      10.61724257      -0.10833902       0.00000000 </v>
    <v>      -0.10833902      10.83392060       0.00000000 </v>
    <v>       0.00000000       0.00000000      10.83392060 </v>
   </varray>
   <i name="volume">   1246.05932190 </i>
   <varray name="rec_basis" >
    <v>       0.09419603       0.00094196       0.00000000 </v>
    <v>       0.00094196       0.09231211       0.00000000 </v>
    <v>       0.00000000       0.00000000       0.09230269 </v>
   </varray>
  </crystal>
  <varray name="positions" >
   <v>       0.00000000       0.00000000       0.99925950 </v>
   <v>       0.00000000       0.00000000       0.49925950 </v>
   <v>       0.00000000       0.50000000       0.99925950 </v>
   <v>       0.00000000       0.50000000       0.49925950 </v>
   <v>       0.50000000       0.00000000       0.99925950 </v>
   <v>       0.50000000       0.00000000       0.49925950 </v>
   <v>       0.50000000       0.50000000       0.99925950 </v>
   <v>       0.50000000       0.50000000       0.49925950 </v>
   <v>       0.37500000       0.37500000       0.12574050 </v>
   <v>       0.37500000       0.37500000       0.62574050 </v>
   <v>       0.37500000       0.87500000       0.12574050 </v>
   <v>       0.37500000       0.87500000       0.62574050 </v>
   <v>       0.87500000       0.37500000       0.12574050 </v>
   <v>       0.87500000       0.37500000       0.62574050 </v>
   <v>       0.87500000       0.87500000       0.12574050 </v>
   <v>       0.87500000       0.87500000       0.62574050 </v>
   <v>       0.00000000       0.25000000       0.24925950 </v>
   <v>       0.00000000       0.25000000       0.74925950 </v>
   <v>       0.00000000       0.75000000       0.24925950 </v>
   <v>       0.00000000       0.75000000       0.74925950 </v>
   <v>       0.50000000       0.25000000       0.24925950 </v>
   <v>       0.50000000       0.25000000       0.74925950 </v>
   <v>       0.50000000       0.75000000       0.24925950 </v>
   <v>       0.50000000       0.75000000       0.74925950 </v>
   <v>       0.37500000       0.12500000       0.37574050 </v>
   <v>       0.37500000       0.12500000       0.87574050 </v>
   <v>       0.37500000       0.62500000       0.37574050 </v>
   <v>       0.37500000       0.62500000       0.87574050 </v>
   <v>       0.87500000       0.12500000       0.37574050 </v>
   <v>       0.87500000       0.12500000       0.87574050 </v>
   <v>       0.87500000       0.62500000       0.37574050 </v>
   <v>       0.87500000       0.62500000       0.87574050 </v>
   <v>       0.25000000       0.00000000       0.24925950 </v>
   <v>       0.25000000       0.00000000       0.74925950 </v>
   <v>       0.25000000       0.50000000       0.24925950 </v>
   <v>       0.25000000       0.50000000       0.74925950 </v>
   <v>       0.75000000       0.00000000       0.24925950 </v>
   <v>       0.75000000       0.00000000       0.74925950 </v>
   <v>       0.75000000       0.50000000       0.24925950 </v>
   <v>       0.75000000       0.50000000       0.74925950 </v>
   <v>       0.12500000       0.37500000       0.37574050 </v>
   <v>       0.12500000       0.37500000       0.87574050 </v>
   <v>       0.12500000       0.87500000       0.37574050 </v>
   <v>       0.12500000       0.87500000       0.87574050 </v>
   <v>       0.62500000       0.37500000       0.37574050 </v>
   <v>       0.62500000       0.37500000       0.87574050 </v>
   <v>       0.62500000       0.87500000       0.37574050 </v>
   <v>       0.62500000       0.87500000       0.87574050 </v>
   <v>       0.25000000       0.25000000       0.99925950 </v>
   <v>       0.25000000       0.25000000       0.49925950 </v>
   <v>       0.25000000       0.75000000       0.99925950 </v>
   <v>       0.25000000       0.75000000       0.49925950 </v>
   <v>       0.75000000       0.25000000       0.99925950 </v>
   <v>       0.75000000       0.25000000       0.49925950 </v>
   <v>       0.75000000       0.75000000       0.99925950 </v>
   <v>       0.75000000       0.75000000       0.49925950 </v>
   <v>       0.12500000       0.12500000       0.12574050 </v>
   <v>       0.12500000       0.12500000       0.62574050 </v>
   <v>       0.12500000       0.62500000       0.12574050 </v>
   <v>       0.12500000       0.62500000       0.62574050 </v>
   <v>       0.62500000       0.12500000       0.12574050 </v>
   <v>       0.62500000       0.12500000       0.62574050 </v>
   <v>       0.62500000       0.62500000       0.12574050 </v>
   <v>       0.62500000       0.62500000       0.62574050 </v>
  </varray>
 </structure>
</modeling>
