Si64                                    
           1
    10.617243   -0.108339    0.000000
    -0.108339   10.833921    0.000000
     0.000000    0.000000   10.833921
   Si
    64
Direct configuration=     1
   0.00000000  0.00000000  0.00000000
   0.00000000  0.00000000  0.50000000
   0.00000000  0.50000000  0.00000000
   0.00000000  0.50000000  0.50000000
   0.50000000  0.00000000  0.00000000
   0.50000000  0.00000000  0.50000000
   0.50000000  0.50000000  0.00000000
   0.50000000  0.50000000  0.50000000
   0.37500000  0.37500000  0.12500000
   0.37500000  0.37500000  0.62500000
   0.37500000  0.87500000  0.12500000
   0.37500000  0.87500000  0.62500000
   0.87500000  0.37500000  0.12500000
   0.87500000  0.37500000  0.62500000
   0.87500000  0.87500000  0.12500000
   0.87500000  0.87500000  0.62500000
   0.00000000  0.25000000  0.25000000
   0.00000000  0.25000000  0.75000000
   0.00000000  0.75000000  0.25000000
   0.00000000  0.75000000  0.75000000
   0.50000000  0.25000000  0.25000000
   0.50000000  0.25000000  0.75000000
   0.50000000  0.75000000  0.25000000
   0.50000000  0.75000000  0.75000000
   0.37500000  0.12500000  0.37500000
   0.37500000  0.12500000  0.87500000
   0.37500000  0.62500000  0.37500000
   0.37500000  0.62500000  0.87500000
   0.87500000  0.12500000  0.37500000
   0.87500000  0.12500000  0.87500000
   0.87500000  0.62500000  0.37500000
   0.87500000  0.62500000  0.87500000
   0.25000000  0.00000000  0.25000000
   0.25000000  0.00000000  0.75000000
   0.25000000  0.50000000  0.25000000
   0.25000000  0.50000000  0.75000000
   0.75000000  0.00000000  0.25000000
   0.75000000  0.00000000  0.75000000
   0.75000000  0.50000000  0.25000000
   0.75000000  0.50000000  0.75000000
   0.12500000  0.37500000  0.37500000
   0.12500000  0.37500000  0.87500000
   0.12500000  0.87500000  0.37500000
   0.12500000  0.87500000  0.87500000
   0.62500000  0.37500000  0.37500000
   0.62500000  0.37500000  0.87500000
   0.62500000  0.87500000  0.37500000
   0.62500000  0.87500000  0.87500000
   0.25000000  0.25000000  0.00000000
   0.25000000  0.25000000  0.50000000
   0.25000000  0.75000000  0.00000000
   0.25000000  0.75000000  0.50000000
   0.75000000  0.25000000  0.00000000
   0.75000000  0.25000000  0.50000000
   0.75000000  0.75000000  0.00000000
   0.75000000  0.75000000  0.50000000
   0.12500000  0.12500000  0.12500000
   0.12500000  0.12500000  0.62500000
   0.12500000  0.62500000  0.12500000
   0.12500000  0.62500000  0.62500000
   0.62500000  0.12500000  0.12500000
   0.62500000  0.12500000  0.62500000
   0.62500000  0.62500000  0.12500000
   0.62500000  0.62500000  0.62500000
Direct configuration=     2
   1.00000000  1.00000000  0.99899596
   1.00000000  1.00000000  0.49899596
   0.00000000  0.50000000  0.99899596
   0.00000000  0.50000000  0.49899596
   0.50000000  0.00000000  0.99899596
   0.50000000  0.00000000  0.49899596
   0.50000000  0.50000000  0.99899596
   0.50000000  0.50000000  0.49899596
   0.37500000  0.37500000  0.12600404
   0.37500000  0.37500000  0.62600404
   0.37500000  0.87500000  0.12600404
   0.37500000  0.87500000  0.62600404
   0.87500000  0.37500000  0.12600404
   0.87500000  0.37500000  0.62600404
   0.87500000  0.87500000  0.12600404
   0.87500000  0.87500000  0.62600404
   1.00000000  0.25000000  0.24899596
   1.00000000  0.25000000  0.74899596
   0.00000000  0.75000000  0.24899596
   0.00000000  0.75000000  0.74899596
   0.50000000  0.25000000  0.24899596
   0.50000000  0.25000000  0.74899596
   0.50000000  0.75000000  0.24899596
   0.50000000  0.75000000  0.74899596
   0.37500000  0.12500000  0.37600404
   0.37500000  0.12500000  0.87600404
   0.37500000  0.62500000  0.37600404
   0.37500000  0.62500000  0.87600404
   0.87500000  0.12500000  0.37600404
   0.87500000  0.12500000  0.87600404
   0.87500000  0.62500000  0.37600404
   0.87500000  0.62500000  0.87600404
   0.25000000  0.00000000  0.24899596
   0.25000000  0.00000000  0.74899596
   0.25000000  0.50000000  0.24899596
   0.25000000  0.50000000  0.74899596
   0.75000000  1.00000000  0.24899596
   0.75000000  1.00000000  0.74899596
   0.75000000  0.50000000  0.24899596
   0.75000000  0.50000000  0.74899596
   0.12500000  0.37500000  0.37600404
   0.12500000  0.37500000  0.87600404
   0.12500000  0.87500000  0.37600404
   0.12500000  0.87500000  0.87600404
   0.62500000  0.37500000  0.37600404
   0.62500000  0.37500000  0.87600404
   0.62500000  0.87500000  0.37600404
   0.62500000  0.87500000  0.87600404
   0.25000000  0.25000000  0.99899596
   0.25000000  0.25000000  0.49899596
   0.25000000  0.75000000  0.99899596
   0.25000000  0.75000000  0.49899596
   0.75000000  0.25000000  0.99899596
   0.75000000  0.25000000  0.49899596
   0.75000000  0.75000000  0.99899596
   0.75000000  0.75000000  0.49899596
   0.12500000  0.12500000  0.12600404
   0.12500000  0.12500000  0.62600404
   0.12500000  0.62500000  0.12600404
   0.12500000  0.62500000  0.62600404
   0.62500000  0.12500000  0.12600404
   0.62500000  0.12500000  0.62600404
   0.62500000  0.62500000  0.12600404
   0.62500000  0.62500000  0.62600404
Direct configuration=     3
   0.00000000  0.00000000  0.99925950
   0.00000000  0.00000000  0.49925950
   0.00000000  0.50000000  0.99925950
   0.00000000  0.50000000  0.49925950
   0.50000000  0.00000000  0.99925950
   0.50000000  0.00000000  0.49925950
   0.50000000  0.50000000  0.99925950
   0.50000000  0.50000000  0.49925950
   0.37500000  0.37500000  0.12574050
   0.37500000  0.37500000  0.62574050
   0.37500000  0.87500000  0.12574050
   0.37500000  0.87500000  0.62574050
   0.87500000  0.37500000  0.12574050
   0.87500000  0.37500000  0.62574050
   0.87500000  0.87500000  0.12574050
   0.87500000  0.87500000  0.62574050
   0.00000000  0.25000000  0.24925950
   0.00000000  0.25000000  0.74925950
   0.00000000  0.75000000  0.24925950
   0.00000000  0.75000000  0.74925950
   0.50000000  0.25000000  0.24925950
   0.50000000  0.25000000  0.74925950
   0.50000000  0.75000000  0.24925950
   0.50000000  0.75000000  0.74925950
   0.37500000  0.12500000  0.37574050
   0.37500000  0.12500000  0.87574050
   0.37500000  0.62500000  0.37574050
   0.37500000  0.62500000  0.87574050
   0.87500000  0.12500000  0.37574050
   0.87500000  0.12500000  0.87574050
   0.87500000  0.62500000  0.37574050
   0.87500000  0.62500000  0.87574050
   0.25000000  0.00000000  0.24925950
   0.25000000  0.00000000  0.74925950
   0.25000000  0.50000000  0.24925950
   0.25000000  0.50000000  0.74925950
   0.75000000  0.00000000  0.24925950
   0.75000000  0.00000000  0.74925950
   0.75000000  0.50000000  0.24925950
   0.75000000  0.50000000  0.74925950
   0.12500000  0.37500000  0.37574050
   0.12500000  0.37500000  0.87574050
   0.12500000  0.87500000  0.37574050
   0.12500000  0.87500000  0.87574050
   0.62500000  0.37500000  0.37574050
   0.62500000  0.37500000  0.87574050
   0.62500000  0.87500000  0.37574050
   0.62500000  0.87500000  0.87574050
   0.25000000  0.25000000  0.99925950
   0.25000000  0.25000000  0.49925950
   0.25000000  0.75000000  0.99925950
   0.25000000  0.75000000  0.49925950
   0.75000000  0.25000000  0.99925950
   0.75000000  0.25000000  0.49925950
   0.75000000  0.75000000  0.99925950
   0.75000000  0.75000000  0.49925950
   0.12500000  0.12500000  0.12574050
   0.12500000  0.12500000  0.62574050
   0.12500000  0.62500000  0.12574050
   0.12500000  0.62500000  0.62574050
   0.62500000  0.12500000  0.12574050
   0.62500000  0.12500000  0.62574050
   0.62500000  0.62500000  0.12574050
   0.62500000  0.62500000  0.62574050
