  64  64   0   0
  0.2013400E+02  0.1088187E-08  0.1088187E-08  0.1088187E-08  0.5000000E-15
  1.000000000000000E-004
  CAR 
 Si64                                    
     12.03575480     -7.96374233  301      6.75117127      1.00000000
     -7.964  0.0000E+00  0.0000E+00
     -7.897  0.0000E+00  0.0000E+00
     -7.830  0.0000E+00  0.0000E+00
     -7.764  0.0000E+00  0.0000E+00
     -7.697  0.0000E+00  0.0000E+00
     -7.630  0.0000E+00  0.0000E+00
     -7.564 -0.2260E-28 -0.1507E-29
     -7.497 -0.3992E-26 -0.2676E-27
     -7.430 -0.5659E-24 -0.3799E-25
     -7.364 -0.6407E-22 -0.4309E-23
     -7.297 -0.5793E-20 -0.3905E-21
     -7.230 -0.4182E-18 -0.2827E-19
     -7.164 -0.2408E-16 -0.1634E-17
     -7.097 -0.1072E-14 -0.7308E-16
     -7.030 -0.3910E-13 -0.2680E-14
     -6.964 -0.1135E-11 -0.7832E-13
     -6.897 -0.2617E-10 -0.1823E-11
     -6.830 -0.4789E-09 -0.3375E-10
     -6.764 -0.6940E-08 -0.4964E-09
     -6.697 -0.7942E-07 -0.5791E-08
     -6.630 -0.7148E-06 -0.5344E-07
     -6.564 -0.5031E-05 -0.3888E-06
     -6.497 -0.2744E-04 -0.2218E-05
     -6.430 -0.1143E-03 -0.9840E-05
     -6.364 -0.3540E-03 -0.3344E-04
     -6.297 -0.7668E-03 -0.8455E-04
     -6.230 -0.9593E-03 -0.1485E-03
     -6.164  0.1237E-03 -0.1403E-03
     -6.097  0.3375E-02  0.8470E-04
     -6.030  0.7762E-02  0.6022E-03
     -5.964  0.1096E-01  0.1333E-02
     -5.897  0.1457E-01  0.2304E-02
     -5.830  0.2682E-01  0.4091E-02
     -5.764  0.5262E-01  0.7600E-02
     -5.697  0.8095E-01  0.1300E-01
     -5.630  0.9515E-01  0.1934E-01
     -5.564  0.1006E+00  0.2605E-01
     -5.497  0.1232E+00  0.3426E-01
     -5.430  0.1672E+00  0.4541E-01
     -5.364  0.1976E+00  0.5858E-01
     -5.297  0.1854E+00  0.7094E-01
     -5.230  0.1509E+00  0.8100E-01
     -5.164  0.1313E+00  0.8976E-01
     -5.097  0.1274E+00  0.9825E-01
     -5.030  0.1138E+00  0.1058E+00
     -4.964  0.8707E-01  0.1116E+00
     -4.897  0.6862E-01  0.1162E+00
     -4.830  0.6989E-01  0.1209E+00
     -4.764  0.9005E-01  0.1269E+00
     -4.697  0.1435E+00  0.1365E+00
     -4.630  0.2445E+00  0.1528E+00
     -4.564  0.3582E+00  0.1766E+00
     -4.497  0.4219E+00  0.2048E+00
     -4.430  0.4286E+00  0.2333E+00
     -4.364  0.4290E+00  0.2619E+00
     -4.297  0.4320E+00  0.2907E+00
     -4.231  0.3807E+00  0.3161E+00
     -4.164  0.2492E+00  0.3327E+00
     -4.097  0.9473E-01  0.3390E+00
     -4.031 -0.7072E-02  0.3386E+00
     -3.964 -0.2750E-01  0.3367E+00
     -3.897  0.2599E-01  0.3385E+00
     -3.831  0.1390E+00  0.3477E+00
     -3.764  0.2887E+00  0.3670E+00
     -3.697  0.4313E+00  0.3957E+00
     -3.631  0.5081E+00  0.4296E+00
     -3.564  0.4823E+00  0.4618E+00
     -3.497  0.3764E+00  0.4869E+00
     -3.431  0.2619E+00  0.5043E+00
     -3.364  0.2102E+00  0.5183E+00
     -3.297  0.2569E+00  0.5354E+00
     -3.231  0.3881E+00  0.5613E+00
     -3.164  0.5399E+00  0.5973E+00
     -3.097  0.6366E+00  0.6398E+00
     -3.031  0.6495E+00  0.6831E+00
     -2.964  0.6072E+00  0.7235E+00
     -2.897  0.5470E+00  0.7600E+00
     -2.831  0.4805E+00  0.7920E+00
     -2.764  0.4207E+00  0.8201E+00
     -2.697  0.4000E+00  0.8467E+00
     -2.631  0.4154E+00  0.8744E+00
     -2.564  0.3988E+00  0.9010E+00
     -2.497  0.2971E+00  0.9208E+00
     -2.431  0.1475E+00  0.9306E+00
     -2.364  0.2885E-01  0.9326E+00
     -2.297 -0.2482E-01  0.9309E+00
     -2.231 -0.3207E-01  0.9288E+00
     -2.164 -0.1375E-01  0.9279E+00
     -2.097  0.3225E-01  0.9300E+00
     -2.031  0.1074E+00  0.9372E+00
     -1.964  0.1806E+00  0.9492E+00
     -1.897  0.2000E+00  0.9625E+00
     -1.831  0.1460E+00  0.9723E+00
     -1.764  0.5935E-01  0.9762E+00
     -1.697  0.1281E-01  0.9771E+00
     -1.631  0.6368E-01  0.9813E+00
     -1.564  0.2226E+00  0.9962E+00
     -1.497  0.4345E+00  0.1025E+01
     -1.431  0.5907E+00  0.1065E+01
     -1.364  0.5975E+00  0.1104E+01
     -1.297  0.4516E+00  0.1134E+01
     -1.231  0.2416E+00  0.1151E+01
     -1.164  0.7631E-01  0.1156E+01
     -1.097  0.1848E-01  0.1157E+01
     -1.031  0.6610E-01  0.1161E+01
     -0.964  0.1629E+00  0.1172E+01
     -0.897  0.2296E+00  0.1187E+01
     -0.831  0.2231E+00  0.1202E+01
     -0.764  0.1830E+00  0.1215E+01
     -0.697  0.1949E+00  0.1228E+01
     -0.631  0.2837E+00  0.1246E+01
     -0.564  0.3645E+00  0.1271E+01
     -0.497  0.3375E+00  0.1293E+01
     -0.431  0.2290E+00  0.1309E+01
     -0.364  0.1979E+00  0.1322E+01
     -0.297  0.3781E+00  0.1347E+01
     -0.231  0.7224E+00  0.1395E+01
     -0.164  0.1016E+01  0.1463E+01
     -0.097  0.1055E+01  0.1533E+01
     -0.031  0.8131E+00  0.1587E+01
      0.036  0.4433E+00  0.1617E+01
      0.103  0.1318E+00  0.1626E+01
      0.169 -0.2730E-01  0.1624E+01
      0.236 -0.3342E-01  0.1622E+01
      0.303  0.7832E-01  0.1627E+01
      0.369  0.2502E+00  0.1644E+01
      0.436  0.3880E+00  0.1669E+01
      0.503  0.4071E+00  0.1697E+01
      0.569  0.3116E+00  0.1717E+01
      0.636  0.1855E+00  0.1730E+01
      0.703  0.1084E+00  0.1737E+01
      0.769  0.1144E+00  0.1745E+01
      0.836  0.2086E+00  0.1758E+01
      0.903  0.3651E+00  0.1783E+01
      0.969  0.5060E+00  0.1817E+01
      1.036  0.5350E+00  0.1852E+01
      1.103  0.4199E+00  0.1880E+01
      1.169  0.2292E+00  0.1895E+01
      1.236  0.6808E-01  0.1900E+01
      1.303 -0.1162E-01  0.1899E+01
      1.369 -0.2826E-01  0.1897E+01
      1.436 -0.2383E-01  0.1896E+01
      1.503 -0.2378E-01  0.1894E+01
      1.569 -0.2715E-01  0.1892E+01
      1.636 -0.7923E-02  0.1892E+01
      1.703  0.7427E-01  0.1897E+01
      1.769  0.2367E+00  0.1913E+01
      1.836  0.4289E+00  0.1941E+01
      1.903  0.5492E+00  0.1978E+01
      1.969  0.5434E+00  0.2014E+01
      2.036  0.4715E+00  0.2045E+01
      2.103  0.4355E+00  0.2074E+01
      2.169  0.4591E+00  0.2105E+01
      2.236  0.4910E+00  0.2138E+01
      2.303  0.4968E+00  0.2171E+01
      2.369  0.4781E+00  0.2203E+01
      2.436  0.4233E+00  0.2231E+01
      2.503  0.3268E+00  0.2253E+01
      2.569  0.2636E+00  0.2270E+01
      2.636  0.3740E+00  0.2295E+01
      2.703  0.7202E+00  0.2343E+01
      2.769  0.1167E+01  0.2421E+01
      2.836  0.1440E+01  0.2517E+01
      2.903  0.1346E+01  0.2607E+01
      2.969  0.9407E+00  0.2670E+01
      3.036  0.4683E+00  0.2701E+01
      3.103  0.1306E+00  0.2709E+01
      3.169 -0.3420E-01  0.2707E+01
      3.236 -0.8305E-01  0.2702E+01
      3.303 -0.4777E-01  0.2698E+01
      3.369  0.9918E-01  0.2705E+01
      3.436  0.3776E+00  0.2730E+01
      3.503  0.7198E+00  0.2778E+01
      3.569  0.9933E+00  0.2844E+01
      3.636  0.1119E+01  0.2919E+01
      3.703  0.1124E+01  0.2994E+01
      3.769  0.1076E+01  0.3066E+01
      3.836  0.9986E+00  0.3132E+01
      3.903  0.8805E+00  0.3191E+01
      3.969  0.7397E+00  0.3240E+01
      4.036  0.6610E+00  0.3284E+01
      4.103  0.7059E+00  0.3331E+01
      4.169  0.7859E+00  0.3384E+01
      4.236  0.7292E+00  0.3432E+01
      4.303  0.5051E+00  0.3466E+01
      4.369  0.2809E+00  0.3485E+01
      4.436  0.2273E+00  0.3500E+01
      4.503  0.3461E+00  0.3523E+01
      4.569  0.5113E+00  0.3557E+01
      4.636  0.6188E+00  0.3598E+01
      4.703  0.6586E+00  0.3642E+01
      4.769  0.6653E+00  0.3687E+01
      4.836  0.6538E+00  0.3730E+01
      4.903  0.6325E+00  0.3772E+01
      4.969  0.6366E+00  0.3815E+01
      5.036  0.6996E+00  0.3861E+01
      5.103  0.8011E+00  0.3915E+01
      5.169  0.8620E+00  0.3972E+01
      5.236  0.7943E+00  0.4025E+01
      5.303  0.5781E+00  0.4064E+01
      5.369  0.2982E+00  0.4084E+01
      5.436  0.8944E-01  0.4090E+01
      5.503  0.4251E-01  0.4092E+01
      5.569  0.1539E+00  0.4103E+01
      5.636  0.3317E+00  0.4125E+01
      5.703  0.4451E+00  0.4154E+01
      5.769  0.4123E+00  0.4182E+01
      5.836  0.2624E+00  0.4199E+01
      5.903  0.9710E-01  0.4206E+01
      5.969 -0.1210E-02  0.4206E+01
      6.036 -0.1171E-01  0.4205E+01
      6.103  0.4667E-01  0.4208E+01
      6.169  0.1345E+00  0.4217E+01
      6.236  0.1969E+00  0.4230E+01
      6.303  0.1936E+00  0.4243E+01
      6.369  0.1368E+00  0.4252E+01
      6.436  0.7688E-01  0.4257E+01
      6.503  0.4604E-01  0.4260E+01
      6.569  0.3471E-01  0.4263E+01
      6.636  0.2286E-01  0.4264E+01
      6.703  0.1457E-01  0.4265E+01
      6.769  0.3399E-01  0.4268E+01
      6.836  0.9267E-01  0.4274E+01
      6.903  0.1644E+00  0.4285E+01
      6.969  0.1990E+00  0.4298E+01
      7.036  0.1682E+00  0.4309E+01
      7.103  0.9273E-01  0.4315E+01
      7.169  0.1916E-01  0.4317E+01
      7.236 -0.1739E-01  0.4315E+01
      7.303  0.1191E-02  0.4316E+01
      7.369  0.8108E-01  0.4321E+01
      7.436  0.1965E+00  0.4334E+01
      7.503  0.2783E+00  0.4353E+01
      7.569  0.2706E+00  0.4371E+01
      7.636  0.2097E+00  0.4385E+01
      7.703  0.2065E+00  0.4398E+01
      7.769  0.3166E+00  0.4420E+01
      7.836  0.4555E+00  0.4450E+01
      7.903  0.4781E+00  0.4482E+01
      7.969  0.3373E+00  0.4504E+01
      8.036  0.1325E+00  0.4513E+01
      8.103  0.1662E-01  0.4514E+01
      8.169  0.9414E-01  0.4520E+01
      8.236  0.3693E+00  0.4545E+01
      8.303  0.7136E+00  0.4593E+01
      8.369  0.9075E+00  0.4653E+01
      8.436  0.8122E+00  0.4707E+01
      8.503  0.5174E+00  0.4742E+01
      8.569  0.2654E+00  0.4759E+01
      8.636  0.2274E+00  0.4775E+01
      8.703  0.3924E+00  0.4801E+01
      8.769  0.6635E+00  0.4845E+01
      8.836  0.9824E+00  0.4911E+01
      8.903  0.1291E+01  0.4997E+01
      8.969  0.1437E+01  0.5092E+01
      9.036  0.1271E+01  0.5177E+01
      9.102  0.8470E+00  0.5234E+01
      9.169  0.4137E+00  0.5261E+01
      9.236  0.1757E+00  0.5273E+01
      9.302  0.1446E+00  0.5283E+01
      9.369  0.2177E+00  0.5297E+01
      9.436  0.3100E+00  0.5318E+01
      9.502  0.3718E+00  0.5343E+01
      9.569  0.3599E+00  0.5366E+01
      9.636  0.2625E+00  0.5384E+01
      9.702  0.1288E+00  0.5393E+01
      9.769  0.2776E-01  0.5394E+01
      9.836 -0.1240E-01  0.5394E+01
      9.902 -0.7835E-02  0.5393E+01
      9.969  0.1304E-01  0.5394E+01
     10.036  0.2955E-01  0.5396E+01
     10.102  0.3218E-01  0.5398E+01
     10.169  0.2256E-01  0.5400E+01
     10.236  0.9637E-02  0.5400E+01
     10.302  0.1088E-02  0.5400E+01
     10.369 -0.1735E-02  0.5400E+01
     10.436 -0.1503E-02  0.5400E+01
     10.502 -0.7039E-03  0.5400E+01
     10.569 -0.2283E-03  0.5400E+01
     10.636 -0.5486E-04  0.5400E+01
     10.702 -0.1006E-04  0.5400E+01
     10.769 -0.1430E-05  0.5400E+01
     10.836 -0.1588E-06  0.5400E+01
     10.902 -0.1388E-07  0.5400E+01
     10.969 -0.9578E-09  0.5400E+01
     11.036 -0.5233E-10  0.5400E+01
     11.102 -0.2269E-11  0.5400E+01
     11.169 -0.7819E-13  0.5400E+01
     11.236 -0.2137E-14  0.5400E+01
     11.302 -0.5551E-16  0.5400E+01
     11.369  0.0000E+00  0.5400E+01
     11.436  0.0000E+00  0.5400E+01
     11.502  0.0000E+00  0.5400E+01
     11.569  0.0000E+00  0.5400E+01
     11.636  0.0000E+00  0.5400E+01
     11.702  0.0000E+00  0.5400E+01
     11.769  0.0000E+00  0.5400E+01
     11.836  0.0000E+00  0.5400E+01
     11.902  0.0000E+00  0.5400E+01
     11.969  0.0000E+00  0.5400E+01
     12.036  0.0000E+00  0.5400E+01
