       N       E                     dE             d eps       ncg     rms          rms(c)
DAV:   1     0.555804707810E+03    0.55580E+03   -0.83694E+04  1296   0.106E+03
DAV:   2    -0.309906729313E+03   -0.86571E+03   -0.82147E+03  1536   0.172E+02
DAV:   3    -0.372982226243E+03   -0.63075E+02   -0.61823E+02  1568   0.409E+01
DAV:   4    -0.374664277786E+03   -0.16821E+01   -0.16700E+01  1552   0.800E+00
DAV:   5    -0.374715560020E+03   -0.51282E-01   -0.51178E-01  1510   0.132E+00    0.279E+01
RMM:   6    -0.369822199438E+03    0.48934E+01   -0.24101E+00  1296   0.242E+00    0.168E+01
RMM:   7    -0.367570632286E+03    0.22516E+01   -0.62841E+00  1322   0.391E+00    0.931E-01
RMM:   8    -0.367608697552E+03   -0.38065E-01   -0.55290E-01  1310   0.148E+00    0.480E-01
RMM:   9    -0.367626680108E+03   -0.17983E-01   -0.16517E-01  1322   0.726E-01    0.564E-01
RMM:  10    -0.367629569675E+03   -0.28896E-02   -0.28950E-02  1354   0.344E-01    0.682E-01
RMM:  11    -0.367628071930E+03    0.14977E-02   -0.95577E-03  1296   0.203E-01    0.819E-01
RMM:  12    -0.367627955941E+03    0.11599E-03   -0.17209E-03  1304   0.978E-02    0.981E-01
RMM:  13    -0.367628101844E+03   -0.14590E-03   -0.33053E-04  1368   0.421E-02    0.956E-01
RMM:  14    -0.367626376640E+03    0.17252E-02   -0.67685E-04  1296   0.575E-02    0.151E+00
RMM:  15    -0.367626156066E+03    0.22057E-03   -0.16016E-04  1299   0.257E-02    0.166E+00
RMM:  16    -0.367626243714E+03   -0.87647E-04   -0.20131E-05  1338   0.954E-03    0.162E+00
RMM:  17    -0.367627310177E+03   -0.10665E-02   -0.16341E-04  1350   0.268E-02    0.104E+00
RMM:  18    -0.367628459248E+03   -0.11491E-02   -0.57836E-04  1747   0.535E-02    0.293E-01
RMM:  19    -0.367628593289E+03   -0.13404E-03   -0.17536E-04  1324   0.278E-02    0.366E-02
RMM:  20    -0.367628600874E+03   -0.75849E-05   -0.46774E-05  1300   0.130E-02    0.337E-03
RMM:  21    -0.367628601368E+03   -0.49338E-06   -0.66531E-06  1076   0.503E-03
   1 F= -.30328736E+03 E0= -.30329575E+03  d E =-.303287E+03
       N       E                     dE             d eps       ncg     rms          rms(c)
DAV:   1    -0.362333698562E+03    0.52949E+01   -0.14649E+02  1368   0.218E+01    0.133E+01
RMM:   2    -0.359430361238E+03    0.29033E+01   -0.54289E+00  1296   0.438E+00    0.771E+00
RMM:   3    -0.357950341883E+03    0.14800E+01   -0.33772E+00  1296   0.327E+00    0.135E+00
RMM:   4    -0.357985899889E+03   -0.35558E-01   -0.32916E-01  1296   0.136E+00    0.151E+00
RMM:   5    -0.357993345172E+03   -0.74453E-02   -0.66496E-02  1322   0.557E-01    0.207E+00
RMM:   6    -0.357993475356E+03   -0.13018E-03   -0.30904E-02  1296   0.352E-01    0.155E+00
RMM:   7    -0.357987330112E+03    0.61452E-02   -0.81434E-03  1296   0.202E-01    0.662E-01
RMM:   8    -0.357986923009E+03    0.40710E-03   -0.99982E-04  1298   0.860E-02    0.588E-01
RMM:   9    -0.357986499084E+03    0.42392E-03   -0.16352E-04  1296   0.313E-02    0.461E-01
RMM:  10    -0.357985675912E+03    0.82317E-03   -0.16321E-03  1463   0.649E-02    0.274E-02
RMM:  11    -0.357985680476E+03   -0.45640E-05   -0.14531E-04  1325   0.215E-02    0.543E-02
RMM:  12    -0.357985682235E+03   -0.17585E-05   -0.17011E-05  1222   0.825E-03    0.554E-02
RMM:  13    -0.357985684720E+03   -0.24858E-05   -0.52245E-06  1012   0.429E-03    0.564E-02
RMM:  14    -0.357985687135E+03   -0.24149E-05   -0.14935E-06   774   0.262E-03    0.181E-02
RMM:  15    -0.357985687976E+03   -0.84080E-06   -0.51354E-07   760   0.135E-03
   2 F= -.30283812E+03 E0= -.30284006E+03  d E =0.449241E+00
       N       E                     dE             d eps       ncg     rms          rms(c)
DAV:   1    -0.366714158626E+03   -0.87285E+01   -0.35752E+01  1346   0.103E+01    0.642E+00
RMM:   2    -0.365960320347E+03    0.75384E+00   -0.10363E+00  1296   0.201E+00    0.386E+00
RMM:   3    -0.365565945060E+03    0.39438E+00   -0.91410E-01  1296   0.164E+00    0.704E-01
RMM:   4    -0.365574349383E+03   -0.84043E-02   -0.78056E-02  1296   0.666E-01    0.714E-01
RMM:   5    -0.365576005703E+03   -0.16563E-02   -0.15293E-02  1322   0.274E-01    0.744E-01
RMM:   6    -0.365578268194E+03   -0.22625E-02   -0.67110E-03  1296   0.150E-01    0.142E+00
RMM:   7    -0.365575499168E+03    0.27690E-02   -0.16037E-02  1296   0.210E-01    0.610E-01
RMM:   8    -0.365575191489E+03    0.30768E-03   -0.59963E-04  1300   0.586E-02    0.492E-01
RMM:   9    -0.365574726569E+03    0.46492E-03   -0.44859E-04  1296   0.381E-02    0.200E-01
RMM:  10    -0.365574696389E+03    0.30180E-04   -0.31666E-04  1296   0.298E-02    0.183E-02
RMM:  11    -0.365574717120E+03   -0.20732E-04   -0.59126E-05  1296   0.140E-02    0.704E-02
RMM:  12    -0.365574704630E+03    0.12490E-04   -0.11113E-05  1296   0.772E-03    0.525E-02
RMM:  13    -0.365574696548E+03    0.80818E-05   -0.79777E-06  1296   0.539E-03    0.233E-02
RMM:  14    -0.365574695115E+03    0.14327E-05   -0.37206E-06   983   0.338E-03    0.547E-03
RMM:  15    -0.365574695387E+03   -0.27157E-06   -0.59248E-07   753   0.141E-03
   3 F= -.30586645E+03 E0= -.30587755E+03  d E =-.257909E+01
       N       E                     dE             d eps       ncg     rms          rms(c)
DAV:   1    -0.365506826912E+03    0.67868E-01   -0.77711E-03  1390   0.154E-01    0.913E-02
RMM:   2    -0.365506683533E+03    0.14338E-03   -0.24851E-04  1296   0.300E-02    0.546E-02
RMM:   3    -0.365506623149E+03    0.60383E-04   -0.19053E-04  1296   0.240E-02    0.102E-02
RMM:   4    -0.365506626220E+03   -0.30707E-05   -0.17615E-05  1297   0.987E-03    0.109E-02
RMM:   5    -0.365506626552E+03   -0.33253E-06   -0.35250E-06   852   0.411E-03    0.135E-02
RMM:   6    -0.365506630935E+03   -0.43824E-05   -0.20055E-06   730   0.263E-03    0.159E-02
RMM:   7    -0.365506632544E+03   -0.16092E-05   -0.47572E-07   711   0.148E-03    0.942E-03
RMM:   8    -0.365506632377E+03    0.16713E-06   -0.59749E-08   533   0.677E-04
   4 F= -.30586704E+03 E0= -.30587812E+03  d E =-.257968E+01
