  64  64   0   0
  0.1938999E+02  0.1071035E-08  0.1076417E-08  0.1076413E-08  0.5000000E-15
  1.000000000000000E-004
  CAR 
 Si64                                    
     11.59770100     -8.09351013  301      6.41130049      1.00000000
     -8.094  0.0000E+00  0.0000E+00
     -8.028  0.0000E+00  0.0000E+00
     -7.962  0.0000E+00  0.0000E+00
     -7.897  0.0000E+00  0.0000E+00
     -7.831  0.0000E+00  0.0000E+00
     -7.765  0.0000E+00  0.0000E+00
     -7.700 -0.1406E-28 -0.9228E-30
     -7.634 -0.2343E-26 -0.1547E-27
     -7.568 -0.3156E-24 -0.2087E-25
     -7.503 -0.3420E-22 -0.2265E-23
     -7.437 -0.2979E-20 -0.1978E-21
     -7.371 -0.2087E-18 -0.1389E-19
     -7.306 -0.1174E-16 -0.7846E-18
     -7.240 -0.5131E-15 -0.3446E-16
     -7.175 -0.1860E-13 -0.1256E-14
     -7.109 -0.5388E-12 -0.3662E-13
     -7.043 -0.1249E-10 -0.8567E-12
     -6.978 -0.2316E-09 -0.1606E-10
     -6.912 -0.3426E-08 -0.2409E-09
     -6.846 -0.4034E-07 -0.2889E-08
     -6.781 -0.3768E-06 -0.2762E-07
     -6.715 -0.2779E-05 -0.2100E-06
     -6.649 -0.1605E-04 -0.1264E-05
     -6.584 -0.7184E-04 -0.5979E-05
     -6.518 -0.2439E-03 -0.2199E-04
     -6.453 -0.6034E-03 -0.6160E-04
     -6.387 -0.9785E-03 -0.1258E-03
     -6.321 -0.6104E-03 -0.1659E-03
     -6.256  0.1574E-02 -0.6259E-04
     -6.190  0.5534E-02  0.3006E-03
     -6.124  0.9426E-02  0.9193E-03
     -6.059  0.1290E-01  0.1766E-02
     -5.993  0.2151E-01  0.3178E-02
     -5.927  0.4233E-01  0.5957E-02
     -5.862  0.7113E-01  0.1063E-01
     -5.796  0.9246E-01  0.1669E-01
     -5.731  0.1021E+00  0.2340E-01
     -5.665  0.1191E+00  0.3122E-01
     -5.599  0.1571E+00  0.4153E-01
     -5.534  0.1940E+00  0.5426E-01
     -5.468  0.1967E+00  0.6717E-01
     -5.402  0.1683E+00  0.7822E-01
     -5.337  0.1424E+00  0.8756E-01
     -5.271  0.1322E+00  0.9624E-01
     -5.205  0.1200E+00  0.1041E+00
     -5.140  0.9537E-01  0.1104E+00
     -5.074  0.7370E-01  0.1152E+00
     -5.009  0.7040E-01  0.1198E+00
     -4.943  0.8957E-01  0.1257E+00
     -4.877  0.1425E+00  0.1351E+00
     -4.812  0.2404E+00  0.1508E+00
     -4.746  0.3547E+00  0.1741E+00
     -4.680  0.4293E+00  0.2023E+00
     -4.615  0.4496E+00  0.2318E+00
     -4.549  0.4520E+00  0.2615E+00
     -4.483  0.4450E+00  0.2907E+00
     -4.418  0.3841E+00  0.3159E+00
     -4.352  0.2499E+00  0.3323E+00
     -4.287  0.9603E-01  0.3386E+00
     -4.221 -0.5240E-02  0.3383E+00
     -4.155 -0.2158E-01  0.3369E+00
     -4.090  0.4354E-01  0.3397E+00
     -4.024  0.1735E+00  0.3511E+00
     -3.958  0.3359E+00  0.3731E+00
     -3.893  0.4738E+00  0.4042E+00
     -3.827  0.5255E+00  0.4387E+00
     -3.761  0.4694E+00  0.4696E+00
     -3.696  0.3486E+00  0.4924E+00
     -3.630  0.2426E+00  0.5084E+00
     -3.565  0.2174E+00  0.5226E+00
     -3.499  0.2967E+00  0.5421E+00
     -3.433  0.4502E+00  0.5716E+00
     -3.368  0.6035E+00  0.6113E+00
     -3.302  0.6882E+00  0.6564E+00
     -3.236  0.6888E+00  0.7016E+00
     -3.171  0.6329E+00  0.7432E+00
     -3.105  0.5490E+00  0.7792E+00
     -3.039  0.4618E+00  0.8095E+00
     -2.974  0.4088E+00  0.8364E+00
     -2.908  0.4085E+00  0.8632E+00
     -2.843  0.4127E+00  0.8903E+00
     -2.777  0.3493E+00  0.9132E+00
     -2.711  0.2142E+00  0.9273E+00
     -2.646  0.7553E-01  0.9322E+00
     -2.580 -0.8165E-02  0.9317E+00
     -2.514 -0.3332E-01  0.9295E+00
     -2.449 -0.2041E-01  0.9281E+00
     -2.383  0.2342E-01  0.9297E+00
     -2.317  0.9632E-01  0.9360E+00
     -2.252  0.1717E+00  0.9473E+00
     -2.186  0.2009E+00  0.9605E+00
     -2.121  0.1580E+00  0.9708E+00
     -2.055  0.7334E-01  0.9756E+00
     -1.989  0.1519E-01  0.9766E+00
     -1.924  0.4626E-01  0.9797E+00
     -1.858  0.1893E+00  0.9921E+00
     -1.792  0.4029E+00  0.1019E+01
     -1.727  0.5831E+00  0.1057E+01
     -1.661  0.6232E+00  0.1098E+01
     -1.595  0.4980E+00  0.1130E+01
     -1.530  0.2856E+00  0.1149E+01
     -1.464  0.1015E+00  0.1156E+01
     -1.398  0.1954E-01  0.1157E+01
     -1.333  0.4409E-01  0.1160E+01
     -1.267  0.1260E+00  0.1168E+01
     -1.202  0.1953E+00  0.1181E+01
     -1.136  0.2051E+00  0.1195E+01
     -1.070  0.1673E+00  0.1206E+01
     -1.005  0.1445E+00  0.1215E+01
     -0.939  0.1929E+00  0.1228E+01
     -0.873  0.2969E+00  0.1247E+01
     -0.808  0.3710E+00  0.1272E+01
     -0.742  0.3544E+00  0.1295E+01
     -0.676  0.3038E+00  0.1315E+01
     -0.611  0.3503E+00  0.1338E+01
     -0.545  0.5568E+00  0.1374E+01
     -0.480  0.8367E+00  0.1429E+01
     -0.414  0.1012E+01  0.1496E+01
     -0.348  0.9473E+00  0.1558E+01
     -0.283  0.6600E+00  0.1601E+01
     -0.217  0.3058E+00  0.1621E+01
     -0.151  0.5769E-01  0.1625E+01
     -0.086 -0.2650E-02  0.1625E+01
     -0.020  0.1008E+00  0.1631E+01
      0.046  0.2742E+00  0.1649E+01
      0.111  0.3978E+00  0.1676E+01
      0.177  0.3970E+00  0.1702E+01
      0.242  0.2943E+00  0.1721E+01
      0.308  0.1740E+00  0.1732E+01
      0.374  0.1018E+00  0.1739E+01
      0.439  0.9864E-01  0.1745E+01
      0.505  0.1640E+00  0.1756E+01
      0.571  0.2840E+00  0.1775E+01
      0.636  0.4177E+00  0.1802E+01
      0.702  0.4976E+00  0.1835E+01
      0.768  0.4663E+00  0.1866E+01
      0.833  0.3287E+00  0.1887E+01
      0.899  0.1580E+00  0.1897E+01
      0.964  0.3393E-01  0.1900E+01
      1.030 -0.1807E-01  0.1899E+01
      1.096 -0.2318E-01  0.1897E+01
      1.161 -0.1557E-01  0.1896E+01
      1.227 -0.1397E-01  0.1895E+01
      1.293 -0.2226E-01  0.1894E+01
      1.358 -0.3168E-01  0.1892E+01
      1.424 -0.1461E-01  0.1891E+01
      1.490  0.7346E-01  0.1895E+01
      1.555  0.2633E+00  0.1913E+01
      1.621  0.5252E+00  0.1947E+01
      1.686  0.7560E+00  0.1997E+01
      1.752  0.8352E+00  0.2052E+01
      1.818  0.7181E+00  0.2099E+01
      1.883  0.4883E+00  0.2131E+01
      1.949  0.3055E+00  0.2151E+01
      2.015  0.2747E+00  0.2169E+01
      2.080  0.3566E+00  0.2192E+01
      2.146  0.4174E+00  0.2220E+01
      2.212  0.3757E+00  0.2244E+01
      2.277  0.2983E+00  0.2264E+01
      2.343  0.3498E+00  0.2287E+01
      2.408  0.6395E+00  0.2329E+01
      2.474  0.1090E+01  0.2400E+01
      2.540  0.1449E+01  0.2495E+01
      2.605  0.1467E+01  0.2592E+01
      2.671  0.1110E+01  0.2665E+01
      2.737  0.5887E+00  0.2703E+01
      2.802  0.1640E+00  0.2714E+01
      2.868 -0.5421E-01  0.2710E+01
      2.934 -0.1107E+00  0.2703E+01
      2.999 -0.7353E-01  0.2698E+01
      3.065  0.5570E-01  0.2702E+01
      3.130  0.3087E+00  0.2722E+01
      3.196  0.6619E+00  0.2766E+01
      3.262  0.1010E+01  0.2832E+01
      3.327  0.1238E+01  0.2913E+01
      3.393  0.1304E+01  0.2999E+01
      3.459  0.1232E+01  0.3080E+01
      3.524  0.1067E+01  0.3150E+01
      3.590  0.8593E+00  0.3206E+01
      3.656  0.6779E+00  0.3251E+01
      3.721  0.6103E+00  0.3291E+01
      3.787  0.6774E+00  0.3335E+01
      3.852  0.7623E+00  0.3385E+01
      3.918  0.7095E+00  0.3432E+01
      3.984  0.5142E+00  0.3465E+01
      4.049  0.3412E+00  0.3488E+01
      4.115  0.3306E+00  0.3510E+01
      4.181  0.4495E+00  0.3539E+01
      4.246  0.5649E+00  0.3576E+01
      4.312  0.6085E+00  0.3616E+01
      4.378  0.6165E+00  0.3657E+01
      4.443  0.6346E+00  0.3698E+01
      4.509  0.6595E+00  0.3741E+01
      4.575  0.6856E+00  0.3786E+01
      4.640  0.7397E+00  0.3835E+01
      4.706  0.8337E+00  0.3890E+01
      4.771  0.9122E+00  0.3950E+01
      4.837  0.8796E+00  0.4007E+01
      4.903  0.6887E+00  0.4053E+01
      4.968  0.4010E+00  0.4079E+01
      5.034  0.1475E+00  0.4089E+01
      5.100  0.3606E-01  0.4091E+01
      5.165  0.9220E-01  0.4097E+01
      5.231  0.2552E+00  0.4114E+01
      5.297  0.4079E+00  0.4141E+01
      5.362  0.4429E+00  0.4170E+01
      5.428  0.3396E+00  0.4192E+01
      5.493  0.1730E+00  0.4203E+01
      5.559  0.4143E-01  0.4206E+01
      5.625 -0.3410E-02  0.4206E+01
      5.690  0.3467E-01  0.4208E+01
      5.756  0.1166E+00  0.4216E+01
      5.822  0.1857E+00  0.4228E+01
      5.887  0.1967E+00  0.4241E+01
      5.953  0.1508E+00  0.4251E+01
      6.019  0.9076E-01  0.4257E+01
      6.084  0.5372E-01  0.4260E+01
      6.150  0.3979E-01  0.4263E+01
      6.215  0.2898E-01  0.4265E+01
      6.281  0.1255E-01  0.4265E+01
      6.347  0.1950E-02  0.4266E+01
      6.412  0.1661E-01  0.4267E+01
      6.478  0.6603E-01  0.4271E+01
      6.544  0.1349E+00  0.4280E+01
      6.609  0.1847E+00  0.4292E+01
      6.675  0.1816E+00  0.4304E+01
      6.741  0.1261E+00  0.4312E+01
      6.806  0.5257E-01  0.4316E+01
      6.872  0.1565E-02  0.4316E+01
      6.937  0.1416E-02  0.4316E+01
      7.003  0.6292E-01  0.4320E+01
      7.069  0.1667E+00  0.4331E+01
      7.134  0.2550E+00  0.4348E+01
      7.200  0.2697E+00  0.4365E+01
      7.266  0.2216E+00  0.4380E+01
      7.331  0.1992E+00  0.4393E+01
      7.397  0.2770E+00  0.4411E+01
      7.463  0.4169E+00  0.4439E+01
      7.528  0.4930E+00  0.4471E+01
      7.594  0.4237E+00  0.4499E+01
      7.659  0.2570E+00  0.4516E+01
      7.725  0.1254E+00  0.4524E+01
      7.791  0.1466E+00  0.4533E+01
      7.856  0.3503E+00  0.4556E+01
      7.922  0.6406E+00  0.4598E+01
      7.988  0.8358E+00  0.4653E+01
      8.053  0.8128E+00  0.4707E+01
      8.119  0.6265E+00  0.4748E+01
      8.185  0.4522E+00  0.4777E+01
      8.250  0.4228E+00  0.4805E+01
      8.316  0.5560E+00  0.4842E+01
      8.381  0.8000E+00  0.4894E+01
      8.447  0.1070E+01  0.4964E+01
      8.513  0.1246E+01  0.5046E+01
      8.578  0.1221E+01  0.5126E+01
      8.644  0.9892E+00  0.5191E+01
      8.710  0.6649E+00  0.5235E+01
      8.775  0.3892E+00  0.5261E+01
      8.841  0.2326E+00  0.5276E+01
      8.907  0.1791E+00  0.5288E+01
      8.972  0.1883E+00  0.5300E+01
      9.038  0.2421E+00  0.5316E+01
      9.103  0.3159E+00  0.5337E+01
      9.169  0.3495E+00  0.5360E+01
      9.235  0.2941E+00  0.5379E+01
      9.300  0.1733E+00  0.5390E+01
      9.366  0.5966E-01  0.5394E+01
      9.432  0.2567E-02  0.5394E+01
      9.497 -0.1452E-02  0.5394E+01
      9.563  0.1639E-01  0.5395E+01
      9.629  0.2911E-01  0.5397E+01
      9.694  0.2716E-01  0.5399E+01
      9.760  0.1583E-01  0.5400E+01
      9.825  0.4822E-02  0.5400E+01
      9.891 -0.7777E-03  0.5400E+01
      9.957 -0.1830E-02  0.5400E+01
     10.022 -0.1154E-02  0.5400E+01
     10.088 -0.4649E-03  0.5400E+01
     10.154 -0.1358E-03  0.5400E+01
     10.219 -0.3007E-04  0.5400E+01
     10.285 -0.5157E-05  0.5400E+01
     10.351 -0.6933E-06  0.5400E+01
     10.416 -0.7358E-07  0.5400E+01
     10.482 -0.6197E-08  0.5400E+01
     10.548 -0.4154E-09  0.5400E+01
     10.613 -0.2223E-10  0.5400E+01
     10.679 -0.9510E-12  0.5400E+01
     10.744 -0.3259E-13  0.5400E+01
     10.810 -0.8739E-15  0.5400E+01
     10.876 -0.2819E-16  0.5400E+01
     10.941  0.0000E+00  0.5400E+01
     11.007  0.0000E+00  0.5400E+01
     11.073  0.0000E+00  0.5400E+01
     11.138  0.0000E+00  0.5400E+01
     11.204  0.0000E+00  0.5400E+01
     11.270  0.0000E+00  0.5400E+01
     11.335  0.0000E+00  0.5400E+01
     11.401  0.0000E+00  0.5400E+01
     11.466  0.0000E+00  0.5400E+01
     11.532  0.0000E+00  0.5400E+01
     11.598  0.0000E+00  0.5400E+01
