       N       E                     dE             d eps       ncg     rms          rms(c)
DAV:   1     0.568773284325E+03    0.56877E+03   -0.84565E+04  2592   0.106E+03
DAV:   2    -0.309481753407E+03   -0.87826E+03   -0.83166E+03  3088   0.174E+02
DAV:   3    -0.373305662000E+03   -0.63824E+02   -0.62620E+02  3136   0.414E+01
DAV:   4    -0.374936918847E+03   -0.16313E+01   -0.16199E+01  3144   0.806E+00
DAV:   5    -0.374987792092E+03   -0.50873E-01   -0.50762E-01  3070   0.132E+00    0.293E+01
RMM:   6    -0.369524849346E+03    0.54629E+01   -0.27851E+00  2592   0.261E+00    0.177E+01
RMM:   7    -0.367076854027E+03    0.24480E+01   -0.71207E+00  2652   0.418E+00    0.104E+00
RMM:   8    -0.367116248587E+03   -0.39395E-01   -0.66047E-01  2616   0.159E+00    0.508E-01
RMM:   9    -0.367137133866E+03   -0.20885E-01   -0.19491E-01  2670   0.777E-01    0.584E-01
RMM:  10    -0.367140604712E+03   -0.34708E-02   -0.33700E-02  2734   0.364E-01    0.732E-01
RMM:  11    -0.367137611383E+03    0.29933E-02   -0.11158E-02  2592   0.216E-01    0.760E-01
RMM:  12    -0.367137641997E+03   -0.30613E-04   -0.17727E-03  2609   0.997E-02    0.814E-01
RMM:  13    -0.367137704029E+03   -0.62032E-04   -0.33847E-04  2758   0.411E-02    0.849E-01
RMM:  14    -0.367137412511E+03    0.29152E-03   -0.14602E-04  2592   0.283E-02    0.744E-01
RMM:  15    -0.367137619561E+03   -0.20705E-03   -0.79373E-05  2595   0.164E-02    0.690E-01
RMM:  16    -0.367137858068E+03   -0.23851E-03   -0.56385E-05  2592   0.173E-02    0.535E-01
RMM:  17    -0.367137967501E+03   -0.10943E-03   -0.38189E-05  2592   0.145E-02    0.337E-01
RMM:  18    -0.367138011315E+03   -0.43814E-04   -0.13140E-05  2592   0.908E-03    0.181E-01
RMM:  19    -0.367138036839E+03   -0.25525E-04   -0.99128E-06  2594   0.756E-03    0.580E-02
RMM:  20    -0.367138044164E+03   -0.73245E-05   -0.51297E-06  2159   0.537E-03    0.134E-02
RMM:  21    -0.367138045373E+03   -0.12094E-05   -0.11374E-06  1568   0.240E-03    0.143E-02
RMM:  22    -0.367138045875E+03   -0.50137E-06   -0.19458E-07  1384   0.915E-04
   1 F= -.36713805E+03 E0= -.36714847E+03  d E =-.367138E+03
       N       E                     dE             d eps       ncg     rms          rms(c)
DAV:   1    -0.367140373263E+03   -0.23279E-02   -0.13095E-01  2960   0.694E-01    0.160E-01
RMM:   2    -0.367141026737E+03   -0.65347E-03   -0.67962E-03  2593   0.173E-01    0.645E-02
RMM:   3    -0.367141126536E+03   -0.99799E-04   -0.10845E-03  2648   0.777E-02    0.272E-02
RMM:   4    -0.367141125916E+03    0.62028E-06   -0.14382E-04  2652   0.322E-02    0.944E-03
RMM:   5    -0.367141127072E+03   -0.11559E-05   -0.25607E-05  2645   0.128E-02    0.223E-03
RMM:   6    -0.367141127684E+03   -0.61269E-06   -0.59753E-06  2070   0.564E-03    0.356E-04
RMM:   7    -0.367141127764E+03   -0.79321E-07   -0.82001E-07  1547   0.211E-03    0.369E-04
RMM:   8    -0.367141127782E+03   -0.18062E-07   -0.20659E-07  1305   0.102E-03
   2 F= -.36714113E+03 E0= -.36715141E+03  d E =-.308191E-02
       N       E                     dE             d eps       ncg     rms          rms(c)
DAV:   1    -0.367141599977E+03   -0.47221E-03   -0.10125E-02  2960   0.193E-01    0.444E-02
RMM:   2    -0.367141649768E+03   -0.49791E-04   -0.51533E-04  2592   0.480E-02    0.180E-02
RMM:   3    -0.367141657312E+03   -0.75440E-05   -0.81008E-05  2647   0.215E-02    0.752E-03
RMM:   4    -0.367141657329E+03   -0.16340E-07   -0.10733E-05  2555   0.887E-03    0.261E-03
RMM:   5    -0.367141657425E+03   -0.96544E-07   -0.19165E-06  1646   0.354E-03    0.658E-04
RMM:   6    -0.367141657461E+03   -0.35757E-07   -0.38499E-07  1496   0.146E-03    0.158E-04
RMM:   7    -0.367141657471E+03   -0.97943E-08   -0.93536E-08   981   0.751E-04    0.144E-04
RMM:   8    -0.367141657472E+03   -0.13260E-08   -0.15914E-08   596   0.492E-04
   3 F= -.36714166E+03 E0= -.36715200E+03  d E =-.361160E-02
