<?xml version="1.0" encoding="ISO-8859-1"?>
<modeling>
 <generator>
  <i name="program" type="string">vasp </i>
  <i name="version" type="string">6.4.3  </i>
  <i name="subversion" type="string">19Mar24 (build Oct 21 2024 22:36:34) complex                          parallel </i>
  <i name="platform" type="string">LinuxIFC </i>
  <i name="date" type="string">2024 11 01 </i>
  <i name="time" type="string">22:49:46 </i>
 </generator>
 <incar>
  <i type="string" name="SYSTEM">Si64</i>
  <i type="int" name="ISTART">     0</i>
  <i type="string" name="PREC">Accurate</i>
  <i type="string" name="ALGO">Fast</i>
  <i type="logical" name="ADDGRID"> T  </i>
  <i type="int" name="ICHARG">     2</i>
  <i type="int" name="NELM">    60</i>
  <i type="int" name="NELMIN">     8</i>
  <i type="int" name="IBRION">     2</i>
  <i name="EDIFF">      0.00000100</i>
  <i name="EDIFFG">     -0.01000000</i>
  <i type="int" name="NSW">    60</i>
  <i type="int" name="ISIF">     2</i>
  <i name="ENCUT">    400.00000000</i>
  <i type="string" name="LREAL">Auto</i>
  <i type="int" name="ISMEAR">     1</i>
  <i name="SIGMA">      0.20000000</i>
  <i type="logical" name="LWAVE"> F  </i>
  <i type="logical" name="LCHARG"> F  </i>
  <i type="logical" name="GGA_COMPAT"> F  </i>
  <i type="string" name="GGA">PS</i>
 </incar>
 <primitive_cell>
  <structure name="primitive_cell" >
   <crystal>
    <varray name="basis" >
     <v>      -2.67757815       0.00672750      -2.69103340 </v>
     <v>      -2.67757815       0.00672750       2.69103340 </v>
     <v>       2.67085064       2.68430590      -0.00000000 </v>
    </varray>
    <i name="volume">     38.77998151 </i>
    <varray name="rec_basis" >
     <v>      -0.18627025       0.18533656      -0.18580223 </v>
     <v>      -0.18627025       0.18533656       0.18580223 </v>
     <v>       0.00093367       0.37160679      -0.00000000 </v>
    </varray>
   </crystal>
   <varray name="positions" >
    <v>       0.00000000       0.00000000       0.00000000 </v>
    <v>       0.75000000       0.25000000       0.50000000 </v>
   </varray>
  </structure>
  <varray name="primitive_index" >
   <v type="int" >        1 </v>
   <v type="int" >       15 </v>
  </varray>
 </primitive_cell>
 <kpoints>
  <generation param="Gamma">
   <v type="int" name="divisions">       2        2        2 </v>
   <v name="usershift">      0.00000000       0.00000000       0.00000000 </v>
   <v name="genvec1">      0.50000000      -0.00000000       0.00000000 </v>
   <v name="genvec2">     -0.00000000       0.50000000       0.00000000 </v>
   <v name="genvec3">      0.00000000       0.00000000       0.50000000 </v>
   <v name="shift">      0.00000000       0.00000000       0.00000000 </v>
  </generation>
  <varray name="kpointlist" >
   <v>       0.00000000       0.00000000       0.00000000 </v>
   <v>       0.50000000       0.00000000       0.00000000 </v>
   <v>       0.00000000       0.50000000       0.00000000 </v>
   <v>       0.50000000       0.50000000       0.00000000 </v>
   <v>       0.00000000       0.00000000       0.50000000 </v>
   <v>       0.50000000       0.00000000       0.50000000 </v>
   <v>       0.00000000       0.50000000       0.50000000 </v>
   <v>       0.50000000       0.50000000       0.50000000 </v>
  </varray>
  <varray name="weights" >
   <v>       0.12500000 </v>
   <v>       0.12500000 </v>
   <v>       0.12500000 </v>
   <v>       0.12500000 </v>
   <v>       0.12500000 </v>
   <v>       0.12500000 </v>
   <v>       0.12500000 </v>
   <v>       0.12500000 </v>
  </varray>
 </kpoints>
 <parameters>
  <separator name="general" >
   <i type="string" name="SYSTEM">Si64</i>
   <i type="logical" name="LCOMPAT"> F  </i>
  </separator>
  <separator name="electronic" >
   <i type="string" name="PREC">accura</i>
   <i name="ENMAX">    400.00000000</i>
   <i name="ENAUG">    322.06900000</i>
   <i name="EDIFF">      0.00000100</i>
   <i type="int" name="IALGO">    68</i>
   <i type="int" name="IWAVPR">    11</i>
   <i type="int" name="NBANDS">   162</i>
   <i type="int" name="NBANDSLOW">    -1</i>
   <i type="int" name="NBANDSHIGH">    -1</i>
   <i name="NELECT">    256.00000000</i>
   <i type="int" name="TURBO">     0</i>
   <i type="int" name="IRESTART">     0</i>
   <i type="int" name="NREBOOT">     0</i>
   <i type="int" name="NMIN">     0</i>
   <i name="EREF">      0.00000000</i>
   <separator name="electronic smearing" >
    <i type="int" name="ISMEAR">     1</i>
    <i name="SIGMA">      0.20000000</i>
    <i name="KSPACING">      0.50000000</i>
    <i type="logical" name="KGAMMA"> T  </i>
    <i type="logical" name="KBLOWUP"> T  </i>
   </separator>
   <separator name="electronic projectors" >
    <i type="logical" name="LREAL"> T  </i>
    <v name="ROPT">     -0.00025000</v>
    <i type="int" name="LMAXPAW">  -100</i>
    <i type="int" name="LMAXMIX">     2</i>
    <i type="logical" name="NLSPLINE"> F  </i>
   </separator>
   <separator name="electronic startup" >
    <i type="int" name="ISTART">     0</i>
    <i type="int" name="ICHARG">     2</i>
    <i type="int" name="INIWAV">     1</i>
   </separator>
   <separator name="electronic spin" >
    <i type="int" name="ISPIN">     1</i>
    <i type="logical" name="LNONCOLLINEAR"> F  </i>
    <v name="MAGMOM">      1.00000000      1.00000000      1.00000000      1.00000000      1.00000000      1.00000000      1.00000000      1.00000000      1.00000000      1.00000000      1.00000000      1.00000000      1.00000000      1.00000000      1.00000000      1.00000000      1.00000000      1.00000000      1.00000000      1.00000000
      1.00000000      1.00000000      1.00000000      1.00000000      1.00000000      1.00000000      1.00000000      1.00000000      1.00000000      1.00000000      1.00000000      1.00000000      1.00000000      1.00000000      1.00000000      1.00000000      1.00000000      1.00000000      1.00000000      1.00000000
      1.00000000      1.00000000      1.00000000      1.00000000      1.00000000      1.00000000      1.00000000      1.00000000      1.00000000      1.00000000      1.00000000      1.00000000      1.00000000      1.00000000      1.00000000      1.00000000      1.00000000      1.00000000      1.00000000      1.00000000
      1.00000000      1.00000000      1.00000000      1.00000000</v>
    <i name="NUPDOWN">     -1.00000000</i>
    <i type="logical" name="LSORBIT"> F  </i>
    <v name="SAXIS">      0.00000000      0.00000000      1.00000000</v>
    <i type="logical" name="LSPIRAL"> F  </i>
    <v name="QSPIRAL">      0.00000000      0.00000000      0.00000000</v>
    <i type="logical" name="LZEROZ"> F  </i>
   </separator>
   <separator name="electronic exchange-correlation" >
    <i type="logical" name="LASPH"> F  </i>
   </separator>
   <separator name="electronic convergence" >
    <i type="int" name="NELM">    60</i>
    <i type="int" name="NELMDL">    -5</i>
    <i type="int" name="NELMIN">     8</i>
    <i name="ENINI">    400.00000000</i>
    <separator name="electronic convergence detail" >
     <i type="logical" name="LDIAG"> T  </i>
     <i type="logical" name="LSUBROT"> F  </i>
     <i name="WEIMIN">      0.00100000</i>
     <i name="EBREAK">      0.00000000</i>
     <i name="DEPER">      0.30000000</i>
     <i type="int" name="NRMM">     4</i>
     <i name="TIME">      0.40000000</i>
    </separator>
   </separator>
   <separator name="electronic mixer" >
    <i name="AMIX">      0.40000000</i>
    <i name="BMIX">      1.00000000</i>
    <i name="AMIN">      0.10000000</i>
    <i name="AMIX_MAG">      1.60000000</i>
    <i name="BMIX_MAG">      1.00000000</i>
    <separator name="electronic mixer details" >
     <i type="int" name="IMIX">     4</i>
     <i type="logical" name="MIXFIRST"> F  </i>
     <i type="int" name="MAXMIX">   -45</i>
     <i name="WC">    100.00000000</i>
     <i type="int" name="INIMIX">     1</i>
     <i type="int" name="MIXPRE">     1</i>
     <i type="int" name="MREMOVE">     5</i>
    </separator>
   </separator>
   <separator name="electronic dipolcorrection" >
    <i type="logical" name="LDIPOL"> F  </i>
    <i type="logical" name="LMONO"> F  </i>
    <i type="int" name="IDIPOL">     0</i>
    <i name="EPSILON">      1.00000000</i>
    <v name="DIPOL">   -100.00000000   -100.00000000   -100.00000000</v>
    <i name="EFIELD">      0.00000000</i>
    <i type="logical" name="LVACPOTAV"> F  </i>
   </separator>
  </separator>
  <separator name="grids" >
   <i type="int" name="NGX">    70</i>
   <i type="int" name="NGY">    70</i>
   <i type="int" name="NGZ">    70</i>
   <i type="int" name="NGXF">   140</i>
   <i type="int" name="NGYF">   140</i>
   <i type="int" name="NGZF">   140</i>
   <i type="logical" name="ADDGRID"> T  </i>
  </separator>
  <separator name="ionic" >
   <i type="int" name="NSW">    60</i>
   <i type="int" name="IBRION">     2</i>
   <i type="int" name="MDALGO">     0</i>
   <i type="int" name="ISIF">     2</i>
   <i name="PSTRESS">      0.00000000</i>
   <i name="EDIFFG">     -0.01000000</i>
   <i type="int" name="NFREE">     1</i>
   <i name="POTIM">      0.50000000</i>
   <i name="SMASS">     -3.00000000</i>
   <i name="SCALEE">      1.00000000</i>
  </separator>
  <separator name="ionic md" >
   <i name="TEBEG">      0.00010000</i>
   <i name="TEEND">      0.00010000</i>
   <i type="int" name="NBLOCK">     1</i>
   <i type="int" name="KBLOCK">    60</i>
   <i type="int" name="NPACO">   256</i>
   <i name="APACO">     10.00000000</i>
  </separator>
  <separator name="symmetry" >
   <i type="int" name="ISYM">     2</i>
   <i name="SYMPREC">      0.00001000</i>
  </separator>
  <separator name="dos" >
   <i type="int" name="LORBIT">     0</i>
   <v name="RWIGS">     -1.00000000</v>
   <i type="int" name="NEDOS">   301</i>
   <i name="EMIN">     10.00000000</i>
   <i name="EMAX">    -10.00000000</i>
   <i name="EFERMI">      0.00000000</i>
  </separator>
  <separator name="writing" >
   <i type="int" name="NWRITE">     2</i>
   <i type="logical" name="LWAVE"> F  </i>
   <i type="logical" name="LDOWNSAMPLE"> F  </i>
   <i type="logical" name="LCHARG"> F  </i>
   <i type="logical" name="LPARD"> F  </i>
   <i type="logical" name="LVTOT"> F  </i>
   <i type="logical" name="LVHAR"> F  </i>
   <i type="logical" name="LELF"> F  </i>
   <i type="logical" name="LOPTICS"> F  </i>
   <v name="STM">      0.00000000      0.00000000      0.00000000      0.00000000      0.00000000      0.00000000      0.00000000</v>
  </separator>
  <separator name="performance" >
   <i type="int" name="NPAR">     2</i>
   <i type="int" name="NSIM">     4</i>
   <i type="int" name="NBLK">    -1</i>
   <i type="logical" name="LPLANE"> T  </i>
   <i type="logical" name="LSCALAPACK"> T  </i>
   <i type="logical" name="LSCAAWARE"> F  </i>
   <i type="logical" name="LSCALU"> F  </i>
   <i type="logical" name="LASYNC"> F  </i>
   <i type="logical" name="LORBITALREAL"> F  </i>
  </separator>
  <separator name="miscellaneous" >
   <i type="int" name="IDIOT">     3</i>
   <i type="int" name="PHON_NSTRUCT">    -1</i>
   <i type="logical" name="LMUSIC"> F  </i>
   <v name="POMASS">     28.08500000</v>
   <v name="DARWINR">      0.00000000</v>
   <v name="DARWINV">      1.00000000</v>
   <i type="logical" name="LCORR"> T  </i>
  </separator>
  <i type="logical" name="GGA_COMPAT"> F  </i>
  <i type="logical" name="LBERRY"> F  </i>
  <i type="int" name="ICORELEVEL">     0</i>
  <i type="logical" name="LDAU"> F  </i>
  <i type="int" name="I_CONSTRAINED_M">     0</i>
  <separator name="electronic exchange-correlation" >
   <i type="string" name="GGA    ">PS</i>
   <i type="string" name="XC_C">1</i>
   <i type="int" name="VOSKOWN">     0</i>
   <i type="logical" name="LHFCALC"> F  </i>
   <i type="string" name="PRECFOCK"></i>
   <i type="logical" name="LSYMGRAD"> F  </i>
   <i type="logical" name="LHFONE"> F  </i>
   <i type="logical" name="LRHFCALC"> F  </i>
   <i type="logical" name="LTHOMAS"> F  </i>
   <i type="logical" name="LMODELHF"> F  </i>
   <i type="logical" name="LFOCKACE"> F  </i>
   <i name="ENCUT4O">     -1.00000000</i>
   <i type="int" name="EXXOEP">     0</i>
   <i type="int" name="FOURORBIT">     0</i>
   <i name="AEXX">      0.00000000</i>
   <i name="HFALPHA">      0.00000000</i>
   <i name="MCALPHA">      0.00000000</i>
   <i name="ALDAX">      1.00000000</i>
   <i name="AGGAX">      1.00000000</i>
   <i name="AMGGAX">      1.00000000</i>
   <i name="ALDAC">      1.00000000</i>
   <i name="AGGAC">      1.00000000</i>
   <i name="AMGGAC">      1.00000000</i>
   <i type="int" name="NKREDX">     1</i>
   <i type="int" name="NKREDY">     1</i>
   <i type="int" name="NKREDZ">     1</i>
   <i type="logical" name="SHIFTRED"> F  </i>
   <i type="logical" name="ODDONLY"> F  </i>
   <i type="logical" name="EVENONLY"> F  </i>
   <i type="int" name="LMAXFOCK">     0</i>
   <i type="int" name="NMAXFOCKAE">     0</i>
   <i type="logical" name="LFOCKAEDFT"> F  </i>
   <i name="HFSCREEN">      0.00000000</i>
   <i name="HFSCREENC">      0.00000000</i>
   <i type="int" name="NBANDSGWLOW">     0</i>
  </separator>
  <separator name="vdW DFT" >
   <i type="logical" name="LUSE_VDW"> F  </i>
   <i type="int" name="IVDW_NL">    -1</i>
   <i type="logical" name="LSPIN_VDW"> F  </i>
   <i name="ZAB_VDW">     -0.84910000</i>
   <i name="GAMMA_VDW">      1.39626340</i>
   <i name="ALPHA_VDW">      0.00000000</i>
   <i name="PARAM1">      0.12340000</i>
   <i name="PARAM2">      1.00000000</i>
   <i name="BPARAM">      6.30000000</i>
   <i name="CPARAM">      0.00930000</i>
  </separator>
  <separator name="model GW" >
   <i type="int" name="MODEL_GW">     0</i>
   <i name="MODEL_EPS0">     11.63399445</i>
   <i name="MODEL_ALPHA">      1.00000000</i>
  </separator>
  <separator name="linear response parameters" >
   <i type="logical" name="LEPSILON"> F  </i>
   <i type="logical" name="LRPA"> F  </i>
   <i type="logical" name="LNABLA"> F  </i>
   <i type="logical" name="LVEL"> F  </i>
   <i name="CSHIFT">      0.10000000</i>
   <i name="OMEGAMAX">     -1.00000000</i>
   <i name="DEG_THRESHOLD">      0.00200000</i>
   <i name="RTIME">     -0.10000000</i>
   <i name="WPLASMAI">      0.00000000</i>
   <v name="DFIELD">      0.00000000      0.00000000      0.00000000</v>
   <v name="WPLASMA">      0.00000000      0.00000000      0.00000000      0.00000000      0.00000000      0.00000000      0.00000000      0.00000000      0.00000000</v>
  </separator>
  <separator name="orbital magnetization" >
   <i type="logical" name="NUCIND"> F  </i>
   <v name="MAGPOS">      0.00000000      0.00000000      0.00000000</v>
   <i type="logical" name="LNICSALL"> T  </i>
   <i type="logical" name="ORBITALMAG"> F  </i>
   <i type="logical" name="LMAGBLOCH"> F  </i>
   <i type="logical" name="LCHIMAG"> F  </i>
   <i type="logical" name="LGAUGE"> T  </i>
   <i type="int" name="MAGATOM">     0</i>
   <v name="MAGDIPOL">      0.00000000      0.00000000      0.00000000</v>
   <v name="AVECCONST">      0.00000000      0.00000000      0.00000000</v>
  </separator>
  <separator name="response functions" >
   <i type="logical" name="LALL_IN_ONE"> F  </i>
   <i type="int" name="IALL_IN_ONE">    -1</i>
   <i type="int" name="NBANDS_WAVE">    -1</i>
   <i type="logical" name="LFINITE_TEMPERATURE"> F  </i>
   <i type="logical" name="LADDER"> F  </i>
   <i type="logical" name="LRPAFORCE"> F  </i>
   <i type="logical" name="LFXC"> F  </i>
   <i type="logical" name="LHARTREE"> T  </i>
   <i type="int" name="IBSE">     0</i>
   <v type="int" name="KPOINT">    -1     0     0     0</v>
   <i type="logical" name="LTCTC"> F  </i>
   <i type="logical" name="LTCTE"> F  </i>
   <i type="logical" name="LTETE"> F  </i>
   <i type="logical" name="LTRIPLET"> F  </i>
   <i type="logical" name="LFXCEPS"> F  </i>
   <i type="logical" name="LFXHEG"> F  </i>
   <i type="int" name="NATURALO">     2</i>
   <i type="logical" name="LHOLEGF"> F  </i>
   <i type="logical" name="L2ORDER"> F  </i>
   <i type="logical" name="LDMP1"> F  </i>
   <i type="logical" name="LMP2LT"> F  </i>
   <i type="logical" name="LSMP2LT"> F  </i>
   <i type="logical" name="LGWLF"> F  </i>
   <i name="ENCUTGW">     -1.60000002</i>
   <i name="ENCUTGWSOFT">     -1.60000002</i>
   <i name="ENCUTLF">     -1.00000000</i>
   <i type="logical" name="ESF_SPLINES"> F  </i>
   <i name="ESF_CONV">      0.01000000</i>
   <i type="int" name="ESF_NINTER">    15</i>
   <i type="int" name="LMAXMP2">    -1</i>
   <i name="SCISSOR">      0.00000000</i>
   <i type="int" name="NOMEGA">     0</i>
   <i type="int" name="NOMEGAR">     0</i>
   <i type="int" name="NBANDSGW">    -1</i>
   <i type="int" name="NBANDSO">    -1</i>
   <i type="int" name="NBANDSV">    -1</i>
   <i type="int" name="NELMGW">     1</i>
   <i type="int" name="NELMHF">     1</i>
   <i type="int" name="DIM">     3</i>
   <i type="int" name="IESPILON">     4</i>
   <i type="int" name="ANTIRES">     0</i>
   <i name="OMEGAMAX">    -30.00000000</i>
   <i name="OMEGAMIN">    -30.00000000</i>
   <i name="OMEGATL">   -200.00000000</i>
   <i type="int" name="OMEGAGRID">     0</i>
   <i name="CSHIFT">     -0.10000000</i>
   <i type="logical" name="LSELFENERGY"> F  </i>
   <i type="logical" name="LSPECTRAL"> F  </i>
   <i type="logical" name="LSPECTRALGW"> F  </i>
   <i type="logical" name="LSINGLES"> F  </i>
   <i type="logical" name="LFERMIGW"> F  </i>
   <i type="logical" name="ODDONLYGW"> F  </i>
   <i type="logical" name="EVENONLYGW"> F  </i>
   <i type="int" name="NKREDLFX">     1</i>
   <i type="int" name="NKREDLFY">     1</i>
   <i type="int" name="NKREDLFZ">     1</i>
   <i type="int" name="MAXMEM">  2800</i>
   <i type="int" name="TELESCOPE">     0</i>
   <i type="int" name="NTAUPAR">    -1</i>
   <i type="int" name="NOMEGAPAR">    -1</i>
   <i name="DAMP_NEWTON">      0.80000001</i>
   <i name="LAMBDA">      1.00000000</i>
  </separator>
  <separator name="External order field" >
   <i name="OFIELD_KAPPA">      0.00000000</i>
   <v name="OFIELD_K">      0.00000000      0.00000000      0.00000000</v>
   <i name="OFIELD_Q6_NEAR">      0.00000000</i>
   <i name="OFIELD_Q6_FAR">      0.00000000</i>
   <i name="OFIELD_A">      0.00000000</i>
  </separator>
  <separator name="optional k-points parameters" >
   <i type="int" name="KPOINTS_OPT_MODE">     1</i>
   <i type="logical" name="LKPOINTS_OPT"> F  </i>
  </separator>
 </parameters>
 <atominfo>
  <atoms>      64 </atoms>
  <types>       1 </types>
  <array name="atoms" >
   <dimension dim="1">ion</dimension>
   <field type="string">element</field>
   <field type="int">atomtype</field>
   <set>
    <rc><c>Si</c><c>   1</c></rc>
    <rc><c>Si</c><c>   1</c></rc>
    <rc><c>Si</c><c>   1</c></rc>
    <rc><c>Si</c><c>   1</c></rc>
    <rc><c>Si</c><c>   1</c></rc>
    <rc><c>Si</c><c>   1</c></rc>
    <rc><c>Si</c><c>   1</c></rc>
    <rc><c>Si</c><c>   1</c></rc>
    <rc><c>Si</c><c>   1</c></rc>
    <rc><c>Si</c><c>   1</c></rc>
    <rc><c>Si</c><c>   1</c></rc>
    <rc><c>Si</c><c>   1</c></rc>
    <rc><c>Si</c><c>   1</c></rc>
    <rc><c>Si</c><c>   1</c></rc>
    <rc><c>Si</c><c>   1</c></rc>
    <rc><c>Si</c><c>   1</c></rc>
    <rc><c>Si</c><c>   1</c></rc>
    <rc><c>Si</c><c>   1</c></rc>
    <rc><c>Si</c><c>   1</c></rc>
    <rc><c>Si</c><c>   1</c></rc>
    <rc><c>Si</c><c>   1</c></rc>
    <rc><c>Si</c><c>   1</c></rc>
    <rc><c>Si</c><c>   1</c></rc>
    <rc><c>Si</c><c>   1</c></rc>
    <rc><c>Si</c><c>   1</c></rc>
    <rc><c>Si</c><c>   1</c></rc>
    <rc><c>Si</c><c>   1</c></rc>
    <rc><c>Si</c><c>   1</c></rc>
    <rc><c>Si</c><c>   1</c></rc>
    <rc><c>Si</c><c>   1</c></rc>
    <rc><c>Si</c><c>   1</c></rc>
    <rc><c>Si</c><c>   1</c></rc>
    <rc><c>Si</c><c>   1</c></rc>
    <rc><c>Si</c><c>   1</c></rc>
    <rc><c>Si</c><c>   1</c></rc>
    <rc><c>Si</c><c>   1</c></rc>
    <rc><c>Si</c><c>   1</c></rc>
    <rc><c>Si</c><c>   1</c></rc>
    <rc><c>Si</c><c>   1</c></rc>
    <rc><c>Si</c><c>   1</c></rc>
    <rc><c>Si</c><c>   1</c></rc>
    <rc><c>Si</c><c>   1</c></rc>
    <rc><c>Si</c><c>   1</c></rc>
    <rc><c>Si</c><c>   1</c></rc>
    <rc><c>Si</c><c>   1</c></rc>
    <rc><c>Si</c><c>   1</c></rc>
    <rc><c>Si</c><c>   1</c></rc>
    <rc><c>Si</c><c>   1</c></rc>
    <rc><c>Si</c><c>   1</c></rc>
    <rc><c>Si</c><c>   1</c></rc>
    <rc><c>Si</c><c>   1</c></rc>
    <rc><c>Si</c><c>   1</c></rc>
    <rc><c>Si</c><c>   1</c></rc>
    <rc><c>Si</c><c>   1</c></rc>
    <rc><c>Si</c><c>   1</c></rc>
    <rc><c>Si</c><c>   1</c></rc>
    <rc><c>Si</c><c>   1</c></rc>
    <rc><c>Si</c><c>   1</c></rc>
    <rc><c>Si</c><c>   1</c></rc>
    <rc><c>Si</c><c>   1</c></rc>
    <rc><c>Si</c><c>   1</c></rc>
    <rc><c>Si</c><c>   1</c></rc>
    <rc><c>Si</c><c>   1</c></rc>
    <rc><c>Si</c><c>   1</c></rc>
   </set>
  </array>
  <array name="atomtypes" >
   <dimension dim="1">type</dimension>
   <field type="int">atomspertype</field>
   <field type="string">element</field>
   <field>mass</field>
   <field>valence</field>
   <field type="string">pseudopotential</field>
   <set>
    <rc><c>  64</c><c>Si</c><c>     28.08500000</c><c>      4.00000000</c><c>  PAW_PBE Si 05Jan2001                  </c></rc>
   </set>
  </array>
 </atominfo>
 <structure name="initialpos" >
  <crystal>
   <varray name="basis" >
    <v>      10.71031258      -0.02691000       0.00000000 </v>
    <v>      -0.02691000      10.76413359       0.00000000 </v>
    <v>       0.00000000       0.00000000      10.76413359 </v>
   </varray>
   <i name="volume">   1240.95940838 </i>
   <varray name="rec_basis" >
    <v>       0.09336854       0.00023342       0.00000000 </v>
    <v>       0.00023342       0.09290170       0.00000000 </v>
    <v>       0.00000000       0.00000000       0.09290111 </v>
   </varray>
  </crystal>
  <varray name="positions" >
   <v>       0.00000000       0.00000000       0.00000000 </v>
   <v>       0.00000000       0.00000000       0.50000000 </v>
   <v>       0.00000000       0.50000000       0.00000000 </v>
   <v>       0.00000000       0.50000000       0.50000000 </v>
   <v>       0.50000000       0.00000000       0.00000000 </v>
   <v>       0.50000000       0.00000000       0.50000000 </v>
   <v>       0.50000000       0.50000000       0.00000000 </v>
   <v>       0.50000000       0.50000000       0.50000000 </v>
   <v>       0.37500000       0.37500000       0.12500000 </v>
   <v>       0.37500000       0.37500000       0.62500000 </v>
   <v>       0.37500000       0.87500000       0.12500000 </v>
   <v>       0.37500000       0.87500000       0.62500000 </v>
   <v>       0.87500000       0.37500000       0.12500000 </v>
   <v>       0.87500000       0.37500000       0.62500000 </v>
   <v>       0.87500000       0.87500000       0.12500000 </v>
   <v>       0.87500000       0.87500000       0.62500000 </v>
   <v>       0.00000000       0.25000000       0.25000000 </v>
   <v>       0.00000000       0.25000000       0.75000000 </v>
   <v>       0.00000000       0.75000000       0.25000000 </v>
   <v>       0.00000000       0.75000000       0.75000000 </v>
   <v>       0.50000000       0.25000000       0.25000000 </v>
   <v>       0.50000000       0.25000000       0.75000000 </v>
   <v>       0.50000000       0.75000000       0.25000000 </v>
   <v>       0.50000000       0.75000000       0.75000000 </v>
   <v>       0.37500000       0.12500000       0.37500000 </v>
   <v>       0.37500000       0.12500000       0.87500000 </v>
   <v>       0.37500000       0.62500000       0.37500000 </v>
   <v>       0.37500000       0.62500000       0.87500000 </v>
   <v>       0.87500000       0.12500000       0.37500000 </v>
   <v>       0.87500000       0.12500000       0.87500000 </v>
   <v>       0.87500000       0.62500000       0.37500000 </v>
   <v>       0.87500000       0.62500000       0.87500000 </v>
   <v>       0.25000000       0.00000000       0.25000000 </v>
   <v>       0.25000000       0.00000000       0.75000000 </v>
   <v>       0.25000000       0.50000000       0.25000000 </v>
   <v>       0.25000000       0.50000000       0.75000000 </v>
   <v>       0.75000000       0.00000000       0.25000000 </v>
   <v>       0.75000000       0.00000000       0.75000000 </v>
   <v>       0.75000000       0.50000000       0.25000000 </v>
   <v>       0.75000000       0.50000000       0.75000000 </v>
   <v>       0.12500000       0.37500000       0.37500000 </v>
   <v>       0.12500000       0.37500000       0.87500000 </v>
   <v>       0.12500000       0.87500000       0.37500000 </v>
   <v>       0.12500000       0.87500000       0.87500000 </v>
   <v>       0.62500000       0.37500000       0.37500000 </v>
   <v>       0.62500000       0.37500000       0.87500000 </v>
   <v>       0.62500000       0.87500000       0.37500000 </v>
   <v>       0.62500000       0.87500000       0.87500000 </v>
   <v>       0.25000000       0.25000000       0.00000000 </v>
   <v>       0.25000000       0.25000000       0.50000000 </v>
   <v>       0.25000000       0.75000000       0.00000000 </v>
   <v>       0.25000000       0.75000000       0.50000000 </v>
   <v>       0.75000000       0.25000000       0.00000000 </v>
   <v>       0.75000000       0.25000000       0.50000000 </v>
   <v>       0.75000000       0.75000000       0.00000000 </v>
   <v>       0.75000000       0.75000000       0.50000000 </v>
   <v>       0.12500000       0.12500000       0.12500000 </v>
   <v>       0.12500000       0.12500000       0.62500000 </v>
   <v>       0.12500000       0.62500000       0.12500000 </v>
   <v>       0.12500000       0.62500000       0.62500000 </v>
   <v>       0.62500000       0.12500000       0.12500000 </v>
   <v>       0.62500000       0.12500000       0.62500000 </v>
   <v>       0.62500000       0.62500000       0.12500000 </v>
   <v>       0.62500000       0.62500000       0.62500000 </v>
  </varray>
 </structure>
 <calculation>
  <scstep>
   <time name="dav">    1.28    1.35</time>
   <time name="total">    1.47    1.55</time>
   <energy>
    <i name="alphaZ">    111.11095401 </i>
    <i name="ewald">  -7391.52235401 </i>
    <i name="hartreedc">   -337.01891639 </i>
    <i name="XCdc">   -554.82677552 </i>
    <i name="pawpsdc">   5598.62625415 </i>
    <i name="pawaedc">  -4492.17844134 </i>
    <i name="eentropy">      0.01063239 </i>
    <i name="bandstr">   1069.77607003 </i>
    <i name="atom">   6564.79586099 </i>
    <i name="e_fr_energy">    568.77328433 </i>
    <i name="e_wo_entrp">    568.76265194 </i>
    <i name="e_0_energy">    568.76974020 </i>
   </energy>
  </scstep>
  <scstep>
   <time name="dav">    1.33    1.34</time>
   <time name="total">    1.33    1.34</time>
   <energy>
    <i name="e_fr_energy">   -309.48175341 </i>
    <i name="e_wo_entrp">   -309.48596721 </i>
    <i name="e_0_energy">   -309.48315801 </i>
   </energy>
  </scstep>
  <scstep>
   <time name="dav">    1.34    1.35</time>
   <time name="total">    1.34    1.35</time>
   <energy>
    <i name="e_fr_energy">   -373.30566200 </i>
    <i name="e_wo_entrp">   -373.31277648 </i>
    <i name="e_0_energy">   -373.30803349 </i>
   </energy>
  </scstep>
  <scstep>
   <time name="dav">    1.33    1.35</time>
   <time name="total">    1.33    1.35</time>
   <energy>
    <i name="e_fr_energy">   -374.93691885 </i>
    <i name="e_wo_entrp">   -374.94516672 </i>
    <i name="e_0_energy">   -374.93966814 </i>
   </energy>
  </scstep>
  <scstep>
   <time name="dav">    1.32    1.33</time>
   <time name="total">    1.59    1.59</time>
   <energy>
    <i name="e_fr_energy">   -374.98779209 </i>
    <i name="e_wo_entrp">   -374.99607145 </i>
    <i name="e_0_energy">   -374.99055188 </i>
   </energy>
  </scstep>
  <scstep>
   <time name="diag">    0.14    0.14</time>
   <time name="diis">    0.70    0.70</time>
   <time name="orth">    0.02    0.02</time>
   <time name="total">    1.24    1.27</time>
   <energy>
    <i name="e_fr_energy">   -369.52484935 </i>
    <i name="e_wo_entrp">   -369.53449536 </i>
    <i name="e_0_energy">   -369.52806468 </i>
   </energy>
  </scstep>
  <scstep>
   <time name="diag">    0.14    0.14</time>
   <time name="diis">    0.71    0.71</time>
   <time name="orth">    0.02    0.02</time>
   <time name="total">    1.26    1.27</time>
   <energy>
    <i name="e_fr_energy">   -367.07685403 </i>
    <i name="e_wo_entrp">   -367.11027651 </i>
    <i name="e_0_energy">   -367.08799485 </i>
   </energy>
  </scstep>
  <scstep>
   <time name="diag">    0.14    0.14</time>
   <time name="diis">    0.70    0.70</time>
   <time name="orth">    0.02    0.04</time>
   <time name="total">    1.29    1.31</time>
   <energy>
    <i name="e_fr_energy">   -367.11624859 </i>
    <i name="e_wo_entrp">   -367.14786451 </i>
    <i name="e_0_energy">   -367.12678723 </i>
   </energy>
  </scstep>
  <scstep>
   <time name="diag">    0.14    0.14</time>
   <time name="diis">    0.72    0.72</time>
   <time name="orth">    0.02    0.02</time>
   <time name="total">    1.27    1.30</time>
   <energy>
    <i name="e_fr_energy">   -367.13713387 </i>
    <i name="e_wo_entrp">   -367.16934429 </i>
    <i name="e_0_energy">   -367.14787068 </i>
   </energy>
  </scstep>
  <scstep>
   <time name="diag">    0.13    0.13</time>
   <time name="diis">    0.73    0.73</time>
   <time name="orth">    0.02    0.02</time>
   <time name="total">    1.26    1.30</time>
   <energy>
    <i name="e_fr_energy">   -367.14060471 </i>
    <i name="e_wo_entrp">   -367.17282592 </i>
    <i name="e_0_energy">   -367.15134511 </i>
   </energy>
  </scstep>
  <scstep>
   <time name="diag">    0.13    0.13</time>
   <time name="diis">    0.69    0.70</time>
   <time name="orth">    0.02    0.02</time>
   <time name="total">    1.23    1.25</time>
   <energy>
    <i name="e_fr_energy">   -367.13761138 </i>
    <i name="e_wo_entrp">   -367.16903910 </i>
    <i name="e_0_energy">   -367.14808729 </i>
   </energy>
  </scstep>
  <scstep>
   <time name="diag">    0.13    0.13</time>
   <time name="diis">    0.68    0.69</time>
   <time name="orth">    0.02    0.02</time>
   <time name="total">    1.22    1.25</time>
   <energy>
    <i name="e_fr_energy">   -367.13764200 </i>
    <i name="e_wo_entrp">   -367.16902978 </i>
    <i name="e_0_energy">   -367.14810459 </i>
   </energy>
  </scstep>
  <scstep>
   <time name="diag">    0.13    0.13</time>
   <time name="diis">    0.72    0.72</time>
   <time name="orth">    0.02    0.02</time>
   <time name="total">    1.25    1.28</time>
   <energy>
    <i name="e_fr_energy">   -367.13770403 </i>
    <i name="e_wo_entrp">   -367.16909436 </i>
    <i name="e_0_energy">   -367.14816747 </i>
   </energy>
  </scstep>
  <scstep>
   <time name="diag">    0.13    0.13</time>
   <time name="diis">    0.69    0.70</time>
   <time name="orth">    0.02    0.02</time>
   <time name="total">    1.25    1.25</time>
   <energy>
    <i name="e_fr_energy">   -367.13741251 </i>
    <i name="e_wo_entrp">   -367.16877721 </i>
    <i name="e_0_energy">   -367.14786741 </i>
   </energy>
  </scstep>
  <scstep>
   <time name="diag">    0.13    0.13</time>
   <time name="diis">    0.70    0.70</time>
   <time name="orth">    0.02    0.02</time>
   <time name="total">    1.23    1.26</time>
   <energy>
    <i name="e_fr_energy">   -367.13761956 </i>
    <i name="e_wo_entrp">   -367.16892710 </i>
    <i name="e_0_energy">   -367.14805541 </i>
   </energy>
  </scstep>
  <scstep>
   <time name="diag">    0.14    0.14</time>
   <time name="diis">    0.71    0.71</time>
   <time name="orth">    0.02    0.02</time>
   <time name="total">    1.26    1.28</time>
   <energy>
    <i name="e_fr_energy">   -367.13785807 </i>
    <i name="e_wo_entrp">   -367.16917600 </i>
    <i name="e_0_energy">   -367.14829738 </i>
   </energy>
  </scstep>
  <scstep>
   <time name="diag">    0.13    0.13</time>
   <time name="diis">    0.69    0.69</time>
   <time name="orth">    0.02    0.02</time>
   <time name="total">    1.23    1.25</time>
   <energy>
    <i name="e_fr_energy">   -367.13796750 </i>
    <i name="e_wo_entrp">   -367.16928606 </i>
    <i name="e_0_energy">   -367.14840702 </i>
   </energy>
  </scstep>
  <scstep>
   <time name="diag">    0.13    0.13</time>
   <time name="diis">    0.69    0.70</time>
   <time name="orth">    0.02    0.02</time>
   <time name="total">    1.24    1.26</time>
   <energy>
    <i name="e_fr_energy">   -367.13801131 </i>
    <i name="e_wo_entrp">   -367.16931856 </i>
    <i name="e_0_energy">   -367.14844706 </i>
   </energy>
  </scstep>
  <scstep>
   <time name="diag">    0.13    0.13</time>
   <time name="diis">    0.70    0.70</time>
   <time name="orth">    0.02    0.02</time>
   <time name="total">    1.23    1.25</time>
   <energy>
    <i name="e_fr_energy">   -367.13803684 </i>
    <i name="e_wo_entrp">   -367.16933239 </i>
    <i name="e_0_energy">   -367.14846869 </i>
   </energy>
  </scstep>
  <scstep>
   <time name="diag">    0.13    0.13</time>
   <time name="diis">    0.58    0.62</time>
   <time name="orth">    0.02    0.02</time>
   <time name="total">    1.13    1.17</time>
   <energy>
    <i name="e_fr_energy">   -367.13804416 </i>
    <i name="e_wo_entrp">   -367.16933203 </i>
    <i name="e_0_energy">   -367.14847345 </i>
   </energy>
  </scstep>
  <scstep>
   <time name="diag">    0.14    0.14</time>
   <time name="diis">    0.45    0.46</time>
   <time name="orth">    0.02    0.02</time>
   <time name="total">    1.01    1.03</time>
   <energy>
    <i name="e_fr_energy">   -367.13804537 </i>
    <i name="e_wo_entrp">   -367.16933206 </i>
    <i name="e_0_energy">   -367.14847427 </i>
   </energy>
  </scstep>
  <scstep>
   <time name="diag">    0.13    0.13</time>
   <time name="diis">    0.42    0.42</time>
   <time name="orth">    0.02    0.02</time>
   <time name="total">    0.74    0.74</time>
   <energy>
    <i name="alphaZ">    111.11095401 </i>
    <i name="ewald">  -7391.52235401 </i>
    <i name="hartreedc">   -456.31067312 </i>
    <i name="XCdc">   -534.66212969 </i>
    <i name="pawpsdc">  29776.15027116 </i>
    <i name="pawaedc"> -28677.39712142 </i>
    <i name="eentropy">      0.03128677 </i>
    <i name="bandstr">    240.66585942 </i>
    <i name="atom">   6564.79586099 </i>
    <i name="e_fr_energy">   -367.13804587 </i>
    <i name="e_wo_entrp">   -367.16933265 </i>
    <i name="e_0_energy">   -367.14847480 </i>
   </energy>
  </scstep>
  <structure>
   <crystal>
    <varray name="basis" >
     <v>      10.71031258      -0.02691000       0.00000000 </v>
     <v>      -0.02691000      10.76413359       0.00000000 </v>
     <v>       0.00000000       0.00000000      10.76413359 </v>
    </varray>
    <i name="volume">   1240.95940838 </i>
    <varray name="rec_basis" >
     <v>       0.09336854       0.00023342       0.00000000 </v>
     <v>       0.00023342       0.09290170       0.00000000 </v>
     <v>       0.00000000       0.00000000       0.09290111 </v>
    </varray>
   </crystal>
   <varray name="positions" >
    <v>       0.00000000       0.00000000       0.00000000 </v>
    <v>       0.00000000       0.00000000       0.50000000 </v>
    <v>       0.00000000       0.50000000       0.00000000 </v>
    <v>       0.00000000       0.50000000       0.50000000 </v>
    <v>       0.50000000       0.00000000       0.00000000 </v>
    <v>       0.50000000       0.00000000       0.50000000 </v>
    <v>       0.50000000       0.50000000       0.00000000 </v>
    <v>       0.50000000       0.50000000       0.50000000 </v>
    <v>       0.37500000       0.37500000       0.12500000 </v>
    <v>       0.37500000       0.37500000       0.62500000 </v>
    <v>       0.37500000       0.87500000       0.12500000 </v>
    <v>       0.37500000       0.87500000       0.62500000 </v>
    <v>       0.87500000       0.37500000       0.12500000 </v>
    <v>       0.87500000       0.37500000       0.62500000 </v>
    <v>       0.87500000       0.87500000       0.12500000 </v>
    <v>       0.87500000       0.87500000       0.62500000 </v>
    <v>       0.00000000       0.25000000       0.25000000 </v>
    <v>       0.00000000       0.25000000       0.75000000 </v>
    <v>       0.00000000       0.75000000       0.25000000 </v>
    <v>       0.00000000       0.75000000       0.75000000 </v>
    <v>       0.50000000       0.25000000       0.25000000 </v>
    <v>       0.50000000       0.25000000       0.75000000 </v>
    <v>       0.50000000       0.75000000       0.25000000 </v>
    <v>       0.50000000       0.75000000       0.75000000 </v>
    <v>       0.37500000       0.12500000       0.37500000 </v>
    <v>       0.37500000       0.12500000       0.87500000 </v>
    <v>       0.37500000       0.62500000       0.37500000 </v>
    <v>       0.37500000       0.62500000       0.87500000 </v>
    <v>       0.87500000       0.12500000       0.37500000 </v>
    <v>       0.87500000       0.12500000       0.87500000 </v>
    <v>       0.87500000       0.62500000       0.37500000 </v>
    <v>       0.87500000       0.62500000       0.87500000 </v>
    <v>       0.25000000       0.00000000       0.25000000 </v>
    <v>       0.25000000       0.00000000       0.75000000 </v>
    <v>       0.25000000       0.50000000       0.25000000 </v>
    <v>       0.25000000       0.50000000       0.75000000 </v>
    <v>       0.75000000       0.00000000       0.25000000 </v>
    <v>       0.75000000       0.00000000       0.75000000 </v>
    <v>       0.75000000       0.50000000       0.25000000 </v>
    <v>       0.75000000       0.50000000       0.75000000 </v>
    <v>       0.12500000       0.37500000       0.37500000 </v>
    <v>       0.12500000       0.37500000       0.87500000 </v>
    <v>       0.12500000       0.87500000       0.37500000 </v>
    <v>       0.12500000       0.87500000       0.87500000 </v>
    <v>       0.62500000       0.37500000       0.37500000 </v>
    <v>       0.62500000       0.37500000       0.87500000 </v>
    <v>       0.62500000       0.87500000       0.37500000 </v>
    <v>       0.62500000       0.87500000       0.87500000 </v>
    <v>       0.25000000       0.25000000       0.00000000 </v>
    <v>       0.25000000       0.25000000       0.50000000 </v>
    <v>       0.25000000       0.75000000       0.00000000 </v>
    <v>       0.25000000       0.75000000       0.50000000 </v>
    <v>       0.75000000       0.25000000       0.00000000 </v>
    <v>       0.75000000       0.25000000       0.50000000 </v>
    <v>       0.75000000       0.75000000       0.00000000 </v>
    <v>       0.75000000       0.75000000       0.50000000 </v>
    <v>       0.12500000       0.12500000       0.12500000 </v>
    <v>       0.12500000       0.12500000       0.62500000 </v>
    <v>       0.12500000       0.62500000       0.12500000 </v>
    <v>       0.12500000       0.62500000       0.62500000 </v>
    <v>       0.62500000       0.12500000       0.12500000 </v>
    <v>       0.62500000       0.12500000       0.62500000 </v>
    <v>       0.62500000       0.62500000       0.12500000 </v>
    <v>       0.62500000       0.62500000       0.62500000 </v>
   </varray>
  </structure>
  <varray name="forces" >
   <v>       0.00000000      -0.00000000      -0.05688337 </v>
   <v>       0.00000000      -0.00000000      -0.05688337 </v>
   <v>      -0.00000000      -0.00000000      -0.05688337 </v>
   <v>      -0.00000000      -0.00000000      -0.05688337 </v>
   <v>       0.00000000       0.00000000      -0.05688337 </v>
   <v>       0.00000000      -0.00000000      -0.05688337 </v>
   <v>      -0.00000000       0.00000000      -0.05688337 </v>
   <v>      -0.00000000       0.00000000      -0.05688337 </v>
   <v>       0.00000000      -0.00000000       0.05688337 </v>
   <v>       0.00000000      -0.00000000       0.05688337 </v>
   <v>      -0.00000000       0.00000000       0.05688337 </v>
   <v>      -0.00000000       0.00000000       0.05688337 </v>
   <v>       0.00000000       0.00000000       0.05688337 </v>
   <v>       0.00000000       0.00000000       0.05688337 </v>
   <v>      -0.00000000       0.00000000       0.05688337 </v>
   <v>      -0.00000000      -0.00000000       0.05688337 </v>
   <v>       0.00000000       0.00000000      -0.05688337 </v>
   <v>       0.00000000       0.00000000      -0.05688337 </v>
   <v>      -0.00000000      -0.00000000      -0.05688337 </v>
   <v>      -0.00000000       0.00000000      -0.05688337 </v>
   <v>       0.00000000      -0.00000000      -0.05688337 </v>
   <v>       0.00000000      -0.00000000      -0.05688337 </v>
   <v>      -0.00000000       0.00000000      -0.05688337 </v>
   <v>      -0.00000000       0.00000000      -0.05688337 </v>
   <v>      -0.00000000       0.00000000       0.05688337 </v>
   <v>      -0.00000000       0.00000000       0.05688337 </v>
   <v>       0.00000000      -0.00000000       0.05688337 </v>
   <v>       0.00000000      -0.00000000       0.05688337 </v>
   <v>      -0.00000000      -0.00000000       0.05688337 </v>
   <v>      -0.00000000      -0.00000000       0.05688337 </v>
   <v>       0.00000000       0.00000000       0.05688337 </v>
   <v>       0.00000000       0.00000000       0.05688337 </v>
   <v>       0.00000000      -0.00000000      -0.05688337 </v>
   <v>       0.00000000       0.00000000      -0.05688337 </v>
   <v>      -0.00000000       0.00000000      -0.05688337 </v>
   <v>      -0.00000000      -0.00000000      -0.05688337 </v>
   <v>       0.00000000      -0.00000000      -0.05688337 </v>
   <v>       0.00000000       0.00000000      -0.05688337 </v>
   <v>      -0.00000000      -0.00000000      -0.05688337 </v>
   <v>      -0.00000000       0.00000000      -0.05688337 </v>
   <v>       0.00000000       0.00000000       0.05688337 </v>
   <v>       0.00000000       0.00000000       0.05688337 </v>
   <v>      -0.00000000      -0.00000000       0.05688337 </v>
   <v>      -0.00000000      -0.00000000       0.05688337 </v>
   <v>       0.00000000      -0.00000000       0.05688337 </v>
   <v>       0.00000000      -0.00000000       0.05688337 </v>
   <v>      -0.00000000      -0.00000000       0.05688337 </v>
   <v>      -0.00000000       0.00000000       0.05688337 </v>
   <v>       0.00000000      -0.00000000      -0.05688337 </v>
   <v>       0.00000000      -0.00000000      -0.05688337 </v>
   <v>      -0.00000000       0.00000000      -0.05688337 </v>
   <v>      -0.00000000      -0.00000000      -0.05688337 </v>
   <v>       0.00000000      -0.00000000      -0.05688337 </v>
   <v>       0.00000000       0.00000000      -0.05688337 </v>
   <v>      -0.00000000       0.00000000      -0.05688337 </v>
   <v>      -0.00000000       0.00000000      -0.05688337 </v>
   <v>      -0.00000000       0.00000000       0.05688337 </v>
   <v>      -0.00000000       0.00000000       0.05688337 </v>
   <v>       0.00000000       0.00000000       0.05688337 </v>
   <v>       0.00000000      -0.00000000       0.05688337 </v>
   <v>      -0.00000000      -0.00000000       0.05688337 </v>
   <v>      -0.00000000      -0.00000000       0.05688337 </v>
   <v>       0.00000000       0.00000000       0.05688337 </v>
   <v>       0.00000000       0.00000000       0.05688337 </v>
  </varray>
  <varray name="stress" >
   <v>      38.21920410       5.65576608       0.00000000 </v>
   <v>       5.65576610      34.01888429       0.00000000 </v>
   <v>       0.00000000       0.00000000      33.97459033 </v>
  </varray>
  <energy>
   <i name="e_fr_energy">   -367.13804587 </i>
   <i name="e_wo_entrp">   -367.16933265 </i>
   <i name="e_0_energy">   -367.14847480 </i>
  </energy>
  <time name="totalsc">   31.06   31.57</time>
 </calculation>
 <calculation>
  <scstep>
   <time name="dav">    1.26    1.27</time>
   <time name="total">    1.64    1.65</time>
   <energy>
    <i name="alphaZ">    111.11095401 </i>
    <i name="ewald">  -7391.58093303 </i>
    <i name="hartreedc">   -456.27736602 </i>
    <i name="XCdc">   -534.66308983 </i>
    <i name="pawpsdc">  29782.52985936 </i>
    <i name="pawaedc"> -28683.77650472 </i>
    <i name="eentropy">      0.03080608 </i>
    <i name="bandstr">    240.69003988 </i>
    <i name="atom">   6564.79586099 </i>
    <i name="e_fr_energy">   -367.14037326 </i>
    <i name="e_wo_entrp">   -367.17117934 </i>
    <i name="e_0_energy">   -367.15064196 </i>
   </energy>
  </scstep>
  <scstep>
   <time name="diag">    0.13    0.13</time>
   <time name="diis">    0.72    0.72</time>
   <time name="orth">    0.02    0.02</time>
   <time name="total">    1.25    1.27</time>
   <energy>
    <i name="e_fr_energy">   -367.14102674 </i>
    <i name="e_wo_entrp">   -367.17182652 </i>
    <i name="e_0_energy">   -367.15129333 </i>
   </energy>
  </scstep>
  <scstep>
   <time name="diag">    0.13    0.13</time>
   <time name="diis">    0.68    0.74</time>
   <time name="orth">    0.02    0.02</time>
   <time name="total">    1.22    1.29</time>
   <energy>
    <i name="e_fr_energy">   -367.14112654 </i>
    <i name="e_wo_entrp">   -367.17194337 </i>
    <i name="e_0_energy">   -367.15139881 </i>
   </energy>
  </scstep>
  <scstep>
   <time name="diag">    0.13    0.13</time>
   <time name="diis">    0.70    0.70</time>
   <time name="orth">    0.02    0.02</time>
   <time name="total">    1.24    1.26</time>
   <energy>
    <i name="e_fr_energy">   -367.14112592 </i>
    <i name="e_wo_entrp">   -367.17195995 </i>
    <i name="e_0_energy">   -367.15140393 </i>
   </energy>
  </scstep>
  <scstep>
   <time name="diag">    0.13    0.13</time>
   <time name="diis">    0.70    0.70</time>
   <time name="orth">    0.02    0.03</time>
   <time name="total">    1.23    1.26</time>
   <energy>
    <i name="e_fr_energy">   -367.14112707 </i>
    <i name="e_wo_entrp">   -367.17196757 </i>
    <i name="e_0_energy">   -367.15140724 </i>
   </energy>
  </scstep>
  <scstep>
   <time name="diag">    0.14    0.14</time>
   <time name="diis">    0.57    0.57</time>
   <time name="orth">    0.02    0.02</time>
   <time name="total">    1.12    1.14</time>
   <energy>
    <i name="e_fr_energy">   -367.14112768 </i>
    <i name="e_wo_entrp">   -367.17196808 </i>
    <i name="e_0_energy">   -367.15140782 </i>
   </energy>
  </scstep>
  <scstep>
   <time name="diag">    0.13    0.13</time>
   <time name="diis">    0.44    0.44</time>
   <time name="orth">    0.02    0.02</time>
   <time name="total">    0.98    1.00</time>
   <energy>
    <i name="e_fr_energy">   -367.14112776 </i>
    <i name="e_wo_entrp">   -367.17196806 </i>
    <i name="e_0_energy">   -367.15140786 </i>
   </energy>
  </scstep>
  <scstep>
   <time name="diag">    0.14    0.15</time>
   <time name="diis">    0.41    0.44</time>
   <time name="orth">    0.02    0.02</time>
   <time name="total">    0.72    0.77</time>
   <energy>
    <i name="alphaZ">    111.11095401 </i>
    <i name="ewald">  -7391.58093303 </i>
    <i name="hartreedc">   -456.25928314 </i>
    <i name="XCdc">   -534.66582164 </i>
    <i name="pawpsdc">  29780.43041862 </i>
    <i name="pawaedc"> -28681.67573841 </i>
    <i name="eentropy">      0.03084032 </i>
    <i name="bandstr">    240.67257449 </i>
    <i name="atom">   6564.79586099 </i>
    <i name="e_fr_energy">   -367.14112778 </i>
    <i name="e_wo_entrp">   -367.17196810 </i>
    <i name="e_0_energy">   -367.15140789 </i>
   </energy>
  </scstep>
  <structure>
   <crystal>
    <varray name="basis" >
     <v>      10.71031258      -0.02691000       0.00000000 </v>
     <v>      -0.02691000      10.76413359       0.00000000 </v>
     <v>       0.00000000       0.00000000      10.76413359 </v>
    </varray>
    <i name="volume">   1240.95940838 </i>
    <varray name="rec_basis" >
     <v>       0.09336854       0.00023342       0.00000000 </v>
     <v>       0.00023342       0.09290170       0.00000000 </v>
     <v>       0.00000000       0.00000000       0.09290111 </v>
    </varray>
   </crystal>
   <varray name="positions" >
    <v>       0.00000000       1.00000000       0.99974506 </v>
    <v>       0.00000000       1.00000000       0.49974506 </v>
    <v>       1.00000000       0.50000000       0.99974506 </v>
    <v>       1.00000000       0.50000000       0.49974506 </v>
    <v>       0.50000000       0.00000000       0.99974506 </v>
    <v>       0.50000000       1.00000000       0.49974506 </v>
    <v>       0.50000000       0.50000000       0.99974506 </v>
    <v>       0.50000000       0.50000000       0.49974506 </v>
    <v>       0.37500000       0.37500000       0.12525494 </v>
    <v>       0.37500000       0.37500000       0.62525494 </v>
    <v>       0.37500000       0.87500000       0.12525494 </v>
    <v>       0.37500000       0.87500000       0.62525494 </v>
    <v>       0.87500000       0.37500000       0.12525494 </v>
    <v>       0.87500000       0.37500000       0.62525494 </v>
    <v>       0.87500000       0.87500000       0.12525494 </v>
    <v>       0.87500000       0.87500000       0.62525494 </v>
    <v>       0.00000000       0.25000000       0.24974506 </v>
    <v>       0.00000000       0.25000000       0.74974506 </v>
    <v>       1.00000000       0.75000000       0.24974506 </v>
    <v>       1.00000000       0.75000000       0.74974506 </v>
    <v>       0.50000000       0.25000000       0.24974506 </v>
    <v>       0.50000000       0.25000000       0.74974506 </v>
    <v>       0.50000000       0.75000000       0.24974506 </v>
    <v>       0.50000000       0.75000000       0.74974506 </v>
    <v>       0.37500000       0.12500000       0.37525494 </v>
    <v>       0.37500000       0.12500000       0.87525494 </v>
    <v>       0.37500000       0.62500000       0.37525494 </v>
    <v>       0.37500000       0.62500000       0.87525494 </v>
    <v>       0.87500000       0.12500000       0.37525494 </v>
    <v>       0.87500000       0.12500000       0.87525494 </v>
    <v>       0.87500000       0.62500000       0.37525494 </v>
    <v>       0.87500000       0.62500000       0.87525494 </v>
    <v>       0.25000000       1.00000000       0.24974506 </v>
    <v>       0.25000000       0.00000000       0.74974506 </v>
    <v>       0.25000000       0.50000000       0.24974506 </v>
    <v>       0.25000000       0.50000000       0.74974506 </v>
    <v>       0.75000000       1.00000000       0.24974506 </v>
    <v>       0.75000000       0.00000000       0.74974506 </v>
    <v>       0.75000000       0.50000000       0.24974506 </v>
    <v>       0.75000000       0.50000000       0.74974506 </v>
    <v>       0.12500000       0.37500000       0.37525494 </v>
    <v>       0.12500000       0.37500000       0.87525494 </v>
    <v>       0.12500000       0.87500000       0.37525494 </v>
    <v>       0.12500000       0.87500000       0.87525494 </v>
    <v>       0.62500000       0.37500000       0.37525494 </v>
    <v>       0.62500000       0.37500000       0.87525494 </v>
    <v>       0.62500000       0.87500000       0.37525494 </v>
    <v>       0.62500000       0.87500000       0.87525494 </v>
    <v>       0.25000000       0.25000000       0.99974506 </v>
    <v>       0.25000000       0.25000000       0.49974506 </v>
    <v>       0.25000000       0.75000000       0.99974506 </v>
    <v>       0.25000000       0.75000000       0.49974506 </v>
    <v>       0.75000000       0.25000000       0.99974506 </v>
    <v>       0.75000000       0.25000000       0.49974506 </v>
    <v>       0.75000000       0.75000000       0.99974506 </v>
    <v>       0.75000000       0.75000000       0.49974506 </v>
    <v>       0.12500000       0.12500000       0.12525494 </v>
    <v>       0.12500000       0.12500000       0.62525494 </v>
    <v>       0.12500000       0.62500000       0.12525494 </v>
    <v>       0.12500000       0.62500000       0.62525494 </v>
    <v>       0.62500000       0.12500000       0.12525494 </v>
    <v>       0.62500000       0.12500000       0.62525494 </v>
    <v>       0.62500000       0.62500000       0.12525494 </v>
    <v>       0.62500000       0.62500000       0.62525494 </v>
   </varray>
  </structure>
  <varray name="forces" >
   <v>       0.00000000       0.00000000       0.02188045 </v>
   <v>       0.00000000      -0.00000000       0.02188045 </v>
   <v>      -0.00000000      -0.00000000       0.02188045 </v>
   <v>      -0.00000000      -0.00000000       0.02188045 </v>
   <v>       0.00000000       0.00000000       0.02188045 </v>
   <v>       0.00000000      -0.00000000       0.02188045 </v>
   <v>      -0.00000000       0.00000000       0.02188045 </v>
   <v>      -0.00000000       0.00000000       0.02188045 </v>
   <v>       0.00000000      -0.00000000      -0.02188045 </v>
   <v>       0.00000000      -0.00000000      -0.02188045 </v>
   <v>      -0.00000000       0.00000000      -0.02188045 </v>
   <v>      -0.00000000       0.00000000      -0.02188045 </v>
   <v>       0.00000000      -0.00000000      -0.02188045 </v>
   <v>       0.00000000      -0.00000000      -0.02188045 </v>
   <v>      -0.00000000       0.00000000      -0.02188045 </v>
   <v>      -0.00000000       0.00000000      -0.02188045 </v>
   <v>       0.00000000       0.00000000       0.02188045 </v>
   <v>       0.00000000      -0.00000000       0.02188045 </v>
   <v>      -0.00000000      -0.00000000       0.02188045 </v>
   <v>      -0.00000000      -0.00000000       0.02188045 </v>
   <v>       0.00000000      -0.00000000       0.02188045 </v>
   <v>       0.00000000      -0.00000000       0.02188045 </v>
   <v>      -0.00000000      -0.00000000       0.02188045 </v>
   <v>      -0.00000000       0.00000000       0.02188045 </v>
   <v>      -0.00000000       0.00000000      -0.02188045 </v>
   <v>      -0.00000000       0.00000000      -0.02188045 </v>
   <v>       0.00000000      -0.00000000      -0.02188045 </v>
   <v>       0.00000000      -0.00000000      -0.02188045 </v>
   <v>      -0.00000000       0.00000000      -0.02188045 </v>
   <v>      -0.00000000       0.00000000      -0.02188045 </v>
   <v>       0.00000000      -0.00000000      -0.02188045 </v>
   <v>       0.00000000      -0.00000000      -0.02188045 </v>
   <v>       0.00000000       0.00000000       0.02188045 </v>
   <v>       0.00000000       0.00000000       0.02188045 </v>
   <v>      -0.00000000      -0.00000000       0.02188045 </v>
   <v>      -0.00000000      -0.00000000       0.02188045 </v>
   <v>       0.00000000       0.00000000       0.02188045 </v>
   <v>       0.00000000       0.00000000       0.02188045 </v>
   <v>      -0.00000000       0.00000000       0.02188045 </v>
   <v>      -0.00000000       0.00000000       0.02188045 </v>
   <v>       0.00000000       0.00000000      -0.02188045 </v>
   <v>       0.00000000       0.00000000      -0.02188045 </v>
   <v>      -0.00000000       0.00000000      -0.02188045 </v>
   <v>      -0.00000000       0.00000000      -0.02188045 </v>
   <v>       0.00000000      -0.00000000      -0.02188045 </v>
   <v>       0.00000000      -0.00000000      -0.02188045 </v>
   <v>      -0.00000000       0.00000000      -0.02188045 </v>
   <v>      -0.00000000       0.00000000      -0.02188045 </v>
   <v>      -0.00000000      -0.00000000       0.02188045 </v>
   <v>       0.00000000      -0.00000000       0.02188045 </v>
   <v>      -0.00000000       0.00000000       0.02188045 </v>
   <v>      -0.00000000       0.00000000       0.02188045 </v>
   <v>       0.00000000       0.00000000       0.02188045 </v>
   <v>       0.00000000      -0.00000000       0.02188045 </v>
   <v>      -0.00000000       0.00000000       0.02188045 </v>
   <v>      -0.00000000      -0.00000000       0.02188045 </v>
   <v>      -0.00000000       0.00000000      -0.02188045 </v>
   <v>      -0.00000000       0.00000000      -0.02188045 </v>
   <v>       0.00000000      -0.00000000      -0.02188045 </v>
   <v>       0.00000000      -0.00000000      -0.02188045 </v>
   <v>      -0.00000000       0.00000000      -0.02188045 </v>
   <v>      -0.00000000       0.00000000      -0.02188045 </v>
   <v>       0.00000000      -0.00000000      -0.02188045 </v>
   <v>       0.00000000      -0.00000000      -0.02188045 </v>
  </varray>
  <varray name="stress" >
   <v>      38.20867043       3.08139773       0.00000000 </v>
   <v>       3.08139778      34.01098164       0.00000000 </v>
   <v>       0.00000000       0.00000000      33.93382632 </v>
  </varray>
  <energy>
   <i name="e_fr_energy">   -367.14112778 </i>
   <i name="e_wo_entrp">   -367.17196810 </i>
   <i name="e_0_energy">   -367.15140789 </i>
  </energy>
  <time name="totalsc">   12.99   13.26</time>
 </calculation>
 <calculation>
  <scstep>
   <time name="dav">    1.27    1.28</time>
   <time name="total">    1.65    1.66</time>
   <energy>
    <i name="alphaZ">    111.11095401 </i>
    <i name="ewald">  -7391.56708327 </i>
    <i name="hartreedc">   -456.26746838 </i>
    <i name="XCdc">   -534.66545041 </i>
    <i name="pawpsdc">  29780.38856398 </i>
    <i name="pawaedc"> -28681.63388032 </i>
    <i name="eentropy">      0.03102437 </i>
    <i name="bandstr">    240.66587905 </i>
    <i name="atom">   6564.79586099 </i>
    <i name="e_fr_energy">   -367.14159998 </i>
    <i name="e_wo_entrp">   -367.17262434 </i>
    <i name="e_0_energy">   -367.15194143 </i>
   </energy>
  </scstep>
  <scstep>
   <time name="diag">    0.13    0.13</time>
   <time name="diis">    0.69    0.70</time>
   <time name="orth">    0.02    0.02</time>
   <time name="total">    1.24    1.25</time>
   <energy>
    <i name="e_fr_energy">   -367.14164977 </i>
    <i name="e_wo_entrp">   -367.17267522 </i>
    <i name="e_0_energy">   -367.15199159 </i>
   </energy>
  </scstep>
  <scstep>
   <time name="diag">    0.13    0.13</time>
   <time name="diis">    0.71    0.71</time>
   <time name="orth">    0.02    0.02</time>
   <time name="total">    1.25    1.27</time>
   <energy>
    <i name="e_fr_energy">   -367.14165731 </i>
    <i name="e_wo_entrp">   -367.17267917 </i>
    <i name="e_0_energy">   -367.15199793 </i>
   </energy>
  </scstep>
  <scstep>
   <time name="diag">    0.13    0.13</time>
   <time name="diis">    0.67    0.67</time>
   <time name="orth">    0.02    0.02</time>
   <time name="total">    1.21    1.23</time>
   <energy>
    <i name="e_fr_energy">   -367.14165733 </i>
    <i name="e_wo_entrp">   -367.17267559 </i>
    <i name="e_0_energy">   -367.15199675 </i>
   </energy>
  </scstep>
  <scstep>
   <time name="diag">    0.14    0.14</time>
   <time name="diis">    0.47    0.47</time>
   <time name="orth">    0.02    0.02</time>
   <time name="total">    1.01    1.03</time>
   <energy>
    <i name="e_fr_energy">   -367.14165743 </i>
    <i name="e_wo_entrp">   -367.17267429 </i>
    <i name="e_0_energy">   -367.15199638 </i>
   </energy>
  </scstep>
  <scstep>
   <time name="diag">    0.13    0.13</time>
   <time name="diis">    0.44    0.44</time>
   <time name="orth">    0.02    0.02</time>
   <time name="total">    0.98    1.00</time>
   <energy>
    <i name="e_fr_energy">   -367.14165746 </i>
    <i name="e_wo_entrp">   -367.17267437 </i>
    <i name="e_0_energy">   -367.15199643 </i>
   </energy>
  </scstep>
  <scstep>
   <time name="diag">    0.13    0.13</time>
   <time name="diis">    0.37    0.37</time>
   <time name="orth">    0.02    0.02</time>
   <time name="total">    0.90    0.92</time>
   <energy>
    <i name="e_fr_energy">   -367.14165747 </i>
    <i name="e_wo_entrp">   -367.17267439 </i>
    <i name="e_0_energy">   -367.15199644 </i>
   </energy>
  </scstep>
  <scstep>
   <time name="diag">    0.13    0.13</time>
   <time name="diis">    0.31    0.32</time>
   <time name="orth">    0.02    0.02</time>
   <time name="total">    0.62    0.63</time>
   <energy>
    <i name="alphaZ">    111.11095401 </i>
    <i name="ewald">  -7391.56708327 </i>
    <i name="hartreedc">   -456.26955676 </i>
    <i name="XCdc">   -534.66506601 </i>
    <i name="pawpsdc">  29781.00767229 </i>
    <i name="pawaedc"> -28682.25326436 </i>
    <i name="eentropy">      0.03101691 </i>
    <i name="bandstr">    240.66780871 </i>
    <i name="atom">   6564.79586099 </i>
    <i name="e_fr_energy">   -367.14165747 </i>
    <i name="e_wo_entrp">   -367.17267439 </i>
    <i name="e_0_energy">   -367.15199644 </i>
   </energy>
  </scstep>
  <structure>
   <crystal>
    <varray name="basis" >
     <v>      10.71031258      -0.02691000       0.00000000 </v>
     <v>      -0.02691000      10.76413359       0.00000000 </v>
     <v>       0.00000000       0.00000000      10.76413359 </v>
    </varray>
    <i name="volume">   1240.95940838 </i>
    <varray name="rec_basis" >
     <v>       0.09336854       0.00023342       0.00000000 </v>
     <v>       0.00023342       0.09290170       0.00000000 </v>
     <v>       0.00000000       0.00000000       0.09290111 </v>
    </varray>
   </crystal>
   <varray name="positions" >
    <v>       0.00000000       0.00000000       0.99981588 </v>
    <v>       0.00000000       0.00000000       0.49981588 </v>
    <v>       0.00000000       0.50000000       0.99981588 </v>
    <v>       0.00000000       0.50000000       0.49981588 </v>
    <v>       0.50000000       0.00000000       0.99981588 </v>
    <v>       0.50000000       0.00000000       0.49981588 </v>
    <v>       0.50000000       0.50000000       0.99981588 </v>
    <v>       0.50000000       0.50000000       0.49981588 </v>
    <v>       0.37500000       0.37500000       0.12518412 </v>
    <v>       0.37500000       0.37500000       0.62518412 </v>
    <v>       0.37500000       0.87500000       0.12518412 </v>
    <v>       0.37500000       0.87500000       0.62518412 </v>
    <v>       0.87500000       0.37500000       0.12518412 </v>
    <v>       0.87500000       0.37500000       0.62518412 </v>
    <v>       0.87500000       0.87500000       0.12518412 </v>
    <v>       0.87500000       0.87500000       0.62518412 </v>
    <v>       0.00000000       0.25000000       0.24981588 </v>
    <v>       0.00000000       0.25000000       0.74981588 </v>
    <v>       0.00000000       0.75000000       0.24981588 </v>
    <v>       0.00000000       0.75000000       0.74981588 </v>
    <v>       0.50000000       0.25000000       0.24981588 </v>
    <v>       0.50000000       0.25000000       0.74981588 </v>
    <v>       0.50000000       0.75000000       0.24981588 </v>
    <v>       0.50000000       0.75000000       0.74981588 </v>
    <v>       0.37500000       0.12500000       0.37518412 </v>
    <v>       0.37500000       0.12500000       0.87518412 </v>
    <v>       0.37500000       0.62500000       0.37518412 </v>
    <v>       0.37500000       0.62500000       0.87518412 </v>
    <v>       0.87500000       0.12500000       0.37518412 </v>
    <v>       0.87500000       0.12500000       0.87518412 </v>
    <v>       0.87500000       0.62500000       0.37518412 </v>
    <v>       0.87500000       0.62500000       0.87518412 </v>
    <v>       0.25000000       0.00000000       0.24981588 </v>
    <v>       0.25000000       0.00000000       0.74981588 </v>
    <v>       0.25000000       0.50000000       0.24981588 </v>
    <v>       0.25000000       0.50000000       0.74981588 </v>
    <v>       0.75000000       0.00000000       0.24981588 </v>
    <v>       0.75000000       0.00000000       0.74981588 </v>
    <v>       0.75000000       0.50000000       0.24981588 </v>
    <v>       0.75000000       0.50000000       0.74981588 </v>
    <v>       0.12500000       0.37500000       0.37518412 </v>
    <v>       0.12500000       0.37500000       0.87518412 </v>
    <v>       0.12500000       0.87500000       0.37518412 </v>
    <v>       0.12500000       0.87500000       0.87518412 </v>
    <v>       0.62500000       0.37500000       0.37518412 </v>
    <v>       0.62500000       0.37500000       0.87518412 </v>
    <v>       0.62500000       0.87500000       0.37518412 </v>
    <v>       0.62500000       0.87500000       0.87518412 </v>
    <v>       0.25000000       0.25000000       0.99981588 </v>
    <v>       0.25000000       0.25000000       0.49981588 </v>
    <v>       0.25000000       0.75000000       0.99981588 </v>
    <v>       0.25000000       0.75000000       0.49981588 </v>
    <v>       0.75000000       0.25000000       0.99981588 </v>
    <v>       0.75000000       0.25000000       0.49981588 </v>
    <v>       0.75000000       0.75000000       0.99981588 </v>
    <v>       0.75000000       0.75000000       0.49981588 </v>
    <v>       0.12500000       0.12500000       0.12518412 </v>
    <v>       0.12500000       0.12500000       0.62518412 </v>
    <v>       0.12500000       0.62500000       0.12518412 </v>
    <v>       0.12500000       0.62500000       0.62518412 </v>
    <v>       0.62500000       0.12500000       0.12518412 </v>
    <v>       0.62500000       0.12500000       0.62518412 </v>
    <v>       0.62500000       0.62500000       0.12518412 </v>
    <v>       0.62500000       0.62500000       0.62518412 </v>
   </varray>
  </structure>
  <varray name="forces" >
   <v>       0.00000000      -0.00000000      -0.00014199 </v>
   <v>       0.00000000       0.00000000      -0.00014199 </v>
   <v>      -0.00000000      -0.00000000      -0.00014199 </v>
   <v>      -0.00000000      -0.00000000      -0.00014199 </v>
   <v>       0.00000000       0.00000000      -0.00014199 </v>
   <v>       0.00000000      -0.00000000      -0.00014199 </v>
   <v>      -0.00000000       0.00000000      -0.00014199 </v>
   <v>      -0.00000000      -0.00000000      -0.00014199 </v>
   <v>      -0.00000000       0.00000000       0.00014199 </v>
   <v>      -0.00000000       0.00000000       0.00014199 </v>
   <v>       0.00000000      -0.00000000       0.00014199 </v>
   <v>       0.00000000       0.00000000       0.00014199 </v>
   <v>      -0.00000000      -0.00000000       0.00014199 </v>
   <v>       0.00000000      -0.00000000       0.00014199 </v>
   <v>      -0.00000000       0.00000000       0.00014199 </v>
   <v>       0.00000000      -0.00000000       0.00014199 </v>
   <v>      -0.00000000      -0.00000000      -0.00014199 </v>
   <v>      -0.00000000       0.00000000      -0.00014199 </v>
   <v>      -0.00000000       0.00000000      -0.00014199 </v>
   <v>       0.00000000      -0.00000000      -0.00014199 </v>
   <v>      -0.00000000       0.00000000      -0.00014199 </v>
   <v>       0.00000000       0.00000000      -0.00014199 </v>
   <v>       0.00000000      -0.00000000      -0.00014199 </v>
   <v>       0.00000000       0.00000000      -0.00014199 </v>
   <v>       0.00000000      -0.00000000       0.00014199 </v>
   <v>      -0.00000000      -0.00000000       0.00014199 </v>
   <v>       0.00000000      -0.00000000       0.00014199 </v>
   <v>       0.00000000      -0.00000000       0.00014199 </v>
   <v>      -0.00000000       0.00000000       0.00014199 </v>
   <v>       0.00000000      -0.00000000       0.00014199 </v>
   <v>       0.00000000      -0.00000000       0.00014199 </v>
   <v>       0.00000000       0.00000000       0.00014199 </v>
   <v>       0.00000000       0.00000000      -0.00014199 </v>
   <v>       0.00000000      -0.00000000      -0.00014199 </v>
   <v>      -0.00000000      -0.00000000      -0.00014199 </v>
   <v>      -0.00000000      -0.00000000      -0.00014199 </v>
   <v>       0.00000000       0.00000000      -0.00014199 </v>
   <v>       0.00000000      -0.00000000      -0.00014199 </v>
   <v>       0.00000000      -0.00000000      -0.00014199 </v>
   <v>      -0.00000000      -0.00000000      -0.00014199 </v>
   <v>      -0.00000000       0.00000000       0.00014199 </v>
   <v>      -0.00000000      -0.00000000       0.00014199 </v>
   <v>       0.00000000       0.00000000       0.00014199 </v>
   <v>      -0.00000000       0.00000000       0.00014199 </v>
   <v>      -0.00000000       0.00000000       0.00014199 </v>
   <v>      -0.00000000      -0.00000000       0.00014199 </v>
   <v>       0.00000000      -0.00000000       0.00014199 </v>
   <v>       0.00000000       0.00000000       0.00014199 </v>
   <v>      -0.00000000       0.00000000      -0.00014199 </v>
   <v>      -0.00000000      -0.00000000      -0.00014199 </v>
   <v>      -0.00000000       0.00000000      -0.00014199 </v>
   <v>       0.00000000       0.00000000      -0.00014199 </v>
   <v>       0.00000000       0.00000000      -0.00014199 </v>
   <v>       0.00000000       0.00000000      -0.00014199 </v>
   <v>      -0.00000000      -0.00000000      -0.00014199 </v>
   <v>      -0.00000000      -0.00000000      -0.00014199 </v>
   <v>      -0.00000000      -0.00000000       0.00014199 </v>
   <v>      -0.00000000      -0.00000000       0.00014199 </v>
   <v>      -0.00000000      -0.00000000       0.00014199 </v>
   <v>      -0.00000000      -0.00000000       0.00014199 </v>
   <v>      -0.00000000       0.00000000       0.00014199 </v>
   <v>      -0.00000000       0.00000000       0.00014199 </v>
   <v>       0.00000000       0.00000000       0.00014199 </v>
   <v>       0.00000000      -0.00000000       0.00014199 </v>
  </varray>
  <varray name="stress" >
   <v>      38.21222162       3.79676506       0.00000000 </v>
   <v>       3.79676506      34.01036763       0.00000000 </v>
   <v>       0.00000000       0.00000000      33.95584666 </v>
  </varray>
  <energy>
   <i name="e_fr_energy">   -367.14165747 </i>
   <i name="e_wo_entrp">   -367.17267439 </i>
   <i name="e_0_energy">   -367.15199644 </i>
  </energy>
  <time name="totalsc">   12.29   12.44</time>
  <eigenvalues>
   <array>
    <dimension dim="1">band</dimension>
    <dimension dim="2">kpoint</dimension>
    <dimension dim="3">spin</dimension>
    <field>eigene</field>
    <field>occ</field>
    <set>
     <set comment="spin 1">
      <set comment="kpoint 1">
       <r>   -6.0935    1.0000 </r>
       <r>   -4.9803    1.0000 </r>
       <r>   -4.9803    1.0000 </r>
       <r>   -4.9803    1.0000 </r>
       <r>   -4.9803    1.0000 </r>
       <r>   -4.9707    1.0000 </r>
       <r>   -4.9707    1.0000 </r>
       <r>   -3.9873    1.0000 </r>
       <r>   -3.9873    1.0000 </r>
       <r>   -3.9819    1.0000 </r>
       <r>   -3.9819    1.0000 </r>
       <r>   -3.9819    1.0000 </r>
       <r>   -3.9819    1.0000 </r>
       <r>   -3.9751    1.0000 </r>
       <r>   -3.9751    1.0000 </r>
       <r>   -3.9751    1.0000 </r>
       <r>   -3.9751    1.0000 </r>
       <r>   -3.9628    1.0000 </r>
       <r>   -3.9628    1.0000 </r>
       <r>   -3.6734    1.0000 </r>
       <r>   -3.6734    1.0000 </r>
       <r>   -3.6479    1.0000 </r>
       <r>   -3.6479    1.0000 </r>
       <r>   -1.8329    1.0000 </r>
       <r>   -1.8247    1.0000 </r>
       <r>   -1.8247    1.0000 </r>
       <r>   -1.8167    1.0000 </r>
       <r>   -1.7934    1.0000 </r>
       <r>   -1.7934    1.0000 </r>
       <r>   -1.6495    1.0000 </r>
       <r>   -1.6494    1.0000 </r>
       <r>   -1.6387    1.0000 </r>
       <r>   -1.6387    1.0000 </r>
       <r>   -1.6252    1.0000 </r>
       <r>   -1.6252    1.0000 </r>
       <r>   -1.6252    1.0000 </r>
       <r>   -1.6252    1.0000 </r>
       <r>   -1.6223    1.0000 </r>
       <r>   -1.6223    1.0000 </r>
       <r>   -1.6118    1.0000 </r>
       <r>   -1.6118    1.0000 </r>
       <r>   -1.0552    1.0000 </r>
       <r>   -1.0552    1.0000 </r>
       <r>   -1.0435    1.0000 </r>
       <r>   -1.0435    1.0000 </r>
       <r>    0.5577    1.0000 </r>
       <r>    0.5577    1.0000 </r>
       <r>    0.5612    1.0000 </r>
       <r>    0.5612    1.0000 </r>
       <r>    0.5612    1.0000 </r>
       <r>    0.5612    1.0000 </r>
       <r>    0.5648    1.0000 </r>
       <r>    0.5648    1.0000 </r>
       <r>    0.5799    1.0000 </r>
       <r>    0.5799    1.0000 </r>
       <r>    0.5799    1.0000 </r>
       <r>    0.5799    1.0000 </r>
       <r>    2.0660    1.0000 </r>
       <r>    2.0660    1.0000 </r>
       <r>    2.0688    1.0000 </r>
       <r>    2.0688    1.0000 </r>
       <r>    2.0751    1.0000 </r>
       <r>    2.0751    1.0000 </r>
       <r>    2.0751    1.0000 </r>
       <r>    2.0751    1.0000 </r>
       <r>    2.0782    1.0000 </r>
       <r>    2.0782    1.0000 </r>
       <r>    2.0813    1.0000 </r>
       <r>    2.0813    1.0000 </r>
       <r>    2.1765    1.0000 </r>
       <r>    2.1765    1.0000 </r>
       <r>    2.1813    1.0000 </r>
       <r>    2.1813    1.0000 </r>
       <r>    2.1813    1.0000 </r>
       <r>    2.1813    1.0000 </r>
       <r>    2.1856    1.0000 </r>
       <r>    2.1856    1.0000 </r>
       <r>    2.2099    1.0000 </r>
       <r>    2.2099    1.0000 </r>
       <r>    2.2099    1.0000 </r>
       <r>    2.2099    1.0000 </r>
       <r>    2.5946    1.0000 </r>
       <r>    2.5946    1.0000 </r>
       <r>    2.5949    1.0000 </r>
       <r>    2.5949    1.0000 </r>
       <r>    2.6316    1.0000 </r>
       <r>    2.6316    1.0000 </r>
       <r>    3.1354    1.0000 </r>
       <r>    3.1354    1.0000 </r>
       <r>    3.1402    1.0000 </r>
       <r>    3.1749    1.0000 </r>
       <r>    3.1749    1.0000 </r>
       <r>    3.2099    1.0000 </r>
       <r>    4.1292    1.0000 </r>
       <r>    4.1292    1.0000 </r>
       <r>    4.1318    1.0000 </r>
       <r>    4.1319    1.0000 </r>
       <r>    4.1320    1.0000 </r>
       <r>    4.1320    1.0000 </r>
       <r>    4.1569    1.0000 </r>
       <r>    4.1569    1.0000 </r>
       <r>    4.1683    1.0000 </r>
       <r>    4.1683    1.0000 </r>
       <r>    4.1962    1.0000 </r>
       <r>    4.1963    1.0000 </r>
       <r>    4.7211    1.0000 </r>
       <r>    4.7211    1.0000 </r>
       <r>    4.7211    1.0000 </r>
       <r>    4.7211    1.0000 </r>
       <r>    4.7376    1.0000 </r>
       <r>    4.7376    1.0000 </r>
       <r>    4.7621    1.0000 </r>
       <r>    4.7621    1.0000 </r>
       <r>    4.7621    1.0000 </r>
       <r>    4.7621    1.0000 </r>
       <r>    4.7869    1.0000 </r>
       <r>    4.7869    1.0000 </r>
       <r>    4.8538    1.0000 </r>
       <r>    4.8538    1.0000 </r>
       <r>    4.8744    1.0000 </r>
       <r>    4.8744    1.0000 </r>
       <r>    4.8971    1.0000 </r>
       <r>    4.8971    1.0000 </r>
       <r>    4.9356    1.0000 </r>
       <r>    4.9356    1.0000 </r>
       <r>    6.0963    1.0242 </r>
       <r>    6.1101    1.0274 </r>
       <r>    6.1602    1.0353 </r>
       <r>    6.6180   -0.0282 </r>
       <r>    6.6180   -0.0282 </r>
       <r>    6.6199   -0.0290 </r>
       <r>    6.6586   -0.0354 </r>
       <r>    6.6586   -0.0354 </r>
       <r>    6.6975   -0.0306 </r>
       <r>    7.0966   -0.0000 </r>
       <r>    7.0966   -0.0000 </r>
       <r>    7.1367   -0.0000 </r>
       <r>    7.1367   -0.0000 </r>
       <r>    7.1371   -0.0000 </r>
       <r>    7.1371   -0.0000 </r>
       <r>    7.6735   -0.0000 </r>
       <r>    7.6735   -0.0000 </r>
       <r>    7.7250   -0.0000 </r>
       <r>    7.7250   -0.0000 </r>
       <r>    8.4695   -0.0000 </r>
       <r>    8.4695   -0.0000 </r>
       <r>    8.4695   -0.0000 </r>
       <r>    8.4695   -0.0000 </r>
       <r>    8.4894   -0.0000 </r>
       <r>    8.4894   -0.0000 </r>
       <r>    8.5170   -0.0000 </r>
       <r>    8.5170   -0.0000 </r>
       <r>    8.5170   -0.0000 </r>
       <r>    8.5170   -0.0000 </r>
       <r>    8.5450   -0.0000 </r>
       <r>    8.5450   -0.0000 </r>
       <r>    8.6178   -0.0000 </r>
       <r>    8.6540   -0.0000 </r>
       <r>    8.6775   -0.0000 </r>
       <r>    9.1291   -0.0000 </r>
       <r>    9.1314   -0.0000 </r>
       <r>    9.1363   -0.0000 </r>
      </set>
      <set comment="kpoint 2">
       <r>   -5.8103    1.0000 </r>
       <r>   -5.8103    1.0000 </r>
       <r>   -4.7281    1.0000 </r>
       <r>   -4.7281    1.0000 </r>
       <r>   -4.7218    1.0000 </r>
       <r>   -4.7218    1.0000 </r>
       <r>   -4.7218    1.0000 </r>
       <r>   -4.7218    1.0000 </r>
       <r>   -4.7154    1.0000 </r>
       <r>   -4.7154    1.0000 </r>
       <r>   -3.8465    1.0000 </r>
       <r>   -3.8465    1.0000 </r>
       <r>   -3.8465    1.0000 </r>
       <r>   -3.8465    1.0000 </r>
       <r>   -3.8308    1.0000 </r>
       <r>   -3.8308    1.0000 </r>
       <r>   -3.8308    1.0000 </r>
       <r>   -3.8308    1.0000 </r>
       <r>   -3.6084    1.0000 </r>
       <r>   -3.6084    1.0000 </r>
       <r>   -2.8697    1.0000 </r>
       <r>   -2.8697    1.0000 </r>
       <r>   -2.8537    1.0000 </r>
       <r>   -2.8537    1.0000 </r>
       <r>   -2.8537    1.0000 </r>
       <r>   -2.8537    1.0000 </r>
       <r>   -2.8377    1.0000 </r>
       <r>   -2.8377    1.0000 </r>
       <r>   -1.7457    1.0000 </r>
       <r>   -1.7457    1.0000 </r>
       <r>   -1.7455    1.0000 </r>
       <r>   -1.7455    1.0000 </r>
       <r>   -1.7255    1.0000 </r>
       <r>   -1.7255    1.0000 </r>
       <r>   -1.7255    1.0000 </r>
       <r>   -1.7255    1.0000 </r>
       <r>   -0.5409    1.0000 </r>
       <r>   -0.5409    1.0000 </r>
       <r>   -0.5366    1.0000 </r>
       <r>   -0.5366    1.0000 </r>
       <r>   -0.5366    1.0000 </r>
       <r>   -0.5366    1.0000 </r>
       <r>   -0.5326    1.0000 </r>
       <r>   -0.5326    1.0000 </r>
       <r>   -0.4191    1.0000 </r>
       <r>   -0.4191    1.0000 </r>
       <r>   -0.4191    1.0000 </r>
       <r>   -0.4191    1.0000 </r>
       <r>   -0.4003    1.0000 </r>
       <r>   -0.4003    1.0000 </r>
       <r>   -0.4003    1.0000 </r>
       <r>   -0.4003    1.0000 </r>
       <r>    0.3483    1.0000 </r>
       <r>    0.3483    1.0000 </r>
       <r>    1.6760    1.0000 </r>
       <r>    1.6760    1.0000 </r>
       <r>    1.6782    1.0000 </r>
       <r>    1.6782    1.0000 </r>
       <r>    1.6782    1.0000 </r>
       <r>    1.6782    1.0000 </r>
       <r>    1.6803    1.0000 </r>
       <r>    1.6803    1.0000 </r>
       <r>    1.7792    1.0000 </r>
       <r>    1.7792    1.0000 </r>
       <r>    1.7853    1.0000 </r>
       <r>    1.7853    1.0000 </r>
       <r>    1.7853    1.0000 </r>
       <r>    1.7853    1.0000 </r>
       <r>    1.7921    1.0000 </r>
       <r>    1.7921    1.0000 </r>
       <r>    2.5259    1.0000 </r>
       <r>    2.5259    1.0000 </r>
       <r>    2.5464    1.0000 </r>
       <r>    2.5464    1.0000 </r>
       <r>    2.5514    1.0000 </r>
       <r>    2.5514    1.0000 </r>
       <r>    2.5721    1.0000 </r>
       <r>    2.5721    1.0000 </r>
       <r>    3.2687    1.0000 </r>
       <r>    3.2687    1.0000 </r>
       <r>    3.2766    1.0000 </r>
       <r>    3.2766    1.0000 </r>
       <r>    3.2766    1.0000 </r>
       <r>    3.2766    1.0000 </r>
       <r>    3.2838    1.0000 </r>
       <r>    3.2838    1.0000 </r>
       <r>    3.3895    1.0000 </r>
       <r>    3.3895    1.0000 </r>
       <r>    3.3895    1.0000 </r>
       <r>    3.3895    1.0000 </r>
       <r>    3.4166    1.0000 </r>
       <r>    3.4166    1.0000 </r>
       <r>    3.4344    1.0000 </r>
       <r>    3.4344    1.0000 </r>
       <r>    3.4344    1.0000 </r>
       <r>    3.4344    1.0000 </r>
       <r>    3.4523    1.0000 </r>
       <r>    3.4523    1.0000 </r>
       <r>    3.5788    1.0000 </r>
       <r>    3.5788    1.0000 </r>
       <r>    3.5788    1.0000 </r>
       <r>    3.5788    1.0000 </r>
       <r>    3.6165    1.0000 </r>
       <r>    3.6165    1.0000 </r>
       <r>    3.6165    1.0000 </r>
       <r>    3.6165    1.0000 </r>
       <r>    4.6322    1.0000 </r>
       <r>    4.6322    1.0000 </r>
       <r>    4.6451    1.0000 </r>
       <r>    4.6451    1.0000 </r>
       <r>    4.6451    1.0000 </r>
       <r>    4.6451    1.0000 </r>
       <r>    4.6582    1.0000 </r>
       <r>    4.6582    1.0000 </r>
       <r>    4.7836    1.0000 </r>
       <r>    4.7836    1.0000 </r>
       <r>    4.7836    1.0000 </r>
       <r>    4.7836    1.0000 </r>
       <r>    4.7972    1.0000 </r>
       <r>    4.7972    1.0000 </r>
       <r>    4.7972    1.0000 </r>
       <r>    4.7972    1.0000 </r>
       <r>    4.8345    1.0000 </r>
       <r>    4.8345    1.0000 </r>
[...]
      </set>
     </set>
    </set>
   </array>
  </eigenvalues>
  <separator name="orbital magnetization" >
   <v name="MAGDIPOLOUT">      0.00000000      0.00000000      0.00000000</v>
  </separator>
  <dos>
   <i name="efermi">      6.41130049 </i>
   <total>
    <array>
     <dimension dim="1">gridpoints</dimension>
     <dimension dim="2">spin</dimension>
     <field>energy</field>
     <field>total</field>
     <field>integrated</field>
     <set>
      <set comment="spin 1">
       <r>    -8.0935     0.0000     0.0000 </r>
       <r>    -8.0279     0.0000     0.0000 </r>
       <r>    -7.9622     0.0000     0.0000 </r>
       <r>    -7.8966     0.0000     0.0000 </r>
       <r>    -7.8310     0.0000     0.0000 </r>
       <r>    -7.7653     0.0000     0.0000 </r>
       <r>    -7.6997    -0.0000    -0.0000 </r>
       <r>    -7.6340    -0.0000    -0.0000 </r>
       <r>    -7.5684    -0.0000    -0.0000 </r>
       <r>    -7.5028    -0.0000    -0.0000 </r>
       <r>    -7.4371    -0.0000    -0.0000 </r>
       <r>    -7.3715    -0.0000    -0.0000 </r>
       <r>    -7.3059    -0.0000    -0.0000 </r>
       <r>    -7.2402    -0.0000    -0.0000 </r>
       <r>    -7.1746    -0.0000    -0.0000 </r>
       <r>    -7.1089    -0.0000    -0.0000 </r>
       <r>    -7.0433    -0.0000    -0.0000 </r>
       <r>    -6.9777    -0.0000    -0.0000 </r>
       <r>    -6.9120    -0.0000    -0.0000 </r>
       <r>    -6.8464    -0.0000    -0.0000 </r>
       <r>    -6.7808    -0.0000    -0.0000 </r>
       <r>    -6.7151    -0.0002    -0.0000 </r>
       <r>    -6.6495    -0.0010    -0.0001 </r>
       <r>    -6.5839    -0.0043    -0.0004 </r>
       <r>    -6.5182    -0.0146    -0.0013 </r>
       <r>    -6.4526    -0.0362    -0.0037 </r>
       <r>    -6.3869    -0.0587    -0.0075 </r>
       <r>    -6.3213    -0.0366    -0.0100 </r>
       <r>    -6.2557     0.0944    -0.0038 </r>
       <r>    -6.1900     0.3320     0.0180 </r>
       <r>    -6.1244     0.5656     0.0552 </r>
       <r>    -6.0588     0.7739     0.1060 </r>
       <r>    -5.9931     1.2909     0.1907 </r>
       <r>    -5.9275     2.5398     0.3574 </r>
       <r>    -5.8618     4.2676     0.6375 </r>
       <r>    -5.7962     5.5475     1.0016 </r>
       <r>    -5.7306     6.1285     1.4039 </r>
       <r>    -5.6649     7.1479     1.8731 </r>
       <r>    -5.5993     9.4243     2.4916 </r>
       <r>    -5.5337    11.6415     3.2558 </r>
       <r>    -5.4680    11.8000     4.0303 </r>
       <r>    -5.4024    10.0964     4.6930 </r>
       <r>    -5.3367     8.5411     5.2536 </r>
       <r>    -5.2711     7.9346     5.7744 </r>
       <r>    -5.2055     7.1980     6.2469 </r>
       <r>    -5.1398     5.7221     6.6224 </r>
       <r>    -5.0742     4.4220     6.9127 </r>
       <r>    -5.0086     4.2242     7.1900 </r>
       <r>    -4.9429     5.3743     7.5427 </r>
       <r>    -4.8773     8.5528     8.1041 </r>
       <r>    -4.8116    14.4218     9.0507 </r>
       <r>    -4.7460    21.2810    10.4475 </r>
       <r>    -4.6804    25.7565    12.1381 </r>
       <r>    -4.6147    26.9780    13.9089 </r>
       <r>    -4.5491    27.1215    15.6891 </r>
       <r>    -4.4835    26.7013    17.4417 </r>
       <r>    -4.4178    23.0443    18.9542 </r>
       <r>    -4.3522    14.9957    19.9385 </r>
       <r>    -4.2865     5.7615    20.3167 </r>
       <r>    -4.2209    -0.3144    20.2961 </r>
       <r>    -4.1553    -1.2946    20.2111 </r>
       <r>    -4.0896     2.6121    20.3825 </r>
       <r>    -4.0240    10.4108    21.0659 </r>
       <r>    -3.9584    20.1536    22.3887 </r>
       <r>    -3.8927    28.4279    24.2546 </r>
       <r>    -3.8271    31.5315    26.3243 </r>
       <r>    -3.7614    28.1663    28.1730 </r>
       <r>    -3.6958    20.9188    29.5461 </r>
       <r>    -3.6302    14.5545    30.5014 </r>
       <r>    -3.5645    13.0420    31.3575 </r>
       <r>    -3.4989    17.8037    32.5260 </r>
       <r>    -3.4333    27.0111    34.2990 </r>
       <r>    -3.3676    36.2127    36.6759 </r>
       <r>    -3.3020    41.2904    39.3861 </r>
       <r>    -3.2363    41.3251    42.0986 </r>
       <r>    -3.1707    37.9733    44.5910 </r>
       <r>    -3.1051    32.9421    46.7532 </r>
       <r>    -3.0394    27.7057    48.5718 </r>
       <r>    -2.9738    24.5291    50.1818 </r>
       <r>    -2.9082    24.5107    51.7906 </r>
       <r>    -2.8425    24.7638    53.4160 </r>
       <r>    -2.7769    20.9585    54.7917 </r>
       <r>    -2.7112    12.8508    55.6352 </r>
       <r>    -2.6456     4.5318    55.9327 </r>
       <r>    -2.5800    -0.4899    55.9005 </r>
       <r>    -2.5143    -1.9989    55.7693 </r>
       <r>    -2.4487    -1.2244    55.6889 </r>
       <r>    -2.3831     1.4053    55.7812 </r>
       <r>    -2.3174     5.7791    56.1605 </r>
       <r>    -2.2518    10.3022    56.8367 </r>
       <r>    -2.1861    12.0533    57.6279 </r>
       <r>    -2.1205     9.4799    58.2501 </r>
       <r>    -2.0549     4.4006    58.5389 </r>
       <r>    -1.9892     0.9116    58.5988 </r>
       <r>    -1.9236     2.7755    58.7809 </r>
       <r>    -1.8580    11.3587    59.5265 </r>
       <r>    -1.7923    24.1741    61.1132 </r>
       <r>    -1.7267    34.9876    63.4097 </r>
       <r>    -1.6610    37.3913    65.8640 </r>
       <r>    -1.5954    29.8811    67.8253 </r>
       <r>    -1.5298    17.1387    68.9502 </r>
       <r>    -1.4641     6.0925    69.3501 </r>
       <r>    -1.3985     1.1723    69.4271 </r>
       <r>    -1.3329     2.6453    69.6007 </r>
       <r>    -1.2672     7.5608    70.0970 </r>
       <r>    -1.2016    11.7204    70.8663 </r>
       <r>    -1.1359    12.3078    71.6741 </r>
       <r>    -1.0703    10.0355    72.3328 </r>
       <r>    -1.0047     8.6710    72.9020 </r>
       <r>    -0.9390    11.5720    73.6615 </r>
       <r>    -0.8734    17.8139    74.8308 </r>
       <r>    -0.8078    22.2574    76.2917 </r>
       <r>    -0.7421    21.2664    77.6876 </r>
       <r>    -0.6765    18.2277    78.8840 </r>
       <r>    -0.6108    21.0174    80.2635 </r>
       <r>    -0.5452    33.4082    82.4563 </r>
       <r>    -0.4796    50.2034    85.7516 </r>
       <r>    -0.4139    60.7030    89.7359 </r>
       <r>    -0.3483    56.8401    93.4668 </r>
       <r>    -0.2827    39.6012    96.0661 </r>
       <r>    -0.2170    18.3450    97.2702 </r>
       <r>    -0.1514     3.4617    97.4974 </r>
       <r>    -0.0858    -0.1590    97.4870 </r>
       <r>    -0.0201     6.0508    97.8842 </r>
       <r>     0.0455    16.4509    98.9639 </r>
       <r>     0.1112    23.8707   100.5308 </r>
       <r>     0.1768    23.8199   102.0942 </r>
       <r>     0.2424    17.6573   103.2532 </r>
       <r>     0.3081    10.4393   103.9384 </r>
       <r>     0.3737     6.1074   104.3393 </r>
       <r>     0.4393     5.9187   104.7278 </r>
       <r>     0.5050     9.8396   105.3736 </r>
       <r>     0.5706    17.0405   106.4921 </r>
       <r>     0.6363    25.0628   108.1372 </r>
       <r>     0.7019    29.8542   110.0967 </r>
       <r>     0.7675    27.9771   111.9331 </r>
       <r>     0.8332    19.7233   113.2277 </r>
       <r>     0.8988     9.4813   113.8500 </r>
       <r>     0.9644     2.0360   113.9836 </r>
       <r>     1.0301    -1.0844   113.9124 </r>
       <r>     1.0957    -1.3906   113.8212 </r>
       <r>     1.1614    -0.9340   113.7599 </r>
       <r>     1.2270    -0.8381   113.7048 </r>
       <r>     1.2926    -1.3359   113.6172 </r>
       <r>     1.3583    -1.9007   113.4924 </r>
       <r>     1.4239    -0.8765   113.4349 </r>
       <r>     1.4895     4.4075   113.7242 </r>
       <r>     1.5552    15.7994   114.7612 </r>
       <r>     1.6208    31.5129   116.8296 </r>
       <r>     1.6865    45.3615   119.8070 </r>
       <r>     1.7521    50.1090   123.0961 </r>
       <r>     1.8177    43.0854   125.9241 </r>
       <r>     1.8834    29.3004   127.8473 </r>
       <r>     1.9490    18.3289   129.0503 </r>
       <r>     2.0146    16.4809   130.1321 </r>
       <r>     2.0803    21.3940   131.5363 </r>
       <r>     2.1459    25.0419   133.1800 </r>
       <r>     2.2116    22.5432   134.6597 </r>
       <r>     2.2772    17.8961   135.8344 </r>
       <r>     2.3428    20.9882   137.2120 </r>
       <r>     2.4085    38.3712   139.7306 </r>
       <r>     2.4741    65.4042   144.0235 </r>
       <r>     2.5397    86.9269   149.7292 </r>
       <r>     2.6054    87.9931   155.5048 </r>
       <r>     2.6710    66.5780   159.8748 </r>
       <r>     2.7367    35.3216   162.1932 </r>
       <r>     2.8023     9.8380   162.8390 </r>
       <r>     2.8679    -3.2526   162.6255 </r>
       <r>     2.9336    -6.6434   162.1894 </r>
       <r>     2.9992    -4.4116   161.8998 </r>
       <r>     3.0648     3.3418   162.1192 </r>
       <r>     3.1305    18.5248   163.3351 </r>
       <r>     3.1961    39.7119   165.9417 </r>
       <r>     3.2618    60.5763   169.9178 </r>
       <r>     3.3274    74.2855   174.7937 </r>
       <r>     3.3930    78.2276   179.9283 </r>
       <r>     3.4587    73.8946   184.7786 </r>
       <r>     3.5243    64.0393   188.9819 </r>
       <r>     3.5899    51.5583   192.3661 </r>
       <r>     3.6556    40.6712   195.0356 </r>
       <r>     3.7212    36.6186   197.4392 </r>
       <r>     3.7869    40.6412   200.1068 </r>
       <r>     3.8525    45.7389   203.1090 </r>
       <r>     3.9181    42.5679   205.9030 </r>
       <r>     3.9838    30.8525   207.9281 </r>
       <r>     4.0494    20.4731   209.2719 </r>
       <r>     4.1150    19.8336   210.5737 </r>
       <r>     4.1807    26.9707   212.3440 </r>
       <r>     4.2463    33.8968   214.5689 </r>
       <r>     4.3120    36.5094   216.9653 </r>
       <r>     4.3776    36.9885   219.3931 </r>
       <r>     4.4432    38.0733   221.8921 </r>
       <r>     4.5089    39.5708   224.4894 </r>
       <r>     4.5745    41.1379   227.1896 </r>
       <r>     4.6401    44.3829   230.1028 </r>
       <r>     4.7058    50.0204   233.3860 </r>
       <r>     4.7714    54.7322   236.9785 </r>
       <r>     4.8371    52.7734   240.4424 </r>
       <r>     4.9027    41.3244   243.1548 </r>
       <r>     4.9683    24.0584   244.7339 </r>
       <r>     5.0340     8.8497   245.3148 </r>
       <r>     5.0996     2.1638   245.4568 </r>
       <r>     5.1652     5.5317   245.8199 </r>
       <r>     5.2309    15.3122   246.8250 </r>
       <r>     5.2965    24.4711   248.4312 </r>
       <r>     5.3622    26.5732   250.1754 </r>
       <r>     5.4278    20.3752   251.5128 </r>
       <r>     5.4934    10.3806   252.1941 </r>
       <r>     5.5591     2.4860   252.3573 </r>
       <r>     5.6247    -0.2046   252.3439 </r>
       <r>     5.6903     2.0800   252.4804 </r>
       <r>     5.7560     6.9984   252.9398 </r>
       <r>     5.8216    11.1448   253.6713 </r>
       <r>     5.8872    11.8035   254.4460 </r>
       <r>     5.9529     9.0472   255.0399 </r>
       <r>     6.0185     5.4457   255.3973 </r>
       <r>     6.0842     3.2233   255.6089 </r>
       <r>     6.1498     2.3876   255.7656 </r>
       <r>     6.2154     1.7386   255.8797 </r>
       <r>     6.2811     0.7531   255.9291 </r>
       <r>     6.3467     0.1170   255.9368 </r>
       <r>     6.4123     0.9965   256.0022 </r>
       <r>     6.4780     3.9620   256.2623 </r>
       <r>     6.5436     8.0929   256.7935 </r>
       <r>     6.6093    11.0840   257.5210 </r>
       <r>     6.6749    10.8960   258.2362 </r>
       <r>     6.7405     7.5687   258.7330 </r>
       <r>     6.8062     3.1544   258.9400 </r>
       <r>     6.8718     0.0939   258.9462 </r>
       <r>     6.9374     0.0849   258.9518 </r>
       <r>     7.0031     3.7749   259.1995 </r>
       <r>     7.0687    10.0011   259.8560 </r>
       <r>     7.1344    15.2981   260.8601 </r>
       <r>     7.2000    16.1847   261.9224 </r>
       <r>     7.2656    13.2961   262.7952 </r>
       <r>     7.3313    11.9506   263.5796 </r>
       <r>     7.3969    16.6193   264.6704 </r>
       <r>     7.4625    25.0154   266.3124 </r>
       <r>     7.5282    29.5810   268.2540 </r>
       <r>     7.5938    25.4233   269.9227 </r>
       <r>     7.6595    15.4217   270.9349 </r>
       <r>     7.7251     7.5226   271.4287 </r>
       <r>     7.7907     8.7938   272.0059 </r>
       <r>     7.8564    21.0169   273.3854 </r>
       <r>     7.9220    38.4367   275.9083 </r>
       <r>     7.9876    50.1503   279.2000 </r>
       <r>     8.0533    48.7686   282.4011 </r>
       <r>     8.1189    37.5887   284.8683 </r>
       <r>     8.1846    27.1331   286.6492 </r>
       <r>     8.2502    25.3691   288.3144 </r>
       <r>     8.3158    33.3594   290.5040 </r>
       <r>     8.3815    48.0026   293.6548 </r>
       <r>     8.4471    64.2141   297.8696 </r>
       <r>     8.5127    74.7822   302.7781 </r>
       <r>     8.5784    73.2517   307.5862 </r>
       <r>     8.6440    59.3517   311.4819 </r>
       <r>     8.7097    39.8911   314.1002 </r>
       <r>     8.7753    23.3510   315.6329 </r>
       <r>     8.8409    13.9583   316.5491 </r>
       <r>     8.9066    10.7467   317.2545 </r>
       <r>     8.9722    11.2994   317.9961 </r>
       <r>     9.0378    14.5257   318.9496 </r>
       <r>     9.1035    18.9559   320.1938 </r>
       <r>     9.1691    20.9671   321.5700 </r>
       <r>     9.2348    17.6437   322.7281 </r>
       <r>     9.3004    10.3963   323.4105 </r>
       <r>     9.3660     3.5796   323.6454 </r>
       <r>     9.4317     0.1540   323.6556 </r>
       <r>     9.4973    -0.0871   323.6498 </r>
       <r>     9.5629     0.9832   323.7144 </r>
       <r>     9.6286     1.7464   323.8290 </r>
       <r>     9.6942     1.6299   323.9360 </r>
       <r>     9.7599     0.9499   323.9983 </r>
       <r>     9.8255     0.2893   324.0173 </r>
       <r>     9.8911    -0.0467   324.0143 </r>
       <r>     9.9568    -0.1098   324.0071 </r>
       <r>    10.0224    -0.0692   324.0025 </r>
       <r>    10.0880    -0.0279   324.0007 </r>
       <r>    10.1537    -0.0081   324.0001 </r>
       <r>    10.2193    -0.0018   324.0000 </r>
       <r>    10.2850    -0.0003   324.0000 </r>
       <r>    10.3506    -0.0000   324.0000 </r>
       <r>    10.4162    -0.0000   324.0000 </r>
       <r>    10.4819    -0.0000   324.0000 </r>
       <r>    10.5475    -0.0000   324.0000 </r>
       <r>    10.6131    -0.0000   324.0000 </r>
       <r>    10.6788    -0.0000   324.0000 </r>
       <r>    10.7444    -0.0000   324.0000 </r>
       <r>    10.8101    -0.0000   324.0000 </r>
       <r>    10.8757    -0.0000   324.0000 </r>
       <r>    10.9413     0.0000   324.0000 </r>
       <r>    11.0070     0.0000   324.0000 </r>
       <r>    11.0726     0.0000   324.0000 </r>
       <r>    11.1382     0.0000   324.0000 </r>
       <r>    11.2039     0.0000   324.0000 </r>
       <r>    11.2695     0.0000   324.0000 </r>
       <r>    11.3352     0.0000   324.0000 </r>
       <r>    11.4008     0.0000   324.0000 </r>
       <r>    11.4664     0.0000   324.0000 </r>
       <r>    11.5321     0.0000   324.0000 </r>
       <r>    11.5977     0.0000   324.0000 </r>
      </set>
     </set>
    </array>
   </total>
  </dos>
 </calculation>
 <structure name="finalpos" >
  <crystal>
   <varray name="basis" >
    <v>      10.71031258      -0.02691000       0.00000000 </v>
    <v>      -0.02691000      10.76413359       0.00000000 </v>
    <v>       0.00000000       0.00000000      10.76413359 </v>
   </varray>
   <i name="volume">   1240.95940838 </i>
   <varray name="rec_basis" >
    <v>       0.09336854       0.00023342       0.00000000 </v>
    <v>       0.00023342       0.09290170       0.00000000 </v>
    <v>       0.00000000       0.00000000       0.09290111 </v>
   </varray>
  </crystal>
  <varray name="positions" >
   <v>       0.00000000       0.00000000       0.99981588 </v>
   <v>       0.00000000       0.00000000       0.49981588 </v>
   <v>       0.00000000       0.50000000       0.99981588 </v>
   <v>       0.00000000       0.50000000       0.49981588 </v>
   <v>       0.50000000       0.00000000       0.99981588 </v>
   <v>       0.50000000       0.00000000       0.49981588 </v>
   <v>       0.50000000       0.50000000       0.99981588 </v>
   <v>       0.50000000       0.50000000       0.49981588 </v>
   <v>       0.37500000       0.37500000       0.12518412 </v>
   <v>       0.37500000       0.37500000       0.62518412 </v>
   <v>       0.37500000       0.87500000       0.12518412 </v>
   <v>       0.37500000       0.87500000       0.62518412 </v>
   <v>       0.87500000       0.37500000       0.12518412 </v>
   <v>       0.87500000       0.37500000       0.62518412 </v>
   <v>       0.87500000       0.87500000       0.12518412 </v>
   <v>       0.87500000       0.87500000       0.62518412 </v>
   <v>       0.00000000       0.25000000       0.24981588 </v>
   <v>       0.00000000       0.25000000       0.74981588 </v>
   <v>       0.00000000       0.75000000       0.24981588 </v>
   <v>       0.00000000       0.75000000       0.74981588 </v>
   <v>       0.50000000       0.25000000       0.24981588 </v>
   <v>       0.50000000       0.25000000       0.74981588 </v>
   <v>       0.50000000       0.75000000       0.24981588 </v>
   <v>       0.50000000       0.75000000       0.74981588 </v>
   <v>       0.37500000       0.12500000       0.37518412 </v>
   <v>       0.37500000       0.12500000       0.87518412 </v>
   <v>       0.37500000       0.62500000       0.37518412 </v>
   <v>       0.37500000       0.62500000       0.87518412 </v>
   <v>       0.87500000       0.12500000       0.37518412 </v>
   <v>       0.87500000       0.12500000       0.87518412 </v>
   <v>       0.87500000       0.62500000       0.37518412 </v>
   <v>       0.87500000       0.62500000       0.87518412 </v>
   <v>       0.25000000       0.00000000       0.24981588 </v>
   <v>       0.25000000       0.00000000       0.74981588 </v>
   <v>       0.25000000       0.50000000       0.24981588 </v>
   <v>       0.25000000       0.50000000       0.74981588 </v>
   <v>       0.75000000       0.00000000       0.24981588 </v>
   <v>       0.75000000       0.00000000       0.74981588 </v>
   <v>       0.75000000       0.50000000       0.24981588 </v>
   <v>       0.75000000       0.50000000       0.74981588 </v>
   <v>       0.12500000       0.37500000       0.37518412 </v>
   <v>       0.12500000       0.37500000       0.87518412 </v>
   <v>       0.12500000       0.87500000       0.37518412 </v>
   <v>       0.12500000       0.87500000       0.87518412 </v>
   <v>       0.62500000       0.37500000       0.37518412 </v>
   <v>       0.62500000       0.37500000       0.87518412 </v>
   <v>       0.62500000       0.87500000       0.37518412 </v>
   <v>       0.62500000       0.87500000       0.87518412 </v>
   <v>       0.25000000       0.25000000       0.99981588 </v>
   <v>       0.25000000       0.25000000       0.49981588 </v>
   <v>       0.25000000       0.75000000       0.99981588 </v>
   <v>       0.25000000       0.75000000       0.49981588 </v>
   <v>       0.75000000       0.25000000       0.99981588 </v>
   <v>       0.75000000       0.25000000       0.49981588 </v>
   <v>       0.75000000       0.75000000       0.99981588 </v>
   <v>       0.75000000       0.75000000       0.49981588 </v>
   <v>       0.12500000       0.12500000       0.12518412 </v>
   <v>       0.12500000       0.12500000       0.62518412 </v>
   <v>       0.12500000       0.62500000       0.12518412 </v>
   <v>       0.12500000       0.62500000       0.62518412 </v>
   <v>       0.62500000       0.12500000       0.12518412 </v>
   <v>       0.62500000       0.12500000       0.62518412 </v>
   <v>       0.62500000       0.62500000       0.12518412 </v>
   <v>       0.62500000       0.62500000       0.62518412 </v>
  </varray>
 </structure>
</modeling>
