Si64                                    
           1
    10.710313   -0.026910    0.000000
    -0.026910   10.764134    0.000000
     0.000000    0.000000   10.764134
   Si
    64
Direct configuration=     1
   0.00000000  0.00000000  0.00000000
   0.00000000  0.00000000  0.50000000
   0.00000000  0.50000000  0.00000000
   0.00000000  0.50000000  0.50000000
   0.50000000  0.00000000  0.00000000
   0.50000000  0.00000000  0.50000000
   0.50000000  0.50000000  0.00000000
   0.50000000  0.50000000  0.50000000
   0.37500000  0.37500000  0.12500000
   0.37500000  0.37500000  0.62500000
   0.37500000  0.87500000  0.12500000
   0.37500000  0.87500000  0.62500000
   0.87500000  0.37500000  0.12500000
   0.87500000  0.37500000  0.62500000
   0.87500000  0.87500000  0.12500000
   0.87500000  0.87500000  0.62500000
   0.00000000  0.25000000  0.25000000
   0.00000000  0.25000000  0.75000000
   0.00000000  0.75000000  0.25000000
   0.00000000  0.75000000  0.75000000
   0.50000000  0.25000000  0.25000000
   0.50000000  0.25000000  0.75000000
   0.50000000  0.75000000  0.25000000
   0.50000000  0.75000000  0.75000000
   0.37500000  0.12500000  0.37500000
   0.37500000  0.12500000  0.87500000
   0.37500000  0.62500000  0.37500000
   0.37500000  0.62500000  0.87500000
   0.87500000  0.12500000  0.37500000
   0.87500000  0.12500000  0.87500000
   0.87500000  0.62500000  0.37500000
   0.87500000  0.62500000  0.87500000
   0.25000000  0.00000000  0.25000000
   0.25000000  0.00000000  0.75000000
   0.25000000  0.50000000  0.25000000
   0.25000000  0.50000000  0.75000000
   0.75000000  0.00000000  0.25000000
   0.75000000  0.00000000  0.75000000
   0.75000000  0.50000000  0.25000000
   0.75000000  0.50000000  0.75000000
   0.12500000  0.37500000  0.37500000
   0.12500000  0.37500000  0.87500000
   0.12500000  0.87500000  0.37500000
   0.12500000  0.87500000  0.87500000
   0.62500000  0.37500000  0.37500000
   0.62500000  0.37500000  0.87500000
   0.62500000  0.87500000  0.37500000
   0.62500000  0.87500000  0.87500000
   0.25000000  0.25000000  0.00000000
   0.25000000  0.25000000  0.50000000
   0.25000000  0.75000000  0.00000000
   0.25000000  0.75000000  0.50000000
   0.75000000  0.25000000  0.00000000
   0.75000000  0.25000000  0.50000000
   0.75000000  0.75000000  0.00000000
   0.75000000  0.75000000  0.50000000
   0.12500000  0.12500000  0.12500000
   0.12500000  0.12500000  0.62500000
   0.12500000  0.62500000  0.12500000
   0.12500000  0.62500000  0.62500000
   0.62500000  0.12500000  0.12500000
   0.62500000  0.12500000  0.62500000
   0.62500000  0.62500000  0.12500000
   0.62500000  0.62500000  0.62500000
Direct configuration=     2
   0.00000000  1.00000000  0.99974506
   0.00000000  1.00000000  0.49974506
   1.00000000  0.50000000  0.99974506
   1.00000000  0.50000000  0.49974506
   0.50000000  0.00000000  0.99974506
   0.50000000  1.00000000  0.49974506
   0.50000000  0.50000000  0.99974506
   0.50000000  0.50000000  0.49974506
   0.37500000  0.37500000  0.12525494
   0.37500000  0.37500000  0.62525494
   0.37500000  0.87500000  0.12525494
   0.37500000  0.87500000  0.62525494
   0.87500000  0.37500000  0.12525494
   0.87500000  0.37500000  0.62525494
   0.87500000  0.87500000  0.12525494
   0.87500000  0.87500000  0.62525494
   0.00000000  0.25000000  0.24974506
   0.00000000  0.25000000  0.74974506
   1.00000000  0.75000000  0.24974506
   1.00000000  0.75000000  0.74974506
   0.50000000  0.25000000  0.24974506
   0.50000000  0.25000000  0.74974506
   0.50000000  0.75000000  0.24974506
   0.50000000  0.75000000  0.74974506
   0.37500000  0.12500000  0.37525494
   0.37500000  0.12500000  0.87525494
   0.37500000  0.62500000  0.37525494
   0.37500000  0.62500000  0.87525494
   0.87500000  0.12500000  0.37525494
   0.87500000  0.12500000  0.87525494
   0.87500000  0.62500000  0.37525494
   0.87500000  0.62500000  0.87525494
   0.25000000  1.00000000  0.24974506
   0.25000000  0.00000000  0.74974506
   0.25000000  0.50000000  0.24974506
   0.25000000  0.50000000  0.74974506
   0.75000000  1.00000000  0.24974506
   0.75000000  0.00000000  0.74974506
   0.75000000  0.50000000  0.24974506
   0.75000000  0.50000000  0.74974506
   0.12500000  0.37500000  0.37525494
   0.12500000  0.37500000  0.87525494
   0.12500000  0.87500000  0.37525494
   0.12500000  0.87500000  0.87525494
   0.62500000  0.37500000  0.37525494
   0.62500000  0.37500000  0.87525494
   0.62500000  0.87500000  0.37525494
   0.62500000  0.87500000  0.87525494
   0.25000000  0.25000000  0.99974506
   0.25000000  0.25000000  0.49974506
   0.25000000  0.75000000  0.99974506
   0.25000000  0.75000000  0.49974506
   0.75000000  0.25000000  0.99974506
   0.75000000  0.25000000  0.49974506
   0.75000000  0.75000000  0.99974506
   0.75000000  0.75000000  0.49974506
   0.12500000  0.12500000  0.12525494
   0.12500000  0.12500000  0.62525494
   0.12500000  0.62500000  0.12525494
   0.12500000  0.62500000  0.62525494
   0.62500000  0.12500000  0.12525494
   0.62500000  0.12500000  0.62525494
   0.62500000  0.62500000  0.12525494
   0.62500000  0.62500000  0.62525494
Direct configuration=     3
   0.00000000  0.00000000  0.99981588
   0.00000000  0.00000000  0.49981588
   0.00000000  0.50000000  0.99981588
   0.00000000  0.50000000  0.49981588
   0.50000000  0.00000000  0.99981588
   0.50000000  0.00000000  0.49981588
   0.50000000  0.50000000  0.99981588
   0.50000000  0.50000000  0.49981588
   0.37500000  0.37500000  0.12518412
   0.37500000  0.37500000  0.62518412
   0.37500000  0.87500000  0.12518412
   0.37500000  0.87500000  0.62518412
   0.87500000  0.37500000  0.12518412
   0.87500000  0.37500000  0.62518412
   0.87500000  0.87500000  0.12518412
   0.87500000  0.87500000  0.62518412
   0.00000000  0.25000000  0.24981588
   0.00000000  0.25000000  0.74981588
   0.00000000  0.75000000  0.24981588
   0.00000000  0.75000000  0.74981588
   0.50000000  0.25000000  0.24981588
   0.50000000  0.25000000  0.74981588
   0.50000000  0.75000000  0.24981588
   0.50000000  0.75000000  0.74981588
   0.37500000  0.12500000  0.37518412
   0.37500000  0.12500000  0.87518412
   0.37500000  0.62500000  0.37518412
   0.37500000  0.62500000  0.87518412
   0.87500000  0.12500000  0.37518412
   0.87500000  0.12500000  0.87518412
   0.87500000  0.62500000  0.37518412
   0.87500000  0.62500000  0.87518412
   0.25000000  0.00000000  0.24981588
   0.25000000  0.00000000  0.74981588
   0.25000000  0.50000000  0.24981588
   0.25000000  0.50000000  0.74981588
   0.75000000  0.00000000  0.24981588
   0.75000000  0.00000000  0.74981588
   0.75000000  0.50000000  0.24981588
   0.75000000  0.50000000  0.74981588
   0.12500000  0.37500000  0.37518412
   0.12500000  0.37500000  0.87518412
   0.12500000  0.87500000  0.37518412
   0.12500000  0.87500000  0.87518412
   0.62500000  0.37500000  0.37518412
   0.62500000  0.37500000  0.87518412
   0.62500000  0.87500000  0.37518412
   0.62500000  0.87500000  0.87518412
   0.25000000  0.25000000  0.99981588
   0.25000000  0.25000000  0.49981588
   0.25000000  0.75000000  0.99981588
   0.25000000  0.75000000  0.49981588
   0.75000000  0.25000000  0.99981588
   0.75000000  0.25000000  0.49981588
   0.75000000  0.75000000  0.99981588
   0.75000000  0.75000000  0.49981588
   0.12500000  0.12500000  0.12518412
   0.12500000  0.12500000  0.62518412
   0.12500000  0.62500000  0.12518412
   0.12500000  0.62500000  0.62518412
   0.62500000  0.12500000  0.12518412
   0.62500000  0.12500000  0.62518412
   0.62500000  0.62500000  0.12518412
   0.62500000  0.62500000  0.62518412
