  64  64   0   0
  0.1843176E+02  0.1053093E-08  0.1058385E-08  0.1058381E-08  0.5000000E-15
  1.000000000000000E-004
  CAR 
 Si64                                    
     12.17785527     -7.92031412  301      6.86024553      1.00000000
     -7.920  0.0000E+00  0.0000E+00
     -7.853  0.0000E+00  0.0000E+00
     -7.786  0.0000E+00  0.0000E+00
     -7.719  0.0000E+00  0.0000E+00
     -7.652  0.0000E+00  0.0000E+00
     -7.585 -0.1160E-30 -0.7770E-32
     -7.518 -0.2619E-28 -0.1762E-29
     -7.451 -0.4732E-26 -0.3188E-27
     -7.384 -0.6816E-24 -0.4599E-25
     -7.317 -0.7826E-22 -0.5289E-23
     -7.250 -0.7159E-20 -0.4849E-21
     -7.183 -0.5217E-18 -0.3543E-19
     -7.116 -0.3026E-16 -0.2063E-17
     -7.049 -0.1352E-14 -0.9265E-16
     -6.982 -0.4949E-13 -0.3408E-14
     -6.915 -0.1436E-11 -0.9964E-13
     -6.848 -0.3306E-10 -0.2314E-11
     -6.781 -0.6022E-09 -0.4266E-10
     -6.714 -0.8666E-08 -0.6233E-09
     -6.647 -0.9822E-07 -0.7204E-08
     -6.580 -0.8731E-06 -0.6570E-07
     -6.513 -0.6050E-05 -0.4710E-06
     -6.446 -0.3238E-04 -0.2640E-05
     -6.379 -0.1317E-03 -0.1146E-04
     -6.312 -0.3948E-03 -0.3791E-04
     -6.245 -0.8152E-03 -0.9252E-04
     -6.178 -0.9113E-03 -0.1536E-03
     -6.111  0.4532E-03 -0.1232E-03
     -6.044  0.4036E-02  0.1472E-03
     -5.977  0.8439E-02  0.7125E-03
     -5.910  0.1132E-01  0.1471E-02
     -5.844  0.1515E-01  0.2486E-02
     -5.777  0.2885E-01  0.4419E-02
     -5.710  0.5608E-01  0.8176E-02
     -5.643  0.8359E-01  0.1378E-01
     -5.576  0.9520E-01  0.2015E-01
     -5.509  0.9992E-01  0.2685E-01
     -5.442  0.1249E+00  0.3522E-01
     -5.375  0.1705E+00  0.4664E-01
     -5.308  0.1978E+00  0.5988E-01
     -5.241  0.1810E+00  0.7201E-01
     -5.174  0.1456E+00  0.8176E-01
     -5.107  0.1285E+00  0.9037E-01
     -5.040  0.1262E+00  0.9883E-01
     -4.973  0.1119E+00  0.1063E+00
     -4.906  0.8458E-01  0.1120E+00
     -4.839  0.6735E-01  0.1165E+00
     -4.772  0.6990E-01  0.1212E+00
     -4.705  0.9003E-01  0.1272E+00
     -4.638  0.1433E+00  0.1368E+00
     -4.571  0.2450E+00  0.1532E+00
     -4.504  0.3584E+00  0.1772E+00
     -4.437  0.4189E+00  0.2053E+00
     -4.370  0.4217E+00  0.2336E+00
     -4.303  0.4213E+00  0.2618E+00
     -4.236  0.4275E+00  0.2904E+00
     -4.169  0.3801E+00  0.3159E+00
     -4.102  0.2503E+00  0.3327E+00
     -4.035  0.9604E-01  0.3391E+00
     -3.968 -0.6339E-02  0.3387E+00
     -3.901 -0.2854E-01  0.3368E+00
     -3.834  0.2105E-01  0.3382E+00
     -3.767  0.1282E+00  0.3468E+00
     -3.700  0.2727E+00  0.3650E+00
     -3.633  0.4147E+00  0.3928E+00
     -3.566  0.4987E+00  0.4262E+00
     -3.499  0.4843E+00  0.4587E+00
     -3.432  0.3860E+00  0.4845E+00
     -3.365  0.2709E+00  0.5027E+00
     -3.298  0.2113E+00  0.5168E+00
     -3.231  0.2467E+00  0.5333E+00
     -3.164  0.3686E+00  0.5580E+00
     -3.097  0.5180E+00  0.5927E+00
     -3.030  0.6189E+00  0.6342E+00
     -2.963  0.6368E+00  0.6769E+00
     -2.896  0.5973E+00  0.7169E+00
     -2.829  0.5416E+00  0.7532E+00
     -2.762  0.4833E+00  0.7855E+00
     -2.695  0.4270E+00  0.8141E+00
     -2.628  0.4000E+00  0.8409E+00
     -2.561  0.4125E+00  0.8686E+00
     -2.494  0.4080E+00  0.8959E+00
     -2.427  0.3231E+00  0.9176E+00
     -2.360  0.1768E+00  0.9294E+00
     -2.293  0.4765E-01  0.9326E+00
     -2.226 -0.1795E-01  0.9314E+00
     -2.159 -0.3225E-01  0.9292E+00
     -2.092 -0.2032E-01  0.9279E+00
     -2.025  0.1576E-01  0.9289E+00
     -1.958  0.8299E-01  0.9345E+00
     -1.891  0.1616E+00  0.9453E+00
     -1.824  0.2012E+00  0.9588E+00
     -1.757  0.1673E+00  0.9700E+00
     -1.690  0.8418E-01  0.9756E+00
     -1.623  0.2045E-01  0.9770E+00
     -1.556  0.4092E-01  0.9797E+00
     -1.489  0.1701E+00  0.9911E+00
     -1.422  0.3717E+00  0.1016E+01
     -1.355  0.5502E+00  0.1053E+01
     -1.288  0.6028E+00  0.1093E+01
     -1.221  0.4979E+00  0.1127E+01
     -1.154  0.3000E+00  0.1147E+01
     -1.087  0.1166E+00  0.1155E+01
     -1.020  0.2755E-01  0.1156E+01
     -0.953  0.5115E-01  0.1160E+01
     -0.886  0.1440E+00  0.1169E+01
     -0.819  0.2250E+00  0.1185E+01
     -0.752  0.2347E+00  0.1200E+01
     -0.685  0.1975E+00  0.1214E+01
     -0.618  0.2002E+00  0.1227E+01
     -0.551  0.2817E+00  0.1246E+01
     -0.484  0.3647E+00  0.1270E+01
     -0.417  0.3409E+00  0.1293E+01
     -0.350  0.2218E+00  0.1308E+01
     -0.283  0.1622E+00  0.1319E+01
     -0.216  0.3141E+00  0.1340E+01
     -0.149  0.6575E+00  0.1384E+01
     -0.082  0.9859E+00  0.1450E+01
     -0.015  0.1074E+01  0.1522E+01
      0.052  0.8662E+00  0.1580E+01
      0.119  0.5031E+00  0.1614E+01
      0.186  0.1759E+00  0.1625E+01
      0.253 -0.1046E-01  0.1625E+01
      0.320 -0.5074E-01  0.1621E+01
      0.387  0.2519E-01  0.1623E+01
      0.454  0.1803E+00  0.1635E+01
      0.521  0.3422E+00  0.1658E+01
      0.588  0.4143E+00  0.1686E+01
      0.655  0.3575E+00  0.1710E+01
      0.722  0.2311E+00  0.1725E+01
      0.789  0.1290E+00  0.1734E+01
      0.856  0.1083E+00  0.1741E+01
      0.923  0.1847E+00  0.1753E+01
      0.990  0.3382E+00  0.1776E+01
      1.057  0.4948E+00  0.1809E+01
      1.124  0.5494E+00  0.1846E+01
      1.191  0.4523E+00  0.1876E+01
      1.258  0.2618E+00  0.1894E+01
      1.325  0.8807E-01  0.1900E+01
      1.392 -0.5090E-02  0.1899E+01
      1.459 -0.2934E-01  0.1897E+01
      1.526 -0.2752E-01  0.1896E+01
      1.593 -0.2733E-01  0.1894E+01
      1.660 -0.2593E-01  0.1892E+01
      1.727  0.7586E-02  0.1893E+01
      1.794  0.1127E+00  0.1900E+01
      1.861  0.2920E+00  0.1920E+01
      1.928  0.4725E+00  0.1951E+01
      1.995  0.5443E+00  0.1988E+01
      2.062  0.4731E+00  0.2020E+01
      2.129  0.3583E+00  0.2044E+01
      2.196  0.3361E+00  0.2066E+01
      2.263  0.4289E+00  0.2095E+01
      2.330  0.5379E+00  0.2131E+01
      2.397  0.5723E+00  0.2169E+01
      2.464  0.5251E+00  0.2204E+01
      2.531  0.4270E+00  0.2233E+01
      2.598  0.3124E+00  0.2254E+01
      2.665  0.2609E+00  0.2271E+01
      2.732  0.3928E+00  0.2298E+01
      2.799  0.7490E+00  0.2348E+01
      2.866  0.1182E+01  0.2427E+01
      2.933  0.1421E+01  0.2522E+01
      3.000  0.1294E+01  0.2609E+01
      3.067  0.8820E+00  0.2668E+01
      3.134  0.4334E+00  0.2697E+01
      3.201  0.1309E+00  0.2706E+01
      3.268 -0.1213E-01  0.2705E+01
      3.335 -0.5984E-01  0.2701E+01
      3.402 -0.3264E-01  0.2699E+01
      3.469  0.1097E+00  0.2706E+01
      3.536  0.3888E+00  0.2732E+01
      3.603  0.7290E+00  0.2781E+01
      3.670  0.9892E+00  0.2847E+01
      3.737  0.1088E+01  0.2920E+01
      3.804  0.1067E+01  0.2992E+01
      3.871  0.1012E+01  0.3059E+01
      3.938  0.9568E+00  0.3124E+01
      4.005  0.8760E+00  0.3182E+01
      4.072  0.7639E+00  0.3233E+01
      4.139  0.6893E+00  0.3280E+01
      4.206  0.7190E+00  0.3328E+01
      4.273  0.7864E+00  0.3380E+01
      4.340  0.7336E+00  0.3430E+01
      4.407  0.5186E+00  0.3464E+01
      4.474  0.2880E+00  0.3484E+01
      4.541  0.2103E+00  0.3498E+01
      4.608  0.3073E+00  0.3518E+01
      4.675  0.4741E+00  0.3550E+01
      4.742  0.6042E+00  0.3591E+01
      4.809  0.6646E+00  0.3635E+01
      4.876  0.6734E+00  0.3680E+01
      4.943  0.6523E+00  0.3724E+01
      5.010  0.6231E+00  0.3766E+01
      5.077  0.6222E+00  0.3807E+01
      5.143  0.6757E+00  0.3853E+01
      5.210  0.7653E+00  0.3904E+01
      5.277  0.8282E+00  0.3959E+01
      5.344  0.7900E+00  0.4012E+01
      5.411  0.6182E+00  0.4054E+01
      5.478  0.3645E+00  0.4078E+01
      5.545  0.1442E+00  0.4088E+01
      5.612  0.5840E-01  0.4092E+01
      5.679  0.1302E+00  0.4100E+01
      5.746  0.2907E+00  0.4120E+01
      5.813  0.4180E+00  0.4148E+01
      5.880  0.4181E+00  0.4176E+01
      5.947  0.2949E+00  0.4196E+01
      6.014  0.1335E+00  0.4205E+01
      6.081  0.1945E-01  0.4206E+01
      6.148 -0.1352E-01  0.4205E+01
      6.215  0.2589E-01  0.4207E+01
      6.282  0.1070E+00  0.4214E+01
      6.349  0.1807E+00  0.4226E+01
      6.416  0.1991E+00  0.4239E+01
      6.483  0.1562E+00  0.4250E+01
      6.550  0.9347E-01  0.4256E+01
      6.617  0.5189E-01  0.4260E+01
      6.684  0.3501E-01  0.4262E+01
      6.751  0.2560E-01  0.4264E+01
      6.818  0.2249E-01  0.4265E+01
      6.885  0.4517E-01  0.4268E+01
      6.952  0.1029E+00  0.4275E+01
      7.019  0.1684E+00  0.4286E+01
      7.086  0.1941E+00  0.4299E+01
      7.153  0.1578E+00  0.4310E+01
      7.220  0.8342E-01  0.4315E+01
      7.287  0.1523E-01  0.4316E+01
      7.354 -0.1545E-01  0.4315E+01
      7.421  0.7609E-02  0.4316E+01
      7.488  0.8840E-01  0.4322E+01
      7.555  0.1988E+00  0.4335E+01
      7.622  0.2727E+00  0.4353E+01
      7.689  0.2635E+00  0.4371E+01
      7.756  0.2122E+00  0.4385E+01
      7.823  0.2205E+00  0.4400E+01
      7.890  0.3297E+00  0.4422E+01
      7.957  0.4530E+00  0.4453E+01
      8.024  0.4602E+00  0.4483E+01
      8.091  0.3179E+00  0.4505E+01
      8.158  0.1224E+00  0.4513E+01
      8.225  0.1350E-01  0.4514E+01
      8.292  0.8772E-01  0.4520E+01
      8.359  0.3503E+00  0.4543E+01
      8.426  0.6831E+00  0.4589E+01
      8.493  0.8822E+00  0.4648E+01
      8.560  0.8108E+00  0.4702E+01
      8.627  0.5337E+00  0.4738E+01
      8.694  0.2665E+00  0.4756E+01
      8.761  0.1898E+00  0.4769E+01
      8.828  0.3297E+00  0.4791E+01
      8.895  0.6044E+00  0.4831E+01
      8.962  0.9356E+00  0.4894E+01
      9.029  0.1256E+01  0.4978E+01
      9.096  0.1433E+01  0.5074E+01
      9.163  0.1322E+01  0.5163E+01
      9.230  0.9410E+00  0.5226E+01
      9.297  0.5071E+00  0.5260E+01
      9.364  0.2360E+00  0.5275E+01
      9.431  0.1721E+00  0.5287E+01
      9.498  0.2321E+00  0.5302E+01
      9.565  0.3226E+00  0.5324E+01
      9.632  0.3745E+00  0.5349E+01
      9.699  0.3405E+00  0.5372E+01
      9.766  0.2266E+00  0.5387E+01
      9.833  0.9598E-01  0.5394E+01
      9.900  0.1050E-01  0.5394E+01
      9.967 -0.1640E-01  0.5393E+01
     10.034 -0.6852E-02  0.5393E+01
     10.101  0.1406E-01  0.5394E+01
     10.168  0.3007E-01  0.5396E+01
     10.235  0.3291E-01  0.5398E+01
     10.302  0.2355E-01  0.5399E+01
     10.369  0.1043E-01  0.5400E+01
     10.436  0.1444E-02  0.5400E+01
     10.503 -0.1679E-02  0.5400E+01
     10.570 -0.1540E-02  0.5400E+01
     10.637 -0.7358E-03  0.5400E+01
     10.704 -0.2411E-03  0.5400E+01
     10.771 -0.5830E-04  0.5400E+01
     10.838 -0.1072E-04  0.5400E+01
     10.905 -0.1524E-05  0.5400E+01
     10.972 -0.1689E-06  0.5400E+01
     11.039 -0.1470E-07  0.5400E+01
     11.106 -0.1008E-08  0.5400E+01
     11.173 -0.5458E-10  0.5400E+01
     11.240 -0.2341E-11  0.5400E+01
     11.307 -0.7967E-13  0.5400E+01
     11.374 -0.2154E-14  0.5400E+01
     11.441 -0.4143E-16  0.5400E+01
     11.508  0.0000E+00  0.5400E+01
     11.575  0.0000E+00  0.5400E+01
     11.642  0.0000E+00  0.5400E+01
     11.709  0.0000E+00  0.5400E+01
     11.776  0.0000E+00  0.5400E+01
     11.843  0.0000E+00  0.5400E+01
     11.910  0.0000E+00  0.5400E+01
     11.977  0.0000E+00  0.5400E+01
     12.044  0.0000E+00  0.5400E+01
     12.111  0.0000E+00  0.5400E+01
     12.178  0.0000E+00  0.5400E+01
