Si64                                    
           1
    10.530894   -0.026460    0.000000
    -0.026460   10.583814    0.000000
     0.000000    0.000000   10.583814
   Si
    64
Direct configuration=     1
   0.00000000  0.00000000  0.00000000
   0.00000000  0.00000000  0.50000000
   0.00000000  0.50000000  0.00000000
   0.00000000  0.50000000  0.50000000
   0.50000000  0.00000000  0.00000000
   0.50000000  0.00000000  0.50000000
   0.50000000  0.50000000  0.00000000
   0.50000000  0.50000000  0.50000000
   0.37500000  0.37500000  0.12500000
   0.37500000  0.37500000  0.62500000
   0.37500000  0.87500000  0.12500000
   0.37500000  0.87500000  0.62500000
   0.87500000  0.37500000  0.12500000
   0.87500000  0.37500000  0.62500000
   0.87500000  0.87500000  0.12500000
   0.87500000  0.87500000  0.62500000
   0.00000000  0.25000000  0.25000000
   0.00000000  0.25000000  0.75000000
   0.00000000  0.75000000  0.25000000
   0.00000000  0.75000000  0.75000000
   0.50000000  0.25000000  0.25000000
   0.50000000  0.25000000  0.75000000
   0.50000000  0.75000000  0.25000000
   0.50000000  0.75000000  0.75000000
   0.37500000  0.12500000  0.37500000
   0.37500000  0.12500000  0.87500000
   0.37500000  0.62500000  0.37500000
   0.37500000  0.62500000  0.87500000
   0.87500000  0.12500000  0.37500000
   0.87500000  0.12500000  0.87500000
   0.87500000  0.62500000  0.37500000
   0.87500000  0.62500000  0.87500000
   0.25000000  0.00000000  0.25000000
   0.25000000  0.00000000  0.75000000
   0.25000000  0.50000000  0.25000000
   0.25000000  0.50000000  0.75000000
   0.75000000  0.00000000  0.25000000
   0.75000000  0.00000000  0.75000000
   0.75000000  0.50000000  0.25000000
   0.75000000  0.50000000  0.75000000
   0.12500000  0.37500000  0.37500000
   0.12500000  0.37500000  0.87500000
   0.12500000  0.87500000  0.37500000
   0.12500000  0.87500000  0.87500000
   0.62500000  0.37500000  0.37500000
   0.62500000  0.37500000  0.87500000
   0.62500000  0.87500000  0.37500000
   0.62500000  0.87500000  0.87500000
   0.25000000  0.25000000  0.00000000
   0.25000000  0.25000000  0.50000000
   0.25000000  0.75000000  0.00000000
   0.25000000  0.75000000  0.50000000
   0.75000000  0.25000000  0.00000000
   0.75000000  0.25000000  0.50000000
   0.75000000  0.75000000  0.00000000
   0.75000000  0.75000000  0.50000000
   0.12500000  0.12500000  0.12500000
   0.12500000  0.12500000  0.62500000
   0.12500000  0.62500000  0.12500000
   0.12500000  0.62500000  0.62500000
   0.62500000  0.12500000  0.12500000
   0.62500000  0.12500000  0.62500000
   0.62500000  0.62500000  0.12500000
   0.62500000  0.62500000  0.62500000
Direct configuration=     2
   0.00000000  0.00000000  0.99967829
   0.00000000  0.00000000  0.49967829
   0.00000000  0.50000000  0.99967829
   1.00000000  0.50000000  0.49967829
   0.50000000  1.00000000  0.99967829
   0.50000000  1.00000000  0.49967829
   0.50000000  0.50000000  0.99967829
   0.50000000  0.50000000  0.49967829
   0.37500000  0.37500000  0.12532171
   0.37500000  0.37500000  0.62532171
   0.37500000  0.87500000  0.12532171
   0.37500000  0.87500000  0.62532171
   0.87500000  0.37500000  0.12532171
   0.87500000  0.37500000  0.62532171
   0.87500000  0.87500000  0.12532171
   0.87500000  0.87500000  0.62532171
   0.00000000  0.25000000  0.24967829
   1.00000000  0.25000000  0.74967829
   1.00000000  0.75000000  0.24967829
   0.00000000  0.75000000  0.74967829
   0.50000000  0.25000000  0.24967829
   0.50000000  0.25000000  0.74967829
   0.50000000  0.75000000  0.24967829
   0.50000000  0.75000000  0.74967829
   0.37500000  0.12500000  0.37532171
   0.37500000  0.12500000  0.87532171
   0.37500000  0.62500000  0.37532171
   0.37500000  0.62500000  0.87532171
   0.87500000  0.12500000  0.37532171
   0.87500000  0.12500000  0.87532171
   0.87500000  0.62500000  0.37532171
   0.87500000  0.62500000  0.87532171
   0.25000000  0.00000000  0.24967829
   0.25000000  0.00000000  0.74967829
   0.25000000  0.50000000  0.24967829
   0.25000000  0.50000000  0.74967829
   0.75000000  1.00000000  0.24967829
   0.75000000  1.00000000  0.74967829
   0.75000000  0.50000000  0.24967829
   0.75000000  0.50000000  0.74967829
   0.12500000  0.37500000  0.37532171
   0.12500000  0.37500000  0.87532171
   0.12500000  0.87500000  0.37532171
   0.12500000  0.87500000  0.87532171
   0.62500000  0.37500000  0.37532171
   0.62500000  0.37500000  0.87532171
   0.62500000  0.87500000  0.37532171
   0.62500000  0.87500000  0.87532171
   0.25000000  0.25000000  0.99967829
   0.25000000  0.25000000  0.49967829
   0.25000000  0.75000000  0.99967829
   0.25000000  0.75000000  0.49967829
   0.75000000  0.25000000  0.99967829
   0.75000000  0.25000000  0.49967829
   0.75000000  0.75000000  0.99967829
   0.75000000  0.75000000  0.49967829
   0.12500000  0.12500000  0.12532171
   0.12500000  0.12500000  0.62532171
   0.12500000  0.62500000  0.12532171
   0.12500000  0.62500000  0.62532171
   0.62500000  0.12500000  0.12532171
   0.62500000  0.12500000  0.62532171
   0.62500000  0.62500000  0.12532171
   0.62500000  0.62500000  0.62532171
Direct configuration=     3
   0.00000000  0.00000000  0.99978658
   0.00000000  0.00000000  0.49978658
   0.00000000  0.50000000  0.99978658
   0.00000000  0.50000000  0.49978658
   0.50000000  0.00000000  0.99978658
   0.50000000  0.00000000  0.49978658
   0.50000000  0.50000000  0.99978658
   0.50000000  0.50000000  0.49978658
   0.37500000  0.37500000  0.12521342
   0.37500000  0.37500000  0.62521342
   0.37500000  0.87500000  0.12521342
   0.37500000  0.87500000  0.62521342
   0.87500000  0.37500000  0.12521342
   0.87500000  0.37500000  0.62521342
   0.87500000  0.87500000  0.12521342
   0.87500000  0.87500000  0.62521342
   0.00000000  0.25000000  0.24978658
   0.00000000  0.25000000  0.74978658
   0.00000000  0.75000000  0.24978658
   0.00000000  0.75000000  0.74978658
   0.50000000  0.25000000  0.24978658
   0.50000000  0.25000000  0.74978658
   0.50000000  0.75000000  0.24978658
   0.50000000  0.75000000  0.74978658
   0.37500000  0.12500000  0.37521342
   0.37500000  0.12500000  0.87521342
   0.37500000  0.62500000  0.37521342
   0.37500000  0.62500000  0.87521342
   0.87500000  0.12500000  0.37521342
   0.87500000  0.12500000  0.87521342
   0.87500000  0.62500000  0.37521342
   0.87500000  0.62500000  0.87521342
   0.25000000  0.00000000  0.24978658
   0.25000000  0.00000000  0.74978658
   0.25000000  0.50000000  0.24978658
   0.25000000  0.50000000  0.74978658
   0.75000000  0.00000000  0.24978658
   0.75000000  0.00000000  0.74978658
   0.75000000  0.50000000  0.24978658
   0.75000000  0.50000000  0.74978658
   0.12500000  0.37500000  0.37521342
   0.12500000  0.37500000  0.87521342
   0.12500000  0.87500000  0.37521342
   0.12500000  0.87500000  0.87521342
   0.62500000  0.37500000  0.37521342
   0.62500000  0.37500000  0.87521342
   0.62500000  0.87500000  0.37521342
   0.62500000  0.87500000  0.87521342
   0.25000000  0.25000000  0.99978658
   0.25000000  0.25000000  0.49978658
   0.25000000  0.75000000  0.99978658
   0.25000000  0.75000000  0.49978658
   0.75000000  0.25000000  0.99978658
   0.75000000  0.25000000  0.49978658
   0.75000000  0.75000000  0.99978658
   0.75000000  0.75000000  0.49978658
   0.12500000  0.12500000  0.12521342
   0.12500000  0.12500000  0.62521342
   0.12500000  0.62500000  0.12521342
   0.12500000  0.62500000  0.62521342
   0.62500000  0.12500000  0.12521342
   0.62500000  0.12500000  0.62521342
   0.62500000  0.62500000  0.12521342
   0.62500000  0.62500000  0.62521342
