  64  64   0   0
  0.1895164E+02  0.1059355E-08  0.1070055E-08  0.1070042E-08  0.5000000E-15
  1.000000000000000E-004
  CAR 
 Si64                                    
     11.84551847     -8.01637100  301      6.59598168      1.00000000
     -8.016  0.0000E+00  0.0000E+00
     -7.950  0.0000E+00  0.0000E+00
     -7.884  0.0000E+00  0.0000E+00
     -7.818  0.0000E+00  0.0000E+00
     -7.752  0.0000E+00  0.0000E+00
     -7.685  0.0000E+00  0.0000E+00
     -7.619 -0.1829E-28 -0.1211E-29
     -7.553 -0.3148E-26 -0.2096E-27
     -7.487 -0.4362E-24 -0.2909E-25
     -7.421 -0.4844E-22 -0.3236E-23
     -7.354 -0.4308E-20 -0.2885E-21
     -7.288 -0.3068E-18 -0.2060E-19
     -7.222 -0.1749E-16 -0.1179E-17
     -7.156 -0.7735E-15 -0.5239E-16
     -7.089 -0.2810E-13 -0.1913E-14
     -7.023 -0.8150E-12 -0.5587E-13
     -6.957 -0.1884E-10 -0.1303E-11
     -6.891 -0.3469E-09 -0.2427E-10
     -6.825 -0.5076E-08 -0.3603E-09
     -6.758 -0.5884E-07 -0.4256E-08
     -6.692 -0.5386E-06 -0.3992E-07
     -6.626 -0.3872E-05 -0.2963E-06
     -6.560 -0.2168E-04 -0.1732E-05
     -6.494 -0.9332E-04 -0.7910E-05
     -6.427 -0.3014E-03 -0.2787E-04
     -6.361 -0.6948E-03 -0.7387E-04
     -6.295 -0.9885E-03 -0.1393E-03
     -6.229 -0.2538E-03 -0.1561E-03
     -6.163  0.2526E-02  0.1113E-04
     -6.096  0.6797E-02  0.4611E-03
     -6.030  0.1036E-01  0.1147E-02
     -5.964  0.1377E-01  0.2058E-02
     -5.898  0.2412E-01  0.3655E-02
     -5.832  0.4768E-01  0.6812E-02
     -5.765  0.7664E-01  0.1189E-01
     -5.699  0.9432E-01  0.1813E-01
     -5.633  0.1012E+00  0.2483E-01
     -5.567  0.1205E+00  0.3281E-01
     -5.501  0.1618E+00  0.4352E-01
     -5.434  0.1961E+00  0.5650E-01
     -5.368  0.1912E+00  0.6916E-01
     -5.302  0.1589E+00  0.7967E-01
     -5.236  0.1357E+00  0.8866E-01
     -5.170  0.1292E+00  0.9721E-01
     -5.103  0.1169E+00  0.1049E+00
     -5.037  0.9132E-01  0.1110E+00
     -4.971  0.7098E-01  0.1157E+00
     -4.905  0.6982E-01  0.1203E+00
     -4.838  0.8921E-01  0.1262E+00
     -4.772  0.1413E+00  0.1356E+00
     -4.706  0.2391E+00  0.1514E+00
     -4.640  0.3529E+00  0.1748E+00
     -4.574  0.4232E+00  0.2028E+00
     -4.507  0.4374E+00  0.2317E+00
     -4.441  0.4379E+00  0.2607E+00
     -4.375  0.4363E+00  0.2896E+00
     -4.309  0.3837E+00  0.3150E+00
     -4.243  0.2549E+00  0.3319E+00
     -4.176  0.1017E+00  0.3386E+00
     -4.110 -0.2247E-02  0.3385E+00
     -4.044 -0.2447E-01  0.3369E+00
     -3.978  0.3072E-01  0.3389E+00
     -3.912  0.1481E+00  0.3487E+00
     -3.845  0.3012E+00  0.3686E+00
     -3.779  0.4418E+00  0.3979E+00
     -3.713  0.5113E+00  0.4318E+00
     -3.647  0.4783E+00  0.4634E+00
     -3.581  0.3704E+00  0.4879E+00
     -3.514  0.2598E+00  0.5051E+00
     -3.448  0.2155E+00  0.5194E+00
     -3.382  0.2703E+00  0.5373E+00
     -3.316  0.4058E+00  0.5642E+00
     -3.250  0.5566E+00  0.6010E+00
     -3.183  0.6511E+00  0.6441E+00
     -3.117  0.6640E+00  0.6881E+00
     -3.051  0.6205E+00  0.7292E+00
     -2.985  0.5527E+00  0.7658E+00
     -2.918  0.4774E+00  0.7974E+00
     -2.852  0.4187E+00  0.8251E+00
     -2.786  0.4046E+00  0.8519E+00
     -2.720  0.4156E+00  0.8794E+00
     -2.654  0.3828E+00  0.9047E+00
     -2.587  0.2707E+00  0.9227E+00
     -2.521  0.1259E+00  0.9310E+00
     -2.455  0.1882E-01  0.9322E+00
     -2.389 -0.2682E-01  0.9305E+00
     -2.323 -0.2904E-01  0.9285E+00
     -2.256 -0.2981E-02  0.9283E+00
     -2.190  0.5289E-01  0.9318E+00
     -2.124  0.1302E+00  0.9405E+00
     -2.058  0.1901E+00  0.9530E+00
     -1.992  0.1880E+00  0.9655E+00
     -1.925  0.1220E+00  0.9736E+00
     -1.859  0.4383E-01  0.9765E+00
     -1.793  0.2306E-01  0.9780E+00
     -1.727  0.1043E+00  0.9849E+00
     -1.661  0.2803E+00  0.1003E+01
     -1.594  0.4809E+00  0.1035E+01
     -1.528  0.6002E+00  0.1075E+01
     -1.462  0.5666E+00  0.1113E+01
     -1.396  0.4011E+00  0.1139E+01
     -1.330  0.1991E+00  0.1152E+01
     -1.263  0.5919E-01  0.1156E+01
     -1.197  0.2682E-01  0.1158E+01
     -1.131  0.8434E-01  0.1164E+01
     -1.065  0.1704E+00  0.1175E+01
     -0.999  0.2177E+00  0.1189E+01
     -0.932  0.2023E+00  0.1203E+01
     -0.866  0.1688E+00  0.1214E+01
     -0.800  0.1903E+00  0.1226E+01
     -0.734  0.2812E+00  0.1245E+01
     -0.667  0.3621E+00  0.1269E+01
     -0.601  0.3454E+00  0.1292E+01
     -0.535  0.2605E+00  0.1309E+01
     -0.469  0.2533E+00  0.1326E+01
     -0.403  0.4352E+00  0.1355E+01
     -0.336  0.7508E+00  0.1404E+01
     -0.270  0.1005E+01  0.1471E+01
     -0.204  0.1020E+01  0.1538E+01
     -0.138  0.7764E+00  0.1590E+01
     -0.072  0.4159E+00  0.1617E+01
     -0.005  0.1170E+00  0.1625E+01
      0.061 -0.2193E-01  0.1624E+01
      0.127  0.3009E-02  0.1624E+01
      0.193  0.1424E+00  0.1633E+01
      0.259  0.3110E+00  0.1654E+01
      0.326  0.4072E+00  0.1681E+01
      0.392  0.3780E+00  0.1706E+01
      0.458  0.2629E+00  0.1723E+01
      0.524  0.1489E+00  0.1733E+01
      0.590  0.9746E-01  0.1740E+01
      0.657  0.1279E+00  0.1748E+01
      0.723  0.2341E+00  0.1764E+01
      0.789  0.3802E+00  0.1789E+01
      0.855  0.4945E+00  0.1822E+01
      0.921  0.5029E+00  0.1855E+01
      0.988  0.3895E+00  0.1881E+01
      1.054  0.2157E+00  0.1895E+01
      1.120  0.6903E-01  0.1899E+01
      1.186 -0.6404E-02  0.1899E+01
      1.253 -0.2439E-01  0.1897E+01
      1.319 -0.2067E-01  0.1896E+01
      1.385 -0.1971E-01  0.1895E+01
      1.451 -0.2577E-01  0.1893E+01
      1.517 -0.2231E-01  0.1892E+01
      1.584  0.2610E-01  0.1893E+01
      1.650  0.1518E+00  0.1903E+01
      1.716  0.3416E+00  0.1926E+01
      1.782  0.5239E+00  0.1961E+01
      1.848  0.6234E+00  0.2002E+01
      1.915  0.6264E+00  0.2043E+01
      1.981  0.5706E+00  0.2081E+01
      2.047  0.4940E+00  0.2114E+01
      2.113  0.4271E+00  0.2142E+01
      2.179  0.4025E+00  0.2169E+01
      2.246  0.4174E+00  0.2196E+01
      2.312  0.4140E+00  0.2224E+01
      2.378  0.3508E+00  0.2247E+01
      2.444  0.2880E+00  0.2266E+01
      2.510  0.3640E+00  0.2290E+01
      2.577  0.6600E+00  0.2334E+01
      2.643  0.1083E+01  0.2406E+01
      2.709  0.1396E+01  0.2498E+01
      2.775  0.1389E+01  0.2590E+01
      2.841  0.1053E+01  0.2660E+01
      2.908  0.5800E+00  0.2698E+01
      2.974  0.1902E+00  0.2711E+01
      3.040 -0.2249E-01  0.2709E+01
      3.106 -0.8986E-01  0.2703E+01
      3.172 -0.6214E-01  0.2699E+01
      3.239  0.6390E-01  0.2703E+01
      3.305  0.3140E+00  0.2724E+01
      3.371  0.6539E+00  0.2768E+01
      3.437  0.9706E+00  0.2832E+01
      3.504  0.1159E+01  0.2909E+01
      3.570  0.1203E+01  0.2988E+01
      3.636  0.1151E+01  0.3064E+01
      3.702  0.1037E+01  0.3133E+01
      3.768  0.8769E+00  0.3191E+01
      3.835  0.7189E+00  0.3239E+01
      3.901  0.6437E+00  0.3281E+01
      3.967  0.6838E+00  0.3327E+01
      4.033  0.7534E+00  0.3376E+01
      4.099  0.7160E+00  0.3424E+01
      4.166  0.5422E+00  0.3460E+01
      4.232  0.3550E+00  0.3483E+01
      4.298  0.2954E+00  0.3503E+01
      4.364  0.3797E+00  0.3528E+01
      4.430  0.5112E+00  0.3562E+01
      4.497  0.5996E+00  0.3601E+01
      4.563  0.6314E+00  0.3643E+01
      4.629  0.6360E+00  0.3685E+01
      4.695  0.6363E+00  0.3727E+01
      4.761  0.6489E+00  0.3770E+01
      4.828  0.6932E+00  0.3816E+01
      4.894  0.7707E+00  0.3867E+01
      4.960  0.8446E+00  0.3923E+01
      5.026  0.8520E+00  0.3980E+01
      5.092  0.7421E+00  0.4029E+01
      5.159  0.5231E+00  0.4063E+01
      5.225  0.2760E+00  0.4082E+01
      5.291  0.1086E+00  0.4089E+01
      5.357  0.8577E-01  0.4095E+01
      5.424  0.1902E+00  0.4107E+01
      5.490  0.3334E+00  0.4129E+01
      5.556  0.4100E+00  0.4156E+01
      5.622  0.3688E+00  0.4181E+01
      5.688  0.2416E+00  0.4197E+01
      5.755  0.1051E+00  0.4204E+01
      5.821  0.2202E-01  0.4205E+01
      5.887  0.1457E-01  0.4206E+01
      5.953  0.6889E-01  0.4211E+01
      6.019  0.1439E+00  0.4220E+01
      6.086  0.1892E+00  0.4233E+01
      6.152  0.1778E+00  0.4245E+01
      6.218  0.1269E+00  0.4253E+01
      6.284  0.7569E-01  0.4258E+01
      6.350  0.4560E-01  0.4261E+01
      6.417  0.3079E-01  0.4263E+01
      6.483  0.1965E-01  0.4264E+01
      6.549  0.1507E-01  0.4265E+01
      6.615  0.3236E-01  0.4268E+01
      6.681  0.7958E-01  0.4273E+01
      6.748  0.1400E+00  0.4282E+01
      6.814  0.1775E+00  0.4294E+01
      6.880  0.1656E+00  0.4305E+01
      6.946  0.1112E+00  0.4312E+01
      7.012  0.4658E-01  0.4315E+01
      7.079  0.5906E-02  0.4316E+01
      7.145  0.1244E-01  0.4316E+01
      7.211  0.7309E-01  0.4321E+01
      7.277  0.1661E+00  0.4332E+01
      7.343  0.2401E+00  0.4348E+01
      7.410  0.2525E+00  0.4365E+01
      7.476  0.2216E+00  0.4380E+01
      7.542  0.2208E+00  0.4394E+01
      7.608  0.2983E+00  0.4414E+01
      7.675  0.4086E+00  0.4441E+01
      7.741  0.4486E+00  0.4471E+01
      7.807  0.3669E+00  0.4495E+01
      7.873  0.2217E+00  0.4510E+01
      7.939  0.1315E+00  0.4518E+01
      8.006  0.1826E+00  0.4530E+01
      8.072  0.3716E+00  0.4555E+01
      8.138  0.6041E+00  0.4595E+01
      8.204  0.7482E+00  0.4645E+01
      8.270  0.7244E+00  0.4693E+01
      8.337  0.5704E+00  0.4730E+01
      8.403  0.4163E+00  0.4758E+01
      8.469  0.3812E+00  0.4783E+01
      8.535  0.4933E+00  0.4816E+01
      8.601  0.7071E+00  0.4863E+01
      8.668  0.9605E+00  0.4926E+01
      8.734  0.1180E+01  0.5004E+01
      8.800  0.1266E+01  0.5088E+01
      8.866  0.1149E+01  0.5164E+01
      8.932  0.8639E+00  0.5221E+01
      8.999  0.5456E+00  0.5258E+01
      9.065  0.3142E+00  0.5278E+01
      9.131  0.2049E+00  0.5292E+01
      9.197  0.1955E+00  0.5305E+01
      9.263  0.2511E+00  0.5321E+01
      9.330  0.3188E+00  0.5343E+01
      9.396  0.3312E+00  0.5364E+01
      9.462  0.2588E+00  0.5382E+01
      9.528  0.1409E+00  0.5391E+01
      9.595  0.4292E-01  0.5394E+01
      9.661 -0.1801E-02  0.5394E+01
      9.727 -0.2135E-02  0.5394E+01
      9.793  0.1580E-01  0.5395E+01
      9.859  0.2980E-01  0.5397E+01
      9.926  0.2994E-01  0.5399E+01
      9.992  0.1924E-01  0.5400E+01
     10.058  0.7116E-02  0.5400E+01
     10.124  0.3458E-04  0.5400E+01
     10.190 -0.1836E-02  0.5400E+01
     10.257 -0.1334E-02  0.5400E+01
     10.323 -0.5778E-03  0.5400E+01
     10.389 -0.1776E-03  0.5400E+01
     10.455 -0.4091E-04  0.5400E+01
     10.521 -0.7243E-05  0.5400E+01
     10.588 -0.9993E-06  0.5400E+01
     10.654 -0.1083E-06  0.5400E+01
     10.720 -0.9267E-08  0.5400E+01
     10.786 -0.6286E-09  0.5400E+01
     10.852 -0.3388E-10  0.5400E+01
     10.919 -0.1454E-11  0.5400E+01
     10.985 -0.4980E-13  0.5400E+01
     11.051 -0.1356E-14  0.5400E+01
     11.117 -0.2795E-16  0.5400E+01
     11.183  0.0000E+00  0.5400E+01
     11.250  0.0000E+00  0.5400E+01
     11.316  0.0000E+00  0.5400E+01
     11.382  0.0000E+00  0.5400E+01
     11.448  0.0000E+00  0.5400E+01
     11.514  0.0000E+00  0.5400E+01
     11.581  0.0000E+00  0.5400E+01
     11.647  0.0000E+00  0.5400E+01
     11.713  0.0000E+00  0.5400E+01
     11.779  0.0000E+00  0.5400E+01
     11.846  0.0000E+00  0.5400E+01
