       N       E                     dE             d eps       ncg     rms          rms(c)
DAV:   1     0.565759641047E+03    0.56576E+03   -0.84682E+04  2592   0.107E+03
DAV:   2    -0.310574613604E+03   -0.87633E+03   -0.83129E+03  3104   0.175E+02
DAV:   3    -0.372938715416E+03   -0.62364E+02   -0.61024E+02  3144   0.411E+01
DAV:   4    -0.374538500528E+03   -0.15998E+01   -0.15876E+01  3104   0.794E+00
DAV:   5    -0.374589633430E+03   -0.51133E-01   -0.51023E-01  3098   0.132E+00    0.302E+01
RMM:   6    -0.368751643925E+03    0.58380E+01   -0.30403E+00  2592   0.274E+00    0.182E+01
RMM:   7    -0.366181836640E+03    0.25698E+01   -0.77049E+00  2649   0.435E+00    0.112E+00
RMM:   8    -0.366218350230E+03   -0.36514E-01   -0.71652E-01  2616   0.165E+00    0.531E-01
RMM:   9    -0.366240882540E+03   -0.22532E-01   -0.21477E-01  2664   0.810E-01    0.603E-01
RMM:  10    -0.366245067788E+03   -0.41852E-02   -0.38569E-02  2737   0.383E-01    0.798E-01
RMM:  11    -0.366240964197E+03    0.41036E-02   -0.13059E-02  2592   0.230E-01    0.668E-01
RMM:  12    -0.366241108694E+03   -0.14450E-03   -0.18923E-03  2617   0.102E-01    0.669E-01
RMM:  13    -0.366241177013E+03   -0.68319E-04   -0.35075E-04  2734   0.418E-02    0.746E-01
RMM:  14    -0.366241142273E+03    0.34740E-04   -0.10947E-04  2602   0.257E-02    0.340E-01
RMM:  15    -0.366241247398E+03   -0.10512E-03   -0.45209E-05  2633   0.142E-02    0.323E-01
RMM:  16    -0.366241327062E+03   -0.79664E-04   -0.35961E-05  2592   0.136E-02    0.240E-01
RMM:  17    -0.366241340676E+03   -0.13614E-04   -0.10184E-05  2592   0.807E-03    0.938E-02
RMM:  18    -0.366241349078E+03   -0.84019E-05   -0.50996E-06  2326   0.539E-03    0.261E-02
RMM:  19    -0.366241351219E+03   -0.21411E-05   -0.18006E-06  1572   0.314E-03    0.620E-03
RMM:  20    -0.366241351692E+03   -0.47268E-06   -0.43573E-07  1557   0.135E-03
   1 F= -.36624135E+03 E0= -.36625219E+03  d E =-.366241E+03
       N       E                     dE             d eps       ncg     rms          rms(c)
DAV:   1    -0.366251430818E+03   -0.10080E-01   -0.64885E-01  2960   0.155E+00    0.368E-01
RMM:   2    -0.366254590135E+03   -0.31593E-02   -0.32715E-02  2593   0.384E-01    0.149E-01
RMM:   3    -0.366254998966E+03   -0.40883E-03   -0.50652E-03  2639   0.170E-01    0.620E-02
RMM:   4    -0.366254987262E+03    0.11704E-04   -0.68401E-04  2635   0.705E-02    0.225E-02
RMM:   5    -0.366254993463E+03   -0.62009E-05   -0.13015E-04  2697   0.282E-02    0.541E-03
RMM:   6    -0.366254996215E+03   -0.27524E-05   -0.27127E-05  2701   0.119E-02    0.145E-03
RMM:   7    -0.366254996579E+03   -0.36417E-06   -0.39732E-06  1871   0.445E-03    0.763E-04
RMM:   8    -0.366254996637E+03   -0.58139E-07   -0.74137E-07  1515   0.190E-03
   2 F= -.36625500E+03 E0= -.36626415E+03  d E =-.136449E-01
       N       E                     dE             d eps       ncg     rms          rms(c)
DAV:   1    -0.366257908335E+03   -0.29118E-02   -0.60419E-02  2928   0.472E-01    0.112E-01
RMM:   2    -0.366258197058E+03   -0.28872E-03   -0.29772E-03  2592   0.117E-01    0.455E-02
RMM:   3    -0.366258233544E+03   -0.36486E-04   -0.45418E-04  2643   0.515E-02    0.187E-02
RMM:   4    -0.366258232579E+03    0.96556E-06   -0.60279E-05  2622   0.213E-02    0.675E-03
RMM:   5    -0.366258233156E+03   -0.57762E-06   -0.11841E-05  2495   0.855E-03    0.160E-03
RMM:   6    -0.366258233348E+03   -0.19141E-06   -0.23262E-06  1737   0.362E-03    0.396E-04
RMM:   7    -0.366258233398E+03   -0.50463E-07   -0.44510E-07  1499   0.151E-03    0.223E-04
RMM:   8    -0.366258233414E+03   -0.16075E-07   -0.10952E-07  1023   0.763E-04
   3 F= -.36625823E+03 E0= -.36626808E+03  d E =-.168817E-01
