  64  64   0   0
  0.1986976E+02  0.1090638E-08  0.1079840E-08  0.1079826E-08  0.5000000E-15
  1.000000000000000E-004
  CAR 
 Si64                                    
     11.31462335     -8.17384348  301      6.18297557      1.00000000
     -8.174  0.0000E+00  0.0000E+00
     -8.109  0.0000E+00  0.0000E+00
     -8.044  0.0000E+00  0.0000E+00
     -7.979  0.0000E+00  0.0000E+00
     -7.914  0.0000E+00  0.0000E+00
     -7.849  0.0000E+00  0.0000E+00
     -7.784 -0.1028E-28 -0.6677E-30
     -7.719 -0.1648E-26 -0.1077E-27
     -7.654 -0.2146E-24 -0.1405E-25
     -7.589 -0.2258E-22 -0.1481E-23
     -7.524 -0.1919E-20 -0.1261E-21
     -7.459 -0.1317E-18 -0.8679E-20
     -7.394 -0.7291E-17 -0.4823E-18
     -7.329 -0.3151E-15 -0.2095E-16
     -7.264 -0.1135E-13 -0.7583E-15
     -7.199 -0.3280E-12 -0.2207E-13
     -7.134 -0.7626E-11 -0.5175E-12
     -7.069 -0.1424E-09 -0.9770E-11
     -7.005 -0.2133E-08 -0.1483E-09
     -6.940 -0.2556E-07 -0.1809E-08
     -6.875 -0.2443E-06 -0.1768E-07
     -6.810 -0.1854E-05 -0.1381E-06
     -6.745 -0.1110E-04 -0.8594E-06
     -6.680 -0.5192E-04 -0.4232E-05
     -6.615 -0.1864E-03 -0.1634E-04
     -6.550 -0.4976E-03 -0.4867E-04
     -6.485 -0.9156E-03 -0.1082E-03
     -6.420 -0.8795E-03 -0.1653E-03
     -6.355  0.6463E-03 -0.1233E-03
     -6.290  0.4088E-02  0.1422E-03
     -6.225  0.8148E-02  0.6715E-03
     -6.160  0.1179E-01  0.1437E-02
     -6.095  0.1877E-01  0.2657E-02
     -6.030  0.3625E-01  0.5011E-02
     -5.965  0.6381E-01  0.9157E-02
     -5.900  0.8857E-01  0.1491E-01
     -5.835  0.1021E+00  0.2154E-01
     -5.770  0.1173E+00  0.2916E-01
     -5.705  0.1507E+00  0.3895E-01
     -5.640  0.1896E+00  0.5127E-01
     -5.575  0.2015E+00  0.6436E-01
     -5.510  0.1795E+00  0.7602E-01
     -5.445  0.1514E+00  0.8585E-01
     -5.380  0.1367E+00  0.9473E-01
     -5.316  0.1241E+00  0.1028E+00
     -5.251  0.1011E+00  0.1094E+00
     -5.186  0.7792E-01  0.1144E+00
     -5.121  0.7132E-01  0.1191E+00
     -5.056  0.8873E-01  0.1248E+00
     -4.991  0.1403E+00  0.1339E+00
     -4.926  0.2353E+00  0.1492E+00
     -4.861  0.3498E+00  0.1719E+00
     -4.796  0.4321E+00  0.2000E+00
     -4.731  0.4621E+00  0.2300E+00
     -4.666  0.4664E+00  0.2603E+00
     -4.601  0.4538E+00  0.2898E+00
     -4.536  0.3885E+00  0.3150E+00
     -4.471  0.2546E+00  0.3316E+00
     -4.406  0.1013E+00  0.3382E+00
     -4.341 -0.8185E-03  0.3381E+00
     -4.276 -0.1594E-01  0.3371E+00
     -4.211  0.5556E-01  0.3407E+00
     -4.146  0.1947E+00  0.3533E+00
     -4.081  0.3618E+00  0.3768E+00
     -4.016  0.4934E+00  0.4089E+00
     -3.951  0.5297E+00  0.4433E+00
     -3.886  0.4594E+00  0.4731E+00
     -3.821  0.3347E+00  0.4949E+00
     -3.756  0.2370E+00  0.5103E+00
     -3.691  0.2287E+00  0.5251E+00
     -3.627  0.3256E+00  0.5463E+00
     -3.562  0.4887E+00  0.5780E+00
     -3.497  0.6415E+00  0.6197E+00
     -3.432  0.7203E+00  0.6665E+00
     -3.367  0.7123E+00  0.7128E+00
     -3.302  0.6418E+00  0.7545E+00
     -3.237  0.5413E+00  0.7896E+00
     -3.172  0.4503E+00  0.8189E+00
     -3.107  0.4092E+00  0.8455E+00
     -3.042  0.4135E+00  0.8723E+00
     -2.977  0.3986E+00  0.8982E+00
     -2.912  0.3095E+00  0.9183E+00
     -2.847  0.1684E+00  0.9293E+00
     -2.782  0.4476E-01  0.9322E+00
     -2.717 -0.1997E-01  0.9309E+00
     -2.652 -0.3057E-01  0.9289E+00
     -2.587 -0.2649E-02  0.9287E+00
     -2.522  0.5782E-01  0.9325E+00
     -2.457  0.1360E+00  0.9413E+00
     -2.392  0.1920E+00  0.9538E+00
     -2.327  0.1854E+00  0.9658E+00
     -2.262  0.1180E+00  0.9735E+00
     -2.197  0.4088E-01  0.9762E+00
     -2.132  0.2211E-01  0.9776E+00
     -2.067  0.1073E+00  0.9846E+00
     -2.002  0.2908E+00  0.1003E+01
     -1.938  0.4999E+00  0.1036E+01
     -1.873  0.6221E+00  0.1076E+01
     -1.808  0.5825E+00  0.1114E+01
     -1.743  0.4057E+00  0.1141E+01
     -1.678  0.1959E+00  0.1153E+01
     -1.613  0.5516E-01  0.1157E+01
     -1.548  0.2420E-01  0.1158E+01
     -1.483  0.7811E-01  0.1163E+01
     -1.418  0.1543E+00  0.1174E+01
     -1.353  0.1922E+00  0.1186E+01
     -1.288  0.1726E+00  0.1197E+01
     -1.223  0.1308E+00  0.1206E+01
     -1.158  0.1272E+00  0.1214E+01
     -1.093  0.1960E+00  0.1227E+01
     -1.028  0.3082E+00  0.1247E+01
     -0.963  0.3887E+00  0.1272E+01
     -0.898  0.3965E+00  0.1298E+01
     -0.833  0.3837E+00  0.1323E+01
     -0.768  0.4475E+00  0.1352E+01
     -0.703  0.6251E+00  0.1392E+01
     -0.638  0.8448E+00  0.1447E+01
     -0.573  0.9647E+00  0.1510E+01
     -0.508  0.8723E+00  0.1567E+01
     -0.443  0.5861E+00  0.1605E+01
     -0.378  0.2606E+00  0.1622E+01
     -0.313  0.6770E-01  0.1626E+01
     -0.249  0.7378E-01  0.1631E+01
     -0.184  0.2160E+00  0.1645E+01
     -0.119  0.3624E+00  0.1668E+01
     -0.054  0.4053E+00  0.1695E+01
      0.011  0.3314E+00  0.1716E+01
      0.076  0.2106E+00  0.1730E+01
      0.141  0.1186E+00  0.1738E+01
      0.206  0.8841E-01  0.1743E+01
      0.271  0.1204E+00  0.1751E+01
      0.336  0.2033E+00  0.1764E+01
      0.401  0.3163E+00  0.1785E+01
      0.466  0.4231E+00  0.1812E+01
      0.531  0.4723E+00  0.1843E+01
      0.596  0.4232E+00  0.1871E+01
      0.661  0.2875E+00  0.1889E+01
      0.726  0.1324E+00  0.1898E+01
      0.791  0.2478E-01  0.1899E+01
      0.856 -0.1805E-01  0.1898E+01
      0.921 -0.2070E-01  0.1897E+01
      0.986 -0.1281E-01  0.1896E+01
      1.051 -0.1018E-01  0.1895E+01
      1.116 -0.1809E-01  0.1894E+01
      1.181 -0.3515E-01  0.1892E+01
      1.246 -0.4332E-01  0.1889E+01
      1.311  0.7093E-02  0.1890E+01
      1.376  0.1822E+00  0.1901E+01
      1.440  0.4929E+00  0.1933E+01
      1.505  0.8221E+00  0.1987E+01
      1.570  0.9695E+00  0.2050E+01
      1.635  0.8292E+00  0.2104E+01
      1.700  0.5119E+00  0.2137E+01
      1.765  0.2506E+00  0.2153E+01
      1.830  0.1898E+00  0.2166E+01
      1.895  0.2850E+00  0.2184E+01
      1.960  0.3852E+00  0.2209E+01
      2.025  0.3885E+00  0.2234E+01
      2.090  0.3337E+00  0.2256E+01
      2.155  0.3677E+00  0.2280E+01
      2.220  0.6114E+00  0.2320E+01
      2.285  0.1025E+01  0.2386E+01
      2.350  0.1391E+01  0.2477E+01
      2.415  0.1468E+01  0.2572E+01
      2.480  0.1186E+01  0.2649E+01
      2.545  0.7031E+00  0.2695E+01
      2.610  0.2602E+00  0.2712E+01
      2.675 -0.3659E-02  0.2711E+01
      2.740 -0.9864E-01  0.2705E+01
      2.805 -0.8756E-01  0.2699E+01
      2.870  0.1503E-01  0.2700E+01
      2.935  0.2456E+00  0.2716E+01
      3.000  0.6083E+00  0.2756E+01
      3.065  0.1009E+01  0.2821E+01
      3.129  0.1298E+01  0.2906E+01
      3.194  0.1385E+01  0.2996E+01
      3.259  0.1289E+01  0.3079E+01
      3.324  0.1089E+01  0.3150E+01
      3.389  0.8628E+00  0.3206E+01
      3.454  0.6788E+00  0.3250E+01
      3.519  0.6051E+00  0.3290E+01
      3.584  0.6542E+00  0.3332E+01
      3.649  0.7322E+00  0.3380E+01
      3.714  0.7079E+00  0.3426E+01
      3.779  0.5629E+00  0.3462E+01
      3.844  0.4216E+00  0.3490E+01
      3.909  0.4028E+00  0.3516E+01
      3.974  0.4855E+00  0.3547E+01
      4.039  0.5623E+00  0.3584E+01
      4.104  0.5816E+00  0.3622E+01
      4.169  0.5836E+00  0.3659E+01
      4.234  0.6157E+00  0.3699E+01
      4.299  0.6780E+00  0.3744E+01
      4.364  0.7551E+00  0.3793E+01
      4.429  0.8419E+00  0.3847E+01
      4.494  0.9178E+00  0.3907E+01
      4.559  0.9276E+00  0.3967E+01
      4.624  0.8177E+00  0.4020E+01
      4.689  0.5924E+00  0.4059E+01
      4.754  0.3281E+00  0.4080E+01
      4.818  0.1289E+00  0.4088E+01
      4.883  0.6549E-01  0.4093E+01
      4.948  0.1406E+00  0.4102E+01
      5.013  0.2882E+00  0.4121E+01
      5.078  0.4048E+00  0.4147E+01
      5.143  0.4102E+00  0.4173E+01
      5.208  0.3023E+00  0.4193E+01
      5.273  0.1519E+00  0.4203E+01
      5.338  0.4317E-01  0.4206E+01
      5.403  0.1856E-01  0.4207E+01
      5.468  0.6747E-01  0.4211E+01
      5.533  0.1431E+00  0.4221E+01
      5.598  0.1904E+00  0.4233E+01
      5.663  0.1803E+00  0.4245E+01
      5.728  0.1291E+00  0.4253E+01
      5.793  0.7681E-01  0.4258E+01
      5.858  0.4749E-01  0.4261E+01
      5.923  0.3544E-01  0.4264E+01
      5.988  0.2442E-01  0.4265E+01
      6.053  0.9633E-02  0.4266E+01
      6.118  0.9815E-03  0.4266E+01
      6.183  0.1315E-01  0.4267E+01
      6.248  0.5315E-01  0.4270E+01
      6.313  0.1108E+00  0.4277E+01
      6.378  0.1595E+00  0.4288E+01
      6.443  0.1723E+00  0.4299E+01
      6.507  0.1410E+00  0.4308E+01
      6.572  0.8273E-01  0.4313E+01
      6.637  0.3046E-01  0.4315E+01
      6.702  0.1643E-01  0.4316E+01
      6.767  0.5692E-01  0.4320E+01
      6.832  0.1389E+00  0.4329E+01
      6.897  0.2192E+00  0.4343E+01
      6.962  0.2513E+00  0.4360E+01
      7.027  0.2314E+00  0.4375E+01
      7.092  0.2154E+00  0.4389E+01
      7.157  0.2699E+00  0.4406E+01
      7.222  0.3923E+00  0.4432E+01
      7.287  0.4923E+00  0.4464E+01
      7.352  0.4733E+00  0.4495E+01
      7.417  0.3368E+00  0.4516E+01
      7.482  0.1944E+00  0.4529E+01
      7.547  0.1762E+00  0.4540E+01
      7.612  0.3277E+00  0.4562E+01
      7.677  0.5765E+00  0.4599E+01
      7.742  0.7818E+00  0.4650E+01
      7.807  0.8330E+00  0.4704E+01
      7.872  0.7333E+00  0.4752E+01
      7.937  0.5990E+00  0.4791E+01
      8.002  0.5641E+00  0.4827E+01
      8.067  0.6750E+00  0.4871E+01
      8.132  0.8679E+00  0.4928E+01
      8.196  0.1031E+01  0.4994E+01
      8.261  0.1083E+01  0.5065E+01
      8.326  0.1008E+01  0.5130E+01
      8.391  0.8465E+00  0.5185E+01
      8.456  0.6496E+00  0.5228E+01
      8.521  0.4636E+00  0.5258E+01
      8.586  0.3249E+00  0.5279E+01
      8.651  0.2567E+00  0.5295E+01
      8.716  0.2583E+00  0.5312E+01
      8.781  0.2990E+00  0.5332E+01
      8.846  0.3269E+00  0.5353E+01
      8.911  0.2975E+00  0.5372E+01
      8.976  0.2081E+00  0.5386E+01
      9.041  0.1011E+00  0.5392E+01
      9.106  0.2545E-01  0.5394E+01
      9.171 -0.7272E-03  0.5394E+01
      9.236  0.7559E-02  0.5394E+01
      9.301  0.2391E-01  0.5396E+01
      9.366  0.3015E-01  0.5398E+01
      9.431  0.2339E-01  0.5399E+01
      9.496  0.1131E-01  0.5400E+01
      9.561  0.2164E-02  0.5400E+01
      9.626 -0.1497E-02  0.5400E+01
      9.691 -0.1669E-02  0.5400E+01
      9.756 -0.8926E-03  0.5400E+01
      9.821 -0.3263E-03  0.5400E+01
      9.885 -0.8866E-04  0.5400E+01
      9.950 -0.1852E-04  0.5400E+01
     10.015 -0.3025E-05  0.5400E+01
     10.080 -0.3904E-06  0.5400E+01
     10.145 -0.4004E-07  0.5400E+01
     10.210 -0.3279E-08  0.5400E+01
     10.275 -0.2150E-09  0.5400E+01
     10.340 -0.1132E-10  0.5400E+01
     10.405 -0.4788E-12  0.5400E+01
     10.470 -0.1631E-13  0.5400E+01
     10.535 -0.4415E-15  0.5400E+01
     10.600 -0.1424E-16  0.5400E+01
     10.665  0.0000E+00  0.5400E+01
     10.730  0.0000E+00  0.5400E+01
     10.795  0.0000E+00  0.5400E+01
     10.860  0.0000E+00  0.5400E+01
     10.925  0.0000E+00  0.5400E+01
     10.990  0.0000E+00  0.5400E+01
     11.055  0.0000E+00  0.5400E+01
     11.120  0.0000E+00  0.5400E+01
     11.185  0.0000E+00  0.5400E+01
     11.250  0.0000E+00  0.5400E+01
     11.315  0.0000E+00  0.5400E+01
