       N       E                     dE             d eps       ncg     rms          rms(c)
DAV:   1     0.558507011272E+03    0.55851E+03   -0.83952E+04  2592   0.106E+03
DAV:   2    -0.309792793991E+03   -0.86830E+03   -0.82432E+03  3080   0.172E+02
DAV:   3    -0.373173877437E+03   -0.63381E+02   -0.62177E+02  3152   0.409E+01
DAV:   4    -0.374823139166E+03   -0.16493E+01   -0.16366E+01  3104   0.798E+00
DAV:   5    -0.374876639530E+03   -0.53500E-01   -0.53388E-01  3094   0.135E+00    0.284E+01
RMM:   6    -0.369782629010E+03    0.50940E+01   -0.25452E+00  2592   0.249E+00    0.171E+01
RMM:   7    -0.367458946886E+03    0.23237E+01   -0.65444E+00  2644   0.401E+00    0.958E-01
RMM:   8    -0.367501885682E+03   -0.42939E-01   -0.62704E-01  2623   0.153E+00    0.494E-01
RMM:   9    -0.367521248406E+03   -0.19363E-01   -0.17899E-01  2664   0.750E-01    0.571E-01
RMM:  10    -0.367524539049E+03   -0.32906E-02   -0.31652E-02  2746   0.352E-01    0.727E-01
RMM:  11    -0.367522332727E+03    0.22063E-02   -0.10306E-02  2592   0.208E-01    0.717E-01
RMM:  12    -0.367522393130E+03   -0.60403E-04   -0.16955E-03  2603   0.977E-02    0.749E-01
RMM:  13    -0.367522448014E+03   -0.54885E-04   -0.31687E-04  2761   0.400E-02    0.796E-01
RMM:  14    -0.367522344461E+03    0.10355E-03   -0.10036E-04  2596   0.243E-02    0.597E-01
RMM:  15    -0.367522488012E+03   -0.14355E-03   -0.57767E-05  2600   0.147E-02    0.530E-01
RMM:  16    -0.367522626481E+03   -0.13847E-03   -0.39212E-05  2592   0.144E-02    0.383E-01
RMM:  17    -0.367522689149E+03   -0.62668E-04   -0.28158E-05  2592   0.123E-02    0.211E-01
RMM:  18    -0.367522710077E+03   -0.20929E-04   -0.89470E-06  2592   0.719E-03    0.102E-01
RMM:  19    -0.367522720924E+03   -0.10847E-04   -0.52672E-06  2240   0.534E-03    0.252E-02
RMM:  20    -0.367522722998E+03   -0.20743E-05   -0.23103E-06  1662   0.347E-03    0.962E-03
RMM:  21    -0.367522723539E+03   -0.54037E-06   -0.45468E-07  1553   0.139E-03
   1 F= -.36752272E+03 E0= -.36753229E+03  d E =-.367523E+03
       N       E                     dE             d eps       ncg     rms          rms(c)
DAV:   1    -0.367531381125E+03   -0.86581E-02   -0.42106E-01  2976   0.124E+00    0.278E-01
RMM:   2    -0.367533510460E+03   -0.21293E-02   -0.22326E-02  2593   0.311E-01    0.112E-01
RMM:   3    -0.367533867477E+03   -0.35702E-03   -0.36533E-03  2649   0.141E-01    0.482E-02
RMM:   4    -0.367533871675E+03   -0.41979E-05   -0.49409E-04  2681   0.587E-02    0.168E-02
RMM:   5    -0.367533875059E+03   -0.33844E-05   -0.81365E-05  2654   0.229E-02    0.365E-03
RMM:   6    -0.367533877072E+03   -0.20124E-05   -0.20080E-05  2595   0.103E-02    0.914E-04
RMM:   7    -0.367533877314E+03   -0.24182E-06   -0.25028E-06  1770   0.363E-03    0.685E-04
RMM:   8    -0.367533877364E+03   -0.50501E-07   -0.58332E-07  1428   0.168E-03
   2 F= -.36753388E+03 E0= -.36754340E+03  d E =-.111538E-01
       N       E                     dE             d eps       ncg     rms          rms(c)
DAV:   1    -0.367534992614E+03   -0.11153E-02   -0.24500E-02  2944   0.299E-01    0.671E-02
RMM:   2    -0.367535115076E+03   -0.12246E-03   -0.12770E-03  2592   0.747E-02    0.273E-02
RMM:   3    -0.367535135459E+03   -0.20384E-04   -0.20543E-04  2642   0.338E-02    0.115E-02
RMM:   4    -0.367535135962E+03   -0.50290E-06   -0.28199E-05  2671   0.141E-02    0.407E-03
RMM:   5    -0.367535136203E+03   -0.24025E-06   -0.46974E-06  2012   0.553E-03    0.891E-04
RMM:   6    -0.367535136296E+03   -0.93406E-07   -0.99816E-07  1567   0.241E-03    0.217E-04
RMM:   7    -0.367535136318E+03   -0.22185E-07   -0.22539E-07  1333   0.107E-03    0.166E-04
RMM:   8    -0.367535136324E+03   -0.58290E-08   -0.54206E-08   825   0.608E-04
   3 F= -.36753514E+03 E0= -.36754469E+03  d E =-.124128E-01
