<?xml version="1.0" encoding="ISO-8859-1"?>
<modeling>
 <generator>
  <i name="program" type="string">vasp </i>
  <i name="version" type="string">6.4.3  </i>
  <i name="subversion" type="string">19Mar24 (build Oct 21 2024 22:36:34) complex                          parallel </i>
  <i name="platform" type="string">LinuxIFC </i>
  <i name="date" type="string">2024 11 01 </i>
  <i name="time" type="string">22:48:35 </i>
 </generator>
 <incar>
  <i type="string" name="SYSTEM">Si64</i>
  <i type="int" name="ISTART">     0</i>
  <i type="string" name="PREC">Accurate</i>
  <i type="string" name="ALGO">Fast</i>
  <i type="logical" name="ADDGRID"> T  </i>
  <i type="int" name="ICHARG">     2</i>
  <i type="int" name="NELM">    60</i>
  <i type="int" name="NELMIN">     8</i>
  <i type="int" name="IBRION">     2</i>
  <i name="EDIFF">      0.00000100</i>
  <i name="EDIFFG">     -0.01000000</i>
  <i type="int" name="NSW">    60</i>
  <i type="int" name="ISIF">     2</i>
  <i name="ENCUT">    400.00000000</i>
  <i type="string" name="LREAL">Auto</i>
  <i type="int" name="ISMEAR">     1</i>
  <i name="SIGMA">      0.20000000</i>
  <i type="logical" name="LWAVE"> F  </i>
  <i type="logical" name="LCHARG"> F  </i>
  <i type="logical" name="GGA_COMPAT"> F  </i>
  <i type="string" name="GGA">PS</i>
 </incar>
 <primitive_cell>
  <structure name="primitive_cell" >
   <crystal>
    <varray name="basis" >
     <v>       0.01349775       2.69956615      -2.69956615 </v>
     <v>       0.01349775       2.69956615       2.69956615 </v>
     <v>       2.71306415      -2.68606840       0.00000000 </v>
    </varray>
    <i name="volume">     39.73951434 </i>
    <varray name="rec_basis" >
     <v>       0.18246875       0.18430261      -0.18521495 </v>
     <v>       0.18246875       0.18430261       0.18521495 </v>
     <v>       0.36677134      -0.00183385       0.00000000 </v>
    </varray>
   </crystal>
   <varray name="positions" >
    <v>       0.00000000       0.00000000       0.00000000 </v>
    <v>       0.25000000       0.75000000       0.50000000 </v>
   </varray>
  </structure>
  <varray name="primitive_index" >
   <v type="int" >        1 </v>
   <v type="int" >       15 </v>
  </varray>
 </primitive_cell>
 <kpoints>
  <generation param="Gamma">
   <v type="int" name="divisions">       2        2        2 </v>
   <v name="usershift">      0.00000000       0.00000000       0.00000000 </v>
   <v name="genvec1">      0.50000000       0.00000000       0.00000000 </v>
   <v name="genvec2">      0.00000000       0.50000000       0.00000000 </v>
   <v name="genvec3">      0.00000000       0.00000000       0.50000000 </v>
   <v name="shift">      0.00000000       0.00000000       0.00000000 </v>
  </generation>
  <varray name="kpointlist" >
   <v>       0.00000000       0.00000000       0.00000000 </v>
   <v>       0.50000000      -0.00000000       0.00000000 </v>
   <v>      -0.00000000       0.50000000       0.00000000 </v>
   <v>       0.50000000       0.50000000       0.00000000 </v>
   <v>       0.00000000       0.00000000       0.50000000 </v>
   <v>       0.50000000      -0.00000000       0.50000000 </v>
   <v>      -0.00000000       0.50000000       0.50000000 </v>
   <v>       0.50000000       0.50000000       0.50000000 </v>
  </varray>
  <varray name="weights" >
   <v>       0.12500000 </v>
   <v>       0.12500000 </v>
   <v>       0.12500000 </v>
   <v>       0.12500000 </v>
   <v>       0.12500000 </v>
   <v>       0.12500000 </v>
   <v>       0.12500000 </v>
   <v>       0.12500000 </v>
  </varray>
 </kpoints>
 <parameters>
  <separator name="general" >
   <i type="string" name="SYSTEM">Si64</i>
   <i type="logical" name="LCOMPAT"> F  </i>
  </separator>
  <separator name="electronic" >
   <i type="string" name="PREC">accura</i>
   <i name="ENMAX">    400.00000000</i>
   <i name="ENAUG">    322.06900000</i>
   <i name="EDIFF">      0.00000100</i>
   <i type="int" name="IALGO">    68</i>
   <i type="int" name="IWAVPR">    11</i>
   <i type="int" name="NBANDS">   162</i>
   <i type="int" name="NBANDSLOW">    -1</i>
   <i type="int" name="NBANDSHIGH">    -1</i>
   <i name="NELECT">    256.00000000</i>
   <i type="int" name="TURBO">     0</i>
   <i type="int" name="IRESTART">     0</i>
   <i type="int" name="NREBOOT">     0</i>
   <i type="int" name="NMIN">     0</i>
   <i name="EREF">      0.00000000</i>
   <separator name="electronic smearing" >
    <i type="int" name="ISMEAR">     1</i>
    <i name="SIGMA">      0.20000000</i>
    <i name="KSPACING">      0.50000000</i>
    <i type="logical" name="KGAMMA"> T  </i>
    <i type="logical" name="KBLOWUP"> T  </i>
   </separator>
   <separator name="electronic projectors" >
    <i type="logical" name="LREAL"> T  </i>
    <v name="ROPT">     -0.00025000</v>
    <i type="int" name="LMAXPAW">  -100</i>
    <i type="int" name="LMAXMIX">     2</i>
    <i type="logical" name="NLSPLINE"> F  </i>
   </separator>
   <separator name="electronic startup" >
    <i type="int" name="ISTART">     0</i>
    <i type="int" name="ICHARG">     2</i>
    <i type="int" name="INIWAV">     1</i>
   </separator>
   <separator name="electronic spin" >
    <i type="int" name="ISPIN">     1</i>
    <i type="logical" name="LNONCOLLINEAR"> F  </i>
    <v name="MAGMOM">      1.00000000      1.00000000      1.00000000      1.00000000      1.00000000      1.00000000      1.00000000      1.00000000      1.00000000      1.00000000      1.00000000      1.00000000      1.00000000      1.00000000      1.00000000      1.00000000      1.00000000      1.00000000      1.00000000      1.00000000
      1.00000000      1.00000000      1.00000000      1.00000000      1.00000000      1.00000000      1.00000000      1.00000000      1.00000000      1.00000000      1.00000000      1.00000000      1.00000000      1.00000000      1.00000000      1.00000000      1.00000000      1.00000000      1.00000000      1.00000000
      1.00000000      1.00000000      1.00000000      1.00000000      1.00000000      1.00000000      1.00000000      1.00000000      1.00000000      1.00000000      1.00000000      1.00000000      1.00000000      1.00000000      1.00000000      1.00000000      1.00000000      1.00000000      1.00000000      1.00000000
      1.00000000      1.00000000      1.00000000      1.00000000</v>
    <i name="NUPDOWN">     -1.00000000</i>
    <i type="logical" name="LSORBIT"> F  </i>
    <v name="SAXIS">      0.00000000      0.00000000      1.00000000</v>
    <i type="logical" name="LSPIRAL"> F  </i>
    <v name="QSPIRAL">      0.00000000      0.00000000      0.00000000</v>
    <i type="logical" name="LZEROZ"> F  </i>
   </separator>
   <separator name="electronic exchange-correlation" >
    <i type="logical" name="LASPH"> F  </i>
   </separator>
   <separator name="electronic convergence" >
    <i type="int" name="NELM">    60</i>
    <i type="int" name="NELMDL">    -5</i>
    <i type="int" name="NELMIN">     8</i>
    <i name="ENINI">    400.00000000</i>
    <separator name="electronic convergence detail" >
     <i type="logical" name="LDIAG"> T  </i>
     <i type="logical" name="LSUBROT"> F  </i>
     <i name="WEIMIN">      0.00100000</i>
     <i name="EBREAK">      0.00000000</i>
     <i name="DEPER">      0.30000000</i>
     <i type="int" name="NRMM">     4</i>
     <i name="TIME">      0.40000000</i>
    </separator>
   </separator>
   <separator name="electronic mixer" >
    <i name="AMIX">      0.40000000</i>
    <i name="BMIX">      1.00000000</i>
    <i name="AMIN">      0.10000000</i>
    <i name="AMIX_MAG">      1.60000000</i>
    <i name="BMIX_MAG">      1.00000000</i>
    <separator name="electronic mixer details" >
     <i type="int" name="IMIX">     4</i>
     <i type="logical" name="MIXFIRST"> F  </i>
     <i type="int" name="MAXMIX">   -45</i>
     <i name="WC">    100.00000000</i>
     <i type="int" name="INIMIX">     1</i>
     <i type="int" name="MIXPRE">     1</i>
     <i type="int" name="MREMOVE">     5</i>
    </separator>
   </separator>
   <separator name="electronic dipolcorrection" >
    <i type="logical" name="LDIPOL"> F  </i>
    <i type="logical" name="LMONO"> F  </i>
    <i type="int" name="IDIPOL">     0</i>
    <i name="EPSILON">      1.00000000</i>
    <v name="DIPOL">   -100.00000000   -100.00000000   -100.00000000</v>
    <i name="EFIELD">      0.00000000</i>
    <i type="logical" name="LVACPOTAV"> F  </i>
   </separator>
  </separator>
  <separator name="grids" >
   <i type="int" name="NGX">    72</i>
   <i type="int" name="NGY">    70</i>
   <i type="int" name="NGZ">    70</i>
   <i type="int" name="NGXF">   144</i>
   <i type="int" name="NGYF">   140</i>
   <i type="int" name="NGZF">   140</i>
   <i type="logical" name="ADDGRID"> T  </i>
  </separator>
  <separator name="ionic" >
   <i type="int" name="NSW">    60</i>
   <i type="int" name="IBRION">     2</i>
   <i type="int" name="MDALGO">     0</i>
   <i type="int" name="ISIF">     2</i>
   <i name="PSTRESS">      0.00000000</i>
   <i name="EDIFFG">     -0.01000000</i>
   <i type="int" name="NFREE">     1</i>
   <i name="POTIM">      0.50000000</i>
   <i name="SMASS">     -3.00000000</i>
   <i name="SCALEE">      1.00000000</i>
  </separator>
  <separator name="ionic md" >
   <i name="TEBEG">      0.00010000</i>
   <i name="TEEND">      0.00010000</i>
   <i type="int" name="NBLOCK">     1</i>
   <i type="int" name="KBLOCK">    60</i>
   <i type="int" name="NPACO">   256</i>
   <i name="APACO">     10.00000000</i>
  </separator>
  <separator name="symmetry" >
   <i type="int" name="ISYM">     2</i>
   <i name="SYMPREC">      0.00001000</i>
  </separator>
  <separator name="dos" >
   <i type="int" name="LORBIT">     0</i>
   <v name="RWIGS">     -1.00000000</v>
   <i type="int" name="NEDOS">   301</i>
   <i name="EMIN">     10.00000000</i>
   <i name="EMAX">    -10.00000000</i>
   <i name="EFERMI">      0.00000000</i>
  </separator>
  <separator name="writing" >
   <i type="int" name="NWRITE">     2</i>
   <i type="logical" name="LWAVE"> F  </i>
   <i type="logical" name="LDOWNSAMPLE"> F  </i>
   <i type="logical" name="LCHARG"> F  </i>
   <i type="logical" name="LPARD"> F  </i>
   <i type="logical" name="LVTOT"> F  </i>
   <i type="logical" name="LVHAR"> F  </i>
   <i type="logical" name="LELF"> F  </i>
   <i type="logical" name="LOPTICS"> F  </i>
   <v name="STM">      0.00000000      0.00000000      0.00000000      0.00000000      0.00000000      0.00000000      0.00000000</v>
  </separator>
  <separator name="performance" >
   <i type="int" name="NPAR">     2</i>
   <i type="int" name="NSIM">     4</i>
   <i type="int" name="NBLK">    -1</i>
   <i type="logical" name="LPLANE"> T  </i>
   <i type="logical" name="LSCALAPACK"> T  </i>
   <i type="logical" name="LSCAAWARE"> F  </i>
   <i type="logical" name="LSCALU"> F  </i>
   <i type="logical" name="LASYNC"> F  </i>
   <i type="logical" name="LORBITALREAL"> F  </i>
  </separator>
  <separator name="miscellaneous" >
   <i type="int" name="IDIOT">     3</i>
   <i type="int" name="PHON_NSTRUCT">    -1</i>
   <i type="logical" name="LMUSIC"> F  </i>
   <v name="POMASS">     28.08500000</v>
   <v name="DARWINR">      0.00000000</v>
   <v name="DARWINV">      1.00000000</v>
   <i type="logical" name="LCORR"> T  </i>
  </separator>
  <i type="logical" name="GGA_COMPAT"> F  </i>
  <i type="logical" name="LBERRY"> F  </i>
  <i type="int" name="ICORELEVEL">     0</i>
  <i type="logical" name="LDAU"> F  </i>
  <i type="int" name="I_CONSTRAINED_M">     0</i>
  <separator name="electronic exchange-correlation" >
   <i type="string" name="GGA    ">PS</i>
   <i type="string" name="XC_C">1</i>
   <i type="int" name="VOSKOWN">     0</i>
   <i type="logical" name="LHFCALC"> F  </i>
   <i type="string" name="PRECFOCK"></i>
   <i type="logical" name="LSYMGRAD"> F  </i>
   <i type="logical" name="LHFONE"> F  </i>
   <i type="logical" name="LRHFCALC"> F  </i>
   <i type="logical" name="LTHOMAS"> F  </i>
   <i type="logical" name="LMODELHF"> F  </i>
   <i type="logical" name="LFOCKACE"> F  </i>
   <i name="ENCUT4O">     -1.00000000</i>
   <i type="int" name="EXXOEP">     0</i>
   <i type="int" name="FOURORBIT">     0</i>
   <i name="AEXX">      0.00000000</i>
   <i name="HFALPHA">      0.00000000</i>
   <i name="MCALPHA">      0.00000000</i>
   <i name="ALDAX">      1.00000000</i>
   <i name="AGGAX">      1.00000000</i>
   <i name="AMGGAX">      1.00000000</i>
   <i name="ALDAC">      1.00000000</i>
   <i name="AGGAC">      1.00000000</i>
   <i name="AMGGAC">      1.00000000</i>
   <i type="int" name="NKREDX">     1</i>
   <i type="int" name="NKREDY">     1</i>
   <i type="int" name="NKREDZ">     1</i>
   <i type="logical" name="SHIFTRED"> F  </i>
   <i type="logical" name="ODDONLY"> F  </i>
   <i type="logical" name="EVENONLY"> F  </i>
   <i type="int" name="LMAXFOCK">     0</i>
   <i type="int" name="NMAXFOCKAE">     0</i>
   <i type="logical" name="LFOCKAEDFT"> F  </i>
   <i name="HFSCREEN">      0.00000000</i>
   <i name="HFSCREENC">      0.00000000</i>
   <i type="int" name="NBANDSGWLOW">     0</i>
  </separator>
  <separator name="vdW DFT" >
   <i type="logical" name="LUSE_VDW"> F  </i>
   <i type="int" name="IVDW_NL">    -1</i>
   <i type="logical" name="LSPIN_VDW"> F  </i>
   <i name="ZAB_VDW">     -0.84910000</i>
   <i name="GAMMA_VDW">      1.39626340</i>
   <i name="ALPHA_VDW">      0.00000000</i>
   <i name="PARAM1">      0.12340000</i>
   <i name="PARAM2">      1.00000000</i>
   <i name="BPARAM">      6.30000000</i>
   <i name="CPARAM">      0.00930000</i>
  </separator>
  <separator name="model GW" >
   <i type="int" name="MODEL_GW">     0</i>
   <i name="MODEL_EPS0">     11.92185430</i>
   <i name="MODEL_ALPHA">      1.00000000</i>
  </separator>
  <separator name="linear response parameters" >
   <i type="logical" name="LEPSILON"> F  </i>
   <i type="logical" name="LRPA"> F  </i>
   <i type="logical" name="LNABLA"> F  </i>
   <i type="logical" name="LVEL"> F  </i>
   <i name="CSHIFT">      0.10000000</i>
   <i name="OMEGAMAX">     -1.00000000</i>
   <i name="DEG_THRESHOLD">      0.00200000</i>
   <i name="RTIME">     -0.10000000</i>
   <i name="WPLASMAI">      0.00000000</i>
   <v name="DFIELD">      0.00000000      0.00000000      0.00000000</v>
   <v name="WPLASMA">      0.00000000      0.00000000      0.00000000      0.00000000      0.00000000      0.00000000      0.00000000      0.00000000      0.00000000</v>
  </separator>
  <separator name="orbital magnetization" >
   <i type="logical" name="NUCIND"> F  </i>
   <v name="MAGPOS">      0.00000000      0.00000000      0.00000000</v>
   <i type="logical" name="LNICSALL"> T  </i>
   <i type="logical" name="ORBITALMAG"> F  </i>
   <i type="logical" name="LMAGBLOCH"> F  </i>
   <i type="logical" name="LCHIMAG"> F  </i>
   <i type="logical" name="LGAUGE"> T  </i>
   <i type="int" name="MAGATOM">     0</i>
   <v name="MAGDIPOL">      0.00000000      0.00000000      0.00000000</v>
   <v name="AVECCONST">      0.00000000      0.00000000      0.00000000</v>
  </separator>
  <separator name="response functions" >
   <i type="logical" name="LALL_IN_ONE"> F  </i>
   <i type="int" name="IALL_IN_ONE">    -1</i>
   <i type="int" name="NBANDS_WAVE">    -1</i>
   <i type="logical" name="LFINITE_TEMPERATURE"> F  </i>
   <i type="logical" name="LADDER"> F  </i>
   <i type="logical" name="LRPAFORCE"> F  </i>
   <i type="logical" name="LFXC"> F  </i>
   <i type="logical" name="LHARTREE"> T  </i>
   <i type="int" name="IBSE">     0</i>
   <v type="int" name="KPOINT">    -1     0     0     0</v>
   <i type="logical" name="LTCTC"> F  </i>
   <i type="logical" name="LTCTE"> F  </i>
   <i type="logical" name="LTETE"> F  </i>
   <i type="logical" name="LTRIPLET"> F  </i>
   <i type="logical" name="LFXCEPS"> F  </i>
   <i type="logical" name="LFXHEG"> F  </i>
   <i type="int" name="NATURALO">     2</i>
   <i type="logical" name="LHOLEGF"> F  </i>
   <i type="logical" name="L2ORDER"> F  </i>
   <i type="logical" name="LDMP1"> F  </i>
   <i type="logical" name="LMP2LT"> F  </i>
   <i type="logical" name="LSMP2LT"> F  </i>
   <i type="logical" name="LGWLF"> F  </i>
   <i name="ENCUTGW">     -1.60000002</i>
   <i name="ENCUTGWSOFT">     -1.60000002</i>
   <i name="ENCUTLF">     -1.00000000</i>
   <i type="logical" name="ESF_SPLINES"> F  </i>
   <i name="ESF_CONV">      0.01000000</i>
   <i type="int" name="ESF_NINTER">    15</i>
   <i type="int" name="LMAXMP2">    -1</i>
   <i name="SCISSOR">      0.00000000</i>
   <i type="int" name="NOMEGA">     0</i>
   <i type="int" name="NOMEGAR">     0</i>
   <i type="int" name="NBANDSGW">    -1</i>
   <i type="int" name="NBANDSO">    -1</i>
   <i type="int" name="NBANDSV">    -1</i>
   <i type="int" name="NELMGW">     1</i>
   <i type="int" name="NELMHF">     1</i>
   <i type="int" name="DIM">     3</i>
   <i type="int" name="IESPILON">     4</i>
   <i type="int" name="ANTIRES">     0</i>
   <i name="OMEGAMAX">    -30.00000000</i>
   <i name="OMEGAMIN">    -30.00000000</i>
   <i name="OMEGATL">   -200.00000000</i>
   <i type="int" name="OMEGAGRID">     0</i>
   <i name="CSHIFT">     -0.10000000</i>
   <i type="logical" name="LSELFENERGY"> F  </i>
   <i type="logical" name="LSPECTRAL"> F  </i>
   <i type="logical" name="LSPECTRALGW"> F  </i>
   <i type="logical" name="LSINGLES"> F  </i>
   <i type="logical" name="LFERMIGW"> F  </i>
   <i type="logical" name="ODDONLYGW"> F  </i>
   <i type="logical" name="EVENONLYGW"> F  </i>
   <i type="int" name="NKREDLFX">     1</i>
   <i type="int" name="NKREDLFY">     1</i>
   <i type="int" name="NKREDLFZ">     1</i>
   <i type="int" name="MAXMEM">  2800</i>
   <i type="int" name="TELESCOPE">     0</i>
   <i type="int" name="NTAUPAR">    -1</i>
   <i type="int" name="NOMEGAPAR">    -1</i>
   <i name="DAMP_NEWTON">      0.80000001</i>
   <i name="LAMBDA">      1.00000000</i>
  </separator>
  <separator name="External order field" >
   <i name="OFIELD_KAPPA">      0.00000000</i>
   <v name="OFIELD_K">      0.00000000      0.00000000      0.00000000</v>
   <i name="OFIELD_Q6_NEAR">      0.00000000</i>
   <i name="OFIELD_Q6_FAR">      0.00000000</i>
   <i name="OFIELD_A">      0.00000000</i>
  </separator>
  <separator name="optional k-points parameters" >
   <i type="int" name="KPOINTS_OPT_MODE">     1</i>
   <i type="logical" name="LKPOINTS_OPT"> F  </i>
  </separator>
 </parameters>
 <atominfo>
  <atoms>      64 </atoms>
  <types>       1 </types>
  <array name="atoms" >
   <dimension dim="1">ion</dimension>
   <field type="string">element</field>
   <field type="int">atomtype</field>
   <set>
    <rc><c>Si</c><c>   1</c></rc>
    <rc><c>Si</c><c>   1</c></rc>
    <rc><c>Si</c><c>   1</c></rc>
    <rc><c>Si</c><c>   1</c></rc>
    <rc><c>Si</c><c>   1</c></rc>
    <rc><c>Si</c><c>   1</c></rc>
    <rc><c>Si</c><c>   1</c></rc>
    <rc><c>Si</c><c>   1</c></rc>
    <rc><c>Si</c><c>   1</c></rc>
    <rc><c>Si</c><c>   1</c></rc>
    <rc><c>Si</c><c>   1</c></rc>
    <rc><c>Si</c><c>   1</c></rc>
    <rc><c>Si</c><c>   1</c></rc>
    <rc><c>Si</c><c>   1</c></rc>
    <rc><c>Si</c><c>   1</c></rc>
    <rc><c>Si</c><c>   1</c></rc>
    <rc><c>Si</c><c>   1</c></rc>
    <rc><c>Si</c><c>   1</c></rc>
    <rc><c>Si</c><c>   1</c></rc>
    <rc><c>Si</c><c>   1</c></rc>
    <rc><c>Si</c><c>   1</c></rc>
    <rc><c>Si</c><c>   1</c></rc>
    <rc><c>Si</c><c>   1</c></rc>
    <rc><c>Si</c><c>   1</c></rc>
    <rc><c>Si</c><c>   1</c></rc>
    <rc><c>Si</c><c>   1</c></rc>
    <rc><c>Si</c><c>   1</c></rc>
    <rc><c>Si</c><c>   1</c></rc>
    <rc><c>Si</c><c>   1</c></rc>
    <rc><c>Si</c><c>   1</c></rc>
    <rc><c>Si</c><c>   1</c></rc>
    <rc><c>Si</c><c>   1</c></rc>
    <rc><c>Si</c><c>   1</c></rc>
    <rc><c>Si</c><c>   1</c></rc>
    <rc><c>Si</c><c>   1</c></rc>
    <rc><c>Si</c><c>   1</c></rc>
    <rc><c>Si</c><c>   1</c></rc>
    <rc><c>Si</c><c>   1</c></rc>
    <rc><c>Si</c><c>   1</c></rc>
    <rc><c>Si</c><c>   1</c></rc>
    <rc><c>Si</c><c>   1</c></rc>
    <rc><c>Si</c><c>   1</c></rc>
    <rc><c>Si</c><c>   1</c></rc>
    <rc><c>Si</c><c>   1</c></rc>
    <rc><c>Si</c><c>   1</c></rc>
    <rc><c>Si</c><c>   1</c></rc>
    <rc><c>Si</c><c>   1</c></rc>
    <rc><c>Si</c><c>   1</c></rc>
    <rc><c>Si</c><c>   1</c></rc>
    <rc><c>Si</c><c>   1</c></rc>
    <rc><c>Si</c><c>   1</c></rc>
    <rc><c>Si</c><c>   1</c></rc>
    <rc><c>Si</c><c>   1</c></rc>
    <rc><c>Si</c><c>   1</c></rc>
    <rc><c>Si</c><c>   1</c></rc>
    <rc><c>Si</c><c>   1</c></rc>
    <rc><c>Si</c><c>   1</c></rc>
    <rc><c>Si</c><c>   1</c></rc>
    <rc><c>Si</c><c>   1</c></rc>
    <rc><c>Si</c><c>   1</c></rc>
    <rc><c>Si</c><c>   1</c></rc>
    <rc><c>Si</c><c>   1</c></rc>
    <rc><c>Si</c><c>   1</c></rc>
    <rc><c>Si</c><c>   1</c></rc>
   </set>
  </array>
  <array name="atomtypes" >
   <dimension dim="1">type</dimension>
   <field type="int">atomspertype</field>
   <field type="string">element</field>
   <field>mass</field>
   <field>valence</field>
   <field type="string">pseudopotential</field>
   <set>
    <rc><c>  64</c><c>Si</c><c>     28.08500000</c><c>      4.00000000</c><c>  PAW_PBE Si 05Jan2001                  </c></rc>
   </set>
  </array>
 </atominfo>
 <structure name="initialpos" >
  <crystal>
   <varray name="basis" >
    <v>      10.90624761       0.05399101       0.00000000 </v>
    <v>       0.05399101      10.79826459       0.00000000 </v>
    <v>       0.00000000       0.00000000      10.79826459 </v>
   </varray>
   <i name="volume">   1271.66445888 </i>
   <varray name="rec_basis" >
    <v>       0.09169283      -0.00045846       0.00000000 </v>
    <v>      -0.00045846       0.09260977       0.00000000 </v>
    <v>       0.00000000       0.00000000       0.09260747 </v>
   </varray>
  </crystal>
  <varray name="positions" >
   <v>       0.00000000       0.00000000       0.00000000 </v>
   <v>       0.00000000       0.00000000       0.50000000 </v>
   <v>       0.00000000       0.50000000       0.00000000 </v>
   <v>       0.00000000       0.50000000       0.50000000 </v>
   <v>       0.50000000       0.00000000       0.00000000 </v>
   <v>       0.50000000       0.00000000       0.50000000 </v>
   <v>       0.50000000       0.50000000       0.00000000 </v>
   <v>       0.50000000       0.50000000       0.50000000 </v>
   <v>       0.37500000       0.37500000       0.12500000 </v>
   <v>       0.37500000       0.37500000       0.62500000 </v>
   <v>       0.37500000       0.87500000       0.12500000 </v>
   <v>       0.37500000       0.87500000       0.62500000 </v>
   <v>       0.87500000       0.37500000       0.12500000 </v>
   <v>       0.87500000       0.37500000       0.62500000 </v>
   <v>       0.87500000       0.87500000       0.12500000 </v>
   <v>       0.87500000       0.87500000       0.62500000 </v>
   <v>       0.00000000       0.25000000       0.25000000 </v>
   <v>       0.00000000       0.25000000       0.75000000 </v>
   <v>       0.00000000       0.75000000       0.25000000 </v>
   <v>       0.00000000       0.75000000       0.75000000 </v>
   <v>       0.50000000       0.25000000       0.25000000 </v>
   <v>       0.50000000       0.25000000       0.75000000 </v>
   <v>       0.50000000       0.75000000       0.25000000 </v>
   <v>       0.50000000       0.75000000       0.75000000 </v>
   <v>       0.37500000       0.12500000       0.37500000 </v>
   <v>       0.37500000       0.12500000       0.87500000 </v>
   <v>       0.37500000       0.62500000       0.37500000 </v>
   <v>       0.37500000       0.62500000       0.87500000 </v>
   <v>       0.87500000       0.12500000       0.37500000 </v>
   <v>       0.87500000       0.12500000       0.87500000 </v>
   <v>       0.87500000       0.62500000       0.37500000 </v>
   <v>       0.87500000       0.62500000       0.87500000 </v>
   <v>       0.25000000       0.00000000       0.25000000 </v>
   <v>       0.25000000       0.00000000       0.75000000 </v>
   <v>       0.25000000       0.50000000       0.25000000 </v>
   <v>       0.25000000       0.50000000       0.75000000 </v>
   <v>       0.75000000       0.00000000       0.25000000 </v>
   <v>       0.75000000       0.00000000       0.75000000 </v>
   <v>       0.75000000       0.50000000       0.25000000 </v>
   <v>       0.75000000       0.50000000       0.75000000 </v>
   <v>       0.12500000       0.37500000       0.37500000 </v>
   <v>       0.12500000       0.37500000       0.87500000 </v>
   <v>       0.12500000       0.87500000       0.37500000 </v>
   <v>       0.12500000       0.87500000       0.87500000 </v>
   <v>       0.62500000       0.37500000       0.37500000 </v>
   <v>       0.62500000       0.37500000       0.87500000 </v>
   <v>       0.62500000       0.87500000       0.37500000 </v>
   <v>       0.62500000       0.87500000       0.87500000 </v>
   <v>       0.25000000       0.25000000       0.00000000 </v>
   <v>       0.25000000       0.25000000       0.50000000 </v>
   <v>       0.25000000       0.75000000       0.00000000 </v>
   <v>       0.25000000       0.75000000       0.50000000 </v>
   <v>       0.75000000       0.25000000       0.00000000 </v>
   <v>       0.75000000       0.25000000       0.50000000 </v>
   <v>       0.75000000       0.75000000       0.00000000 </v>
   <v>       0.75000000       0.75000000       0.50000000 </v>
   <v>       0.12500000       0.12500000       0.12500000 </v>
   <v>       0.12500000       0.12500000       0.62500000 </v>
   <v>       0.12500000       0.62500000       0.12500000 </v>
   <v>       0.12500000       0.62500000       0.62500000 </v>
   <v>       0.62500000       0.12500000       0.12500000 </v>
   <v>       0.62500000       0.12500000       0.62500000 </v>
   <v>       0.62500000       0.62500000       0.12500000 </v>
   <v>       0.62500000       0.62500000       0.62500000 </v>
  </varray>
 </structure>
 <calculation>
  <scstep>
   <time name="dav">    1.25    1.32</time>
   <time name="total">    1.44    1.53</time>
   <energy>
    <i name="alphaZ">    108.42811781 </i>
    <i name="ewald">  -7331.52734850 </i>
    <i name="hartreedc">   -348.61027576 </i>
    <i name="XCdc">   -557.71886942 </i>
    <i name="pawpsdc">   5598.62625415 </i>
    <i name="pawaedc">  -4492.17844134 </i>
    <i name="eentropy">      0.01304045 </i>
    <i name="bandstr">   1016.67867288 </i>
    <i name="atom">   6564.79586099 </i>
    <i name="e_fr_energy">    558.50701127 </i>
    <i name="e_wo_entrp">    558.49397082 </i>
    <i name="e_0_energy">    558.50266445 </i>
   </energy>
  </scstep>
  <scstep>
   <time name="dav">    1.32    1.34</time>
   <time name="total">    1.32    1.35</time>
   <energy>
    <i name="e_fr_energy">   -309.79279399 </i>
    <i name="e_wo_entrp">   -309.81041329 </i>
    <i name="e_0_energy">   -309.79866709 </i>
   </energy>
  </scstep>
  <scstep>
   <time name="dav">    1.40    1.42</time>
   <time name="total">    1.40    1.42</time>
   <energy>
    <i name="e_fr_energy">   -373.17387744 </i>
    <i name="e_wo_entrp">   -373.18120607 </i>
    <i name="e_0_energy">   -373.17632032 </i>
   </energy>
  </scstep>
  <scstep>
   <time name="dav">    1.33    1.37</time>
   <time name="total">    1.33    1.37</time>
   <energy>
    <i name="e_fr_energy">   -374.82313917 </i>
    <i name="e_wo_entrp">   -374.83149635 </i>
    <i name="e_0_energy">   -374.82592489 </i>
   </energy>
  </scstep>
  <scstep>
   <time name="dav">    1.37    1.39</time>
   <time name="total">    1.63    1.66</time>
   <energy>
    <i name="e_fr_energy">   -374.87663953 </i>
    <i name="e_wo_entrp">   -374.88500902 </i>
    <i name="e_0_energy">   -374.87942936 </i>
   </energy>
  </scstep>
  <scstep>
   <time name="diag">    0.14    0.14</time>
   <time name="diis">    0.71    0.71</time>
   <time name="orth">    0.02    0.02</time>
   <time name="total">    1.26    1.29</time>
   <energy>
    <i name="e_fr_energy">   -369.78262901 </i>
    <i name="e_wo_entrp">   -369.79185731 </i>
    <i name="e_0_energy">   -369.78570511 </i>
   </energy>
  </scstep>
  <scstep>
   <time name="diag">    0.14    0.14</time>
   <time name="diis">    0.71    0.71</time>
   <time name="orth">    0.02    0.02</time>
   <time name="total">    1.27    1.29</time>
   <energy>
    <i name="e_fr_energy">   -367.45894689 </i>
    <i name="e_wo_entrp">   -367.49031795 </i>
    <i name="e_0_energy">   -367.46940391 </i>
   </energy>
  </scstep>
  <scstep>
   <time name="diag">    0.14    0.14</time>
   <time name="diis">    0.70    0.71</time>
   <time name="orth">    0.02    0.02</time>
   <time name="total">    1.26    1.28</time>
   <energy>
    <i name="e_fr_energy">   -367.50188568 </i>
    <i name="e_wo_entrp">   -367.53096776 </i>
    <i name="e_0_energy">   -367.51157971 </i>
   </energy>
  </scstep>
  <scstep>
   <time name="diag">    0.14    0.14</time>
   <time name="diis">    0.72    0.73</time>
   <time name="orth">    0.02    0.02</time>
   <time name="total">    1.27    1.29</time>
   <energy>
    <i name="e_fr_energy">   -367.52124841 </i>
    <i name="e_wo_entrp">   -367.55090957 </i>
    <i name="e_0_energy">   -367.53113546 </i>
   </energy>
  </scstep>
  <scstep>
   <time name="diag">    0.13    0.13</time>
   <time name="diis">    0.74    0.74</time>
   <time name="orth">    0.02    0.02</time>
   <time name="total">    1.28    1.30</time>
   <energy>
    <i name="e_fr_energy">   -367.52453905 </i>
    <i name="e_wo_entrp">   -367.55421995 </i>
    <i name="e_0_energy">   -367.53443268 </i>
   </energy>
  </scstep>
  <scstep>
   <time name="diag">    0.13    0.13</time>
   <time name="diis">    0.70    0.70</time>
   <time name="orth">    0.02    0.02</time>
   <time name="total">    1.25    1.27</time>
   <energy>
    <i name="e_fr_energy">   -367.52233273 </i>
    <i name="e_wo_entrp">   -367.55116470 </i>
    <i name="e_0_energy">   -367.53194339 </i>
   </energy>
  </scstep>
  <scstep>
   <time name="diag">    0.13    0.13</time>
   <time name="diis">    0.68    0.69</time>
   <time name="orth">    0.02    0.02</time>
   <time name="total">    1.24    1.25</time>
   <energy>
    <i name="e_fr_energy">   -367.52239313 </i>
    <i name="e_wo_entrp">   -367.55117781 </i>
    <i name="e_0_energy">   -367.53198802 </i>
   </energy>
  </scstep>
  <scstep>
   <time name="diag">    0.13    0.13</time>
   <time name="diis">    0.73    0.73</time>
   <time name="orth">    0.02    0.02</time>
   <time name="total">    1.28    1.30</time>
   <energy>
    <i name="e_fr_energy">   -367.52244801 </i>
    <i name="e_wo_entrp">   -367.55123685 </i>
    <i name="e_0_energy">   -367.53204429 </i>
   </energy>
  </scstep>
  <scstep>
   <time name="diag">    0.13    0.13</time>
   <time name="diis">    0.72    0.72</time>
   <time name="orth">    0.02    0.02</time>
   <time name="total">    1.28    1.29</time>
   <energy>
    <i name="e_fr_energy">   -367.52234446 </i>
    <i name="e_wo_entrp">   -367.55110078 </i>
    <i name="e_0_energy">   -367.53192990 </i>
   </energy>
  </scstep>
  <scstep>
   <time name="diag">    0.14    0.14</time>
   <time name="diis">    0.70    0.70</time>
   <time name="orth">    0.02    0.02</time>
   <time name="total">    1.25    1.27</time>
   <energy>
    <i name="e_fr_energy">   -367.52248801 </i>
    <i name="e_wo_entrp">   -367.55119310 </i>
    <i name="e_0_energy">   -367.53205637 </i>
   </energy>
  </scstep>
  <scstep>
   <time name="diag">    0.14    0.14</time>
   <time name="diis">    0.70    0.70</time>
   <time name="orth">    0.02    0.02</time>
   <time name="total">    1.26    1.28</time>
   <energy>
    <i name="e_fr_energy">   -367.52262648 </i>
    <i name="e_wo_entrp">   -367.55133081 </i>
    <i name="e_0_energy">   -367.53219459 </i>
   </energy>
  </scstep>
  <scstep>
   <time name="diag">    0.14    0.14</time>
   <time name="diis">    0.68    0.70</time>
   <time name="orth">    0.02    0.02</time>
   <time name="total">    1.23    1.26</time>
   <energy>
    <i name="e_fr_energy">   -367.52268915 </i>
    <i name="e_wo_entrp">   -367.55139073 </i>
    <i name="e_0_energy">   -367.53225634 </i>
   </energy>
  </scstep>
  <scstep>
   <time name="diag">    0.13    0.13</time>
   <time name="diis">    0.69    0.70</time>
   <time name="orth">    0.02    0.02</time>
   <time name="total">    1.24    1.27</time>
   <energy>
    <i name="e_fr_energy">   -367.52271008 </i>
    <i name="e_wo_entrp">   -367.55140547 </i>
    <i name="e_0_energy">   -367.53227521 </i>
   </energy>
  </scstep>
  <scstep>
   <time name="diag">    0.13    0.13</time>
   <time name="diis">    0.62    0.62</time>
   <time name="orth">    0.02    0.02</time>
   <time name="total">    1.17    1.19</time>
   <energy>
    <i name="e_fr_energy">   -367.52272092 </i>
    <i name="e_wo_entrp">   -367.55141122 </i>
    <i name="e_0_energy">   -367.53228436 </i>
   </energy>
  </scstep>
  <scstep>
   <time name="diag">    0.13    0.13</time>
   <time name="diis">    0.48    0.48</time>
   <time name="orth">    0.02    0.02</time>
   <time name="total">    1.02    1.04</time>
   <energy>
    <i name="e_fr_energy">   -367.52272300 </i>
    <i name="e_wo_entrp">   -367.55140863 </i>
    <i name="e_0_energy">   -367.53228488 </i>
   </energy>
  </scstep>
  <scstep>
   <time name="diag">    0.14    0.14</time>
   <time name="diis">    0.45    0.45</time>
   <time name="orth">    0.02    0.02</time>
   <time name="total">    0.76    0.78</time>
   <energy>
    <i name="alphaZ">    108.42811781 </i>
    <i name="ewald">  -7331.52734850 </i>
    <i name="hartreedc">   -465.32529394 </i>
    <i name="XCdc">   -538.04411757 </i>
    <i name="pawpsdc">  28229.27990054 </i>
    <i name="pawaedc"> -27129.90346405 </i>
    <i name="eentropy">      0.02868591 </i>
    <i name="bandstr">    194.74493526 </i>
    <i name="atom">   6564.79586099 </i>
    <i name="e_fr_energy">   -367.52272354 </i>
    <i name="e_wo_entrp">   -367.55140945 </i>
    <i name="e_0_energy">   -367.53228551 </i>
   </energy>
  </scstep>
  <structure>
   <crystal>
    <varray name="basis" >
     <v>      10.90624761       0.05399101       0.00000000 </v>
     <v>       0.05399101      10.79826459       0.00000000 </v>
     <v>       0.00000000       0.00000000      10.79826459 </v>
    </varray>
    <i name="volume">   1271.66445888 </i>
    <varray name="rec_basis" >
     <v>       0.09169283      -0.00045846       0.00000000 </v>
     <v>      -0.00045846       0.09260977       0.00000000 </v>
     <v>       0.00000000       0.00000000       0.09260747 </v>
    </varray>
   </crystal>
   <varray name="positions" >
    <v>       0.00000000       0.00000000       0.00000000 </v>
    <v>       0.00000000       0.00000000       0.50000000 </v>
    <v>       0.00000000       0.50000000       0.00000000 </v>
    <v>       0.00000000       0.50000000       0.50000000 </v>
    <v>       0.50000000       0.00000000       0.00000000 </v>
    <v>       0.50000000       0.00000000       0.50000000 </v>
    <v>       0.50000000       0.50000000       0.00000000 </v>
    <v>       0.50000000       0.50000000       0.50000000 </v>
    <v>       0.37500000       0.37500000       0.12500000 </v>
    <v>       0.37500000       0.37500000       0.62500000 </v>
    <v>       0.37500000       0.87500000       0.12500000 </v>
    <v>       0.37500000       0.87500000       0.62500000 </v>
    <v>       0.87500000       0.37500000       0.12500000 </v>
    <v>       0.87500000       0.37500000       0.62500000 </v>
    <v>       0.87500000       0.87500000       0.12500000 </v>
    <v>       0.87500000       0.87500000       0.62500000 </v>
    <v>       0.00000000       0.25000000       0.25000000 </v>
    <v>       0.00000000       0.25000000       0.75000000 </v>
    <v>       0.00000000       0.75000000       0.25000000 </v>
    <v>       0.00000000       0.75000000       0.75000000 </v>
    <v>       0.50000000       0.25000000       0.25000000 </v>
    <v>       0.50000000       0.25000000       0.75000000 </v>
    <v>       0.50000000       0.75000000       0.25000000 </v>
    <v>       0.50000000       0.75000000       0.75000000 </v>
    <v>       0.37500000       0.12500000       0.37500000 </v>
    <v>       0.37500000       0.12500000       0.87500000 </v>
    <v>       0.37500000       0.62500000       0.37500000 </v>
    <v>       0.37500000       0.62500000       0.87500000 </v>
    <v>       0.87500000       0.12500000       0.37500000 </v>
    <v>       0.87500000       0.12500000       0.87500000 </v>
    <v>       0.87500000       0.62500000       0.37500000 </v>
    <v>       0.87500000       0.62500000       0.87500000 </v>
    <v>       0.25000000       0.00000000       0.25000000 </v>
    <v>       0.25000000       0.00000000       0.75000000 </v>
    <v>       0.25000000       0.50000000       0.25000000 </v>
    <v>       0.25000000       0.50000000       0.75000000 </v>
    <v>       0.75000000       0.00000000       0.25000000 </v>
    <v>       0.75000000       0.00000000       0.75000000 </v>
    <v>       0.75000000       0.50000000       0.25000000 </v>
    <v>       0.75000000       0.50000000       0.75000000 </v>
    <v>       0.12500000       0.37500000       0.37500000 </v>
    <v>       0.12500000       0.37500000       0.87500000 </v>
    <v>       0.12500000       0.87500000       0.37500000 </v>
    <v>       0.12500000       0.87500000       0.87500000 </v>
    <v>       0.62500000       0.37500000       0.37500000 </v>
    <v>       0.62500000       0.37500000       0.87500000 </v>
    <v>       0.62500000       0.87500000       0.37500000 </v>
    <v>       0.62500000       0.87500000       0.87500000 </v>
    <v>       0.25000000       0.25000000       0.00000000 </v>
    <v>       0.25000000       0.25000000       0.50000000 </v>
    <v>       0.25000000       0.75000000       0.00000000 </v>
    <v>       0.25000000       0.75000000       0.50000000 </v>
    <v>       0.75000000       0.25000000       0.00000000 </v>
    <v>       0.75000000       0.25000000       0.50000000 </v>
    <v>       0.75000000       0.75000000       0.00000000 </v>
    <v>       0.75000000       0.75000000       0.50000000 </v>
    <v>       0.12500000       0.12500000       0.12500000 </v>
    <v>       0.12500000       0.12500000       0.62500000 </v>
    <v>       0.12500000       0.62500000       0.12500000 </v>
    <v>       0.12500000       0.62500000       0.62500000 </v>
    <v>       0.62500000       0.12500000       0.12500000 </v>
    <v>       0.62500000       0.12500000       0.62500000 </v>
    <v>       0.62500000       0.62500000       0.12500000 </v>
    <v>       0.62500000       0.62500000       0.62500000 </v>
   </varray>
  </structure>
  <varray name="forces" >
   <v>      -0.00000000      -0.00000000       0.10296818 </v>
   <v>      -0.00000000       0.00000000       0.10296818 </v>
   <v>      -0.00000000       0.00000000       0.10296818 </v>
   <v>      -0.00000000       0.00000000       0.10296818 </v>
   <v>      -0.00000000       0.00000000       0.10296818 </v>
   <v>      -0.00000000      -0.00000000       0.10296818 </v>
   <v>      -0.00000000      -0.00000000       0.10296818 </v>
   <v>      -0.00000000      -0.00000000       0.10296818 </v>
   <v>       0.00000000      -0.00000000      -0.10296818 </v>
   <v>       0.00000000      -0.00000000      -0.10296818 </v>
   <v>       0.00000000       0.00000000      -0.10296818 </v>
   <v>       0.00000000      -0.00000000      -0.10296818 </v>
   <v>       0.00000000       0.00000000      -0.10296818 </v>
   <v>       0.00000000       0.00000000      -0.10296818 </v>
   <v>      -0.00000000       0.00000000      -0.10296818 </v>
   <v>       0.00000000       0.00000000      -0.10296818 </v>
   <v>      -0.00000000      -0.00000000       0.10296818 </v>
   <v>       0.00000000      -0.00000000       0.10296818 </v>
   <v>      -0.00000000       0.00000000       0.10296818 </v>
   <v>      -0.00000000       0.00000000       0.10296818 </v>
   <v>      -0.00000000       0.00000000       0.10296818 </v>
   <v>      -0.00000000      -0.00000000       0.10296818 </v>
   <v>      -0.00000000       0.00000000       0.10296818 </v>
   <v>      -0.00000000      -0.00000000       0.10296818 </v>
   <v>       0.00000000      -0.00000000      -0.10296818 </v>
   <v>       0.00000000       0.00000000      -0.10296818 </v>
   <v>       0.00000000      -0.00000000      -0.10296818 </v>
   <v>       0.00000000      -0.00000000      -0.10296818 </v>
   <v>       0.00000000       0.00000000      -0.10296818 </v>
   <v>       0.00000000       0.00000000      -0.10296818 </v>
   <v>       0.00000000       0.00000000      -0.10296818 </v>
   <v>       0.00000000       0.00000000      -0.10296818 </v>
   <v>       0.00000000      -0.00000000       0.10296818 </v>
   <v>       0.00000000      -0.00000000       0.10296818 </v>
   <v>       0.00000000       0.00000000       0.10296818 </v>
   <v>       0.00000000      -0.00000000       0.10296818 </v>
   <v>       0.00000000      -0.00000000       0.10296818 </v>
   <v>       0.00000000       0.00000000       0.10296818 </v>
   <v>       0.00000000      -0.00000000       0.10296818 </v>
   <v>       0.00000000       0.00000000       0.10296818 </v>
   <v>      -0.00000000       0.00000000      -0.10296818 </v>
   <v>      -0.00000000       0.00000000      -0.10296818 </v>
   <v>      -0.00000000       0.00000000      -0.10296818 </v>
   <v>      -0.00000000       0.00000000      -0.10296818 </v>
   <v>       0.00000000      -0.00000000      -0.10296818 </v>
   <v>      -0.00000000      -0.00000000      -0.10296818 </v>
   <v>       0.00000000      -0.00000000      -0.10296818 </v>
   <v>      -0.00000000      -0.00000000      -0.10296818 </v>
   <v>       0.00000000      -0.00000000       0.10296818 </v>
   <v>       0.00000000       0.00000000       0.10296818 </v>
   <v>       0.00000000      -0.00000000       0.10296818 </v>
   <v>       0.00000000      -0.00000000       0.10296818 </v>
   <v>       0.00000000      -0.00000000       0.10296818 </v>
   <v>       0.00000000       0.00000000       0.10296818 </v>
   <v>       0.00000000      -0.00000000       0.10296818 </v>
   <v>       0.00000000       0.00000000       0.10296818 </v>
   <v>      -0.00000000       0.00000000      -0.10296818 </v>
   <v>      -0.00000000       0.00000000      -0.10296818 </v>
   <v>      -0.00000000       0.00000000      -0.10296818 </v>
   <v>      -0.00000000       0.00000000      -0.10296818 </v>
   <v>      -0.00000000      -0.00000000      -0.10296818 </v>
   <v>      -0.00000000      -0.00000000      -0.10296818 </v>
   <v>      -0.00000000      -0.00000000      -0.10296818 </v>
   <v>       0.00000000      -0.00000000      -0.10296818 </v>
  </varray>
  <varray name="stress" >
   <v>       3.91736546     -10.41590649       0.00000000 </v>
   <v>     -10.41590648      13.22552797       0.00000000 </v>
   <v>       0.00000000       0.00000000      13.10465327 </v>
  </varray>
  <energy>
   <i name="e_fr_energy">   -367.52272354 </i>
   <i name="e_wo_entrp">   -367.55140945 </i>
   <i name="e_0_energy">   -367.53228551 </i>
  </energy>
  <time name="totalsc">   30.12   30.67</time>
 </calculation>
 <calculation>
  <scstep>
   <time name="dav">    1.30    1.31</time>
   <time name="total">    1.69    1.70</time>
   <energy>
    <i name="alphaZ">    108.42811781 </i>
    <i name="ewald">  -7331.73929315 </i>
    <i name="hartreedc">   -465.21525894 </i>
    <i name="XCdc">   -538.04789583 </i>
    <i name="pawpsdc">  28234.75137064 </i>
    <i name="pawaedc"> -27135.37495057 </i>
    <i name="eentropy">      0.02855727 </i>
    <i name="bandstr">    194.84211066 </i>
    <i name="atom">   6564.79586099 </i>
    <i name="e_fr_energy">   -367.53138112 </i>
    <i name="e_wo_entrp">   -367.55993840 </i>
    <i name="e_0_energy">   -367.54090022 </i>
   </energy>
  </scstep>
  <scstep>
   <time name="diag">    0.13    0.13</time>
   <time name="diis">    0.70    0.70</time>
   <time name="orth">    0.02    0.02</time>
   <time name="total">    1.26    1.28</time>
   <energy>
    <i name="e_fr_energy">   -367.53351046 </i>
    <i name="e_wo_entrp">   -367.56206084 </i>
    <i name="e_0_energy">   -367.54302725 </i>
   </energy>
  </scstep>
  <scstep>
   <time name="diag">    0.13    0.14</time>
   <time name="diis">    0.71    0.72</time>
   <time name="orth">    0.02    0.02</time>
   <time name="total">    1.26    1.29</time>
   <energy>
    <i name="e_fr_energy">   -367.53386748 </i>
    <i name="e_wo_entrp">   -367.56242905 </i>
    <i name="e_0_energy">   -367.54338800 </i>
   </energy>
  </scstep>
  <scstep>
   <time name="diag">    0.13    0.13</time>
   <time name="diis">    0.72    0.72</time>
   <time name="orth">    0.02    0.02</time>
   <time name="total">    1.27    1.28</time>
   <energy>
    <i name="e_fr_energy">   -367.53387167 </i>
    <i name="e_wo_entrp">   -367.56244554 </i>
    <i name="e_0_energy">   -367.54339630 </i>
   </energy>
  </scstep>
  <scstep>
   <time name="diag">    0.13    0.13</time>
   <time name="diis">    0.71    0.71</time>
   <time name="orth">    0.02    0.02</time>
   <time name="total">    1.25    1.27</time>
   <energy>
    <i name="e_fr_energy">   -367.53387506 </i>
    <i name="e_wo_entrp">   -367.56245350 </i>
    <i name="e_0_energy">   -367.54340121 </i>
   </energy>
  </scstep>
  <scstep>
   <time name="diag">    0.14    0.14</time>
   <time name="diis">    0.73    0.74</time>
   <time name="orth">    0.02    0.02</time>
   <time name="total">    1.29    1.31</time>
   <energy>
    <i name="e_fr_energy">   -367.53387707 </i>
    <i name="e_wo_entrp">   -367.56245553 </i>
    <i name="e_0_energy">   -367.54340322 </i>
   </energy>
  </scstep>
  <scstep>
   <time name="diag">    0.13    0.14</time>
   <time name="diis">    0.50    0.50</time>
   <time name="orth">    0.02    0.02</time>
   <time name="total">    1.05    1.07</time>
   <energy>
    <i name="e_fr_energy">   -367.53387731 </i>
    <i name="e_wo_entrp">   -367.56245576 </i>
    <i name="e_0_energy">   -367.54340346 </i>
   </energy>
  </scstep>
  <scstep>
   <time name="diag">    0.13    0.13</time>
   <time name="diis">    0.44    0.44</time>
   <time name="orth">    0.02    0.02</time>
   <time name="total">    0.75    0.77</time>
   <energy>
    <i name="alphaZ">    108.42811781 </i>
    <i name="ewald">  -7331.73929315 </i>
    <i name="hartreedc">   -465.19942147 </i>
    <i name="XCdc">   -538.05181712 </i>
    <i name="pawpsdc">  28229.28328688 </i>
    <i name="pawaedc"> -27129.90300258 </i>
    <i name="eentropy">      0.02857844 </i>
    <i name="bandstr">    194.82381285 </i>
    <i name="atom">   6564.79586099 </i>
    <i name="e_fr_energy">   -367.53387736 </i>
    <i name="e_wo_entrp">   -367.56245580 </i>
    <i name="e_0_energy">   -367.54340351 </i>
   </energy>
  </scstep>
  <structure>
   <crystal>
    <varray name="basis" >
     <v>      10.90624761       0.05399101       0.00000000 </v>
     <v>       0.05399101      10.79826459       0.00000000 </v>
     <v>       0.00000000       0.00000000      10.79826459 </v>
    </varray>
    <i name="volume">   1271.66445888 </i>
    <varray name="rec_basis" >
     <v>       0.09169283      -0.00045846       0.00000000 </v>
     <v>      -0.00045846       0.09260977       0.00000000 </v>
     <v>       0.00000000       0.00000000       0.09260747 </v>
    </varray>
   </crystal>
   <varray name="positions" >
    <v>       1.00000000       1.00000000       0.00046002 </v>
    <v>       1.00000000       0.00000000       0.50046002 </v>
    <v>       1.00000000       0.50000000       0.00046002 </v>
    <v>       1.00000000       0.50000000       0.50046002 </v>
    <v>       0.50000000       0.00000000       0.00046002 </v>
    <v>       0.50000000       1.00000000       0.50046002 </v>
    <v>       0.50000000       0.50000000       0.00046002 </v>
    <v>       0.50000000       0.50000000       0.50046002 </v>
    <v>       0.37500000       0.37500000       0.12453998 </v>
    <v>       0.37500000       0.37500000       0.62453998 </v>
    <v>       0.37500000       0.87500000       0.12453998 </v>
    <v>       0.37500000       0.87500000       0.62453998 </v>
    <v>       0.87500000       0.37500000       0.12453998 </v>
    <v>       0.87500000       0.37500000       0.62453998 </v>
    <v>       0.87500000       0.87500000       0.12453998 </v>
    <v>       0.87500000       0.87500000       0.62453998 </v>
    <v>       1.00000000       0.25000000       0.25046002 </v>
    <v>       0.00000000       0.25000000       0.75046002 </v>
    <v>       1.00000000       0.75000000       0.25046002 </v>
    <v>       1.00000000       0.75000000       0.75046002 </v>
    <v>       0.50000000       0.25000000       0.25046002 </v>
    <v>       0.50000000       0.25000000       0.75046002 </v>
    <v>       0.50000000       0.75000000       0.25046002 </v>
    <v>       0.50000000       0.75000000       0.75046002 </v>
    <v>       0.37500000       0.12500000       0.37453998 </v>
    <v>       0.37500000       0.12500000       0.87453998 </v>
    <v>       0.37500000       0.62500000       0.37453998 </v>
    <v>       0.37500000       0.62500000       0.87453998 </v>
    <v>       0.87500000       0.12500000       0.37453998 </v>
    <v>       0.87500000       0.12500000       0.87453998 </v>
    <v>       0.87500000       0.62500000       0.37453998 </v>
    <v>       0.87500000       0.62500000       0.87453998 </v>
    <v>       0.25000000       1.00000000       0.25046002 </v>
    <v>       0.25000000       1.00000000       0.75046002 </v>
    <v>       0.25000000       0.50000000       0.25046002 </v>
    <v>       0.25000000       0.50000000       0.75046002 </v>
    <v>       0.75000000       1.00000000       0.25046002 </v>
    <v>       0.75000000       1.00000000       0.75046002 </v>
    <v>       0.75000000       0.50000000       0.25046002 </v>
    <v>       0.75000000       0.50000000       0.75046002 </v>
    <v>       0.12500000       0.37500000       0.37453998 </v>
    <v>       0.12500000       0.37500000       0.87453998 </v>
    <v>       0.12500000       0.87500000       0.37453998 </v>
    <v>       0.12500000       0.87500000       0.87453998 </v>
    <v>       0.62500000       0.37500000       0.37453998 </v>
    <v>       0.62500000       0.37500000       0.87453998 </v>
    <v>       0.62500000       0.87500000       0.37453998 </v>
    <v>       0.62500000       0.87500000       0.87453998 </v>
    <v>       0.25000000       0.25000000       0.00046002 </v>
    <v>       0.25000000       0.25000000       0.50046002 </v>
    <v>       0.25000000       0.75000000       0.00046002 </v>
    <v>       0.25000000       0.75000000       0.50046002 </v>
    <v>       0.75000000       0.25000000       0.00046002 </v>
    <v>       0.75000000       0.25000000       0.50046002 </v>
    <v>       0.75000000       0.75000000       0.00046002 </v>
    <v>       0.75000000       0.75000000       0.50046002 </v>
    <v>       0.12500000       0.12500000       0.12453998 </v>
    <v>       0.12500000       0.12500000       0.62453998 </v>
    <v>       0.12500000       0.62500000       0.12453998 </v>
    <v>       0.12500000       0.62500000       0.62453998 </v>
    <v>       0.62500000       0.12500000       0.12453998 </v>
    <v>       0.62500000       0.12500000       0.62453998 </v>
    <v>       0.62500000       0.62500000       0.12453998 </v>
    <v>       0.62500000       0.62500000       0.62453998 </v>
   </varray>
  </structure>
  <varray name="forces" >
   <v>       0.00000000       0.00000000      -0.03269343 </v>
   <v>      -0.00000000      -0.00000000      -0.03269343 </v>
   <v>       0.00000000       0.00000000      -0.03269343 </v>
   <v>      -0.00000000      -0.00000000      -0.03269343 </v>
   <v>       0.00000000      -0.00000000      -0.03269343 </v>
   <v>       0.00000000      -0.00000000      -0.03269343 </v>
   <v>       0.00000000      -0.00000000      -0.03269343 </v>
   <v>       0.00000000      -0.00000000      -0.03269343 </v>
   <v>      -0.00000000      -0.00000000       0.03269343 </v>
   <v>      -0.00000000      -0.00000000       0.03269343 </v>
   <v>      -0.00000000      -0.00000000       0.03269343 </v>
   <v>      -0.00000000      -0.00000000       0.03269343 </v>
   <v>       0.00000000       0.00000000       0.03269343 </v>
   <v>      -0.00000000       0.00000000       0.03269343 </v>
   <v>       0.00000000       0.00000000       0.03269343 </v>
   <v>      -0.00000000       0.00000000       0.03269343 </v>
   <v>       0.00000000       0.00000000      -0.03269343 </v>
   <v>      -0.00000000       0.00000000      -0.03269343 </v>
   <v>      -0.00000000      -0.00000000      -0.03269343 </v>
   <v>      -0.00000000       0.00000000      -0.03269343 </v>
   <v>       0.00000000      -0.00000000      -0.03269343 </v>
   <v>       0.00000000      -0.00000000      -0.03269343 </v>
   <v>       0.00000000      -0.00000000      -0.03269343 </v>
   <v>       0.00000000      -0.00000000      -0.03269343 </v>
   <v>      -0.00000000      -0.00000000       0.03269343 </v>
   <v>      -0.00000000      -0.00000000       0.03269343 </v>
   <v>      -0.00000000      -0.00000000       0.03269343 </v>
   <v>      -0.00000000      -0.00000000       0.03269343 </v>
   <v>      -0.00000000       0.00000000       0.03269343 </v>
   <v>       0.00000000       0.00000000       0.03269343 </v>
   <v>      -0.00000000       0.00000000       0.03269343 </v>
   <v>      -0.00000000       0.00000000       0.03269343 </v>
   <v>      -0.00000000       0.00000000      -0.03269343 </v>
   <v>      -0.00000000       0.00000000      -0.03269343 </v>
   <v>      -0.00000000      -0.00000000      -0.03269343 </v>
   <v>      -0.00000000       0.00000000      -0.03269343 </v>
   <v>       0.00000000       0.00000000      -0.03269343 </v>
   <v>       0.00000000       0.00000000      -0.03269343 </v>
   <v>       0.00000000      -0.00000000      -0.03269343 </v>
   <v>       0.00000000       0.00000000      -0.03269343 </v>
   <v>       0.00000000       0.00000000       0.03269343 </v>
   <v>       0.00000000       0.00000000       0.03269343 </v>
   <v>       0.00000000       0.00000000       0.03269343 </v>
   <v>       0.00000000       0.00000000       0.03269343 </v>
   <v>      -0.00000000      -0.00000000       0.03269343 </v>
   <v>      -0.00000000      -0.00000000       0.03269343 </v>
   <v>       0.00000000      -0.00000000       0.03269343 </v>
   <v>      -0.00000000      -0.00000000       0.03269343 </v>
   <v>      -0.00000000      -0.00000000      -0.03269343 </v>
   <v>      -0.00000000       0.00000000      -0.03269343 </v>
   <v>      -0.00000000       0.00000000      -0.03269343 </v>
   <v>      -0.00000000      -0.00000000      -0.03269343 </v>
   <v>       0.00000000       0.00000000      -0.03269343 </v>
   <v>       0.00000000       0.00000000      -0.03269343 </v>
   <v>       0.00000000       0.00000000      -0.03269343 </v>
   <v>       0.00000000       0.00000000      -0.03269343 </v>
   <v>       0.00000000       0.00000000       0.03269343 </v>
   <v>       0.00000000       0.00000000       0.03269343 </v>
   <v>      -0.00000000       0.00000000       0.03269343 </v>
   <v>       0.00000000       0.00000000       0.03269343 </v>
   <v>      -0.00000000      -0.00000000       0.03269343 </v>
   <v>      -0.00000000      -0.00000000       0.03269343 </v>
   <v>       0.00000000      -0.00000000       0.03269343 </v>
   <v>       0.00000000      -0.00000000       0.03269343 </v>
  </varray>
  <varray name="stress" >
   <v>       3.82115122      -6.26814023       0.00000000 </v>
   <v>      -6.26814019      13.18559899       0.00000000 </v>
   <v>       0.00000000       0.00000000      12.86155490 </v>
  </varray>
  <energy>
   <i name="e_fr_energy">   -367.53387736 </i>
   <i name="e_wo_entrp">   -367.56245580 </i>
   <i name="e_0_energy">   -367.54340351 </i>
  </energy>
  <time name="totalsc">   13.45   13.63</time>
 </calculation>
 <calculation>
  <scstep>
   <time name="dav">    1.30    1.30</time>
   <time name="total">    1.69    1.70</time>
   <energy>
    <i name="alphaZ">    108.42811781 </i>
    <i name="ewald">  -7331.69513497 </i>
    <i name="hartreedc">   -465.22533416 </i>
    <i name="XCdc">   -538.05064882 </i>
    <i name="pawpsdc">  28229.19463055 </i>
    <i name="pawaedc"> -27129.81433850 </i>
    <i name="eentropy">      0.02866544 </i>
    <i name="bandstr">    194.80318904 </i>
    <i name="atom">   6564.79586099 </i>
    <i name="e_fr_energy">   -367.53499261 </i>
    <i name="e_wo_entrp">   -367.56365806 </i>
    <i name="e_0_energy">   -367.54454776 </i>
   </energy>
  </scstep>
  <scstep>
   <time name="diag">    0.13    0.13</time>
   <time name="diis">    0.70    0.70</time>
   <time name="orth">    0.02    0.02</time>
   <time name="total">    1.25    1.27</time>
   <energy>
    <i name="e_fr_energy">   -367.53511508 </i>
    <i name="e_wo_entrp">   -367.56378101 </i>
    <i name="e_0_energy">   -367.54467039 </i>
   </energy>
  </scstep>
  <scstep>
   <time name="diag">    0.14    0.14</time>
   <time name="diis">    0.71    0.72</time>
   <time name="orth">    0.02    0.02</time>
   <time name="total">    1.27    1.30</time>
   <energy>
    <i name="e_fr_energy">   -367.53513546 </i>
    <i name="e_wo_entrp">   -367.56380036 </i>
    <i name="e_0_energy">   -367.54469043 </i>
   </energy>
  </scstep>
  <scstep>
   <time name="diag">    0.14    0.14</time>
   <time name="diis">    0.72    0.72</time>
   <time name="orth">    0.02    0.02</time>
   <time name="total">    1.28    1.30</time>
   <energy>
    <i name="e_fr_energy">   -367.53513596 </i>
    <i name="e_wo_entrp">   -367.56379969 </i>
    <i name="e_0_energy">   -367.54469054 </i>
   </energy>
  </scstep>
  <scstep>
   <time name="diag">    0.13    0.13</time>
   <time name="diis">    0.56    0.56</time>
   <time name="orth">    0.02    0.02</time>
   <time name="total">    1.11    1.13</time>
   <energy>
    <i name="e_fr_energy">   -367.53513620 </i>
    <i name="e_wo_entrp">   -367.56379946 </i>
    <i name="e_0_energy">   -367.54469062 </i>
   </energy>
  </scstep>
  <scstep>
   <time name="diag">    0.13    0.13</time>
   <time name="diis">    0.46    0.46</time>
   <time name="orth">    0.02    0.02</time>
   <time name="total">    1.04    1.06</time>
   <energy>
    <i name="e_fr_energy">   -367.53513630 </i>
    <i name="e_wo_entrp">   -367.56379954 </i>
    <i name="e_0_energy">   -367.54469071 </i>
   </energy>
  </scstep>
  <scstep>
   <time name="diag">    0.13    0.13</time>
   <time name="diis">    0.43    0.43</time>
   <time name="orth">    0.02    0.02</time>
   <time name="total">    0.98    0.99</time>
   <energy>
    <i name="e_fr_energy">   -367.53513632 </i>
    <i name="e_wo_entrp">   -367.56379957 </i>
    <i name="e_0_energy">   -367.54469073 </i>
   </energy>
  </scstep>
  <scstep>
   <time name="diag">    0.13    0.14</time>
   <time name="diis">    0.36    0.36</time>
   <time name="orth">    0.02    0.02</time>
   <time name="total">    0.67    0.68</time>
   <energy>
    <i name="alphaZ">    108.42811781 </i>
    <i name="ewald">  -7331.69513497 </i>
    <i name="hartreedc">   -465.22791343 </i>
    <i name="XCdc">   -538.04989030 </i>
    <i name="pawpsdc">  28230.79741386 </i>
    <i name="pawaedc"> -27131.41786422 </i>
    <i name="eentropy">      0.02866325 </i>
    <i name="bandstr">    194.80561068 </i>
    <i name="atom">   6564.79586099 </i>
    <i name="e_fr_energy">   -367.53513632 </i>
    <i name="e_wo_entrp">   -367.56379957 </i>
    <i name="e_0_energy">   -367.54469074 </i>
   </energy>
  </scstep>
  <structure>
   <crystal>
    <varray name="basis" >
     <v>      10.90624761       0.05399101       0.00000000 </v>
     <v>       0.05399101      10.79826459       0.00000000 </v>
     <v>       0.00000000       0.00000000      10.79826459 </v>
    </varray>
    <i name="volume">   1271.66445888 </i>
    <varray name="rec_basis" >
     <v>       0.09169283      -0.00045846       0.00000000 </v>
     <v>      -0.00045846       0.09260977       0.00000000 </v>
     <v>       0.00000000       0.00000000       0.09260747 </v>
    </varray>
   </crystal>
   <varray name="positions" >
    <v>       0.00000000       0.00000000       0.00034916 </v>
    <v>       0.00000000       0.00000000       0.50034916 </v>
    <v>       0.00000000       0.50000000       0.00034916 </v>
    <v>       0.00000000       0.50000000       0.50034916 </v>
    <v>       0.50000000       0.00000000       0.00034916 </v>
    <v>       0.50000000       0.00000000       0.50034916 </v>
    <v>       0.50000000       0.50000000       0.00034916 </v>
    <v>       0.50000000       0.50000000       0.50034916 </v>
    <v>       0.37500000       0.37500000       0.12465084 </v>
    <v>       0.37500000       0.37500000       0.62465084 </v>
    <v>       0.37500000       0.87500000       0.12465084 </v>
    <v>       0.37500000       0.87500000       0.62465084 </v>
    <v>       0.87500000       0.37500000       0.12465084 </v>
    <v>       0.87500000       0.37500000       0.62465084 </v>
    <v>       0.87500000       0.87500000       0.12465084 </v>
    <v>       0.87500000       0.87500000       0.62465084 </v>
    <v>       0.00000000       0.25000000       0.25034916 </v>
    <v>       0.00000000       0.25000000       0.75034916 </v>
    <v>       0.00000000       0.75000000       0.25034916 </v>
    <v>       0.00000000       0.75000000       0.75034916 </v>
    <v>       0.50000000       0.25000000       0.25034916 </v>
    <v>       0.50000000       0.25000000       0.75034916 </v>
    <v>       0.50000000       0.75000000       0.25034916 </v>
    <v>       0.50000000       0.75000000       0.75034916 </v>
    <v>       0.37500000       0.12500000       0.37465084 </v>
    <v>       0.37500000       0.12500000       0.87465084 </v>
    <v>       0.37500000       0.62500000       0.37465084 </v>
    <v>       0.37500000       0.62500000       0.87465084 </v>
    <v>       0.87500000       0.12500000       0.37465084 </v>
    <v>       0.87500000       0.12500000       0.87465084 </v>
    <v>       0.87500000       0.62500000       0.37465084 </v>
    <v>       0.87500000       0.62500000       0.87465084 </v>
    <v>       0.25000000       0.00000000       0.25034916 </v>
    <v>       0.25000000       0.00000000       0.75034916 </v>
    <v>       0.25000000       0.50000000       0.25034916 </v>
    <v>       0.25000000       0.50000000       0.75034916 </v>
    <v>       0.75000000       0.00000000       0.25034916 </v>
    <v>       0.75000000       0.00000000       0.75034916 </v>
    <v>       0.75000000       0.50000000       0.25034916 </v>
    <v>       0.75000000       0.50000000       0.75034916 </v>
    <v>       0.12500000       0.37500000       0.37465084 </v>
    <v>       0.12500000       0.37500000       0.87465084 </v>
    <v>       0.12500000       0.87500000       0.37465084 </v>
    <v>       0.12500000       0.87500000       0.87465084 </v>
    <v>       0.62500000       0.37500000       0.37465084 </v>
    <v>       0.62500000       0.37500000       0.87465084 </v>
    <v>       0.62500000       0.87500000       0.37465084 </v>
    <v>       0.62500000       0.87500000       0.87465084 </v>
    <v>       0.25000000       0.25000000       0.00034916 </v>
    <v>       0.25000000       0.25000000       0.50034916 </v>
    <v>       0.25000000       0.75000000       0.00034916 </v>
    <v>       0.25000000       0.75000000       0.50034916 </v>
    <v>       0.75000000       0.25000000       0.00034916 </v>
    <v>       0.75000000       0.25000000       0.50034916 </v>
    <v>       0.75000000       0.75000000       0.00034916 </v>
    <v>       0.75000000       0.75000000       0.50034916 </v>
    <v>       0.12500000       0.12500000       0.12465084 </v>
    <v>       0.12500000       0.12500000       0.62465084 </v>
    <v>       0.12500000       0.62500000       0.12465084 </v>
    <v>       0.12500000       0.62500000       0.62465084 </v>
    <v>       0.62500000       0.12500000       0.12465084 </v>
    <v>       0.62500000       0.12500000       0.62465084 </v>
    <v>       0.62500000       0.62500000       0.12465084 </v>
    <v>       0.62500000       0.62500000       0.62465084 </v>
   </varray>
  </structure>
  <varray name="forces" >
   <v>       0.00000000      -0.00000000      -0.00013179 </v>
   <v>       0.00000000      -0.00000000      -0.00013179 </v>
   <v>       0.00000000      -0.00000000      -0.00013179 </v>
   <v>       0.00000000      -0.00000000      -0.00013179 </v>
   <v>      -0.00000000       0.00000000      -0.00013179 </v>
   <v>      -0.00000000       0.00000000      -0.00013179 </v>
   <v>      -0.00000000      -0.00000000      -0.00013179 </v>
   <v>      -0.00000000       0.00000000      -0.00013179 </v>
   <v>       0.00000000       0.00000000       0.00013179 </v>
   <v>       0.00000000       0.00000000       0.00013179 </v>
   <v>       0.00000000      -0.00000000       0.00013179 </v>
   <v>       0.00000000       0.00000000       0.00013179 </v>
   <v>      -0.00000000       0.00000000       0.00013179 </v>
   <v>      -0.00000000       0.00000000       0.00013179 </v>
   <v>      -0.00000000      -0.00000000       0.00013179 </v>
   <v>      -0.00000000      -0.00000000       0.00013179 </v>
   <v>       0.00000000      -0.00000000      -0.00013179 </v>
   <v>       0.00000000      -0.00000000      -0.00013179 </v>
   <v>       0.00000000      -0.00000000      -0.00013179 </v>
   <v>       0.00000000      -0.00000000      -0.00013179 </v>
   <v>      -0.00000000       0.00000000      -0.00013179 </v>
   <v>      -0.00000000       0.00000000      -0.00013179 </v>
   <v>      -0.00000000      -0.00000000      -0.00013179 </v>
   <v>      -0.00000000       0.00000000      -0.00013179 </v>
   <v>      -0.00000000       0.00000000       0.00013179 </v>
   <v>       0.00000000      -0.00000000       0.00013179 </v>
   <v>       0.00000000       0.00000000       0.00013179 </v>
   <v>       0.00000000       0.00000000       0.00013179 </v>
   <v>      -0.00000000      -0.00000000       0.00013179 </v>
   <v>      -0.00000000       0.00000000       0.00013179 </v>
   <v>      -0.00000000      -0.00000000       0.00013179 </v>
   <v>      -0.00000000       0.00000000       0.00013179 </v>
   <v>       0.00000000      -0.00000000      -0.00013179 </v>
   <v>       0.00000000       0.00000000      -0.00013179 </v>
   <v>       0.00000000       0.00000000      -0.00013179 </v>
   <v>       0.00000000       0.00000000      -0.00013179 </v>
   <v>      -0.00000000      -0.00000000      -0.00013179 </v>
   <v>      -0.00000000      -0.00000000      -0.00013179 </v>
   <v>      -0.00000000       0.00000000      -0.00013179 </v>
   <v>      -0.00000000      -0.00000000      -0.00013179 </v>
   <v>      -0.00000000      -0.00000000       0.00013179 </v>
   <v>      -0.00000000      -0.00000000       0.00013179 </v>
   <v>      -0.00000000       0.00000000       0.00013179 </v>
   <v>      -0.00000000       0.00000000       0.00013179 </v>
   <v>       0.00000000      -0.00000000       0.00013179 </v>
   <v>       0.00000000      -0.00000000       0.00013179 </v>
   <v>       0.00000000      -0.00000000       0.00013179 </v>
   <v>       0.00000000      -0.00000000       0.00013179 </v>
   <v>       0.00000000      -0.00000000      -0.00013179 </v>
   <v>       0.00000000       0.00000000      -0.00013179 </v>
   <v>       0.00000000       0.00000000      -0.00013179 </v>
   <v>      -0.00000000       0.00000000      -0.00013179 </v>
   <v>      -0.00000000       0.00000000      -0.00013179 </v>
   <v>      -0.00000000      -0.00000000      -0.00013179 </v>
   <v>      -0.00000000      -0.00000000      -0.00013179 </v>
   <v>      -0.00000000       0.00000000      -0.00013179 </v>
   <v>      -0.00000000      -0.00000000       0.00013179 </v>
   <v>       0.00000000       0.00000000       0.00013179 </v>
   <v>      -0.00000000       0.00000000       0.00013179 </v>
   <v>      -0.00000000       0.00000000       0.00013179 </v>
   <v>       0.00000000      -0.00000000       0.00013179 </v>
   <v>       0.00000000      -0.00000000       0.00013179 </v>
   <v>       0.00000000      -0.00000000       0.00013179 </v>
   <v>       0.00000000      -0.00000000       0.00013179 </v>
  </varray>
  <varray name="stress" >
   <v>       3.84105960      -7.26493267       0.00000000 </v>
   <v>      -7.26493272      13.19225774       0.00000000 </v>
   <v>       0.00000000       0.00000000      12.93001522 </v>
  </varray>
  <energy>
   <i name="e_fr_energy">   -367.53513632 </i>
   <i name="e_wo_entrp">   -367.56379957 </i>
   <i name="e_0_energy">   -367.54469074 </i>
  </energy>
  <time name="totalsc">   12.74   12.93</time>
  <eigenvalues>
   <array>
    <dimension dim="1">band</dimension>
    <dimension dim="2">kpoint</dimension>
    <dimension dim="3">spin</dimension>
    <field>eigene</field>
    <field>occ</field>
    <set>
     <set comment="spin 1">
      <set comment="kpoint 1">
       <r>   -6.1738    1.0000 </r>
       <r>   -5.0927    1.0000 </r>
       <r>   -5.0927    1.0000 </r>
       <r>   -5.0744    1.0000 </r>
       <r>   -5.0744    1.0000 </r>
       <r>   -5.0742    1.0000 </r>
       <r>   -5.0742    1.0000 </r>
       <r>   -4.1329    1.0000 </r>
       <r>   -4.1329    1.0000 </r>
       <r>   -4.1091    1.0000 </r>
       <r>   -4.1091    1.0000 </r>
       <r>   -4.1091    1.0000 </r>
       <r>   -4.1091    1.0000 </r>
       <r>   -4.0963    1.0000 </r>
       <r>   -4.0962    1.0000 </r>
       <r>   -4.0962    1.0000 </r>
       <r>   -4.0962    1.0000 </r>
       <r>   -4.0851    1.0000 </r>
       <r>   -4.0851    1.0000 </r>
       <r>   -3.8291    1.0000 </r>
       <r>   -3.8291    1.0000 </r>
       <r>   -3.7791    1.0000 </r>
       <r>   -3.7791    1.0000 </r>
       <r>   -2.0245    1.0000 </r>
       <r>   -2.0245    1.0000 </r>
       <r>   -1.9829    1.0000 </r>
       <r>   -1.9645    1.0000 </r>
       <r>   -1.9645    1.0000 </r>
       <r>   -1.9471    1.0000 </r>
       <r>   -1.8460    1.0000 </r>
       <r>   -1.8460    1.0000 </r>
       <r>   -1.8244    1.0000 </r>
       <r>   -1.8244    1.0000 </r>
       <r>   -1.8180    1.0000 </r>
       <r>   -1.8180    1.0000 </r>
       <r>   -1.8180    1.0000 </r>
       <r>   -1.8180    1.0000 </r>
       <r>   -1.7905    1.0000 </r>
       <r>   -1.7905    1.0000 </r>
       <r>   -1.7698    1.0000 </r>
       <r>   -1.7698    1.0000 </r>
       <r>   -1.1923    1.0000 </r>
       <r>   -1.1923    1.0000 </r>
       <r>   -1.1721    1.0000 </r>
       <r>   -1.1721    1.0000 </r>
       <r>    0.3386    1.0000 </r>
       <r>    0.3386    1.0000 </r>
       <r>    0.3386    1.0000 </r>
       <r>    0.3386    1.0000 </r>
       <r>    0.3694    1.0000 </r>
       <r>    0.3694    1.0000 </r>
       <r>    0.3739    1.0000 </r>
       <r>    0.3739    1.0000 </r>
       <r>    0.3739    1.0000 </r>
       <r>    0.3739    1.0000 </r>
       <r>    0.3788    1.0000 </r>
       <r>    0.3788    1.0000 </r>
       <r>    1.9163    1.0000 </r>
       <r>    1.9163    1.0000 </r>
       <r>    1.9203    1.0000 </r>
       <r>    1.9203    1.0000 </r>
       <r>    1.9272    1.0000 </r>
       <r>    1.9272    1.0000 </r>
       <r>    1.9272    1.0000 </r>
       <r>    1.9272    1.0000 </r>
       <r>    1.9382    1.0000 </r>
       <r>    1.9382    1.0000 </r>
       <r>    1.9433    1.0000 </r>
       <r>    1.9433    1.0000 </r>
       <r>    1.9983    1.0000 </r>
       <r>    1.9983    1.0000 </r>
       <r>    1.9983    1.0000 </r>
       <r>    1.9983    1.0000 </r>
       <r>    2.0439    1.0000 </r>
       <r>    2.0439    1.0000 </r>
       <r>    2.0536    1.0000 </r>
       <r>    2.0536    1.0000 </r>
       <r>    2.0536    1.0000 </r>
       <r>    2.0536    1.0000 </r>
       <r>    2.0617    1.0000 </r>
       <r>    2.0617    1.0000 </r>
       <r>    2.3039    1.0000 </r>
       <r>    2.3040    1.0000 </r>
       <r>    2.3745    1.0000 </r>
       <r>    2.3745    1.0000 </r>
       <r>    2.3756    1.0000 </r>
       <r>    2.3756    1.0000 </r>
       <r>    2.8842    1.0000 </r>
       <r>    2.9498    1.0000 </r>
       <r>    2.9498    1.0000 </r>
       <r>    3.0164    1.0000 </r>
       <r>    3.0264    1.0000 </r>
       <r>    3.0264    1.0000 </r>
       <r>    3.8645    1.0000 </r>
       <r>    3.8645    1.0000 </r>
       <r>    3.9163    1.0000 </r>
       <r>    3.9163    1.0000 </r>
       <r>    3.9384    1.0000 </r>
       <r>    3.9384    1.0000 </r>
       <r>    3.9868    1.0000 </r>
       <r>    3.9868    1.0000 </r>
       <r>    3.9871    1.0000 </r>
       <r>    3.9871    1.0000 </r>
       <r>    3.9912    1.0000 </r>
       <r>    3.9912    1.0000 </r>
       <r>    4.4523    1.0000 </r>
       <r>    4.4523    1.0000 </r>
       <r>    4.4974    1.0000 </r>
       <r>    4.4975    1.0000 </r>
       <r>    4.4975    1.0000 </r>
       <r>    4.4975    1.0000 </r>
       <r>    4.5442    1.0000 </r>
       <r>    4.5442    1.0000 </r>
       <r>    4.5729    1.0000 </r>
       <r>    4.5729    1.0000 </r>
       <r>    4.5778    1.0000 </r>
       <r>    4.5778    1.0000 </r>
       <r>    4.5778    1.0000 </r>
       <r>    4.5779    1.0000 </r>
       <r>    4.6464    1.0000 </r>
       <r>    4.6464    1.0000 </r>
       <r>    4.6901    1.0000 </r>
       <r>    4.6901    1.0000 </r>
       <r>    4.7302    1.0000 </r>
       <r>    4.7302    1.0000 </r>
       <r>    5.7991    1.0103 </r>
       <r>    5.8931    1.0298 </r>
       <r>    5.9187    1.0342 </r>
       <r>    6.3421    0.0111 </r>
       <r>    6.4165   -0.0349 </r>
       <r>    6.4165   -0.0349 </r>
       <r>    6.4918   -0.0257 </r>
       <r>    6.4962   -0.0246 </r>
       <r>    6.4962   -0.0246 </r>
       <r>    6.8684   -0.0000 </r>
       <r>    6.8684   -0.0000 </r>
       <r>    6.8696   -0.0000 </r>
       <r>    6.8696   -0.0000 </r>
       <r>    6.9490   -0.0000 </r>
       <r>    6.9490   -0.0000 </r>
       <r>    7.3044   -0.0000 </r>
       <r>    7.3044   -0.0000 </r>
       <r>    7.4105   -0.0000 </r>
       <r>    7.4105   -0.0000 </r>
       <r>    8.1536   -0.0000 </r>
       <r>    8.1536   -0.0000 </r>
       <r>    8.2070   -0.0000 </r>
       <r>    8.2070   -0.0000 </r>
       <r>    8.2071   -0.0000 </r>
       <r>    8.2071   -0.0000 </r>
       <r>    8.2619   -0.0000 </r>
       <r>    8.2619   -0.0000 </r>
       <r>    8.3003   -0.0000 </r>
       <r>    8.3003   -0.0000 </r>
       <r>    8.3003   -0.0000 </r>
       <r>    8.3003   -0.0000 </r>
       <r>    8.3377   -0.0000 </r>
       <r>    8.3671   -0.0000 </r>
       <r>    8.4543   -0.0000 </r>
       <r>    8.8827   -0.0000 </r>
       <r>    8.8935   -0.0000 </r>
       <r>    8.8990   -0.0000 </r>
      </set>
      <set comment="kpoint 2">
       <r>   -5.9012    1.0000 </r>
       <r>   -5.9012    1.0000 </r>
       <r>   -4.8386    1.0000 </r>
       <r>   -4.8386    1.0000 </r>
       <r>   -4.8264    1.0000 </r>
       <r>   -4.8264    1.0000 </r>
       <r>   -4.8264    1.0000 </r>
       <r>   -4.8264    1.0000 </r>
       <r>   -4.8138    1.0000 </r>
       <r>   -4.8138    1.0000 </r>
       <r>   -3.9804    1.0000 </r>
       <r>   -3.9804    1.0000 </r>
       <r>   -3.9804    1.0000 </r>
       <r>   -3.9804    1.0000 </r>
       <r>   -3.9494    1.0000 </r>
       <r>   -3.9494    1.0000 </r>
       <r>   -3.9494    1.0000 </r>
       <r>   -3.9494    1.0000 </r>
       <r>   -3.7794    1.0000 </r>
       <r>   -3.7794    1.0000 </r>
       <r>   -3.0581    1.0000 </r>
       <r>   -3.0581    1.0000 </r>
       <r>   -3.0266    1.0000 </r>
       <r>   -3.0266    1.0000 </r>
       <r>   -3.0266    1.0000 </r>
       <r>   -3.0266    1.0000 </r>
       <r>   -2.9949    1.0000 </r>
       <r>   -2.9949    1.0000 </r>
       <r>   -1.9068    1.0000 </r>
       <r>   -1.9068    1.0000 </r>
       <r>   -1.9045    1.0000 </r>
       <r>   -1.9045    1.0000 </r>
       <r>   -1.8652    1.0000 </r>
       <r>   -1.8652    1.0000 </r>
       <r>   -1.8639    1.0000 </r>
       <r>   -1.8639    1.0000 </r>
       <r>   -0.7311    1.0000 </r>
       <r>   -0.7311    1.0000 </r>
       <r>   -0.7199    1.0000 </r>
       <r>   -0.7199    1.0000 </r>
       <r>   -0.7199    1.0000 </r>
       <r>   -0.7199    1.0000 </r>
       <r>   -0.7097    1.0000 </r>
       <r>   -0.7097    1.0000 </r>
       <r>   -0.5992    1.0000 </r>
       <r>   -0.5992    1.0000 </r>
       <r>   -0.5992    1.0000 </r>
       <r>   -0.5992    1.0000 </r>
       <r>   -0.5654    1.0000 </r>
       <r>   -0.5654    1.0000 </r>
       <r>   -0.5654    1.0000 </r>
       <r>   -0.5654    1.0000 </r>
       <r>    0.0590    1.0000 </r>
       <r>    0.0590    1.0000 </r>
       <r>    1.5636    1.0000 </r>
       <r>    1.5636    1.0000 </r>
       <r>    1.5651    1.0000 </r>
       <r>    1.5651    1.0000 </r>
       <r>    1.5679    1.0000 </r>
       <r>    1.5679    1.0000 </r>
       <r>    1.5679    1.0000 </r>
       <r>    1.5679    1.0000 </r>
       <r>    1.5719    1.0000 </r>
       <r>    1.5719    1.0000 </r>
       <r>    1.5751    1.0000 </r>
       <r>    1.5751    1.0000 </r>
       <r>    1.5751    1.0000 </r>
       <r>    1.5751    1.0000 </r>
       <r>    1.5876    1.0000 </r>
       <r>    1.5876    1.0000 </r>
       <r>    2.3304    1.0000 </r>
       <r>    2.3304    1.0000 </r>
       <r>    2.3689    1.0000 </r>
       <r>    2.3689    1.0000 </r>
       <r>    2.3783    1.0000 </r>
       <r>    2.3783    1.0000 </r>
       <r>    2.4177    1.0000 </r>
       <r>    2.4177    1.0000 </r>
       <r>    3.0865    1.0000 </r>
       <r>    3.0865    1.0000 </r>
       <r>    3.1023    1.0000 </r>
       <r>    3.1023    1.0000 </r>
       <r>    3.1023    1.0000 </r>
       <r>    3.1023    1.0000 </r>
       <r>    3.1156    1.0000 </r>
       <r>    3.1156    1.0000 </r>
       <r>    3.1658    1.0000 </r>
       <r>    3.1658    1.0000 </r>
       <r>    3.1979    1.0000 </r>
       <r>    3.1979    1.0000 </r>
       <r>    3.1979    1.0000 </r>
       <r>    3.1979    1.0000 </r>
       <r>    3.2305    1.0000 </r>
       <r>    3.2305    1.0000 </r>
       <r>    3.2713    1.0000 </r>
       <r>    3.2713    1.0000 </r>
       <r>    3.2714    1.0000 </r>
       <r>    3.2714    1.0000 </r>
       <r>    3.2853    1.0000 </r>
       <r>    3.2853    1.0000 </r>
       <r>    3.2853    1.0000 </r>
       <r>    3.2853    1.0000 </r>
       <r>    3.3570    1.0000 </r>
       <r>    3.3570    1.0000 </r>
       <r>    3.3570    1.0000 </r>
       <r>    3.3570    1.0000 </r>
       <r>    4.3837    1.0000 </r>
       <r>    4.3837    1.0000 </r>
       <r>    4.4078    1.0000 </r>
       <r>    4.4078    1.0000 </r>
       <r>    4.4078    1.0000 </r>
       <r>    4.4078    1.0000 </r>
       <r>    4.4332    1.0000 </r>
       <r>    4.4332    1.0000 </r>
       <r>    4.4946    1.0000 </r>
       <r>    4.4946    1.0000 </r>
       <r>    4.6273    1.0000 </r>
       <r>    4.6273    1.0000 </r>
       <r>    4.6273    1.0000 </r>
       <r>    4.6273    1.0000 </r>
       <r>    4.6536    1.0000 </r>
       <r>    4.6536    1.0000 </r>
       <r>    4.6536    1.0000 </r>
       <r>    4.6536    1.0000 </r>
       <r>    5.0729    1.0000 </r>
       <r>    5.0729    1.0000 </r>
       <r>    5.0764    1.0000 </r>
       <r>    5.0764    1.0000 </r>
       <r>    6.4198   -0.0352 </r>
       <r>    6.4198   -0.0352 </r>
       <r>    7.3017   -0.0000 </r>
       <r>    7.3017   -0.0000 </r>
       <r>    7.5934   -0.0000 </r>
       <r>    7.5934   -0.0000 </r>
[...]
      </set>
     </set>
    </set>
   </array>
  </eigenvalues>
  <separator name="orbital magnetization" >
   <v name="MAGDIPOLOUT">      0.00000000      0.00000000      0.00000000</v>
  </separator>
  <dos>
   <i name="efermi">      6.18297557 </i>
   <total>
    <array>
     <dimension dim="1">gridpoints</dimension>
     <dimension dim="2">spin</dimension>
     <field>energy</field>
     <field>total</field>
     <field>integrated</field>
     <set>
      <set comment="spin 1">
       <r>    -8.1738     0.0000     0.0000 </r>
       <r>    -8.1089     0.0000     0.0000 </r>
       <r>    -8.0439     0.0000     0.0000 </r>
       <r>    -7.9790     0.0000     0.0000 </r>
       <r>    -7.9140     0.0000     0.0000 </r>
       <r>    -7.8490     0.0000     0.0000 </r>
       <r>    -7.7841    -0.0000    -0.0000 </r>
       <r>    -7.7191    -0.0000    -0.0000 </r>
       <r>    -7.6542    -0.0000    -0.0000 </r>
       <r>    -7.5892    -0.0000    -0.0000 </r>
       <r>    -7.5242    -0.0000    -0.0000 </r>
       <r>    -7.4593    -0.0000    -0.0000 </r>
       <r>    -7.3943    -0.0000    -0.0000 </r>
       <r>    -7.3293    -0.0000    -0.0000 </r>
       <r>    -7.2644    -0.0000    -0.0000 </r>
       <r>    -7.1994    -0.0000    -0.0000 </r>
       <r>    -7.1345    -0.0000    -0.0000 </r>
       <r>    -7.0695    -0.0000    -0.0000 </r>
       <r>    -7.0045    -0.0000    -0.0000 </r>
       <r>    -6.9396    -0.0000    -0.0000 </r>
       <r>    -6.8746    -0.0000    -0.0000 </r>
       <r>    -6.8097    -0.0001    -0.0000 </r>
       <r>    -6.7447    -0.0007    -0.0001 </r>
       <r>    -6.6797    -0.0031    -0.0003 </r>
       <r>    -6.6148    -0.0112    -0.0010 </r>
       <r>    -6.5498    -0.0299    -0.0029 </r>
       <r>    -6.4848    -0.0549    -0.0065 </r>
       <r>    -6.4199    -0.0528    -0.0099 </r>
       <r>    -6.3549     0.0388    -0.0074 </r>
       <r>    -6.2900     0.2453     0.0085 </r>
       <r>    -6.2250     0.4889     0.0403 </r>
       <r>    -6.1600     0.7074     0.0862 </r>
       <r>    -6.0951     1.1260     0.1594 </r>
       <r>    -6.0301     2.1750     0.3007 </r>
       <r>    -5.9652     3.8286     0.5494 </r>
       <r>    -5.9002     5.3143     0.8946 </r>
       <r>    -5.8352     6.1249     1.2925 </r>
       <r>    -5.7703     7.0373     1.7497 </r>
       <r>    -5.7053     9.0434     2.3371 </r>
       <r>    -5.6403    11.3773     3.0762 </r>
       <r>    -5.5754    12.0877     3.8614 </r>
       <r>    -5.5104    10.7683     4.5610 </r>
       <r>    -5.4455     9.0836     5.1511 </r>
       <r>    -5.3805     8.2032     5.6839 </r>
       <r>    -5.3155     7.4490     6.1678 </r>
       <r>    -5.2506     6.0649     6.5618 </r>
       <r>    -5.1856     4.6751     6.8655 </r>
       <r>    -5.1207     4.2794     7.1435 </r>
       <r>    -5.0557     5.3240     7.4894 </r>
       <r>    -4.9907     8.4160     8.0361 </r>
       <r>    -4.9258    14.1164     8.9531 </r>
       <r>    -4.8608    20.9894    10.3166 </r>
       <r>    -4.7958    25.9288    12.0010 </r>
       <r>    -4.7309    27.7289    13.8023 </r>
       <r>    -4.6659    27.9821    15.6201 </r>
       <r>    -4.6010    27.2256    17.3887 </r>
       <r>    -4.5360    23.3093    18.9029 </r>
       <r>    -4.4710    15.2750    19.8952 </r>
       <r>    -4.4061     6.0791    20.2901 </r>
       <r>    -4.3411    -0.0491    20.2869 </r>
       <r>    -4.2762    -0.9562    20.2248 </r>
       <r>    -4.2112     3.3338    20.4414 </r>
       <r>    -4.1462    11.6825    21.2003 </r>
       <r>    -4.0813    21.7063    22.6104 </r>
       <r>    -4.0163    29.6035    24.5334 </r>
       <r>    -3.9513    31.7827    26.5981 </r>
       <r>    -3.8864    27.5621    28.3886 </r>
       <r>    -3.8214    20.0818    29.6931 </r>
       <r>    -3.7565    14.2204    30.6169 </r>
       <r>    -3.6915    13.7200    31.5082 </r>
       <r>    -3.6265    19.5380    32.7774 </r>
       <r>    -3.5616    29.3242    34.6823 </r>
       <r>    -3.4966    38.4913    37.1828 </r>
       <r>    -3.4316    43.2209    39.9905 </r>
       <r>    -3.3667    42.7404    42.7670 </r>
       <r>    -3.3017    38.5098    45.2686 </r>
       <r>    -3.2368    32.4755    47.3783 </r>
       <r>    -3.1718    27.0190    49.1335 </r>
       <r>    -3.1068    24.5528    50.7285 </r>
       <r>    -3.0419    24.8102    52.3402 </r>
       <r>    -2.9769    23.9186    53.8940 </r>
       <r>    -2.9120    18.5728    55.1005 </r>
       <r>    -2.8470    10.1065    55.7570 </r>
       <r>    -2.7820     2.6853    55.9315 </r>
       <r>    -2.7171    -1.1984    55.8536 </r>
       <r>    -2.6521    -1.8345    55.7345 </r>
       <r>    -2.5871    -0.1589    55.7241 </r>
       <r>    -2.5222     3.4689    55.9495 </r>
       <r>    -2.4572     8.1581    56.4794 </r>
       <r>    -2.3923    11.5175    57.2276 </r>
       <r>    -2.3273    11.1267    57.9504 </r>
       <r>    -2.2623     7.0792    58.4103 </r>
       <r>    -2.1974     2.4529    58.5697 </r>
       <r>    -2.1324     1.3267    58.6559 </r>
       <r>    -2.0675     6.4403    59.0742 </r>
       <r>    -2.0025    17.4470    60.2076 </r>
       <r>    -1.9375    29.9921    62.1559 </r>
       <r>    -1.8726    37.3288    64.5809 </r>
       <r>    -1.8076    34.9481    66.8512 </r>
       <r>    -1.7426    24.3436    68.4326 </r>
       <r>    -1.6777    11.7547    69.1962 </r>
       <r>    -1.6127     3.3098    69.4112 </r>
       <r>    -1.5478     1.4519    69.5055 </r>
       <r>    -1.4828     4.6863    69.8099 </r>
       <r>    -1.4178     9.2581    70.4113 </r>
       <r>    -1.3529    11.5311    71.1604 </r>
       <r>    -1.2879    10.3581    71.8333 </r>
       <r>    -1.2230     7.8491    72.3432 </r>
       <r>    -1.1580     7.6290    72.8388 </r>
       <r>    -1.0930    11.7598    73.6027 </r>
       <r>    -1.0281    18.4920    74.8040 </r>
       <r>    -0.9631    23.3237    76.3191 </r>
       <r>    -0.8981    23.7907    77.8646 </r>
       <r>    -0.8332    23.0192    79.3600 </r>
       <r>    -0.7682    26.8486    81.1041 </r>
       <r>    -0.7033    37.5089    83.5407 </r>
       <r>    -0.6383    50.6891    86.8336 </r>
       <r>    -0.5733    57.8847    90.5939 </r>
       <r>    -0.5084    52.3373    93.9938 </r>
       <r>    -0.4434    35.1636    96.2780 </r>
       <r>    -0.3785    15.6357    97.2938 </r>
       <r>    -0.3135     4.0617    97.5576 </r>
       <r>    -0.2485     4.4270    97.8452 </r>
       <r>    -0.1836    12.9610    98.6872 </r>
       <r>    -0.1186    21.7464   100.0999 </r>
       <r>    -0.0536    24.3156   101.6794 </r>
       <r>     0.0113    19.8868   102.9713 </r>
       <r>     0.0763    12.6362   103.7922 </r>
       <r>     0.1412     7.1153   104.2544 </r>
       <r>     0.2062     5.3046   104.5990 </r>
       <r>     0.2712     7.2238   105.0683 </r>
       <r>     0.3361    12.1954   105.8605 </r>
       <r>     0.4011    18.9771   107.0933 </r>
       <r>     0.4660    25.3862   108.7424 </r>
       <r>     0.5310    28.3385   110.5833 </r>
       <r>     0.5960    25.3893   112.2326 </r>
       <r>     0.6609    17.2479   113.3531 </r>
       <r>     0.7259     7.9421   113.8690 </r>
       <r>     0.7909     1.4870   113.9656 </r>
       <r>     0.8558    -1.0832   113.8953 </r>
       <r>     0.9208    -1.2423   113.8146 </r>
       <r>     0.9857    -0.7687   113.7646 </r>
       <r>     1.0507    -0.6108   113.7249 </r>
       <r>     1.1157    -1.0853   113.6544 </r>
       <r>     1.1806    -2.1090   113.5174 </r>
       <r>     1.2456    -2.5989   113.3486 </r>
       <r>     1.3105     0.4256   113.3762 </r>
       <r>     1.3755    10.9298   114.0863 </r>
       <r>     1.4405    29.5739   116.0074 </r>
       <r>     1.5054    49.3231   119.2115 </r>
       <r>     1.5704    58.1711   122.9904 </r>
       <r>     1.6354    49.7541   126.2225 </r>
       <r>     1.7003    30.7116   128.2176 </r>
       <r>     1.7653    15.0342   129.1942 </r>
       <r>     1.8302    11.3894   129.9341 </r>
       <r>     1.8952    17.1008   131.0450 </r>
       <r>     1.9602    23.1146   132.5466 </r>
       <r>     2.0251    23.3105   134.0609 </r>
       <r>     2.0901    20.0241   135.3617 </r>
       <r>     2.1550    22.0617   136.7948 </r>
       <r>     2.2200    36.6843   139.1779 </r>
       <r>     2.2850    61.4753   143.1714 </r>
       <r>     2.3499    83.4653   148.5935 </r>
       <r>     2.4149    88.1036   154.3168 </r>
       <r>     2.4799    71.1815   158.9409 </r>
       <r>     2.5448    42.1833   161.6811 </r>
       <r>     2.6098    15.6106   162.6952 </r>
       <r>     2.6747    -0.2196   162.6810 </r>
       <r>     2.7397    -5.9181   162.2965 </r>
       <r>     2.8047    -5.2539   161.9552 </r>
       <r>     2.8696     0.9020   162.0138 </r>
       <r>     2.9346    14.7353   162.9710 </r>
       <r>     2.9995    36.4963   165.3419 </r>
       <r>     3.0645    60.5392   169.2746 </r>
       <r>     3.1295    77.9051   174.3355 </r>
       <r>     3.1944    83.1225   179.7352 </r>
       <r>     3.2594    77.3561   184.7604 </r>
       <r>     3.3244    65.3689   189.0069 </r>
       <r>     3.3893    51.7654   192.3696 </r>
       <r>     3.4543    40.7275   195.0153 </r>
       <r>     3.5192    36.3044   197.3737 </r>
       <r>     3.5842    39.2510   199.9235 </r>
       <r>     3.6492    43.9300   202.7773 </r>
       <r>     3.7141    42.4749   205.5365 </r>
       <r>     3.7791    33.7720   207.7304 </r>
       <r>     3.8440    25.2976   209.3738 </r>
       <r>     3.9090    24.1669   210.9437 </r>
       <r>     3.9740    29.1322   212.8362 </r>
       <r>     4.0389    33.7352   215.0277 </r>
       <r>     4.1039    34.8937   217.2944 </r>
       <r>     4.1689    35.0168   219.5692 </r>
       <r>     4.2338    36.9403   221.9689 </r>
       <r>     4.2988    40.6797   224.6115 </r>
       <r>     4.3637    45.3036   227.5545 </r>
       <r>     4.4287    50.5146   230.8360 </r>
       <r>     4.4937    55.0698   234.4134 </r>
       <r>     4.5586    55.6558   238.0289 </r>
       <r>     4.6236    49.0596   241.2159 </r>
       <r>     4.6885    35.5435   243.5248 </r>
       <r>     4.7535    19.6854   244.8036 </r>
       <r>     4.8185     7.7314   245.3059 </r>
       <r>     4.8834     3.9293   245.5611 </r>
       <r>     4.9484     8.4377   246.1092 </r>
       <r>     5.0134    17.2917   247.2325 </r>
       <r>     5.0783    24.2851   248.8101 </r>
       <r>     5.1433    24.6137   250.4091 </r>
       <r>     5.2082    18.1376   251.5873 </r>
       <r>     5.2732     9.1146   252.1794 </r>
       <r>     5.3382     2.5904   252.3477 </r>
       <r>     5.4031     1.1137   252.4201 </r>
       <r>     5.4681     4.0480   252.6830 </r>
       <r>     5.5330     8.5865   253.2408 </r>
       <r>     5.5980    11.4219   253.9828 </r>
       <r>     5.6630    10.8201   254.6857 </r>
       <r>     5.7279     7.7479   255.1890 </r>
       <r>     5.7929     4.6088   255.4884 </r>
       <r>     5.8579     2.8497   255.6735 </r>
       <r>     5.9228     2.1261   255.8116 </r>
       <r>     5.9878     1.4651   255.9068 </r>
       <r>     6.0527     0.5780   255.9444 </r>
       <r>     6.1177     0.0589   255.9482 </r>
       <r>     6.1827     0.7893   255.9995 </r>
       <r>     6.2476     3.1890   256.2066 </r>
       <r>     6.3126     6.6466   256.6384 </r>
       <r>     6.3775     9.5729   257.2603 </r>
       <r>     6.4425    10.3403   257.9320 </r>
       <r>     6.5075     8.4583   258.4815 </r>
       <r>     6.5724     4.9636   258.8039 </r>
       <r>     6.6374     1.8276   258.9226 </r>
       <r>     6.7024     0.9860   258.9867 </r>
       <r>     6.7673     3.4150   259.2085 </r>
       <r>     6.8323     8.3367   259.7501 </r>
       <r>     6.8972    13.1530   260.6045 </r>
       <r>     6.9622    15.0777   261.5840 </r>
       <r>     7.0272    13.8854   262.4860 </r>
       <r>     7.0921    12.9265   263.3257 </r>
       <r>     7.1571    16.1923   264.3776 </r>
       <r>     7.2220    23.5392   265.9067 </r>
       <r>     7.2870    29.5381   267.8256 </r>
       <r>     7.3520    28.3964   269.6703 </r>
       <r>     7.4169    20.2069   270.9829 </r>
       <r>     7.4819    11.6629   271.7406 </r>
       <r>     7.5469    10.5704   272.4272 </r>
       <r>     7.6118    19.6610   273.7045 </r>
       <r>     7.6768    34.5879   275.9513 </r>
       <r>     7.7417    46.9065   278.9985 </r>
       <r>     7.8067    49.9798   282.2452 </r>
       <r>     7.8717    43.9977   285.1034 </r>
       <r>     7.9366    35.9380   287.4380 </r>
       <r>     8.0016    33.8485   289.6368 </r>
       <r>     8.0665    40.5021   292.2679 </r>
       <r>     8.1315    52.0734   295.6507 </r>
       <r>     8.1965    61.8665   299.6696 </r>
       <r>     8.2614    64.9679   303.8900 </r>
       <r>     8.3264    60.5085   307.8208 </r>
       <r>     8.3914    50.7885   311.1201 </r>
       <r>     8.4563    38.9783   313.6521 </r>
       <r>     8.5213    27.8138   315.4590 </r>
       <r>     8.5862    19.4917   316.7252 </r>
       <r>     8.6512    15.4041   317.7259 </r>
       <r>     8.7162    15.4977   318.7326 </r>
       <r>     8.7811    17.9404   319.8980 </r>
       <r>     8.8461    19.6170   321.1724 </r>
       <r>     8.9110    17.8503   322.3320 </r>
       <r>     8.9760    12.4874   323.1432 </r>
       <r>     9.0410     6.0668   323.5373 </r>
       <r>     9.1059     1.5272   323.6365 </r>
       <r>     9.1709    -0.0436   323.6337 </r>
       <r>     9.2359     0.4536   323.6631 </r>
       <r>     9.3008     1.4343   323.7563 </r>
       <r>     9.3658     1.8092   323.8738 </r>
       <r>     9.4307     1.4035   323.9650 </r>
       <r>     9.4957     0.6786   324.0091 </r>
       <r>     9.5607     0.1299   324.0175 </r>
       <r>     9.6256    -0.0898   324.0117 </r>
       <r>     9.6906    -0.1002   324.0052 </r>
       <r>     9.7555    -0.0536   324.0017 </r>
       <r>     9.8205    -0.0196   324.0004 </r>
       <r>     9.8855    -0.0053   324.0001 </r>
       <r>     9.9504    -0.0011   324.0000 </r>
       <r>    10.0154    -0.0002   324.0000 </r>
       <r>    10.0804    -0.0000   324.0000 </r>
       <r>    10.1453    -0.0000   324.0000 </r>
       <r>    10.2103    -0.0000   324.0000 </r>
       <r>    10.2752    -0.0000   324.0000 </r>
       <r>    10.3402    -0.0000   324.0000 </r>
       <r>    10.4052    -0.0000   324.0000 </r>
       <r>    10.4701    -0.0000   324.0000 </r>
       <r>    10.5351    -0.0000   324.0000 </r>
       <r>    10.6000    -0.0000   324.0000 </r>
       <r>    10.6650     0.0000   324.0000 </r>
       <r>    10.7300     0.0000   324.0000 </r>
       <r>    10.7949     0.0000   324.0000 </r>
       <r>    10.8599     0.0000   324.0000 </r>
       <r>    10.9249     0.0000   324.0000 </r>
       <r>    10.9898     0.0000   324.0000 </r>
       <r>    11.0548     0.0000   324.0000 </r>
       <r>    11.1197     0.0000   324.0000 </r>
       <r>    11.1847     0.0000   324.0000 </r>
       <r>    11.2497     0.0000   324.0000 </r>
       <r>    11.3146     0.0000   324.0000 </r>
      </set>
     </set>
    </array>
   </total>
  </dos>
 </calculation>
 <structure name="finalpos" >
  <crystal>
   <varray name="basis" >
    <v>      10.90624761       0.05399101       0.00000000 </v>
    <v>       0.05399101      10.79826459       0.00000000 </v>
    <v>       0.00000000       0.00000000      10.79826459 </v>
   </varray>
   <i name="volume">   1271.66445888 </i>
   <varray name="rec_basis" >
    <v>       0.09169283      -0.00045846       0.00000000 </v>
    <v>      -0.00045846       0.09260977       0.00000000 </v>
    <v>       0.00000000       0.00000000       0.09260747 </v>
   </varray>
  </crystal>
  <varray name="positions" >
   <v>       0.00000000       0.00000000       0.00034916 </v>
   <v>       0.00000000       0.00000000       0.50034916 </v>
   <v>       0.00000000       0.50000000       0.00034916 </v>
   <v>       0.00000000       0.50000000       0.50034916 </v>
   <v>       0.50000000       0.00000000       0.00034916 </v>
   <v>       0.50000000       0.00000000       0.50034916 </v>
   <v>       0.50000000       0.50000000       0.00034916 </v>
   <v>       0.50000000       0.50000000       0.50034916 </v>
   <v>       0.37500000       0.37500000       0.12465084 </v>
   <v>       0.37500000       0.37500000       0.62465084 </v>
   <v>       0.37500000       0.87500000       0.12465084 </v>
   <v>       0.37500000       0.87500000       0.62465084 </v>
   <v>       0.87500000       0.37500000       0.12465084 </v>
   <v>       0.87500000       0.37500000       0.62465084 </v>
   <v>       0.87500000       0.87500000       0.12465084 </v>
   <v>       0.87500000       0.87500000       0.62465084 </v>
   <v>       0.00000000       0.25000000       0.25034916 </v>
   <v>       0.00000000       0.25000000       0.75034916 </v>
   <v>       0.00000000       0.75000000       0.25034916 </v>
   <v>       0.00000000       0.75000000       0.75034916 </v>
   <v>       0.50000000       0.25000000       0.25034916 </v>
   <v>       0.50000000       0.25000000       0.75034916 </v>
   <v>       0.50000000       0.75000000       0.25034916 </v>
   <v>       0.50000000       0.75000000       0.75034916 </v>
   <v>       0.37500000       0.12500000       0.37465084 </v>
   <v>       0.37500000       0.12500000       0.87465084 </v>
   <v>       0.37500000       0.62500000       0.37465084 </v>
   <v>       0.37500000       0.62500000       0.87465084 </v>
   <v>       0.87500000       0.12500000       0.37465084 </v>
   <v>       0.87500000       0.12500000       0.87465084 </v>
   <v>       0.87500000       0.62500000       0.37465084 </v>
   <v>       0.87500000       0.62500000       0.87465084 </v>
   <v>       0.25000000       0.00000000       0.25034916 </v>
   <v>       0.25000000       0.00000000       0.75034916 </v>
   <v>       0.25000000       0.50000000       0.25034916 </v>
   <v>       0.25000000       0.50000000       0.75034916 </v>
   <v>       0.75000000       0.00000000       0.25034916 </v>
   <v>       0.75000000       0.00000000       0.75034916 </v>
   <v>       0.75000000       0.50000000       0.25034916 </v>
   <v>       0.75000000       0.50000000       0.75034916 </v>
   <v>       0.12500000       0.37500000       0.37465084 </v>
   <v>       0.12500000       0.37500000       0.87465084 </v>
   <v>       0.12500000       0.87500000       0.37465084 </v>
   <v>       0.12500000       0.87500000       0.87465084 </v>
   <v>       0.62500000       0.37500000       0.37465084 </v>
   <v>       0.62500000       0.37500000       0.87465084 </v>
   <v>       0.62500000       0.87500000       0.37465084 </v>
   <v>       0.62500000       0.87500000       0.87465084 </v>
   <v>       0.25000000       0.25000000       0.00034916 </v>
   <v>       0.25000000       0.25000000       0.50034916 </v>
   <v>       0.25000000       0.75000000       0.00034916 </v>
   <v>       0.25000000       0.75000000       0.50034916 </v>
   <v>       0.75000000       0.25000000       0.00034916 </v>
   <v>       0.75000000       0.25000000       0.50034916 </v>
   <v>       0.75000000       0.75000000       0.00034916 </v>
   <v>       0.75000000       0.75000000       0.50034916 </v>
   <v>       0.12500000       0.12500000       0.12465084 </v>
   <v>       0.12500000       0.12500000       0.62465084 </v>
   <v>       0.12500000       0.62500000       0.12465084 </v>
   <v>       0.12500000       0.62500000       0.62465084 </v>
   <v>       0.62500000       0.12500000       0.12465084 </v>
   <v>       0.62500000       0.12500000       0.62465084 </v>
   <v>       0.62500000       0.62500000       0.12465084 </v>
   <v>       0.62500000       0.62500000       0.62465084 </v>
  </varray>
 </structure>
</modeling>
