Si64                                    
           1
    10.906248    0.053991    0.000000
     0.053991   10.798265    0.000000
     0.000000    0.000000   10.798265
   Si
    64
Direct configuration=     1
   0.00000000  0.00000000  0.00000000
   0.00000000  0.00000000  0.50000000
   0.00000000  0.50000000  0.00000000
   0.00000000  0.50000000  0.50000000
   0.50000000  0.00000000  0.00000000
   0.50000000  0.00000000  0.50000000
   0.50000000  0.50000000  0.00000000
   0.50000000  0.50000000  0.50000000
   0.37500000  0.37500000  0.12500000
   0.37500000  0.37500000  0.62500000
   0.37500000  0.87500000  0.12500000
   0.37500000  0.87500000  0.62500000
   0.87500000  0.37500000  0.12500000
   0.87500000  0.37500000  0.62500000
   0.87500000  0.87500000  0.12500000
   0.87500000  0.87500000  0.62500000
   0.00000000  0.25000000  0.25000000
   0.00000000  0.25000000  0.75000000
   0.00000000  0.75000000  0.25000000
   0.00000000  0.75000000  0.75000000
   0.50000000  0.25000000  0.25000000
   0.50000000  0.25000000  0.75000000
   0.50000000  0.75000000  0.25000000
   0.50000000  0.75000000  0.75000000
   0.37500000  0.12500000  0.37500000
   0.37500000  0.12500000  0.87500000
   0.37500000  0.62500000  0.37500000
   0.37500000  0.62500000  0.87500000
   0.87500000  0.12500000  0.37500000
   0.87500000  0.12500000  0.87500000
   0.87500000  0.62500000  0.37500000
   0.87500000  0.62500000  0.87500000
   0.25000000  0.00000000  0.25000000
   0.25000000  0.00000000  0.75000000
   0.25000000  0.50000000  0.25000000
   0.25000000  0.50000000  0.75000000
   0.75000000  0.00000000  0.25000000
   0.75000000  0.00000000  0.75000000
   0.75000000  0.50000000  0.25000000
   0.75000000  0.50000000  0.75000000
   0.12500000  0.37500000  0.37500000
   0.12500000  0.37500000  0.87500000
   0.12500000  0.87500000  0.37500000
   0.12500000  0.87500000  0.87500000
   0.62500000  0.37500000  0.37500000
   0.62500000  0.37500000  0.87500000
   0.62500000  0.87500000  0.37500000
   0.62500000  0.87500000  0.87500000
   0.25000000  0.25000000  0.00000000
   0.25000000  0.25000000  0.50000000
   0.25000000  0.75000000  0.00000000
   0.25000000  0.75000000  0.50000000
   0.75000000  0.25000000  0.00000000
   0.75000000  0.25000000  0.50000000
   0.75000000  0.75000000  0.00000000
   0.75000000  0.75000000  0.50000000
   0.12500000  0.12500000  0.12500000
   0.12500000  0.12500000  0.62500000
   0.12500000  0.62500000  0.12500000
   0.12500000  0.62500000  0.62500000
   0.62500000  0.12500000  0.12500000
   0.62500000  0.12500000  0.62500000
   0.62500000  0.62500000  0.12500000
   0.62500000  0.62500000  0.62500000
Direct configuration=     2
   1.00000000  1.00000000  0.00046002
   1.00000000  0.00000000  0.50046002
   1.00000000  0.50000000  0.00046002
   1.00000000  0.50000000  0.50046002
   0.50000000  0.00000000  0.00046002
   0.50000000  1.00000000  0.50046002
   0.50000000  0.50000000  0.00046002
   0.50000000  0.50000000  0.50046002
   0.37500000  0.37500000  0.12453998
   0.37500000  0.37500000  0.62453998
   0.37500000  0.87500000  0.12453998
   0.37500000  0.87500000  0.62453998
   0.87500000  0.37500000  0.12453998
   0.87500000  0.37500000  0.62453998
   0.87500000  0.87500000  0.12453998
   0.87500000  0.87500000  0.62453998
   1.00000000  0.25000000  0.25046002
   0.00000000  0.25000000  0.75046002
   1.00000000  0.75000000  0.25046002
   1.00000000  0.75000000  0.75046002
   0.50000000  0.25000000  0.25046002
   0.50000000  0.25000000  0.75046002
   0.50000000  0.75000000  0.25046002
   0.50000000  0.75000000  0.75046002
   0.37500000  0.12500000  0.37453998
   0.37500000  0.12500000  0.87453998
   0.37500000  0.62500000  0.37453998
   0.37500000  0.62500000  0.87453998
   0.87500000  0.12500000  0.37453998
   0.87500000  0.12500000  0.87453998
   0.87500000  0.62500000  0.37453998
   0.87500000  0.62500000  0.87453998
   0.25000000  1.00000000  0.25046002
   0.25000000  1.00000000  0.75046002
   0.25000000  0.50000000  0.25046002
   0.25000000  0.50000000  0.75046002
   0.75000000  1.00000000  0.25046002
   0.75000000  1.00000000  0.75046002
   0.75000000  0.50000000  0.25046002
   0.75000000  0.50000000  0.75046002
   0.12500000  0.37500000  0.37453998
   0.12500000  0.37500000  0.87453998
   0.12500000  0.87500000  0.37453998
   0.12500000  0.87500000  0.87453998
   0.62500000  0.37500000  0.37453998
   0.62500000  0.37500000  0.87453998
   0.62500000  0.87500000  0.37453998
   0.62500000  0.87500000  0.87453998
   0.25000000  0.25000000  0.00046002
   0.25000000  0.25000000  0.50046002
   0.25000000  0.75000000  0.00046002
   0.25000000  0.75000000  0.50046002
   0.75000000  0.25000000  0.00046002
   0.75000000  0.25000000  0.50046002
   0.75000000  0.75000000  0.00046002
   0.75000000  0.75000000  0.50046002
   0.12500000  0.12500000  0.12453998
   0.12500000  0.12500000  0.62453998
   0.12500000  0.62500000  0.12453998
   0.12500000  0.62500000  0.62453998
   0.62500000  0.12500000  0.12453998
   0.62500000  0.12500000  0.62453998
   0.62500000  0.62500000  0.12453998
   0.62500000  0.62500000  0.62453998
Direct configuration=     3
   0.00000000  0.00000000  0.00034916
   0.00000000  0.00000000  0.50034916
   0.00000000  0.50000000  0.00034916
   0.00000000  0.50000000  0.50034916
   0.50000000  0.00000000  0.00034916
   0.50000000  0.00000000  0.50034916
   0.50000000  0.50000000  0.00034916
   0.50000000  0.50000000  0.50034916
   0.37500000  0.37500000  0.12465084
   0.37500000  0.37500000  0.62465084
   0.37500000  0.87500000  0.12465084
   0.37500000  0.87500000  0.62465084
   0.87500000  0.37500000  0.12465084
   0.87500000  0.37500000  0.62465084
   0.87500000  0.87500000  0.12465084
   0.87500000  0.87500000  0.62465084
   0.00000000  0.25000000  0.25034916
   0.00000000  0.25000000  0.75034916
   0.00000000  0.75000000  0.25034916
   0.00000000  0.75000000  0.75034916
   0.50000000  0.25000000  0.25034916
   0.50000000  0.25000000  0.75034916
   0.50000000  0.75000000  0.25034916
   0.50000000  0.75000000  0.75034916
   0.37500000  0.12500000  0.37465084
   0.37500000  0.12500000  0.87465084
   0.37500000  0.62500000  0.37465084
   0.37500000  0.62500000  0.87465084
   0.87500000  0.12500000  0.37465084
   0.87500000  0.12500000  0.87465084
   0.87500000  0.62500000  0.37465084
   0.87500000  0.62500000  0.87465084
   0.25000000  0.00000000  0.25034916
   0.25000000  0.00000000  0.75034916
   0.25000000  0.50000000  0.25034916
   0.25000000  0.50000000  0.75034916
   0.75000000  0.00000000  0.25034916
   0.75000000  0.00000000  0.75034916
   0.75000000  0.50000000  0.25034916
   0.75000000  0.50000000  0.75034916
   0.12500000  0.37500000  0.37465084
   0.12500000  0.37500000  0.87465084
   0.12500000  0.87500000  0.37465084
   0.12500000  0.87500000  0.87465084
   0.62500000  0.37500000  0.37465084
   0.62500000  0.37500000  0.87465084
   0.62500000  0.87500000  0.37465084
   0.62500000  0.87500000  0.87465084
   0.25000000  0.25000000  0.00034916
   0.25000000  0.25000000  0.50034916
   0.25000000  0.75000000  0.00034916
   0.25000000  0.75000000  0.50034916
   0.75000000  0.25000000  0.00034916
   0.75000000  0.25000000  0.50034916
   0.75000000  0.75000000  0.00034916
   0.75000000  0.75000000  0.50034916
   0.12500000  0.12500000  0.12465084
   0.12500000  0.12500000  0.62465084
   0.12500000  0.62500000  0.12465084
   0.12500000  0.62500000  0.62465084
   0.62500000  0.12500000  0.12465084
   0.62500000  0.12500000  0.62465084
   0.62500000  0.62500000  0.12465084
   0.62500000  0.62500000  0.62465084
