   8   8   0   0
  0.5671169E+01  0.3554718E-09  0.3572581E-09  0.3572570E-09  0.5000000E-15
  1.000000000000000E-004
  CAR 
 C8                                      
     23.82819806    -13.74748670  301      9.81559895      1.00000000
    -13.747  0.0000E+00  0.0000E+00
    -13.622  0.0000E+00  0.0000E+00
    -13.497  0.0000E+00  0.0000E+00
    -13.372  0.0000E+00  0.0000E+00
    -13.246  0.0000E+00  0.0000E+00
    -13.121  0.0000E+00  0.0000E+00
    -12.996  0.0000E+00  0.0000E+00
    -12.871  0.0000E+00  0.0000E+00
    -12.745  0.0000E+00  0.0000E+00
    -12.620  0.0000E+00  0.0000E+00
    -12.495  0.0000E+00  0.0000E+00
    -12.370  0.0000E+00  0.0000E+00
    -12.244  0.0000E+00  0.0000E+00
    -12.119  0.0000E+00  0.0000E+00
    -11.994  0.0000E+00  0.0000E+00
    -11.869  0.0000E+00  0.0000E+00
    -11.743  0.8134E-03  0.1094E-05
    -11.618  0.1759E+00  0.1128E-01
    -11.493  0.2180E+00  0.3470E-01
    -11.368  0.2695E+00  0.6568E-01
    -11.242  0.3180E+00  0.1023E+00
    -11.117  0.3515E+00  0.1443E+00
    -10.992  0.3892E+00  0.1906E+00
    -10.867  0.4209E+00  0.2415E+00
    -10.741  0.4495E+00  0.2960E+00
    -10.616  0.4815E+00  0.3543E+00
    -10.491  0.5067E+00  0.4162E+00
    -10.366  0.5314E+00  0.4812E+00
    -10.240  0.5586E+00  0.5494E+00
    -10.115  0.5827E+00  0.6210E+00
     -9.990  0.6043E+00  0.6954E+00
     -9.865  0.6274E+00  0.7725E+00
     -9.739  0.6520E+00  0.8526E+00
     -9.614  0.7971E+00  0.9451E+00
     -9.489  0.7140E+00  0.1037E+01
     -9.364  0.6730E+00  0.1124E+01
     -9.238  0.6442E+00  0.1206E+01
     -9.113  0.7803E+00  0.1293E+01
     -8.988  0.7776E+00  0.1389E+01
     -8.863  0.7906E+00  0.1488E+01
     -8.737  0.8172E+00  0.1588E+01
     -8.612  0.8368E+00  0.1692E+01
     -8.487  0.8544E+00  0.1798E+01
     -8.362  0.8729E+00  0.1906E+01
     -8.236  0.8938E+00  0.2017E+01
     -8.111  0.9145E+00  0.2130E+01
     -7.986  0.9328E+00  0.2245E+01
     -7.861  0.9544E+00  0.2363E+01
     -7.735  0.1021E+01  0.2487E+01
     -7.610  0.1008E+01  0.2611E+01
     -7.485  0.1033E+01  0.2738E+01
     -7.360  0.1050E+01  0.2869E+01
     -7.234  0.1170E+01  0.3004E+01
     -7.109  0.1089E+01  0.3142E+01
     -6.984  0.1060E+01  0.3276E+01
     -6.859  0.1057E+01  0.3408E+01
     -6.733  0.1193E+01  0.3547E+01
     -6.608  0.1202E+01  0.3696E+01
     -6.483  0.1203E+01  0.3847E+01
     -6.358  0.1243E+01  0.4000E+01
     -6.232  0.1317E+01  0.4160E+01
     -6.107  0.1403E+01  0.4330E+01
     -5.982  0.1536E+01  0.4512E+01
     -5.857  0.1568E+01  0.4710E+01
     -5.731  0.1545E+01  0.4903E+01
     -5.606  0.1434E+01  0.5087E+01
     -5.481  0.1469E+01  0.5269E+01
     -5.356  0.1374E+01  0.5447E+01
     -5.230  0.1351E+01  0.5619E+01
     -5.105  0.1318E+01  0.5786E+01
     -4.980  0.1277E+01  0.5950E+01
     -4.855  0.1215E+01  0.6105E+01
     -4.729  0.1206E+01  0.6258E+01
     -4.604  0.1224E+01  0.6409E+01
     -4.479  0.1142E+01  0.6556E+01
     -4.354  0.1077E+01  0.6695E+01
     -4.228  0.1035E+01  0.6827E+01
     -4.103  0.1006E+01  0.6954E+01
     -3.978  0.9964E+00  0.7078E+01
     -3.853  0.9757E+00  0.7203E+01
     -3.727  0.9035E+00  0.7319E+01
     -3.602  0.8540E+00  0.7429E+01
     -3.477  0.1048E+01  0.7552E+01
     -3.352  0.1131E+01  0.7685E+01
     -3.226  0.1076E+01  0.7824E+01
     -3.101  0.1084E+01  0.7959E+01
     -2.976  0.1087E+01  0.8099E+01
     -2.851  0.9584E+00  0.8224E+01
     -2.725  0.9809E+00  0.8342E+01
     -2.600  0.9739E+00  0.8465E+01
     -2.475  0.1051E+01  0.8590E+01
     -2.350  0.1197E+01  0.8727E+01
     -2.224  0.1358E+01  0.8885E+01
     -2.099  0.1545E+01  0.9065E+01
     -1.974  0.1968E+01  0.9285E+01
     -1.849  0.2523E+01  0.9559E+01
     -1.723  0.2933E+01  0.9902E+01
     -1.598  0.2412E+01  0.1024E+02
     -1.473  0.1998E+01  0.1051E+02
     -1.348  0.1814E+01  0.1075E+02
     -1.222  0.1697E+01  0.1097E+02
     -1.097  0.1657E+01  0.1117E+02
     -0.972  0.1537E+01  0.1138E+02
     -0.847  0.1395E+01  0.1156E+02
     -0.721  0.1336E+01  0.1173E+02
     -0.596  0.1293E+01  0.1189E+02
     -0.471  0.1245E+01  0.1205E+02
     -0.345  0.1193E+01  0.1221E+02
     -0.220  0.1165E+01  0.1235E+02
     -0.095  0.1146E+01  0.1250E+02
      0.030  0.1066E+01  0.1263E+02
      0.156  0.1047E+01  0.1277E+02
      0.281  0.1105E+01  0.1290E+02
      0.406  0.1119E+01  0.1304E+02
      0.531  0.1383E+01  0.1319E+02
      0.657  0.1709E+01  0.1339E+02
      0.782  0.1703E+01  0.1360E+02
      0.907  0.1792E+01  0.1382E+02
      1.032  0.2122E+01  0.1406E+02
      1.158  0.2178E+01  0.1433E+02
      1.283  0.2210E+01  0.1460E+02
      1.408  0.2234E+01  0.1488E+02
      1.533  0.2458E+01  0.1518E+02
      1.659  0.2007E+01  0.1546E+02
      1.784  0.1385E+01  0.1566E+02
      1.909  0.1629E+01  0.1584E+02
      2.034  0.2021E+01  0.1606E+02
      2.160  0.2415E+01  0.1635E+02
      2.285  0.2207E+01  0.1664E+02
      2.410  0.2194E+01  0.1691E+02
      2.535  0.2284E+01  0.1719E+02
      2.661  0.2382E+01  0.1749E+02
      2.786  0.2357E+01  0.1778E+02
      2.911  0.2462E+01  0.1808E+02
      3.036  0.2701E+01  0.1840E+02
      3.162  0.2850E+01  0.1876E+02
      3.287  0.2566E+01  0.1910E+02
      3.412  0.3015E+01  0.1943E+02
      3.537  0.3053E+01  0.1982E+02
      3.663  0.3142E+01  0.2019E+02
      3.788  0.3331E+01  0.2060E+02
      3.913  0.3215E+01  0.2100E+02
      4.038  0.3086E+01  0.2140E+02
      4.164  0.3198E+01  0.2179E+02
      4.289  0.2850E+01  0.2216E+02
      4.414  0.3302E+01  0.2254E+02
      4.539  0.2918E+01  0.2294E+02
      4.665  0.2730E+01  0.2328E+02
      4.790  0.2674E+01  0.2362E+02
      4.915  0.2840E+01  0.2396E+02
      5.040  0.3073E+01  0.2433E+02
      5.166  0.2965E+01  0.2471E+02
      5.291  0.2980E+01  0.2508E+02
      5.416  0.2867E+01  0.2545E+02
      5.541  0.2706E+01  0.2579E+02
      5.667  0.2609E+01  0.2613E+02
      5.792  0.2590E+01  0.2645E+02
      5.917  0.2632E+01  0.2678E+02
      6.042  0.2715E+01  0.2711E+02
      6.168  0.2786E+01  0.2746E+02
      6.293  0.2666E+01  0.2780E+02
      6.418  0.2636E+01  0.2812E+02
      6.543  0.2534E+01  0.2845E+02
      6.669  0.2873E+01  0.2877E+02
      6.794  0.2969E+01  0.2914E+02
      6.919  0.1560E+01  0.2936E+02
      7.044  0.2161E+01  0.2957E+02
      7.170  0.2121E+01  0.2983E+02
      7.295  0.2157E+01  0.3009E+02
      7.420  0.1529E+01  0.3031E+02
      7.545  0.1377E+01  0.3049E+02
      7.671  0.1267E+01  0.3065E+02
      7.796  0.1170E+01  0.3081E+02
      7.921  0.1092E+01  0.3095E+02
      8.046  0.1015E+01  0.3108E+02
      8.172  0.9266E+00  0.3120E+02
      8.297  0.8553E+00  0.3131E+02
      8.422  0.7878E+00  0.3142E+02
      8.547  0.7300E+00  0.3151E+02
      8.673  0.6608E+00  0.3160E+02
      8.798  0.5919E+00  0.3168E+02
      8.923  0.5286E+00  0.3175E+02
      9.048  0.4859E+00  0.3181E+02
      9.174  0.4096E+00  0.3187E+02
      9.299  0.3468E+00  0.3191E+02
      9.424  0.2567E+00  0.3195E+02
      9.549  0.2293E+00  0.3198E+02
      9.675  0.7503E-01  0.3200E+02
      9.800  0.0000E+00  0.3200E+02
      9.925  0.0000E+00  0.3200E+02
     10.050  0.0000E+00  0.3200E+02
     10.176  0.0000E+00  0.3200E+02
     10.301  0.0000E+00  0.3200E+02
     10.426  0.0000E+00  0.3200E+02
     10.551  0.0000E+00  0.3200E+02
     10.677  0.0000E+00  0.3200E+02
     10.802  0.0000E+00  0.3200E+02
     10.927  0.0000E+00  0.3200E+02
     11.052  0.0000E+00  0.3200E+02
     11.178  0.0000E+00  0.3200E+02
     11.303  0.0000E+00  0.3200E+02
     11.428  0.0000E+00  0.3200E+02
     11.553  0.0000E+00  0.3200E+02
     11.679  0.0000E+00  0.3200E+02
     11.804  0.0000E+00  0.3200E+02
     11.929  0.0000E+00  0.3200E+02
     12.054  0.0000E+00  0.3200E+02
     12.180  0.0000E+00  0.3200E+02
     12.305  0.0000E+00  0.3200E+02
     12.430  0.0000E+00  0.3200E+02
     12.555  0.0000E+00  0.3200E+02
     12.681  0.0000E+00  0.3200E+02
     12.806  0.0000E+00  0.3200E+02
     12.931  0.0000E+00  0.3200E+02
     13.057  0.0000E+00  0.3200E+02
     13.182  0.0000E+00  0.3200E+02
     13.307  0.0000E+00  0.3200E+02
     13.432  0.0000E+00  0.3200E+02
     13.558  0.0000E+00  0.3200E+02
     13.683  0.0000E+00  0.3200E+02
     13.808  0.5059E-02  0.3200E+02
     13.933  0.9944E-01  0.3201E+02
     14.059  0.2992E+00  0.3203E+02
     14.184  0.4129E+00  0.3207E+02
     14.309  0.5800E+00  0.3214E+02
     14.434  0.6428E+00  0.3221E+02
     14.560  0.7939E+00  0.3230E+02
     14.685  0.9392E+00  0.3241E+02
     14.810  0.1020E+01  0.3253E+02
     14.935  0.1216E+01  0.3267E+02
     15.061  0.1448E+01  0.3284E+02
     15.186  0.1477E+01  0.3302E+02
     15.311  0.1563E+01  0.3321E+02
     15.436  0.1616E+01  0.3341E+02
     15.562  0.1678E+01  0.3362E+02
     15.687  0.1888E+01  0.3384E+02
     15.812  0.2058E+01  0.3409E+02
     15.937  0.2001E+01  0.3434E+02
     16.063  0.1924E+01  0.3459E+02
     16.188  0.1976E+01  0.3483E+02
     16.313  0.2143E+01  0.3509E+02
     16.438  0.2374E+01  0.3537E+02
     16.564  0.2393E+01  0.3567E+02
     16.689  0.2450E+01  0.3597E+02
     16.814  0.2468E+01  0.3628E+02
     16.939  0.2576E+01  0.3660E+02
     17.065  0.2772E+01  0.3693E+02
     17.190  0.2878E+01  0.3729E+02
     17.315  0.3078E+01  0.3766E+02
     17.440  0.3158E+01  0.3804E+02
     17.566  0.3256E+01  0.3843E+02
     17.691  0.3932E+01  0.3887E+02
     17.816  0.4186E+01  0.3935E+02
     17.941  0.4591E+01  0.3989E+02
     18.067  0.4743E+01  0.4047E+02
     18.192  0.3404E+01  0.4097E+02
     18.317  0.3543E+01  0.4137E+02
     18.442  0.4031E+01  0.4182E+02
     18.568  0.3900E+01  0.4230E+02
     18.693  0.3697E+01  0.4278E+02
     18.818  0.3590E+01  0.4322E+02
     18.943  0.3231E+01  0.4364E+02
     19.069  0.3203E+01  0.4404E+02
     19.194  0.2916E+01  0.4442E+02
     19.319  0.2652E+01  0.4477E+02
     19.444  0.2634E+01  0.4510E+02
     19.570  0.2849E+01  0.4544E+02
     19.695  0.2783E+01  0.4579E+02
     19.820  0.2648E+01  0.4613E+02
     19.945  0.2574E+01  0.4646E+02
     20.071  0.2134E+01  0.4675E+02
     20.196  0.1947E+01  0.4700E+02
     20.321  0.1721E+01  0.4723E+02
     20.446  0.1572E+01  0.4743E+02
     20.572  0.1294E+01  0.4762E+02
     20.697  0.9781E+00  0.4775E+02
     20.822  0.8504E+00  0.4787E+02
     20.947  0.2690E+00  0.4793E+02
     21.073  0.1765E+00  0.4795E+02
     21.198  0.1231E+00  0.4797E+02
     21.323  0.8443E-01  0.4799E+02
     21.448  0.5126E-01  0.4799E+02
     21.574  0.1888E-01  0.4800E+02
     21.699  0.2598E-02  0.4800E+02
     21.824  0.2716E-05  0.4800E+02
     21.949  0.0000E+00  0.4800E+02
     22.075  0.0000E+00  0.4800E+02
     22.200  0.0000E+00  0.4800E+02
     22.325  0.0000E+00  0.4800E+02
     22.450  0.0000E+00  0.4800E+02
     22.576  0.0000E+00  0.4800E+02
     22.701  0.0000E+00  0.4800E+02
     22.826  0.0000E+00  0.4800E+02
     22.951  0.0000E+00  0.4800E+02
     23.077  0.0000E+00  0.4800E+02
     23.202  0.0000E+00  0.4800E+02
     23.327  0.0000E+00  0.4800E+02
     23.452  0.0000E+00  0.4800E+02
     23.578  0.0000E+00  0.4800E+02
     23.703  0.0000E+00  0.4800E+02
     23.828  0.0000E+00  0.4800E+02
