       N       E                     dE             d eps       ncg     rms          rms(c)
DAV:   1     0.669637801606E+02    0.66964E+02   -0.17889E+04 62640   0.131E+03
DAV:   2    -0.723944233130E+02   -0.13936E+03   -0.13664E+03 83340   0.230E+02
DAV:   3    -0.752805064505E+02   -0.28861E+01   -0.28825E+01 88104   0.361E+01
DAV:   4    -0.752990003103E+02   -0.18494E-01   -0.18488E-01 81408   0.294E+00
DAV:   5    -0.752992636224E+02   -0.26331E-03   -0.26326E-03 86940   0.326E-01    0.111E+01
RMM:   6    -0.733730078244E+02    0.19263E+01   -0.11948E+00 62786   0.634E+00    0.660E+00
RMM:   7    -0.727271461851E+02    0.64586E+00   -0.19046E+00 68933   0.850E+00    0.143E+00
RMM:   8    -0.727414927859E+02   -0.14347E-01   -0.10842E-01 67328   0.246E+00    0.242E-01
RMM:   9    -0.727425680570E+02   -0.10753E-02   -0.20320E-02 73528   0.958E-01    0.125E-01
RMM:  10    -0.727427177925E+02   -0.14974E-03   -0.29380E-03 73157   0.361E-01    0.388E-02
RMM:  11    -0.727427821321E+02   -0.64340E-04   -0.67389E-04 77298   0.152E-01    0.934E-03
RMM:  12    -0.727427928060E+02   -0.10674E-04   -0.10036E-04 78173   0.623E-02    0.146E-02
RMM:  13    -0.727427978126E+02   -0.50066E-05   -0.25325E-05 75916   0.250E-02    0.409E-03
RMM:  14    -0.727427974089E+02    0.40370E-06   -0.36926E-06 62836   0.107E-02
   1 F= -.72742797E+02 E0= -.72742797E+02  d E =0.000000E+00
