   8   8   0   0
  0.5756558E+01  0.3608340E-09  0.3572615E-09  0.3572570E-09  0.5000000E-15
  1.000000000000000E-004
  CAR 
 C8                                      
     23.44133140    -13.76268483  301      9.56733368      1.00000000
    -13.763  0.0000E+00  0.0000E+00
    -13.639  0.0000E+00  0.0000E+00
    -13.515  0.0000E+00  0.0000E+00
    -13.391  0.0000E+00  0.0000E+00
    -13.267  0.0000E+00  0.0000E+00
    -13.143  0.0000E+00  0.0000E+00
    -13.019  0.0000E+00  0.0000E+00
    -12.895  0.0000E+00  0.0000E+00
    -12.771  0.0000E+00  0.0000E+00
    -12.647  0.0000E+00  0.0000E+00
    -12.523  0.0000E+00  0.0000E+00
    -12.399  0.0000E+00  0.0000E+00
    -12.275  0.0000E+00  0.0000E+00
    -12.151  0.0000E+00  0.0000E+00
    -12.026  0.0000E+00  0.0000E+00
    -11.902  0.0000E+00  0.0000E+00
    -11.778  0.0000E+00  0.0000E+00
    -11.654  0.1613E+00  0.8399E-02
    -11.530  0.2096E+00  0.3048E-01
    -11.406  0.2652E+00  0.6042E-01
    -11.282  0.3125E+00  0.9609E-01
    -11.158  0.3501E+00  0.1375E+00
    -11.034  0.3870E+00  0.1830E+00
    -10.910  0.4208E+00  0.2334E+00
    -10.786  0.4495E+00  0.2873E+00
    -10.662  0.4813E+00  0.3450E+00
    -10.538  0.5085E+00  0.4065E+00
    -10.414  0.5330E+00  0.4710E+00
    -10.290  0.5603E+00  0.5388E+00
    -10.166  0.5858E+00  0.6100E+00
    -10.042  0.6075E+00  0.6840E+00
     -9.918  0.6307E+00  0.7607E+00
     -9.794  0.6554E+00  0.8405E+00
     -9.670  0.8005E+00  0.9310E+00
     -9.546  0.7266E+00  0.1024E+01
     -9.422  0.6857E+00  0.1111E+01
     -9.298  0.6554E+00  0.1195E+01
     -9.174  0.7888E+00  0.1280E+01
     -9.050  0.7980E+00  0.1375E+01
     -8.926  0.8003E+00  0.1474E+01
     -8.802  0.8218E+00  0.1574E+01
     -8.678  0.8438E+00  0.1677E+01
     -8.554  0.8614E+00  0.1783E+01
     -8.430  0.8811E+00  0.1891E+01
     -8.306  0.9016E+00  0.2002E+01
     -8.182  0.9221E+00  0.2115E+01
     -8.058  0.9417E+00  0.2230E+01
     -7.934  0.9636E+00  0.2349E+01
     -7.810  0.1012E+01  0.2471E+01
     -7.686  0.1020E+01  0.2597E+01
     -7.562  0.1041E+01  0.2724E+01
     -7.438  0.1065E+01  0.2855E+01
     -7.314  0.1130E+01  0.2989E+01
     -7.190  0.1124E+01  0.3128E+01
     -7.066  0.1076E+01  0.3263E+01
     -6.942  0.1072E+01  0.3396E+01
     -6.818  0.1171E+01  0.3534E+01
     -6.694  0.1228E+01  0.3684E+01
     -6.570  0.1225E+01  0.3835E+01
     -6.446  0.1261E+01  0.3989E+01
     -6.322  0.1328E+01  0.4149E+01
     -6.198  0.1421E+01  0.4319E+01
     -6.074  0.1596E+01  0.4506E+01
     -5.950  0.1565E+01  0.4701E+01
     -5.826  0.1558E+01  0.4894E+01
     -5.702  0.1480E+01  0.5079E+01
     -5.578  0.1465E+01  0.5264E+01
     -5.454  0.1412E+01  0.5441E+01
     -5.330  0.1385E+01  0.5613E+01
     -5.206  0.1339E+01  0.5782E+01
     -5.082  0.1291E+01  0.5945E+01
     -4.958  0.1247E+01  0.6101E+01
     -4.834  0.1222E+01  0.6254E+01
     -4.710  0.1243E+01  0.6406E+01
     -4.586  0.1152E+01  0.6553E+01
     -4.462  0.1095E+01  0.6692E+01
     -4.338  0.1053E+01  0.6825E+01
     -4.214  0.1021E+01  0.6953E+01
     -4.090  0.9985E+00  0.7078E+01
     -3.966  0.9893E+00  0.7201E+01
     -3.842  0.9209E+00  0.7318E+01
     -3.718  0.8753E+00  0.7429E+01
     -3.594  0.1016E+01  0.7542E+01
     -3.470  0.1066E+01  0.7667E+01
     -3.346  0.1098E+01  0.7804E+01
     -3.222  0.1068E+01  0.7935E+01
     -3.098  0.1077E+01  0.8067E+01
     -2.974  0.9317E+00  0.8190E+01
     -2.850  0.9472E+00  0.8306E+01
     -2.725  0.1013E+01  0.8426E+01
     -2.601  0.1002E+01  0.8548E+01
     -2.477  0.1148E+01  0.8681E+01
     -2.353  0.1338E+01  0.8836E+01
     -2.229  0.1561E+01  0.9014E+01
     -2.105  0.1938E+01  0.9229E+01
     -1.981  0.2434E+01  0.9498E+01
     -1.857  0.2956E+01  0.9832E+01
     -1.733  0.2557E+01  0.1017E+02
     -1.609  0.2091E+01  0.1045E+02
     -1.485  0.1872E+01  0.1070E+02
     -1.361  0.1747E+01  0.1092E+02
     -1.237  0.1684E+01  0.1113E+02
     -1.113  0.1620E+01  0.1134E+02
     -0.989  0.1427E+01  0.1152E+02
     -0.865  0.1363E+01  0.1170E+02
     -0.741  0.1318E+01  0.1186E+02
     -0.617  0.1272E+01  0.1202E+02
     -0.493  0.1217E+01  0.1218E+02
     -0.369  0.1176E+01  0.1232E+02
     -0.245  0.1145E+01  0.1247E+02
     -0.121  0.1081E+01  0.1261E+02
      0.003  0.1050E+01  0.1274E+02
      0.127  0.1053E+01  0.1287E+02
      0.251  0.1076E+01  0.1300E+02
      0.375  0.1230E+01  0.1314E+02
      0.499  0.1576E+01  0.1332E+02
      0.623  0.1689E+01  0.1352E+02
      0.747  0.1729E+01  0.1373E+02
      0.871  0.1889E+01  0.1395E+02
      0.995  0.2218E+01  0.1421E+02
      1.119  0.2248E+01  0.1449E+02
      1.243  0.2269E+01  0.1477E+02
      1.367  0.2433E+01  0.1506E+02
      1.491  0.2199E+01  0.1535E+02
      1.615  0.1537E+01  0.1559E+02
      1.739  0.1428E+01  0.1576E+02
      1.863  0.1868E+01  0.1596E+02
      1.987  0.2406E+01  0.1623E+02
      2.111  0.2318E+01  0.1652E+02
      2.235  0.2195E+01  0.1680E+02
      2.359  0.2289E+01  0.1708E+02
      2.483  0.2397E+01  0.1737E+02
      2.607  0.2345E+01  0.1766E+02
      2.731  0.2436E+01  0.1796E+02
      2.855  0.2586E+01  0.1827E+02
      2.979  0.2870E+01  0.1860E+02
      3.103  0.2799E+01  0.1896E+02
      3.227  0.2852E+01  0.1930E+02
      3.351  0.3123E+01  0.1966E+02
      3.475  0.3014E+01  0.2003E+02
      3.599  0.3319E+01  0.2042E+02
      3.723  0.3336E+01  0.2083E+02
      3.847  0.3141E+01  0.2123E+02
      3.971  0.3224E+01  0.2162E+02
      4.095  0.2996E+01  0.2201E+02
      4.219  0.3142E+01  0.2238E+02
      4.343  0.3169E+01  0.2278E+02
      4.467  0.2774E+01  0.2314E+02
      4.591  0.2769E+01  0.2349E+02
      4.715  0.2754E+01  0.2383E+02
      4.839  0.3058E+01  0.2418E+02
      4.963  0.3033E+01  0.2457E+02
      5.087  0.2985E+01  0.2494E+02
      5.211  0.2966E+01  0.2531E+02
      5.335  0.2754E+01  0.2566E+02
      5.459  0.2678E+01  0.2600E+02
      5.583  0.2627E+01  0.2633E+02
      5.707  0.2709E+01  0.2666E+02
      5.831  0.2688E+01  0.2699E+02
      5.955  0.2817E+01  0.2733E+02
      6.079  0.2768E+01  0.2767E+02
      6.203  0.2709E+01  0.2801E+02
      6.327  0.2589E+01  0.2834E+02
      6.451  0.2790E+01  0.2866E+02
      6.576  0.2865E+01  0.2901E+02
      6.700  0.2040E+01  0.2928E+02
      6.824  0.2002E+01  0.2949E+02
      6.948  0.2331E+01  0.2974E+02
      7.072  0.2145E+01  0.3001E+02
      7.196  0.1802E+01  0.3024E+02
      7.320  0.1438E+01  0.3043E+02
      7.444  0.1319E+01  0.3060E+02
      7.568  0.1220E+01  0.3076E+02
      7.692  0.1134E+01  0.3090E+02
      7.816  0.1054E+01  0.3104E+02
      7.940  0.9642E+00  0.3116E+02
      8.064  0.8902E+00  0.3128E+02
      8.188  0.8204E+00  0.3139E+02
      8.312  0.7556E+00  0.3148E+02
      8.436  0.6873E+00  0.3157E+02
      8.560  0.6215E+00  0.3165E+02
      8.684  0.5505E+00  0.3173E+02
      8.808  0.5031E+00  0.3179E+02
      8.932  0.4379E+00  0.3185E+02
      9.056  0.3642E+00  0.3190E+02
      9.180  0.2921E+00  0.3194E+02
      9.304  0.2226E+00  0.3197E+02
      9.428  0.1094E+00  0.3199E+02
      9.552  0.8295E-02  0.3200E+02
      9.676  0.0000E+00  0.3200E+02
      9.800  0.0000E+00  0.3200E+02
      9.924  0.0000E+00  0.3200E+02
     10.048  0.0000E+00  0.3200E+02
     10.172  0.0000E+00  0.3200E+02
     10.296  0.0000E+00  0.3200E+02
     10.420  0.0000E+00  0.3200E+02
     10.544  0.0000E+00  0.3200E+02
     10.668  0.0000E+00  0.3200E+02
     10.792  0.0000E+00  0.3200E+02
     10.916  0.0000E+00  0.3200E+02
     11.040  0.0000E+00  0.3200E+02
     11.164  0.0000E+00  0.3200E+02
     11.288  0.0000E+00  0.3200E+02
     11.412  0.0000E+00  0.3200E+02
     11.536  0.0000E+00  0.3200E+02
     11.660  0.0000E+00  0.3200E+02
     11.784  0.0000E+00  0.3200E+02
     11.908  0.0000E+00  0.3200E+02
     12.032  0.0000E+00  0.3200E+02
     12.156  0.0000E+00  0.3200E+02
     12.280  0.0000E+00  0.3200E+02
     12.404  0.0000E+00  0.3200E+02
     12.528  0.0000E+00  0.3200E+02
     12.652  0.0000E+00  0.3200E+02
     12.776  0.0000E+00  0.3200E+02
     12.900  0.0000E+00  0.3200E+02
     13.024  0.0000E+00  0.3200E+02
     13.148  0.0000E+00  0.3200E+02
     13.272  0.0000E+00  0.3200E+02
     13.396  0.0000E+00  0.3200E+02
     13.520  0.0000E+00  0.3200E+02
     13.644  0.1074E+00  0.3200E+02
     13.768  0.2333E+00  0.3203E+02
     13.892  0.3777E+00  0.3206E+02
     14.016  0.5320E+00  0.3212E+02
     14.140  0.6543E+00  0.3219E+02
     14.264  0.7198E+00  0.3228E+02
     14.388  0.8728E+00  0.3238E+02
     14.512  0.1014E+01  0.3249E+02
     14.636  0.1162E+01  0.3263E+02
     14.760  0.1345E+01  0.3278E+02
     14.884  0.1479E+01  0.3296E+02
     15.008  0.1549E+01  0.3315E+02
     15.132  0.1652E+01  0.3334E+02
     15.256  0.1692E+01  0.3355E+02
     15.380  0.1812E+01  0.3377E+02
     15.504  0.1983E+01  0.3400E+02
     15.628  0.2058E+01  0.3426E+02
     15.753  0.2004E+01  0.3451E+02
     15.877  0.1996E+01  0.3475E+02
     16.001  0.2139E+01  0.3501E+02
     16.125  0.2319E+01  0.3528E+02
     16.249  0.2413E+01  0.3558E+02
     16.373  0.2441E+01  0.3588E+02
     16.497  0.2499E+01  0.3618E+02
     16.621  0.2575E+01  0.3650E+02
     16.745  0.2754E+01  0.3683E+02
     16.869  0.2908E+01  0.3718E+02
     16.993  0.2983E+01  0.3755E+02
     17.117  0.3171E+01  0.3792E+02
     17.241  0.3223E+01  0.3832E+02
     17.365  0.3812E+01  0.3875E+02
     17.489  0.4031E+01  0.3924E+02
     17.613  0.4388E+01  0.3975E+02
     17.737  0.4830E+01  0.4034E+02
     17.861  0.3875E+01  0.4085E+02
     17.985  0.3781E+01  0.4130E+02
     18.109  0.3541E+01  0.4175E+02
     18.233  0.4160E+01  0.4221E+02
     18.357  0.3789E+01  0.4269E+02
     18.481  0.3595E+01  0.4314E+02
     18.605  0.3319E+01  0.4357E+02
     18.729  0.3140E+01  0.4397E+02
     18.853  0.2998E+01  0.4435E+02
     18.977  0.2762E+01  0.4471E+02
     19.101  0.2635E+01  0.4504E+02
     19.225  0.2782E+01  0.4537E+02
     19.349  0.2802E+01  0.4572E+02
     19.473  0.2739E+01  0.4606E+02
     19.597  0.2578E+01  0.4638E+02
     19.721  0.2314E+01  0.4669E+02
     19.845  0.1983E+01  0.4695E+02
     19.969  0.1807E+01  0.4719E+02
     20.093  0.1705E+01  0.4740E+02
     20.217  0.1356E+01  0.4759E+02
     20.341  0.1081E+01  0.4774E+02
     20.465  0.7377E+00  0.4785E+02
     20.589  0.4164E+00  0.4791E+02
     20.713  0.2032E+00  0.4795E+02
     20.837  0.1362E+00  0.4797E+02
     20.961  0.8802E-01  0.4798E+02
     21.085  0.5295E-01  0.4799E+02
     21.209  0.2344E-01  0.4800E+02
     21.333  0.6748E-02  0.4800E+02
     21.457  0.0000E+00  0.4800E+02
     21.581  0.0000E+00  0.4800E+02
     21.705  0.0000E+00  0.4800E+02
     21.829  0.0000E+00  0.4800E+02
     21.953  0.0000E+00  0.4800E+02
     22.077  0.0000E+00  0.4800E+02
     22.201  0.0000E+00  0.4800E+02
     22.325  0.0000E+00  0.4800E+02
     22.449  0.0000E+00  0.4800E+02
     22.573  0.0000E+00  0.4800E+02
     22.697  0.0000E+00  0.4800E+02
     22.821  0.0000E+00  0.4800E+02
     22.945  0.0000E+00  0.4800E+02
     23.069  0.0000E+00  0.4800E+02
     23.193  0.0000E+00  0.4800E+02
     23.317  0.0000E+00  0.4800E+02
     23.441  0.0000E+00  0.4800E+02
