       N       E                     dE             d eps       ncg     rms          rms(c)
DAV:   1     0.668973587290E+02    0.66897E+02   -0.17826E+04 62640   0.130E+03
DAV:   2    -0.722032869518E+02   -0.13910E+03   -0.13639E+03 83268   0.229E+02
DAV:   3    -0.751493433656E+02   -0.29461E+01   -0.29423E+01 87804   0.363E+01
DAV:   4    -0.751690768543E+02   -0.19733E-01   -0.19727E-01 81900   0.300E+00
DAV:   5    -0.751693612733E+02   -0.28442E-03   -0.28436E-03 87048   0.336E-01    0.109E+01
RMM:   6    -0.733289389870E+02    0.18404E+01   -0.11448E+00 62789   0.618E+00    0.647E+00
RMM:   7    -0.727117699930E+02    0.61717E+00   -0.18365E+00 69132   0.831E+00    0.138E+00
RMM:   8    -0.727256706642E+02   -0.13901E-01   -0.10490E-01 67503   0.241E+00    0.236E-01
RMM:   9    -0.727267156994E+02   -0.10450E-02   -0.19798E-02 73671   0.943E-01    0.122E-01
RMM:  10    -0.727268649330E+02   -0.14923E-03   -0.28829E-03 73421   0.357E-01    0.365E-02
RMM:  11    -0.727269311467E+02   -0.66214E-04   -0.67356E-04 77460   0.151E-01    0.938E-03
RMM:  12    -0.727269415962E+02   -0.10449E-04   -0.10044E-04 78463   0.620E-02    0.147E-02
RMM:  13    -0.727269466953E+02   -0.50991E-05   -0.25858E-05 76145   0.253E-02    0.348E-03
RMM:  14    -0.727269463965E+02    0.29885E-06   -0.37605E-06 63176   0.108E-02
   1 F= -.72726946E+02 E0= -.72726946E+02  d E =0.000000E+00
