<?xml version="1.0" encoding="ISO-8859-1"?>
<modeling>
 <generator>
  <i name="program" type="string">vasp </i>
  <i name="version" type="string">6.4.3  </i>
  <i name="subversion" type="string">19Mar24 (build Oct 21 2024 22:36:34) complex                          parallel </i>
  <i name="platform" type="string">LinuxIFC </i>
  <i name="date" type="string">2024 12 26 </i>
  <i name="time" type="string">00:34:20 </i>
 </generator>
 <incar>
  <i type="string" name="SYSTEM">C8</i>
  <i type="int" name="ISTART">     0</i>
  <i type="string" name="PREC">Normal</i>
  <i type="string" name="ALGO">Fast</i>
  <i type="logical" name="ADDGRID"> T  </i>
  <i type="int" name="ICHARG">     2</i>
  <i type="int" name="NELM">    60</i>
  <i type="int" name="NELMIN">     8</i>
  <i type="int" name="IBRION">    -1</i>
  <i name="EDIFF">      0.00000100</i>
  <i type="int" name="NSW">     0</i>
  <i type="int" name="ISIF">     2</i>
  <i name="ENCUT">    520.00000000</i>
  <i type="string" name="LREAL">Auto</i>
  <i type="int" name="ISMEAR">    -5</i>
  <i type="logical" name="LWAVE"> F  </i>
  <i type="logical" name="LCHARG"> F  </i>
 </incar>
 <primitive_cell>
  <structure name="primitive_cell" >
   <crystal>
    <varray name="basis" >
     <v>       0.00893150       1.78628501      -1.78628501 </v>
     <v>       0.00893150       1.78628501       1.78628501 </v>
     <v>       1.79521651      -1.77735351       0.00000000 </v>
    </varray>
    <i name="volume">     11.51311688 </i>
    <varray name="rec_basis" >
     <v>       0.27576024       0.27853173      -0.27991054 </v>
     <v>       0.27576024       0.27853173       0.27991054 </v>
     <v>       0.55429197      -0.00277148       0.00000000 </v>
    </varray>
   </crystal>
   <varray name="positions" >
    <v>       0.50000000       0.50000000       0.00000000 </v>
    <v>       0.75000000       0.25000000       0.50000000 </v>
   </varray>
  </structure>
  <varray name="primitive_index" >
   <v type="int" >        1 </v>
   <v type="int" >        2 </v>
  </varray>
 </primitive_cell>
 <kpoints>
  <generation param="Gamma">
   <v type="int" name="divisions">      17       17       17 </v>
   <v name="usershift">      0.00000000       0.00000000       0.00000000 </v>
   <v name="genvec1">      0.05882353      -0.00000000       0.00000000 </v>
   <v name="genvec2">      0.00000000       0.05882353       0.00000000 </v>
   <v name="genvec3">      0.00000000       0.00000000       0.05882353 </v>
   <v name="shift">      0.00000000       0.00000000       0.00000000 </v>
  </generation>
  <varray name="kpointlist" >
   <v>       0.00000000       0.00000000       0.00000000 </v>
   <v>       0.05882353      -0.00000000       0.00000000 </v>
   <v>       0.11764706      -0.00000000       0.00000000 </v>
   <v>       0.17647059      -0.00000000       0.00000000 </v>
   <v>       0.23529412      -0.00000000       0.00000000 </v>
   <v>       0.29411765      -0.00000000       0.00000000 </v>
   <v>       0.35294118      -0.00000000       0.00000000 </v>
   <v>       0.41176471      -0.00000000       0.00000000 </v>
   <v>       0.47058824      -0.00000000       0.00000000 </v>
   <v>      -0.00000000       0.05882353       0.00000000 </v>
   <v>       0.05882353       0.05882353       0.00000000 </v>
   <v>       0.11764706       0.05882353       0.00000000 </v>
   <v>       0.17647059       0.05882353       0.00000000 </v>
   <v>       0.23529412       0.05882353       0.00000000 </v>
   <v>       0.29411765       0.05882353       0.00000000 </v>
   <v>       0.35294118       0.05882353       0.00000000 </v>
   <v>       0.41176471       0.05882353       0.00000000 </v>
   <v>       0.47058824       0.05882353       0.00000000 </v>
   <v>      -0.47058824       0.05882353       0.00000000 </v>
   <v>      -0.41176471       0.05882353       0.00000000 </v>
   <v>      -0.35294118       0.05882353       0.00000000 </v>
   <v>      -0.29411765       0.05882353       0.00000000 </v>
   <v>      -0.23529412       0.05882353       0.00000000 </v>
   <v>      -0.17647059       0.05882353       0.00000000 </v>
   <v>      -0.11764706       0.05882353       0.00000000 </v>
   <v>      -0.05882353       0.05882353       0.00000000 </v>
   <v>      -0.00000000       0.11764706       0.00000000 </v>
   <v>       0.05882353       0.11764706       0.00000000 </v>
   <v>       0.11764706       0.11764706       0.00000000 </v>
   <v>       0.17647059       0.11764706       0.00000000 </v>
   <v>       0.23529412       0.11764706       0.00000000 </v>
   <v>       0.29411765       0.11764706       0.00000000 </v>
   <v>       0.35294118       0.11764706       0.00000000 </v>
   <v>       0.41176471       0.11764706       0.00000000 </v>
   <v>       0.47058824       0.11764706       0.00000000 </v>
   <v>      -0.47058824       0.11764706       0.00000000 </v>
   <v>      -0.41176471       0.11764706       0.00000000 </v>
   <v>      -0.35294118       0.11764706       0.00000000 </v>
   <v>      -0.29411765       0.11764706       0.00000000 </v>
   <v>      -0.23529412       0.11764706       0.00000000 </v>
   <v>      -0.17647059       0.11764706       0.00000000 </v>
   <v>      -0.11764706       0.11764706       0.00000000 </v>
   <v>      -0.05882353       0.11764706       0.00000000 </v>
   <v>      -0.00000000       0.17647059       0.00000000 </v>
   <v>       0.05882353       0.17647059       0.00000000 </v>
   <v>       0.11764706       0.17647059       0.00000000 </v>
   <v>       0.17647059       0.17647059       0.00000000 </v>
   <v>       0.23529412       0.17647059       0.00000000 </v>
   <v>       0.29411765       0.17647059       0.00000000 </v>
   <v>       0.35294118       0.17647059       0.00000000 </v>
   <v>       0.41176471       0.17647059       0.00000000 </v>
   <v>       0.47058824       0.17647059       0.00000000 </v>
   <v>      -0.47058824       0.17647059       0.00000000 </v>
   <v>      -0.41176471       0.17647059       0.00000000 </v>
   <v>      -0.35294118       0.17647059       0.00000000 </v>
   <v>      -0.29411765       0.17647059       0.00000000 </v>
   <v>      -0.23529412       0.17647059       0.00000000 </v>
   <v>      -0.17647059       0.17647059       0.00000000 </v>
   <v>      -0.11764706       0.17647059       0.00000000 </v>
   <v>      -0.05882353       0.17647059       0.00000000 </v>
   <v>      -0.00000000       0.23529412       0.00000000 </v>
   <v>       0.05882353       0.23529412       0.00000000 </v>
   <v>       0.11764706       0.23529412       0.00000000 </v>
   <v>       0.17647059       0.23529412       0.00000000 </v>
   <v>       0.23529412       0.23529412       0.00000000 </v>
   <v>       0.29411765       0.23529412       0.00000000 </v>
   <v>       0.35294118       0.23529412       0.00000000 </v>
   <v>       0.41176471       0.23529412       0.00000000 </v>
   <v>       0.47058824       0.23529412       0.00000000 </v>
   <v>      -0.47058824       0.23529412       0.00000000 </v>
   <v>      -0.41176471       0.23529412       0.00000000 </v>
   <v>      -0.35294118       0.23529412       0.00000000 </v>
   <v>      -0.29411765       0.23529412       0.00000000 </v>
   <v>      -0.23529412       0.23529412       0.00000000 </v>
   <v>      -0.17647059       0.23529412       0.00000000 </v>
   <v>      -0.11764706       0.23529412       0.00000000 </v>
   <v>      -0.05882353       0.23529412       0.00000000 </v>
   <v>      -0.00000000       0.29411765       0.00000000 </v>
   <v>       0.05882353       0.29411765       0.00000000 </v>
   <v>       0.11764706       0.29411765       0.00000000 </v>
   <v>       0.17647059       0.29411765       0.00000000 </v>
   <v>       0.23529412       0.29411765       0.00000000 </v>
   <v>       0.29411765       0.29411765       0.00000000 </v>
   <v>       0.35294118       0.29411765       0.00000000 </v>
   <v>       0.41176471       0.29411765       0.00000000 </v>
   <v>       0.47058824       0.29411765       0.00000000 </v>
   <v>      -0.47058824       0.29411765       0.00000000 </v>
   <v>      -0.41176471       0.29411765       0.00000000 </v>
   <v>      -0.35294118       0.29411765       0.00000000 </v>
   <v>      -0.29411765       0.29411765       0.00000000 </v>
   <v>      -0.23529412       0.29411765       0.00000000 </v>
   <v>      -0.17647059       0.29411765       0.00000000 </v>
   <v>      -0.11764706       0.29411765       0.00000000 </v>
   <v>      -0.05882353       0.29411765       0.00000000 </v>
   <v>      -0.00000000       0.35294118       0.00000000 </v>
   <v>       0.05882353       0.35294118       0.00000000 </v>
   <v>       0.11764706       0.35294118       0.00000000 </v>
   <v>       0.17647059       0.35294118       0.00000000 </v>
   <v>       0.23529412       0.35294118       0.00000000 </v>
   <v>       0.29411765       0.35294118       0.00000000 </v>
   <v>       0.35294118       0.35294118       0.00000000 </v>
   <v>       0.41176471       0.35294118       0.00000000 </v>
   <v>       0.47058824       0.35294118       0.00000000 </v>
   <v>      -0.47058824       0.35294118       0.00000000 </v>
   <v>      -0.41176471       0.35294118       0.00000000 </v>
   <v>      -0.35294118       0.35294118       0.00000000 </v>
   <v>      -0.29411765       0.35294118       0.00000000 </v>
   <v>      -0.23529412       0.35294118       0.00000000 </v>
   <v>      -0.17647059       0.35294118       0.00000000 </v>
   <v>      -0.11764706       0.35294118       0.00000000 </v>
   <v>      -0.05882353       0.35294118       0.00000000 </v>
   <v>      -0.00000000       0.41176471       0.00000000 </v>
   <v>       0.05882353       0.41176471       0.00000000 </v>
   <v>       0.11764706       0.41176471       0.00000000 </v>
   <v>       0.17647059       0.41176471       0.00000000 </v>
   <v>       0.23529412       0.41176471       0.00000000 </v>
   <v>       0.29411765       0.41176471       0.00000000 </v>
   <v>       0.35294118       0.41176471       0.00000000 </v>
   <v>       0.41176471       0.41176471       0.00000000 </v>
   <v>       0.47058824       0.41176471       0.00000000 </v>
   <v>      -0.47058824       0.41176471       0.00000000 </v>
   <v>      -0.41176471       0.41176471       0.00000000 </v>
   <v>      -0.35294118       0.41176471       0.00000000 </v>
   <v>      -0.29411765       0.41176471       0.00000000 </v>
   <v>      -0.23529412       0.41176471       0.00000000 </v>
   <v>      -0.17647059       0.41176471       0.00000000 </v>
   <v>      -0.11764706       0.41176471       0.00000000 </v>
   <v>      -0.05882353       0.41176471       0.00000000 </v>
   <v>      -0.00000000       0.47058824       0.00000000 </v>
   <v>       0.05882353       0.47058824       0.00000000 </v>
   <v>       0.11764706       0.47058824       0.00000000 </v>
   <v>       0.17647059       0.47058824       0.00000000 </v>
   <v>       0.23529412       0.47058824       0.00000000 </v>
   <v>       0.29411765       0.47058824       0.00000000 </v>
   <v>       0.35294118       0.47058824       0.00000000 </v>
   <v>       0.41176471       0.47058824       0.00000000 </v>
   <v>       0.47058824       0.47058824       0.00000000 </v>
   <v>      -0.47058824       0.47058824       0.00000000 </v>
   <v>      -0.41176471       0.47058824       0.00000000 </v>
   <v>      -0.35294118       0.47058824       0.00000000 </v>
   <v>      -0.29411765       0.47058824       0.00000000 </v>
   <v>      -0.23529412       0.47058824       0.00000000 </v>
   <v>      -0.17647059       0.47058824       0.00000000 </v>
   <v>      -0.11764706       0.47058824       0.00000000 </v>
   <v>      -0.05882353       0.47058824       0.00000000 </v>
   <v>       0.00000000       0.00000000       0.05882353 </v>
   <v>       0.05882353      -0.00000000       0.05882353 </v>
   <v>       0.11764706      -0.00000000       0.05882353 </v>
   <v>       0.17647059      -0.00000000       0.05882353 </v>
   <v>       0.23529412      -0.00000000       0.05882353 </v>
   <v>       0.29411765      -0.00000000       0.05882353 </v>
   <v>       0.35294118      -0.00000000       0.05882353 </v>
   <v>       0.41176471      -0.00000000       0.05882353 </v>
   <v>       0.47058824      -0.00000000       0.05882353 </v>
   <v>      -0.00000000       0.05882353       0.05882353 </v>
   <v>       0.05882353       0.05882353       0.05882353 </v>
   <v>       0.11764706       0.05882353       0.05882353 </v>
   <v>       0.17647059       0.05882353       0.05882353 </v>
   <v>       0.23529412       0.05882353       0.05882353 </v>
   <v>       0.29411765       0.05882353       0.05882353 </v>
   <v>       0.35294118       0.05882353       0.05882353 </v>
   <v>       0.41176471       0.05882353       0.05882353 </v>
   <v>       0.47058824       0.05882353       0.05882353 </v>
   <v>      -0.47058824       0.05882353       0.05882353 </v>
   <v>      -0.41176471       0.05882353       0.05882353 </v>
   <v>      -0.35294118       0.05882353       0.05882353 </v>
   <v>      -0.29411765       0.05882353       0.05882353 </v>
   <v>      -0.23529412       0.05882353       0.05882353 </v>
   <v>      -0.17647059       0.05882353       0.05882353 </v>
   <v>      -0.11764706       0.05882353       0.05882353 </v>
   <v>      -0.05882353       0.05882353       0.05882353 </v>
   <v>      -0.00000000       0.11764706       0.05882353 </v>
   <v>       0.05882353       0.11764706       0.05882353 </v>
   <v>       0.11764706       0.11764706       0.05882353 </v>
   <v>       0.17647059       0.11764706       0.05882353 </v>
   <v>       0.23529412       0.11764706       0.05882353 </v>
   <v>       0.29411765       0.11764706       0.05882353 </v>
   <v>       0.35294118       0.11764706       0.05882353 </v>
   <v>       0.41176471       0.11764706       0.05882353 </v>
   <v>       0.47058824       0.11764706       0.05882353 </v>
   <v>      -0.47058824       0.11764706       0.05882353 </v>
   <v>      -0.41176471       0.11764706       0.05882353 </v>
   <v>      -0.35294118       0.11764706       0.05882353 </v>
   <v>      -0.29411765       0.11764706       0.05882353 </v>
   <v>      -0.23529412       0.11764706       0.05882353 </v>
   <v>      -0.17647059       0.11764706       0.05882353 </v>
   <v>      -0.11764706       0.11764706       0.05882353 </v>
   <v>      -0.05882353       0.11764706       0.05882353 </v>
   <v>      -0.00000000       0.17647059       0.05882353 </v>
   <v>       0.05882353       0.17647059       0.05882353 </v>
   <v>       0.11764706       0.17647059       0.05882353 </v>
   <v>       0.17647059       0.17647059       0.05882353 </v>
   <v>       0.23529412       0.17647059       0.05882353 </v>
   <v>       0.29411765       0.17647059       0.05882353 </v>
   <v>       0.35294118       0.17647059       0.05882353 </v>
   <v>       0.41176471       0.17647059       0.05882353 </v>
   <v>       0.47058824       0.17647059       0.05882353 </v>
   <v>      -0.47058824       0.17647059       0.05882353 </v>
   <v>      -0.41176471       0.17647059       0.05882353 </v>
   <v>      -0.35294118       0.17647059       0.05882353 </v>
   <v>      -0.29411765       0.17647059       0.05882353 </v>
   <v>      -0.23529412       0.17647059       0.05882353 </v>
   <v>      -0.17647059       0.17647059       0.05882353 </v>
   <v>      -0.11764706       0.17647059       0.05882353 </v>
   <v>      -0.05882353       0.17647059       0.05882353 </v>
   <v>      -0.00000000       0.23529412       0.05882353 </v>
   <v>       0.05882353       0.23529412       0.05882353 </v>
   <v>       0.11764706       0.23529412       0.05882353 </v>
   <v>       0.17647059       0.23529412       0.05882353 </v>
   <v>       0.23529412       0.23529412       0.05882353 </v>
   <v>       0.29411765       0.23529412       0.05882353 </v>
   <v>       0.35294118       0.23529412       0.05882353 </v>
   <v>       0.41176471       0.23529412       0.05882353 </v>
   <v>       0.47058824       0.23529412       0.05882353 </v>
   <v>      -0.47058824       0.23529412       0.05882353 </v>
   <v>      -0.41176471       0.23529412       0.05882353 </v>
   <v>      -0.35294118       0.23529412       0.05882353 </v>
   <v>      -0.29411765       0.23529412       0.05882353 </v>
   <v>      -0.23529412       0.23529412       0.05882353 </v>
   <v>      -0.17647059       0.23529412       0.05882353 </v>
   <v>      -0.11764706       0.23529412       0.05882353 </v>
   <v>      -0.05882353       0.23529412       0.05882353 </v>
   <v>      -0.00000000       0.29411765       0.05882353 </v>
   <v>       0.05882353       0.29411765       0.05882353 </v>
   <v>       0.11764706       0.29411765       0.05882353 </v>
   <v>       0.17647059       0.29411765       0.05882353 </v>
   <v>       0.23529412       0.29411765       0.05882353 </v>
   <v>       0.29411765       0.29411765       0.05882353 </v>
   <v>       0.35294118       0.29411765       0.05882353 </v>
   <v>       0.41176471       0.29411765       0.05882353 </v>
   <v>       0.47058824       0.29411765       0.05882353 </v>
   <v>      -0.47058824       0.29411765       0.05882353 </v>
   <v>      -0.41176471       0.29411765       0.05882353 </v>
   <v>      -0.35294118       0.29411765       0.05882353 </v>
   <v>      -0.29411765       0.29411765       0.05882353 </v>
   <v>      -0.23529412       0.29411765       0.05882353 </v>
   <v>      -0.17647059       0.29411765       0.05882353 </v>
   <v>      -0.11764706       0.29411765       0.05882353 </v>
   <v>      -0.05882353       0.29411765       0.05882353 </v>
   <v>      -0.00000000       0.35294118       0.05882353 </v>
   <v>       0.05882353       0.35294118       0.05882353 </v>
   <v>       0.11764706       0.35294118       0.05882353 </v>
   <v>       0.17647059       0.35294118       0.05882353 </v>
   <v>       0.23529412       0.35294118       0.05882353 </v>
   <v>       0.29411765       0.35294118       0.05882353 </v>
   <v>       0.35294118       0.35294118       0.05882353 </v>
   <v>       0.41176471       0.35294118       0.05882353 </v>
   <v>       0.47058824       0.35294118       0.05882353 </v>
   <v>      -0.47058824       0.35294118       0.05882353 </v>
   <v>      -0.41176471       0.35294118       0.05882353 </v>
   <v>      -0.35294118       0.35294118       0.05882353 </v>
   <v>      -0.29411765       0.35294118       0.05882353 </v>
   <v>      -0.23529412       0.35294118       0.05882353 </v>
   <v>      -0.17647059       0.35294118       0.05882353 </v>
   <v>      -0.11764706       0.35294118       0.05882353 </v>
   <v>      -0.05882353       0.35294118       0.05882353 </v>
   <v>      -0.00000000       0.41176471       0.05882353 </v>
   <v>       0.05882353       0.41176471       0.05882353 </v>
   <v>       0.11764706       0.41176471       0.05882353 </v>
   <v>       0.17647059       0.41176471       0.05882353 </v>
   <v>       0.23529412       0.41176471       0.05882353 </v>
   <v>       0.29411765       0.41176471       0.05882353 </v>
   <v>       0.35294118       0.41176471       0.05882353 </v>
   <v>       0.41176471       0.41176471       0.05882353 </v>
   <v>       0.47058824       0.41176471       0.05882353 </v>
   <v>      -0.47058824       0.41176471       0.05882353 </v>
   <v>      -0.41176471       0.41176471       0.05882353 </v>
   <v>      -0.35294118       0.41176471       0.05882353 </v>
   <v>      -0.29411765       0.41176471       0.05882353 </v>
   <v>      -0.23529412       0.41176471       0.05882353 </v>
   <v>      -0.17647059       0.41176471       0.05882353 </v>
   <v>      -0.11764706       0.41176471       0.05882353 </v>
   <v>      -0.05882353       0.41176471       0.05882353 </v>
   <v>      -0.00000000       0.47058824       0.05882353 </v>
   <v>       0.05882353       0.47058824       0.05882353 </v>
   <v>       0.11764706       0.47058824       0.05882353 </v>
   <v>       0.17647059       0.47058824       0.05882353 </v>
   <v>       0.23529412       0.47058824       0.05882353 </v>
   <v>       0.29411765       0.47058824       0.05882353 </v>
   <v>       0.35294118       0.47058824       0.05882353 </v>
   <v>       0.41176471       0.47058824       0.05882353 </v>
   <v>       0.47058824       0.47058824       0.05882353 </v>
   <v>      -0.47058824       0.47058824       0.05882353 </v>
   <v>      -0.41176471       0.47058824       0.05882353 </v>
   <v>      -0.35294118       0.47058824       0.05882353 </v>
   <v>      -0.29411765       0.47058824       0.05882353 </v>
   <v>      -0.23529412       0.47058824       0.05882353 </v>
   <v>      -0.17647059       0.47058824       0.05882353 </v>
   <v>      -0.11764706       0.47058824       0.05882353 </v>
   <v>      -0.05882353       0.47058824       0.05882353 </v>
   <v>       0.00000000       0.00000000       0.11764706 </v>
   <v>       0.05882353      -0.00000000       0.11764706 </v>
   <v>       0.11764706      -0.00000000       0.11764706 </v>
   <v>       0.17647059      -0.00000000       0.11764706 </v>
   <v>       0.23529412      -0.00000000       0.11764706 </v>
   <v>       0.29411765      -0.00000000       0.11764706 </v>
   <v>       0.35294118      -0.00000000       0.11764706 </v>
   <v>       0.41176471      -0.00000000       0.11764706 </v>
   <v>       0.47058824      -0.00000000       0.11764706 </v>
   <v>      -0.00000000       0.05882353       0.11764706 </v>
   <v>       0.05882353       0.05882353       0.11764706 </v>
   <v>       0.11764706       0.05882353       0.11764706 </v>
   <v>       0.17647059       0.05882353       0.11764706 </v>
   <v>       0.23529412       0.05882353       0.11764706 </v>
   <v>       0.29411765       0.05882353       0.11764706 </v>
   <v>       0.35294118       0.05882353       0.11764706 </v>
   <v>       0.41176471       0.05882353       0.11764706 </v>
   <v>       0.47058824       0.05882353       0.11764706 </v>
   <v>      -0.47058824       0.05882353       0.11764706 </v>
   <v>      -0.41176471       0.05882353       0.11764706 </v>
   <v>      -0.35294118       0.05882353       0.11764706 </v>
   <v>      -0.29411765       0.05882353       0.11764706 </v>
   <v>      -0.23529412       0.05882353       0.11764706 </v>
   <v>      -0.17647059       0.05882353       0.11764706 </v>
   <v>      -0.11764706       0.05882353       0.11764706 </v>
   <v>      -0.05882353       0.05882353       0.11764706 </v>
   <v>      -0.00000000       0.11764706       0.11764706 </v>
   <v>       0.05882353       0.11764706       0.11764706 </v>
   <v>       0.11764706       0.11764706       0.11764706 </v>
   <v>       0.17647059       0.11764706       0.11764706 </v>
   <v>       0.23529412       0.11764706       0.11764706 </v>
   <v>       0.29411765       0.11764706       0.11764706 </v>
   <v>       0.35294118       0.11764706       0.11764706 </v>
   <v>       0.41176471       0.11764706       0.11764706 </v>
   <v>       0.47058824       0.11764706       0.11764706 </v>
   <v>      -0.47058824       0.11764706       0.11764706 </v>
   <v>      -0.41176471       0.11764706       0.11764706 </v>
   <v>      -0.35294118       0.11764706       0.11764706 </v>
   <v>      -0.29411765       0.11764706       0.11764706 </v>
   <v>      -0.23529412       0.11764706       0.11764706 </v>
   <v>      -0.17647059       0.11764706       0.11764706 </v>
   <v>      -0.11764706       0.11764706       0.11764706 </v>
   <v>      -0.05882353       0.11764706       0.11764706 </v>
   <v>      -0.00000000       0.17647059       0.11764706 </v>
   <v>       0.05882353       0.17647059       0.11764706 </v>
   <v>       0.11764706       0.17647059       0.11764706 </v>
   <v>       0.17647059       0.17647059       0.11764706 </v>
   <v>       0.23529412       0.17647059       0.11764706 </v>
   <v>       0.29411765       0.17647059       0.11764706 </v>
   <v>       0.35294118       0.17647059       0.11764706 </v>
   <v>       0.41176471       0.17647059       0.11764706 </v>
   <v>       0.47058824       0.17647059       0.11764706 </v>
   <v>      -0.47058824       0.17647059       0.11764706 </v>
   <v>      -0.41176471       0.17647059       0.11764706 </v>
   <v>      -0.35294118       0.17647059       0.11764706 </v>
   <v>      -0.29411765       0.17647059       0.11764706 </v>
   <v>      -0.23529412       0.17647059       0.11764706 </v>
   <v>      -0.17647059       0.17647059       0.11764706 </v>
   <v>      -0.11764706       0.17647059       0.11764706 </v>
   <v>      -0.05882353       0.17647059       0.11764706 </v>
   <v>      -0.00000000       0.23529412       0.11764706 </v>
   <v>       0.05882353       0.23529412       0.11764706 </v>
   <v>       0.11764706       0.23529412       0.11764706 </v>
   <v>       0.17647059       0.23529412       0.11764706 </v>
   <v>       0.23529412       0.23529412       0.11764706 </v>
   <v>       0.29411765       0.23529412       0.11764706 </v>
   <v>       0.35294118       0.23529412       0.11764706 </v>
   <v>       0.41176471       0.23529412       0.11764706 </v>
   <v>       0.47058824       0.23529412       0.11764706 </v>
   <v>      -0.47058824       0.23529412       0.11764706 </v>
   <v>      -0.41176471       0.23529412       0.11764706 </v>
   <v>      -0.35294118       0.23529412       0.11764706 </v>
   <v>      -0.29411765       0.23529412       0.11764706 </v>
   <v>      -0.23529412       0.23529412       0.11764706 </v>
   <v>      -0.17647059       0.23529412       0.11764706 </v>
   <v>      -0.11764706       0.23529412       0.11764706 </v>
   <v>      -0.05882353       0.23529412       0.11764706 </v>
   <v>      -0.00000000       0.29411765       0.11764706 </v>
   <v>       0.05882353       0.29411765       0.11764706 </v>
   <v>       0.11764706       0.29411765       0.11764706 </v>
   <v>       0.17647059       0.29411765       0.11764706 </v>
   <v>       0.23529412       0.29411765       0.11764706 </v>
   <v>       0.29411765       0.29411765       0.11764706 </v>
   <v>       0.35294118       0.29411765       0.11764706 </v>
   <v>       0.41176471       0.29411765       0.11764706 </v>
   <v>       0.47058824       0.29411765       0.11764706 </v>
   <v>      -0.47058824       0.29411765       0.11764706 </v>
   <v>      -0.41176471       0.29411765       0.11764706 </v>
   <v>      -0.35294118       0.29411765       0.11764706 </v>
   <v>      -0.29411765       0.29411765       0.11764706 </v>
   <v>      -0.23529412       0.29411765       0.11764706 </v>
   <v>      -0.17647059       0.29411765       0.11764706 </v>
   <v>      -0.11764706       0.29411765       0.11764706 </v>
   <v>      -0.05882353       0.29411765       0.11764706 </v>
   <v>      -0.00000000       0.35294118       0.11764706 </v>
   <v>       0.05882353       0.35294118       0.11764706 </v>
   <v>       0.11764706       0.35294118       0.11764706 </v>
   <v>       0.17647059       0.35294118       0.11764706 </v>
   <v>       0.23529412       0.35294118       0.11764706 </v>
   <v>       0.29411765       0.35294118       0.11764706 </v>
   <v>       0.35294118       0.35294118       0.11764706 </v>
   <v>       0.41176471       0.35294118       0.11764706 </v>
   <v>       0.47058824       0.35294118       0.11764706 </v>
   <v>      -0.47058824       0.35294118       0.11764706 </v>
   <v>      -0.41176471       0.35294118       0.11764706 </v>
   <v>      -0.35294118       0.35294118       0.11764706 </v>
   <v>      -0.29411765       0.35294118       0.11764706 </v>
   <v>      -0.23529412       0.35294118       0.11764706 </v>
   <v>      -0.17647059       0.35294118       0.11764706 </v>
   <v>      -0.11764706       0.35294118       0.11764706 </v>
   <v>      -0.05882353       0.35294118       0.11764706 </v>
   <v>      -0.00000000       0.41176471       0.11764706 </v>
   <v>       0.05882353       0.41176471       0.11764706 </v>
   <v>       0.11764706       0.41176471       0.11764706 </v>
   <v>       0.17647059       0.41176471       0.11764706 </v>
   <v>       0.23529412       0.41176471       0.11764706 </v>
   <v>       0.29411765       0.41176471       0.11764706 </v>
   <v>       0.35294118       0.41176471       0.11764706 </v>
   <v>       0.41176471       0.41176471       0.11764706 </v>
   <v>       0.47058824       0.41176471       0.11764706 </v>
   <v>      -0.47058824       0.41176471       0.11764706 </v>
   <v>      -0.41176471       0.41176471       0.11764706 </v>
   <v>      -0.35294118       0.41176471       0.11764706 </v>
   <v>      -0.29411765       0.41176471       0.11764706 </v>
   <v>      -0.23529412       0.41176471       0.11764706 </v>
   <v>      -0.17647059       0.41176471       0.11764706 </v>
   <v>      -0.11764706       0.41176471       0.11764706 </v>
   <v>      -0.05882353       0.41176471       0.11764706 </v>
   <v>      -0.00000000       0.47058824       0.11764706 </v>
   <v>       0.05882353       0.47058824       0.11764706 </v>
   <v>       0.11764706       0.47058824       0.11764706 </v>
   <v>       0.17647059       0.47058824       0.11764706 </v>
   <v>       0.23529412       0.47058824       0.11764706 </v>
   <v>       0.29411765       0.47058824       0.11764706 </v>
   <v>       0.35294118       0.47058824       0.11764706 </v>
   <v>       0.41176471       0.47058824       0.11764706 </v>
   <v>       0.47058824       0.47058824       0.11764706 </v>
   <v>      -0.47058824       0.47058824       0.11764706 </v>
   <v>      -0.41176471       0.47058824       0.11764706 </v>
   <v>      -0.35294118       0.47058824       0.11764706 </v>
   <v>      -0.29411765       0.47058824       0.11764706 </v>
   <v>      -0.23529412       0.47058824       0.11764706 </v>
   <v>      -0.17647059       0.47058824       0.11764706 </v>
   <v>      -0.11764706       0.47058824       0.11764706 </v>
   <v>      -0.05882353       0.47058824       0.11764706 </v>
   <v>       0.00000000       0.00000000       0.17647059 </v>
   <v>       0.05882353      -0.00000000       0.17647059 </v>
   <v>       0.11764706      -0.00000000       0.17647059 </v>
   <v>       0.17647059      -0.00000000       0.17647059 </v>
   <v>       0.23529412      -0.00000000       0.17647059 </v>
   <v>       0.29411765      -0.00000000       0.17647059 </v>
   <v>       0.35294118      -0.00000000       0.17647059 </v>
   <v>       0.41176471      -0.00000000       0.17647059 </v>
   <v>       0.47058824      -0.00000000       0.17647059 </v>
   <v>      -0.00000000       0.05882353       0.17647059 </v>
   <v>       0.05882353       0.05882353       0.17647059 </v>
   <v>       0.11764706       0.05882353       0.17647059 </v>
   <v>       0.17647059       0.05882353       0.17647059 </v>
   <v>       0.23529412       0.05882353       0.17647059 </v>
   <v>       0.29411765       0.05882353       0.17647059 </v>
   <v>       0.35294118       0.05882353       0.17647059 </v>
   <v>       0.41176471       0.05882353       0.17647059 </v>
   <v>       0.47058824       0.05882353       0.17647059 </v>
   <v>      -0.47058824       0.05882353       0.17647059 </v>
   <v>      -0.41176471       0.05882353       0.17647059 </v>
   <v>      -0.35294118       0.05882353       0.17647059 </v>
   <v>      -0.29411765       0.05882353       0.17647059 </v>
   <v>      -0.23529412       0.05882353       0.17647059 </v>
   <v>      -0.17647059       0.05882353       0.17647059 </v>
   <v>      -0.11764706       0.05882353       0.17647059 </v>
   <v>      -0.05882353       0.05882353       0.17647059 </v>
   <v>      -0.00000000       0.11764706       0.17647059 </v>
   <v>       0.05882353       0.11764706       0.17647059 </v>
   <v>       0.11764706       0.11764706       0.17647059 </v>
   <v>       0.17647059       0.11764706       0.17647059 </v>
   <v>       0.23529412       0.11764706       0.17647059 </v>
   <v>       0.29411765       0.11764706       0.17647059 </v>
   <v>       0.35294118       0.11764706       0.17647059 </v>
   <v>       0.41176471       0.11764706       0.17647059 </v>
   <v>       0.47058824       0.11764706       0.17647059 </v>
   <v>      -0.47058824       0.11764706       0.17647059 </v>
   <v>      -0.41176471       0.11764706       0.17647059 </v>
   <v>      -0.35294118       0.11764706       0.17647059 </v>
   <v>      -0.29411765       0.11764706       0.17647059 </v>
   <v>      -0.23529412       0.11764706       0.17647059 </v>
   <v>      -0.17647059       0.11764706       0.17647059 </v>
   <v>      -0.11764706       0.11764706       0.17647059 </v>
   <v>      -0.05882353       0.11764706       0.17647059 </v>
   <v>      -0.00000000       0.17647059       0.17647059 </v>
   <v>       0.05882353       0.17647059       0.17647059 </v>
   <v>       0.11764706       0.17647059       0.17647059 </v>
   <v>       0.17647059       0.17647059       0.17647059 </v>
   <v>       0.23529412       0.17647059       0.17647059 </v>
   <v>       0.29411765       0.17647059       0.17647059 </v>
   <v>       0.35294118       0.17647059       0.17647059 </v>
   <v>       0.41176471       0.17647059       0.17647059 </v>
   <v>       0.47058824       0.17647059       0.17647059 </v>
   <v>      -0.47058824       0.17647059       0.17647059 </v>
   <v>      -0.41176471       0.17647059       0.17647059 </v>
   <v>      -0.35294118       0.17647059       0.17647059 </v>
   <v>      -0.29411765       0.17647059       0.17647059 </v>
   <v>      -0.23529412       0.17647059       0.17647059 </v>
   <v>      -0.17647059       0.17647059       0.17647059 </v>
   <v>      -0.11764706       0.17647059       0.17647059 </v>
   <v>      -0.05882353       0.17647059       0.17647059 </v>
   <v>      -0.00000000       0.23529412       0.17647059 </v>
   <v>       0.05882353       0.23529412       0.17647059 </v>
   <v>       0.11764706       0.23529412       0.17647059 </v>
   <v>       0.17647059       0.23529412       0.17647059 </v>
   <v>       0.23529412       0.23529412       0.17647059 </v>
   <v>       0.29411765       0.23529412       0.17647059 </v>
   <v>       0.35294118       0.23529412       0.17647059 </v>
   <v>       0.41176471       0.23529412       0.17647059 </v>
   <v>       0.47058824       0.23529412       0.17647059 </v>
   <v>      -0.47058824       0.23529412       0.17647059 </v>
   <v>      -0.41176471       0.23529412       0.17647059 </v>
   <v>      -0.35294118       0.23529412       0.17647059 </v>
   <v>      -0.29411765       0.23529412       0.17647059 </v>
   <v>      -0.23529412       0.23529412       0.17647059 </v>
   <v>      -0.17647059       0.23529412       0.17647059 </v>
   <v>      -0.11764706       0.23529412       0.17647059 </v>
   <v>      -0.05882353       0.23529412       0.17647059 </v>
   <v>      -0.00000000       0.29411765       0.17647059 </v>
   <v>       0.05882353       0.29411765       0.17647059 </v>
   <v>       0.11764706       0.29411765       0.17647059 </v>
   <v>       0.17647059       0.29411765       0.17647059 </v>
   <v>       0.23529412       0.29411765       0.17647059 </v>
   <v>       0.29411765       0.29411765       0.17647059 </v>
   <v>       0.35294118       0.29411765       0.17647059 </v>
   <v>       0.41176471       0.29411765       0.17647059 </v>
   <v>       0.47058824       0.29411765       0.17647059 </v>
   <v>      -0.47058824       0.29411765       0.17647059 </v>
   <v>      -0.41176471       0.29411765       0.17647059 </v>
   <v>      -0.35294118       0.29411765       0.17647059 </v>
   <v>      -0.29411765       0.29411765       0.17647059 </v>
   <v>      -0.23529412       0.29411765       0.17647059 </v>
   <v>      -0.17647059       0.29411765       0.17647059 </v>
   <v>      -0.11764706       0.29411765       0.17647059 </v>
   <v>      -0.05882353       0.29411765       0.17647059 </v>
   <v>      -0.00000000       0.35294118       0.17647059 </v>
   <v>       0.05882353       0.35294118       0.17647059 </v>
   <v>       0.11764706       0.35294118       0.17647059 </v>
   <v>       0.17647059       0.35294118       0.17647059 </v>
   <v>       0.23529412       0.35294118       0.17647059 </v>
   <v>       0.29411765       0.35294118       0.17647059 </v>
   <v>       0.35294118       0.35294118       0.17647059 </v>
   <v>       0.41176471       0.35294118       0.17647059 </v>
   <v>       0.47058824       0.35294118       0.17647059 </v>
   <v>      -0.47058824       0.35294118       0.17647059 </v>
   <v>      -0.41176471       0.35294118       0.17647059 </v>
   <v>      -0.35294118       0.35294118       0.17647059 </v>
   <v>      -0.29411765       0.35294118       0.17647059 </v>
   <v>      -0.23529412       0.35294118       0.17647059 </v>
   <v>      -0.17647059       0.35294118       0.17647059 </v>
   <v>      -0.11764706       0.35294118       0.17647059 </v>
   <v>      -0.05882353       0.35294118       0.17647059 </v>
   <v>      -0.00000000       0.41176471       0.17647059 </v>
   <v>       0.05882353       0.41176471       0.17647059 </v>
   <v>       0.11764706       0.41176471       0.17647059 </v>
   <v>       0.17647059       0.41176471       0.17647059 </v>
   <v>       0.23529412       0.41176471       0.17647059 </v>
   <v>       0.29411765       0.41176471       0.17647059 </v>
   <v>       0.35294118       0.41176471       0.17647059 </v>
   <v>       0.41176471       0.41176471       0.17647059 </v>
   <v>       0.47058824       0.41176471       0.17647059 </v>
   <v>      -0.47058824       0.41176471       0.17647059 </v>
   <v>      -0.41176471       0.41176471       0.17647059 </v>
   <v>      -0.35294118       0.41176471       0.17647059 </v>
   <v>      -0.29411765       0.41176471       0.17647059 </v>
   <v>      -0.23529412       0.41176471       0.17647059 </v>
   <v>      -0.17647059       0.41176471       0.17647059 </v>
   <v>      -0.11764706       0.41176471       0.17647059 </v>
   <v>      -0.05882353       0.41176471       0.17647059 </v>
   <v>      -0.00000000       0.47058824       0.17647059 </v>
   <v>       0.05882353       0.47058824       0.17647059 </v>
   <v>       0.11764706       0.47058824       0.17647059 </v>
   <v>       0.17647059       0.47058824       0.17647059 </v>
   <v>       0.23529412       0.47058824       0.17647059 </v>
   <v>       0.29411765       0.47058824       0.17647059 </v>
   <v>       0.35294118       0.47058824       0.17647059 </v>
   <v>       0.41176471       0.47058824       0.17647059 </v>
   <v>       0.47058824       0.47058824       0.17647059 </v>
   <v>      -0.47058824       0.47058824       0.17647059 </v>
   <v>      -0.41176471       0.47058824       0.17647059 </v>
   <v>      -0.35294118       0.47058824       0.17647059 </v>
   <v>      -0.29411765       0.47058824       0.17647059 </v>
   <v>      -0.23529412       0.47058824       0.17647059 </v>
   <v>      -0.17647059       0.47058824       0.17647059 </v>
   <v>      -0.11764706       0.47058824       0.17647059 </v>
   <v>      -0.05882353       0.47058824       0.17647059 </v>
   <v>       0.00000000       0.00000000       0.23529412 </v>
   <v>       0.05882353      -0.00000000       0.23529412 </v>
   <v>       0.11764706      -0.00000000       0.23529412 </v>
   <v>       0.17647059      -0.00000000       0.23529412 </v>
   <v>       0.23529412      -0.00000000       0.23529412 </v>
   <v>       0.29411765      -0.00000000       0.23529412 </v>
   <v>       0.35294118      -0.00000000       0.23529412 </v>
   <v>       0.41176471      -0.00000000       0.23529412 </v>
   <v>       0.47058824      -0.00000000       0.23529412 </v>
   <v>      -0.00000000       0.05882353       0.23529412 </v>
   <v>       0.05882353       0.05882353       0.23529412 </v>
   <v>       0.11764706       0.05882353       0.23529412 </v>
   <v>       0.17647059       0.05882353       0.23529412 </v>
   <v>       0.23529412       0.05882353       0.23529412 </v>
   <v>       0.29411765       0.05882353       0.23529412 </v>
   <v>       0.35294118       0.05882353       0.23529412 </v>
   <v>       0.41176471       0.05882353       0.23529412 </v>
   <v>       0.47058824       0.05882353       0.23529412 </v>
   <v>      -0.47058824       0.05882353       0.23529412 </v>
   <v>      -0.41176471       0.05882353       0.23529412 </v>
   <v>      -0.35294118       0.05882353       0.23529412 </v>
   <v>      -0.29411765       0.05882353       0.23529412 </v>
   <v>      -0.23529412       0.05882353       0.23529412 </v>
   <v>      -0.17647059       0.05882353       0.23529412 </v>
   <v>      -0.11764706       0.05882353       0.23529412 </v>
   <v>      -0.05882353       0.05882353       0.23529412 </v>
   <v>      -0.00000000       0.11764706       0.23529412 </v>
   <v>       0.05882353       0.11764706       0.23529412 </v>
   <v>       0.11764706       0.11764706       0.23529412 </v>
   <v>       0.17647059       0.11764706       0.23529412 </v>
   <v>       0.23529412       0.11764706       0.23529412 </v>
   <v>       0.29411765       0.11764706       0.23529412 </v>
   <v>       0.35294118       0.11764706       0.23529412 </v>
   <v>       0.41176471       0.11764706       0.23529412 </v>
   <v>       0.47058824       0.11764706       0.23529412 </v>
   <v>      -0.47058824       0.11764706       0.23529412 </v>
   <v>      -0.41176471       0.11764706       0.23529412 </v>
   <v>      -0.35294118       0.11764706       0.23529412 </v>
   <v>      -0.29411765       0.11764706       0.23529412 </v>
   <v>      -0.23529412       0.11764706       0.23529412 </v>
   <v>      -0.17647059       0.11764706       0.23529412 </v>
   <v>      -0.11764706       0.11764706       0.23529412 </v>
   <v>      -0.05882353       0.11764706       0.23529412 </v>
   <v>      -0.00000000       0.17647059       0.23529412 </v>
   <v>       0.05882353       0.17647059       0.23529412 </v>
   <v>       0.11764706       0.17647059       0.23529412 </v>
   <v>       0.17647059       0.17647059       0.23529412 </v>
   <v>       0.23529412       0.17647059       0.23529412 </v>
   <v>       0.29411765       0.17647059       0.23529412 </v>
   <v>       0.35294118       0.17647059       0.23529412 </v>
   <v>       0.41176471       0.17647059       0.23529412 </v>
   <v>       0.47058824       0.17647059       0.23529412 </v>
   <v>      -0.47058824       0.17647059       0.23529412 </v>
   <v>      -0.41176471       0.17647059       0.23529412 </v>
   <v>      -0.35294118       0.17647059       0.23529412 </v>
   <v>      -0.29411765       0.17647059       0.23529412 </v>
   <v>      -0.23529412       0.17647059       0.23529412 </v>
   <v>      -0.17647059       0.17647059       0.23529412 </v>
   <v>      -0.11764706       0.17647059       0.23529412 </v>
   <v>      -0.05882353       0.17647059       0.23529412 </v>
   <v>      -0.00000000       0.23529412       0.23529412 </v>
   <v>       0.05882353       0.23529412       0.23529412 </v>
   <v>       0.11764706       0.23529412       0.23529412 </v>
   <v>       0.17647059       0.23529412       0.23529412 </v>
   <v>       0.23529412       0.23529412       0.23529412 </v>
   <v>       0.29411765       0.23529412       0.23529412 </v>
   <v>       0.35294118       0.23529412       0.23529412 </v>
   <v>       0.41176471       0.23529412       0.23529412 </v>
   <v>       0.47058824       0.23529412       0.23529412 </v>
   <v>      -0.47058824       0.23529412       0.23529412 </v>
   <v>      -0.41176471       0.23529412       0.23529412 </v>
   <v>      -0.35294118       0.23529412       0.23529412 </v>
   <v>      -0.29411765       0.23529412       0.23529412 </v>
   <v>      -0.23529412       0.23529412       0.23529412 </v>
   <v>      -0.17647059       0.23529412       0.23529412 </v>
   <v>      -0.11764706       0.23529412       0.23529412 </v>
   <v>      -0.05882353       0.23529412       0.23529412 </v>
   <v>      -0.00000000       0.29411765       0.23529412 </v>
   <v>       0.05882353       0.29411765       0.23529412 </v>
   <v>       0.11764706       0.29411765       0.23529412 </v>
   <v>       0.17647059       0.29411765       0.23529412 </v>
   <v>       0.23529412       0.29411765       0.23529412 </v>
   <v>       0.29411765       0.29411765       0.23529412 </v>
   <v>       0.35294118       0.29411765       0.23529412 </v>
   <v>       0.41176471       0.29411765       0.23529412 </v>
   <v>       0.47058824       0.29411765       0.23529412 </v>
   <v>      -0.47058824       0.29411765       0.23529412 </v>
   <v>      -0.41176471       0.29411765       0.23529412 </v>
   <v>      -0.35294118       0.29411765       0.23529412 </v>
   <v>      -0.29411765       0.29411765       0.23529412 </v>
   <v>      -0.23529412       0.29411765       0.23529412 </v>
   <v>      -0.17647059       0.29411765       0.23529412 </v>
   <v>      -0.11764706       0.29411765       0.23529412 </v>
   <v>      -0.05882353       0.29411765       0.23529412 </v>
   <v>      -0.00000000       0.35294118       0.23529412 </v>
   <v>       0.05882353       0.35294118       0.23529412 </v>
   <v>       0.11764706       0.35294118       0.23529412 </v>
   <v>       0.17647059       0.35294118       0.23529412 </v>
   <v>       0.23529412       0.35294118       0.23529412 </v>
   <v>       0.29411765       0.35294118       0.23529412 </v>
   <v>       0.35294118       0.35294118       0.23529412 </v>
   <v>       0.41176471       0.35294118       0.23529412 </v>
   <v>       0.47058824       0.35294118       0.23529412 </v>
   <v>      -0.47058824       0.35294118       0.23529412 </v>
   <v>      -0.41176471       0.35294118       0.23529412 </v>
   <v>      -0.35294118       0.35294118       0.23529412 </v>
   <v>      -0.29411765       0.35294118       0.23529412 </v>
   <v>      -0.23529412       0.35294118       0.23529412 </v>
   <v>      -0.17647059       0.35294118       0.23529412 </v>
   <v>      -0.11764706       0.35294118       0.23529412 </v>
   <v>      -0.05882353       0.35294118       0.23529412 </v>
   <v>      -0.00000000       0.41176471       0.23529412 </v>
   <v>       0.05882353       0.41176471       0.23529412 </v>
   <v>       0.11764706       0.41176471       0.23529412 </v>
   <v>       0.17647059       0.41176471       0.23529412 </v>
   <v>       0.23529412       0.41176471       0.23529412 </v>
   <v>       0.29411765       0.41176471       0.23529412 </v>
   <v>       0.35294118       0.41176471       0.23529412 </v>
   <v>       0.41176471       0.41176471       0.23529412 </v>
   <v>       0.47058824       0.41176471       0.23529412 </v>
   <v>      -0.47058824       0.41176471       0.23529412 </v>
   <v>      -0.41176471       0.41176471       0.23529412 </v>
   <v>      -0.35294118       0.41176471       0.23529412 </v>
   <v>      -0.29411765       0.41176471       0.23529412 </v>
   <v>      -0.23529412       0.41176471       0.23529412 </v>
   <v>      -0.17647059       0.41176471       0.23529412 </v>
   <v>      -0.11764706       0.41176471       0.23529412 </v>
   <v>      -0.05882353       0.41176471       0.23529412 </v>
   <v>      -0.00000000       0.47058824       0.23529412 </v>
   <v>       0.05882353       0.47058824       0.23529412 </v>
   <v>       0.11764706       0.47058824       0.23529412 </v>
   <v>       0.17647059       0.47058824       0.23529412 </v>
   <v>       0.23529412       0.47058824       0.23529412 </v>
   <v>       0.29411765       0.47058824       0.23529412 </v>
   <v>       0.35294118       0.47058824       0.23529412 </v>
   <v>       0.41176471       0.47058824       0.23529412 </v>
   <v>       0.47058824       0.47058824       0.23529412 </v>
   <v>      -0.47058824       0.47058824       0.23529412 </v>
   <v>      -0.41176471       0.47058824       0.23529412 </v>
   <v>      -0.35294118       0.47058824       0.23529412 </v>
   <v>      -0.29411765       0.47058824       0.23529412 </v>
   <v>      -0.23529412       0.47058824       0.23529412 </v>
   <v>      -0.17647059       0.47058824       0.23529412 </v>
   <v>      -0.11764706       0.47058824       0.23529412 </v>
   <v>      -0.05882353       0.47058824       0.23529412 </v>
   <v>       0.00000000       0.00000000       0.29411765 </v>
   <v>       0.05882353      -0.00000000       0.29411765 </v>
   <v>       0.11764706      -0.00000000       0.29411765 </v>
   <v>       0.17647059      -0.00000000       0.29411765 </v>
   <v>       0.23529412      -0.00000000       0.29411765 </v>
   <v>       0.29411765      -0.00000000       0.29411765 </v>
   <v>       0.35294118      -0.00000000       0.29411765 </v>
   <v>       0.41176471      -0.00000000       0.29411765 </v>
   <v>       0.47058824      -0.00000000       0.29411765 </v>
   <v>      -0.00000000       0.05882353       0.29411765 </v>
   <v>       0.05882353       0.05882353       0.29411765 </v>
   <v>       0.11764706       0.05882353       0.29411765 </v>
   <v>       0.17647059       0.05882353       0.29411765 </v>
   <v>       0.23529412       0.05882353       0.29411765 </v>
   <v>       0.29411765       0.05882353       0.29411765 </v>
   <v>       0.35294118       0.05882353       0.29411765 </v>
   <v>       0.41176471       0.05882353       0.29411765 </v>
   <v>       0.47058824       0.05882353       0.29411765 </v>
   <v>      -0.47058824       0.05882353       0.29411765 </v>
   <v>      -0.41176471       0.05882353       0.29411765 </v>
   <v>      -0.35294118       0.05882353       0.29411765 </v>
   <v>      -0.29411765       0.05882353       0.29411765 </v>
   <v>      -0.23529412       0.05882353       0.29411765 </v>
   <v>      -0.17647059       0.05882353       0.29411765 </v>
   <v>      -0.11764706       0.05882353       0.29411765 </v>
   <v>      -0.05882353       0.05882353       0.29411765 </v>
   <v>      -0.00000000       0.11764706       0.29411765 </v>
   <v>       0.05882353       0.11764706       0.29411765 </v>
   <v>       0.11764706       0.11764706       0.29411765 </v>
   <v>       0.17647059       0.11764706       0.29411765 </v>
   <v>       0.23529412       0.11764706       0.29411765 </v>
   <v>       0.29411765       0.11764706       0.29411765 </v>
   <v>       0.35294118       0.11764706       0.29411765 </v>
   <v>       0.41176471       0.11764706       0.29411765 </v>
   <v>       0.47058824       0.11764706       0.29411765 </v>
   <v>      -0.47058824       0.11764706       0.29411765 </v>
   <v>      -0.41176471       0.11764706       0.29411765 </v>
   <v>      -0.35294118       0.11764706       0.29411765 </v>
   <v>      -0.29411765       0.11764706       0.29411765 </v>
   <v>      -0.23529412       0.11764706       0.29411765 </v>
   <v>      -0.17647059       0.11764706       0.29411765 </v>
   <v>      -0.11764706       0.11764706       0.29411765 </v>
   <v>      -0.05882353       0.11764706       0.29411765 </v>
   <v>      -0.00000000       0.17647059       0.29411765 </v>
   <v>       0.05882353       0.17647059       0.29411765 </v>
   <v>       0.11764706       0.17647059       0.29411765 </v>
   <v>       0.17647059       0.17647059       0.29411765 </v>
   <v>       0.23529412       0.17647059       0.29411765 </v>
   <v>       0.29411765       0.17647059       0.29411765 </v>
   <v>       0.35294118       0.17647059       0.29411765 </v>
   <v>       0.41176471       0.17647059       0.29411765 </v>
   <v>       0.47058824       0.17647059       0.29411765 </v>
   <v>      -0.47058824       0.17647059       0.29411765 </v>
   <v>      -0.41176471       0.17647059       0.29411765 </v>
   <v>      -0.35294118       0.17647059       0.29411765 </v>
   <v>      -0.29411765       0.17647059       0.29411765 </v>
   <v>      -0.23529412       0.17647059       0.29411765 </v>
   <v>      -0.17647059       0.17647059       0.29411765 </v>
   <v>      -0.11764706       0.17647059       0.29411765 </v>
   <v>      -0.05882353       0.17647059       0.29411765 </v>
   <v>      -0.00000000       0.23529412       0.29411765 </v>
   <v>       0.05882353       0.23529412       0.29411765 </v>
   <v>       0.11764706       0.23529412       0.29411765 </v>
   <v>       0.17647059       0.23529412       0.29411765 </v>
   <v>       0.23529412       0.23529412       0.29411765 </v>
   <v>       0.29411765       0.23529412       0.29411765 </v>
   <v>       0.35294118       0.23529412       0.29411765 </v>
   <v>       0.41176471       0.23529412       0.29411765 </v>
   <v>       0.47058824       0.23529412       0.29411765 </v>
   <v>      -0.47058824       0.23529412       0.29411765 </v>
   <v>      -0.41176471       0.23529412       0.29411765 </v>
   <v>      -0.35294118       0.23529412       0.29411765 </v>
   <v>      -0.29411765       0.23529412       0.29411765 </v>
   <v>      -0.23529412       0.23529412       0.29411765 </v>
   <v>      -0.17647059       0.23529412       0.29411765 </v>
   <v>      -0.11764706       0.23529412       0.29411765 </v>
   <v>      -0.05882353       0.23529412       0.29411765 </v>
   <v>      -0.00000000       0.29411765       0.29411765 </v>
   <v>       0.05882353       0.29411765       0.29411765 </v>
   <v>       0.11764706       0.29411765       0.29411765 </v>
   <v>       0.17647059       0.29411765       0.29411765 </v>
   <v>       0.23529412       0.29411765       0.29411765 </v>
   <v>       0.29411765       0.29411765       0.29411765 </v>
   <v>       0.35294118       0.29411765       0.29411765 </v>
   <v>       0.41176471       0.29411765       0.29411765 </v>
   <v>       0.47058824       0.29411765       0.29411765 </v>
   <v>      -0.47058824       0.29411765       0.29411765 </v>
   <v>      -0.41176471       0.29411765       0.29411765 </v>
   <v>      -0.35294118       0.29411765       0.29411765 </v>
   <v>      -0.29411765       0.29411765       0.29411765 </v>
   <v>      -0.23529412       0.29411765       0.29411765 </v>
   <v>      -0.17647059       0.29411765       0.29411765 </v>
   <v>      -0.11764706       0.29411765       0.29411765 </v>
   <v>      -0.05882353       0.29411765       0.29411765 </v>
   <v>      -0.00000000       0.35294118       0.29411765 </v>
   <v>       0.05882353       0.35294118       0.29411765 </v>
   <v>       0.11764706       0.35294118       0.29411765 </v>
   <v>       0.17647059       0.35294118       0.29411765 </v>
   <v>       0.23529412       0.35294118       0.29411765 </v>
   <v>       0.29411765       0.35294118       0.29411765 </v>
   <v>       0.35294118       0.35294118       0.29411765 </v>
   <v>       0.41176471       0.35294118       0.29411765 </v>
   <v>       0.47058824       0.35294118       0.29411765 </v>
   <v>      -0.47058824       0.35294118       0.29411765 </v>
   <v>      -0.41176471       0.35294118       0.29411765 </v>
   <v>      -0.35294118       0.35294118       0.29411765 </v>
   <v>      -0.29411765       0.35294118       0.29411765 </v>
   <v>      -0.23529412       0.35294118       0.29411765 </v>
   <v>      -0.17647059       0.35294118       0.29411765 </v>
   <v>      -0.11764706       0.35294118       0.29411765 </v>
   <v>      -0.05882353       0.35294118       0.29411765 </v>
   <v>      -0.00000000       0.41176471       0.29411765 </v>
   <v>       0.05882353       0.41176471       0.29411765 </v>
   <v>       0.11764706       0.41176471       0.29411765 </v>
   <v>       0.17647059       0.41176471       0.29411765 </v>
   <v>       0.23529412       0.41176471       0.29411765 </v>
   <v>       0.29411765       0.41176471       0.29411765 </v>
   <v>       0.35294118       0.41176471       0.29411765 </v>
   <v>       0.41176471       0.41176471       0.29411765 </v>
   <v>       0.47058824       0.41176471       0.29411765 </v>
   <v>      -0.47058824       0.41176471       0.29411765 </v>
   <v>      -0.41176471       0.41176471       0.29411765 </v>
   <v>      -0.35294118       0.41176471       0.29411765 </v>
   <v>      -0.29411765       0.41176471       0.29411765 </v>
   <v>      -0.23529412       0.41176471       0.29411765 </v>
   <v>      -0.17647059       0.41176471       0.29411765 </v>
   <v>      -0.11764706       0.41176471       0.29411765 </v>
   <v>      -0.05882353       0.41176471       0.29411765 </v>
   <v>      -0.00000000       0.47058824       0.29411765 </v>
   <v>       0.05882353       0.47058824       0.29411765 </v>
   <v>       0.11764706       0.47058824       0.29411765 </v>
   <v>       0.17647059       0.47058824       0.29411765 </v>
   <v>       0.23529412       0.47058824       0.29411765 </v>
   <v>       0.29411765       0.47058824       0.29411765 </v>
   <v>       0.35294118       0.47058824       0.29411765 </v>
   <v>       0.41176471       0.47058824       0.29411765 </v>
   <v>       0.47058824       0.47058824       0.29411765 </v>
   <v>      -0.47058824       0.47058824       0.29411765 </v>
   <v>      -0.41176471       0.47058824       0.29411765 </v>
   <v>      -0.35294118       0.47058824       0.29411765 </v>
   <v>      -0.29411765       0.47058824       0.29411765 </v>
   <v>      -0.23529412       0.47058824       0.29411765 </v>
   <v>      -0.17647059       0.47058824       0.29411765 </v>
   <v>      -0.11764706       0.47058824       0.29411765 </v>
   <v>      -0.05882353       0.47058824       0.29411765 </v>
   <v>       0.00000000       0.00000000       0.35294118 </v>
   <v>       0.05882353      -0.00000000       0.35294118 </v>
   <v>       0.11764706      -0.00000000       0.35294118 </v>
   <v>       0.17647059      -0.00000000       0.35294118 </v>
   <v>       0.23529412      -0.00000000       0.35294118 </v>
   <v>       0.29411765      -0.00000000       0.35294118 </v>
   <v>       0.35294118      -0.00000000       0.35294118 </v>
   <v>       0.41176471      -0.00000000       0.35294118 </v>
   <v>       0.47058824      -0.00000000       0.35294118 </v>
   <v>      -0.00000000       0.05882353       0.35294118 </v>
   <v>       0.05882353       0.05882353       0.35294118 </v>
   <v>       0.11764706       0.05882353       0.35294118 </v>
   <v>       0.17647059       0.05882353       0.35294118 </v>
   <v>       0.23529412       0.05882353       0.35294118 </v>
   <v>       0.29411765       0.05882353       0.35294118 </v>
   <v>       0.35294118       0.05882353       0.35294118 </v>
   <v>       0.41176471       0.05882353       0.35294118 </v>
   <v>       0.47058824       0.05882353       0.35294118 </v>
   <v>      -0.47058824       0.05882353       0.35294118 </v>
   <v>      -0.41176471       0.05882353       0.35294118 </v>
   <v>      -0.35294118       0.05882353       0.35294118 </v>
   <v>      -0.29411765       0.05882353       0.35294118 </v>
   <v>      -0.23529412       0.05882353       0.35294118 </v>
   <v>      -0.17647059       0.05882353       0.35294118 </v>
   <v>      -0.11764706       0.05882353       0.35294118 </v>
   <v>      -0.05882353       0.05882353       0.35294118 </v>
   <v>      -0.00000000       0.11764706       0.35294118 </v>
   <v>       0.05882353       0.11764706       0.35294118 </v>
   <v>       0.11764706       0.11764706       0.35294118 </v>
   <v>       0.17647059       0.11764706       0.35294118 </v>
   <v>       0.23529412       0.11764706       0.35294118 </v>
   <v>       0.29411765       0.11764706       0.35294118 </v>
   <v>       0.35294118       0.11764706       0.35294118 </v>
   <v>       0.41176471       0.11764706       0.35294118 </v>
   <v>       0.47058824       0.11764706       0.35294118 </v>
   <v>      -0.47058824       0.11764706       0.35294118 </v>
   <v>      -0.41176471       0.11764706       0.35294118 </v>
   <v>      -0.35294118       0.11764706       0.35294118 </v>
   <v>      -0.29411765       0.11764706       0.35294118 </v>
   <v>      -0.23529412       0.11764706       0.35294118 </v>
   <v>      -0.17647059       0.11764706       0.35294118 </v>
   <v>      -0.11764706       0.11764706       0.35294118 </v>
   <v>      -0.05882353       0.11764706       0.35294118 </v>
   <v>      -0.00000000       0.17647059       0.35294118 </v>
   <v>       0.05882353       0.17647059       0.35294118 </v>
   <v>       0.11764706       0.17647059       0.35294118 </v>
   <v>       0.17647059       0.17647059       0.35294118 </v>
   <v>       0.23529412       0.17647059       0.35294118 </v>
   <v>       0.29411765       0.17647059       0.35294118 </v>
   <v>       0.35294118       0.17647059       0.35294118 </v>
   <v>       0.41176471       0.17647059       0.35294118 </v>
   <v>       0.47058824       0.17647059       0.35294118 </v>
   <v>      -0.47058824       0.17647059       0.35294118 </v>
   <v>      -0.41176471       0.17647059       0.35294118 </v>
   <v>      -0.35294118       0.17647059       0.35294118 </v>
   <v>      -0.29411765       0.17647059       0.35294118 </v>
   <v>      -0.23529412       0.17647059       0.35294118 </v>
   <v>      -0.17647059       0.17647059       0.35294118 </v>
   <v>      -0.11764706       0.17647059       0.35294118 </v>
   <v>      -0.05882353       0.17647059       0.35294118 </v>
   <v>      -0.00000000       0.23529412       0.35294118 </v>
   <v>       0.05882353       0.23529412       0.35294118 </v>
   <v>       0.11764706       0.23529412       0.35294118 </v>
   <v>       0.17647059       0.23529412       0.35294118 </v>
   <v>       0.23529412       0.23529412       0.35294118 </v>
   <v>       0.29411765       0.23529412       0.35294118 </v>
   <v>       0.35294118       0.23529412       0.35294118 </v>
   <v>       0.41176471       0.23529412       0.35294118 </v>
   <v>       0.47058824       0.23529412       0.35294118 </v>
   <v>      -0.47058824       0.23529412       0.35294118 </v>
   <v>      -0.41176471       0.23529412       0.35294118 </v>
   <v>      -0.35294118       0.23529412       0.35294118 </v>
   <v>      -0.29411765       0.23529412       0.35294118 </v>
   <v>      -0.23529412       0.23529412       0.35294118 </v>
   <v>      -0.17647059       0.23529412       0.35294118 </v>
   <v>      -0.11764706       0.23529412       0.35294118 </v>
   <v>      -0.05882353       0.23529412       0.35294118 </v>
   <v>      -0.00000000       0.29411765       0.35294118 </v>
   <v>       0.05882353       0.29411765       0.35294118 </v>
   <v>       0.11764706       0.29411765       0.35294118 </v>
   <v>       0.17647059       0.29411765       0.35294118 </v>
   <v>       0.23529412       0.29411765       0.35294118 </v>
   <v>       0.29411765       0.29411765       0.35294118 </v>
   <v>       0.35294118       0.29411765       0.35294118 </v>
   <v>       0.41176471       0.29411765       0.35294118 </v>
   <v>       0.47058824       0.29411765       0.35294118 </v>
   <v>      -0.47058824       0.29411765       0.35294118 </v>
   <v>      -0.41176471       0.29411765       0.35294118 </v>
   <v>      -0.35294118       0.29411765       0.35294118 </v>
   <v>      -0.29411765       0.29411765       0.35294118 </v>
   <v>      -0.23529412       0.29411765       0.35294118 </v>
   <v>      -0.17647059       0.29411765       0.35294118 </v>
   <v>      -0.11764706       0.29411765       0.35294118 </v>
   <v>      -0.05882353       0.29411765       0.35294118 </v>
   <v>      -0.00000000       0.35294118       0.35294118 </v>
   <v>       0.05882353       0.35294118       0.35294118 </v>
   <v>       0.11764706       0.35294118       0.35294118 </v>
   <v>       0.17647059       0.35294118       0.35294118 </v>
   <v>       0.23529412       0.35294118       0.35294118 </v>
   <v>       0.29411765       0.35294118       0.35294118 </v>
   <v>       0.35294118       0.35294118       0.35294118 </v>
   <v>       0.41176471       0.35294118       0.35294118 </v>
   <v>       0.47058824       0.35294118       0.35294118 </v>
   <v>      -0.47058824       0.35294118       0.35294118 </v>
   <v>      -0.41176471       0.35294118       0.35294118 </v>
   <v>      -0.35294118       0.35294118       0.35294118 </v>
   <v>      -0.29411765       0.35294118       0.35294118 </v>
   <v>      -0.23529412       0.35294118       0.35294118 </v>
   <v>      -0.17647059       0.35294118       0.35294118 </v>
   <v>      -0.11764706       0.35294118       0.35294118 </v>
   <v>      -0.05882353       0.35294118       0.35294118 </v>
   <v>      -0.00000000       0.41176471       0.35294118 </v>
   <v>       0.05882353       0.41176471       0.35294118 </v>
   <v>       0.11764706       0.41176471       0.35294118 </v>
   <v>       0.17647059       0.41176471       0.35294118 </v>
   <v>       0.23529412       0.41176471       0.35294118 </v>
   <v>       0.29411765       0.41176471       0.35294118 </v>
   <v>       0.35294118       0.41176471       0.35294118 </v>
   <v>       0.41176471       0.41176471       0.35294118 </v>
   <v>       0.47058824       0.41176471       0.35294118 </v>
   <v>      -0.47058824       0.41176471       0.35294118 </v>
   <v>      -0.41176471       0.41176471       0.35294118 </v>
   <v>      -0.35294118       0.41176471       0.35294118 </v>
   <v>      -0.29411765       0.41176471       0.35294118 </v>
   <v>      -0.23529412       0.41176471       0.35294118 </v>
   <v>      -0.17647059       0.41176471       0.35294118 </v>
   <v>      -0.11764706       0.41176471       0.35294118 </v>
   <v>      -0.05882353       0.41176471       0.35294118 </v>
   <v>      -0.00000000       0.47058824       0.35294118 </v>
   <v>       0.05882353       0.47058824       0.35294118 </v>
   <v>       0.11764706       0.47058824       0.35294118 </v>
   <v>       0.17647059       0.47058824       0.35294118 </v>
   <v>       0.23529412       0.47058824       0.35294118 </v>
   <v>       0.29411765       0.47058824       0.35294118 </v>
   <v>       0.35294118       0.47058824       0.35294118 </v>
   <v>       0.41176471       0.47058824       0.35294118 </v>
   <v>       0.47058824       0.47058824       0.35294118 </v>
   <v>      -0.47058824       0.47058824       0.35294118 </v>
   <v>      -0.41176471       0.47058824       0.35294118 </v>
   <v>      -0.35294118       0.47058824       0.35294118 </v>
   <v>      -0.29411765       0.47058824       0.35294118 </v>
   <v>      -0.23529412       0.47058824       0.35294118 </v>
   <v>      -0.17647059       0.47058824       0.35294118 </v>
   <v>      -0.11764706       0.47058824       0.35294118 </v>
   <v>      -0.05882353       0.47058824       0.35294118 </v>
   <v>       0.00000000       0.00000000       0.41176471 </v>
   <v>       0.05882353      -0.00000000       0.41176471 </v>
   <v>       0.11764706      -0.00000000       0.41176471 </v>
   <v>       0.17647059      -0.00000000       0.41176471 </v>
   <v>       0.23529412      -0.00000000       0.41176471 </v>
   <v>       0.29411765      -0.00000000       0.41176471 </v>
   <v>       0.35294118      -0.00000000       0.41176471 </v>
   <v>       0.41176471      -0.00000000       0.41176471 </v>
   <v>       0.47058824      -0.00000000       0.41176471 </v>
   <v>      -0.00000000       0.05882353       0.41176471 </v>
   <v>       0.05882353       0.05882353       0.41176471 </v>
   <v>       0.11764706       0.05882353       0.41176471 </v>
   <v>       0.17647059       0.05882353       0.41176471 </v>
   <v>       0.23529412       0.05882353       0.41176471 </v>
   <v>       0.29411765       0.05882353       0.41176471 </v>
   <v>       0.35294118       0.05882353       0.41176471 </v>
   <v>       0.41176471       0.05882353       0.41176471 </v>
   <v>       0.47058824       0.05882353       0.41176471 </v>
   <v>      -0.47058824       0.05882353       0.41176471 </v>
   <v>      -0.41176471       0.05882353       0.41176471 </v>
   <v>      -0.35294118       0.05882353       0.41176471 </v>
   <v>      -0.29411765       0.05882353       0.41176471 </v>
   <v>      -0.23529412       0.05882353       0.41176471 </v>
   <v>      -0.17647059       0.05882353       0.41176471 </v>
   <v>      -0.11764706       0.05882353       0.41176471 </v>
   <v>      -0.05882353       0.05882353       0.41176471 </v>
   <v>      -0.00000000       0.11764706       0.41176471 </v>
   <v>       0.05882353       0.11764706       0.41176471 </v>
   <v>       0.11764706       0.11764706       0.41176471 </v>
   <v>       0.17647059       0.11764706       0.41176471 </v>
   <v>       0.23529412       0.11764706       0.41176471 </v>
   <v>       0.29411765       0.11764706       0.41176471 </v>
   <v>       0.35294118       0.11764706       0.41176471 </v>
   <v>       0.41176471       0.11764706       0.41176471 </v>
   <v>       0.47058824       0.11764706       0.41176471 </v>
   <v>      -0.47058824       0.11764706       0.41176471 </v>
   <v>      -0.41176471       0.11764706       0.41176471 </v>
   <v>      -0.35294118       0.11764706       0.41176471 </v>
   <v>      -0.29411765       0.11764706       0.41176471 </v>
   <v>      -0.23529412       0.11764706       0.41176471 </v>
   <v>      -0.17647059       0.11764706       0.41176471 </v>
   <v>      -0.11764706       0.11764706       0.41176471 </v>
   <v>      -0.05882353       0.11764706       0.41176471 </v>
   <v>      -0.00000000       0.17647059       0.41176471 </v>
   <v>       0.05882353       0.17647059       0.41176471 </v>
   <v>       0.11764706       0.17647059       0.41176471 </v>
   <v>       0.17647059       0.17647059       0.41176471 </v>
   <v>       0.23529412       0.17647059       0.41176471 </v>
   <v>       0.29411765       0.17647059       0.41176471 </v>
   <v>       0.35294118       0.17647059       0.41176471 </v>
   <v>       0.41176471       0.17647059       0.41176471 </v>
   <v>       0.47058824       0.17647059       0.41176471 </v>
   <v>      -0.47058824       0.17647059       0.41176471 </v>
   <v>      -0.41176471       0.17647059       0.41176471 </v>
   <v>      -0.35294118       0.17647059       0.41176471 </v>
   <v>      -0.29411765       0.17647059       0.41176471 </v>
   <v>      -0.23529412       0.17647059       0.41176471 </v>
   <v>      -0.17647059       0.17647059       0.41176471 </v>
   <v>      -0.11764706       0.17647059       0.41176471 </v>
   <v>      -0.05882353       0.17647059       0.41176471 </v>
   <v>      -0.00000000       0.23529412       0.41176471 </v>
   <v>       0.05882353       0.23529412       0.41176471 </v>
   <v>       0.11764706       0.23529412       0.41176471 </v>
   <v>       0.17647059       0.23529412       0.41176471 </v>
   <v>       0.23529412       0.23529412       0.41176471 </v>
   <v>       0.29411765       0.23529412       0.41176471 </v>
   <v>       0.35294118       0.23529412       0.41176471 </v>
   <v>       0.41176471       0.23529412       0.41176471 </v>
   <v>       0.47058824       0.23529412       0.41176471 </v>
   <v>      -0.47058824       0.23529412       0.41176471 </v>
   <v>      -0.41176471       0.23529412       0.41176471 </v>
   <v>      -0.35294118       0.23529412       0.41176471 </v>
   <v>      -0.29411765       0.23529412       0.41176471 </v>
   <v>      -0.23529412       0.23529412       0.41176471 </v>
   <v>      -0.17647059       0.23529412       0.41176471 </v>
   <v>      -0.11764706       0.23529412       0.41176471 </v>
   <v>      -0.05882353       0.23529412       0.41176471 </v>
   <v>      -0.00000000       0.29411765       0.41176471 </v>
   <v>       0.05882353       0.29411765       0.41176471 </v>
   <v>       0.11764706       0.29411765       0.41176471 </v>
   <v>       0.17647059       0.29411765       0.41176471 </v>
   <v>       0.23529412       0.29411765       0.41176471 </v>
   <v>       0.29411765       0.29411765       0.41176471 </v>
   <v>       0.35294118       0.29411765       0.41176471 </v>
   <v>       0.41176471       0.29411765       0.41176471 </v>
   <v>       0.47058824       0.29411765       0.41176471 </v>
   <v>      -0.47058824       0.29411765       0.41176471 </v>
   <v>      -0.41176471       0.29411765       0.41176471 </v>
   <v>      -0.35294118       0.29411765       0.41176471 </v>
   <v>      -0.29411765       0.29411765       0.41176471 </v>
   <v>      -0.23529412       0.29411765       0.41176471 </v>
   <v>      -0.17647059       0.29411765       0.41176471 </v>
   <v>      -0.11764706       0.29411765       0.41176471 </v>
   <v>      -0.05882353       0.29411765       0.41176471 </v>
   <v>      -0.00000000       0.35294118       0.41176471 </v>
   <v>       0.05882353       0.35294118       0.41176471 </v>
   <v>       0.11764706       0.35294118       0.41176471 </v>
   <v>       0.17647059       0.35294118       0.41176471 </v>
   <v>       0.23529412       0.35294118       0.41176471 </v>
   <v>       0.29411765       0.35294118       0.41176471 </v>
   <v>       0.35294118       0.35294118       0.41176471 </v>
   <v>       0.41176471       0.35294118       0.41176471 </v>
   <v>       0.47058824       0.35294118       0.41176471 </v>
   <v>      -0.47058824       0.35294118       0.41176471 </v>
   <v>      -0.41176471       0.35294118       0.41176471 </v>
   <v>      -0.35294118       0.35294118       0.41176471 </v>
   <v>      -0.29411765       0.35294118       0.41176471 </v>
   <v>      -0.23529412       0.35294118       0.41176471 </v>
   <v>      -0.17647059       0.35294118       0.41176471 </v>
   <v>      -0.11764706       0.35294118       0.41176471 </v>
   <v>      -0.05882353       0.35294118       0.41176471 </v>
   <v>      -0.00000000       0.41176471       0.41176471 </v>
   <v>       0.05882353       0.41176471       0.41176471 </v>
   <v>       0.11764706       0.41176471       0.41176471 </v>
   <v>       0.17647059       0.41176471       0.41176471 </v>
   <v>       0.23529412       0.41176471       0.41176471 </v>
   <v>       0.29411765       0.41176471       0.41176471 </v>
   <v>       0.35294118       0.41176471       0.41176471 </v>
   <v>       0.41176471       0.41176471       0.41176471 </v>
   <v>       0.47058824       0.41176471       0.41176471 </v>
   <v>      -0.47058824       0.41176471       0.41176471 </v>
   <v>      -0.41176471       0.41176471       0.41176471 </v>
   <v>      -0.35294118       0.41176471       0.41176471 </v>
   <v>      -0.29411765       0.41176471       0.41176471 </v>
   <v>      -0.23529412       0.41176471       0.41176471 </v>
   <v>      -0.17647059       0.41176471       0.41176471 </v>
   <v>      -0.11764706       0.41176471       0.41176471 </v>
   <v>      -0.05882353       0.41176471       0.41176471 </v>
   <v>      -0.00000000       0.47058824       0.41176471 </v>
   <v>       0.05882353       0.47058824       0.41176471 </v>
   <v>       0.11764706       0.47058824       0.41176471 </v>
   <v>       0.17647059       0.47058824       0.41176471 </v>
   <v>       0.23529412       0.47058824       0.41176471 </v>
   <v>       0.29411765       0.47058824       0.41176471 </v>
   <v>       0.35294118       0.47058824       0.41176471 </v>
   <v>       0.41176471       0.47058824       0.41176471 </v>
   <v>       0.47058824       0.47058824       0.41176471 </v>
   <v>      -0.47058824       0.47058824       0.41176471 </v>
   <v>      -0.41176471       0.47058824       0.41176471 </v>
   <v>      -0.35294118       0.47058824       0.41176471 </v>
   <v>      -0.29411765       0.47058824       0.41176471 </v>
   <v>      -0.23529412       0.47058824       0.41176471 </v>
   <v>      -0.17647059       0.47058824       0.41176471 </v>
   <v>      -0.11764706       0.47058824       0.41176471 </v>
   <v>      -0.05882353       0.47058824       0.41176471 </v>
   <v>       0.00000000       0.00000000       0.47058824 </v>
   <v>       0.05882353      -0.00000000       0.47058824 </v>
   <v>       0.11764706      -0.00000000       0.47058824 </v>
   <v>       0.17647059      -0.00000000       0.47058824 </v>
   <v>       0.23529412      -0.00000000       0.47058824 </v>
   <v>       0.29411765      -0.00000000       0.47058824 </v>
   <v>       0.35294118      -0.00000000       0.47058824 </v>
   <v>       0.41176471      -0.00000000       0.47058824 </v>
   <v>       0.47058824      -0.00000000       0.47058824 </v>
   <v>      -0.00000000       0.05882353       0.47058824 </v>
   <v>       0.05882353       0.05882353       0.47058824 </v>
   <v>       0.11764706       0.05882353       0.47058824 </v>
   <v>       0.17647059       0.05882353       0.47058824 </v>
   <v>       0.23529412       0.05882353       0.47058824 </v>
   <v>       0.29411765       0.05882353       0.47058824 </v>
   <v>       0.35294118       0.05882353       0.47058824 </v>
   <v>       0.41176471       0.05882353       0.47058824 </v>
   <v>       0.47058824       0.05882353       0.47058824 </v>
   <v>      -0.47058824       0.05882353       0.47058824 </v>
   <v>      -0.41176471       0.05882353       0.47058824 </v>
   <v>      -0.35294118       0.05882353       0.47058824 </v>
   <v>      -0.29411765       0.05882353       0.47058824 </v>
   <v>      -0.23529412       0.05882353       0.47058824 </v>
   <v>      -0.17647059       0.05882353       0.47058824 </v>
   <v>      -0.11764706       0.05882353       0.47058824 </v>
   <v>      -0.05882353       0.05882353       0.47058824 </v>
   <v>      -0.00000000       0.11764706       0.47058824 </v>
   <v>       0.05882353       0.11764706       0.47058824 </v>
   <v>       0.11764706       0.11764706       0.47058824 </v>
   <v>       0.17647059       0.11764706       0.47058824 </v>
   <v>       0.23529412       0.11764706       0.47058824 </v>
   <v>       0.29411765       0.11764706       0.47058824 </v>
   <v>       0.35294118       0.11764706       0.47058824 </v>
   <v>       0.41176471       0.11764706       0.47058824 </v>
   <v>       0.47058824       0.11764706       0.47058824 </v>
   <v>      -0.47058824       0.11764706       0.47058824 </v>
   <v>      -0.41176471       0.11764706       0.47058824 </v>
   <v>      -0.35294118       0.11764706       0.47058824 </v>
   <v>      -0.29411765       0.11764706       0.47058824 </v>
   <v>      -0.23529412       0.11764706       0.47058824 </v>
   <v>      -0.17647059       0.11764706       0.47058824 </v>
   <v>      -0.11764706       0.11764706       0.47058824 </v>
   <v>      -0.05882353       0.11764706       0.47058824 </v>
   <v>      -0.00000000       0.17647059       0.47058824 </v>
   <v>       0.05882353       0.17647059       0.47058824 </v>
   <v>       0.11764706       0.17647059       0.47058824 </v>
   <v>       0.17647059       0.17647059       0.47058824 </v>
   <v>       0.23529412       0.17647059       0.47058824 </v>
   <v>       0.29411765       0.17647059       0.47058824 </v>
   <v>       0.35294118       0.17647059       0.47058824 </v>
   <v>       0.41176471       0.17647059       0.47058824 </v>
   <v>       0.47058824       0.17647059       0.47058824 </v>
   <v>      -0.47058824       0.17647059       0.47058824 </v>
   <v>      -0.41176471       0.17647059       0.47058824 </v>
   <v>      -0.35294118       0.17647059       0.47058824 </v>
   <v>      -0.29411765       0.17647059       0.47058824 </v>
   <v>      -0.23529412       0.17647059       0.47058824 </v>
   <v>      -0.17647059       0.17647059       0.47058824 </v>
   <v>      -0.11764706       0.17647059       0.47058824 </v>
   <v>      -0.05882353       0.17647059       0.47058824 </v>
   <v>      -0.00000000       0.23529412       0.47058824 </v>
   <v>       0.05882353       0.23529412       0.47058824 </v>
   <v>       0.11764706       0.23529412       0.47058824 </v>
   <v>       0.17647059       0.23529412       0.47058824 </v>
   <v>       0.23529412       0.23529412       0.47058824 </v>
   <v>       0.29411765       0.23529412       0.47058824 </v>
   <v>       0.35294118       0.23529412       0.47058824 </v>
   <v>       0.41176471       0.23529412       0.47058824 </v>
[...]
       <r>   -6.8598    1.0000 </r>
       <r>   -6.4753    1.0000 </r>
       <r>   -2.2124    1.0000 </r>
       <r>   -1.7824    1.0000 </r>
       <r>   -1.7228    1.0000 </r>
       <r>   -1.2638    1.0000 </r>
       <r>    4.4236    1.0000 </r>
       <r>    4.6512    1.0000 </r>
       <r>    4.7473    1.0000 </r>
       <r>    5.0174    1.0000 </r>
       <r>    6.5270    1.0000 </r>
       <r>    6.6338    1.0000 </r>
       <r>    6.6996    1.0000 </r>
       <r>    6.9250    1.0000 </r>
       <r>   17.5512    0.0000 </r>
       <r>   17.8043    0.0000 </r>
       <r>   17.8482    0.0000 </r>
       <r>   17.8959    0.0000 </r>
       <r>   18.3758    0.0000 </r>
       <r>   18.4180    0.0000 </r>
       <r>   18.4519    0.0000 </r>
       <r>   19.0527    0.0000 </r>
      </set>
      <set comment="kpoint 1303">
       <r>   -7.5331    1.0000 </r>
       <r>   -7.0877    1.0000 </r>
       <r>   -7.0440    1.0000 </r>
       <r>   -6.6209    1.0000 </r>
       <r>   -1.5381    1.0000 </r>
       <r>   -1.0904    1.0000 </r>
       <r>   -1.0198    1.0000 </r>
       <r>   -0.5530    1.0000 </r>
       <r>    3.6264    1.0000 </r>
       <r>    3.8923    1.0000 </r>
       <r>    3.9904    1.0000 </r>
       <r>    4.2907    1.0000 </r>
       <r>    6.4559    1.0000 </r>
       <r>    6.6045    1.0000 </r>
       <r>    6.6555    1.0000 </r>
       <r>    6.9319    1.0000 </r>
       <r>   17.4384    0.0000 </r>
       <r>   17.7338    0.0000 </r>
       <r>   17.7647    0.0000 </r>
       <r>   17.8453    0.0000 </r>
       <r>   18.5747    0.0000 </r>
       <r>   18.6966    0.0000 </r>
       <r>   18.7249    0.0000 </r>
       <r>   19.3556    0.0000 </r>
      </set>
      <set comment="kpoint 1304">
       <r>   -7.6773    1.0000 </r>
       <r>   -7.2102    1.0000 </r>
       <r>   -7.1816    1.0000 </r>
       <r>   -6.7308    1.0000 </r>
       <r>   -0.8156    1.0000 </r>
       <r>   -0.3605    1.0000 </r>
       <r>   -0.2827    1.0000 </r>
       <r>    0.1869    1.0000 </r>
       <r>    2.8065    1.0000 </r>
       <r>    3.1034    1.0000 </r>
       <r>    3.1996    1.0000 </r>
       <r>    3.5235    1.0000 </r>
       <r>    6.3991    1.0000 </r>
       <r>    6.5822    1.0000 </r>
       <r>    6.6171    1.0000 </r>
       <r>    6.9364    1.0000 </r>
       <r>   17.3488    0.0000 </r>
       <r>   17.6735    0.0000 </r>
       <r>   17.6934    0.0000 </r>
       <r>   17.7989    0.0000 </r>
       <r>   18.7569    0.0000 </r>
       <r>   18.9612    0.0000 </r>
       <r>   18.9820    0.0000 </r>
       <r>   19.6237    0.0000 </r>
      </set>
      <set comment="kpoint 1305">
       <r>   -7.7673    1.0000 </r>
       <r>   -7.2823    1.0000 </r>
       <r>   -7.2681    1.0000 </r>
       <r>   -6.7963    1.0000 </r>
       <r>   -0.0930    1.0000 </r>
       <r>    0.3644    1.0000 </r>
       <r>    0.4387    1.0000 </r>
       <r>    0.9099    1.0000 </r>
       <r>    2.0197    1.0000 </r>
       <r>    2.3478    1.0000 </r>
       <r>    2.4313    1.0000 </r>
       <r>    2.7789    1.0000 </r>
       <r>    6.3603    1.0000 </r>
       <r>    6.5704    1.0000 </r>
       <r>    6.5884    1.0000 </r>
       <r>    6.9416    1.0000 </r>
       <r>   17.2901    0.0000 </r>
       <r>   17.6348    0.0000 </r>
       <r>   17.6443    0.0000 </r>
       <r>   17.7688    0.0000 </r>
       <r>   18.8853    0.0000 </r>
       <r>   19.1608    0.0000 </r>
       <r>   19.1736    0.0000 </r>
       <r>   19.8098    0.0000 </r>
      </set>
     </set>
    </set>
   </array>
  </eigenvalues>
  <separator name="orbital magnetization" >
   <v name="MAGDIPOLOUT">      0.00000000      0.00000000      0.00000000</v>
  </separator>
  <dos>
   <i name="efermi">      9.56733368 </i>
   <total>
    <array>
     <dimension dim="1">gridpoints</dimension>
     <dimension dim="2">spin</dimension>
     <field>energy</field>
     <field>total</field>
     <field>integrated</field>
     <set>
      <set comment="spin 1">
       <r>   -13.7627     0.0000     0.0000 </r>
       <r>   -13.6387     0.0000     0.0000 </r>
       <r>   -13.5147     0.0000     0.0000 </r>
       <r>   -13.3906     0.0000     0.0000 </r>
       <r>   -13.2666     0.0000     0.0000 </r>
       <r>   -13.1426     0.0000     0.0000 </r>
       <r>   -13.0186     0.0000     0.0000 </r>
       <r>   -12.8946     0.0000     0.0000 </r>
       <r>   -12.7706     0.0000     0.0000 </r>
       <r>   -12.6466     0.0000     0.0000 </r>
       <r>   -12.5226     0.0000     0.0000 </r>
       <r>   -12.3985     0.0000     0.0000 </r>
       <r>   -12.2745     0.0000     0.0000 </r>
       <r>   -12.1505     0.0000     0.0000 </r>
       <r>   -12.0265     0.0000     0.0000 </r>
       <r>   -11.9025     0.0000     0.0000 </r>
       <r>   -11.7785     0.0000     0.0000 </r>
       <r>   -11.6545     0.1613     0.0084 </r>
       <r>   -11.5304     0.2096     0.0305 </r>
       <r>   -11.4064     0.2652     0.0604 </r>
       <r>   -11.2824     0.3125     0.0961 </r>
       <r>   -11.1584     0.3501     0.1375 </r>
       <r>   -11.0344     0.3870     0.1830 </r>
       <r>   -10.9104     0.4208     0.2334 </r>
       <r>   -10.7864     0.4495     0.2873 </r>
       <r>   -10.6624     0.4813     0.3450 </r>
       <r>   -10.5383     0.5085     0.4065 </r>
       <r>   -10.4143     0.5330     0.4710 </r>
       <r>   -10.2903     0.5603     0.5388 </r>
       <r>   -10.1663     0.5858     0.6100 </r>
       <r>   -10.0423     0.6075     0.6840 </r>
       <r>    -9.9183     0.6307     0.7607 </r>
       <r>    -9.7943     0.6554     0.8405 </r>
       <r>    -9.6702     0.8005     0.9310 </r>
       <r>    -9.5462     0.7266     1.0236 </r>
       <r>    -9.4222     0.6857     1.1115 </r>
       <r>    -9.2982     0.6554     1.1945 </r>
       <r>    -9.1742     0.7888     1.2798 </r>
       <r>    -9.0502     0.7980     1.3754 </r>
       <r>    -8.9262     0.8003     1.4737 </r>
       <r>    -8.8021     0.8218     1.5739 </r>
       <r>    -8.6781     0.8438     1.6774 </r>
       <r>    -8.5541     0.8614     1.7831 </r>
       <r>    -8.4301     0.8811     1.8913 </r>
       <r>    -8.3061     0.9016     2.0018 </r>
       <r>    -8.1821     0.9221     2.1148 </r>
       <r>    -8.0581     0.9417     2.2304 </r>
       <r>    -7.9341     0.9636     2.3485 </r>
       <r>    -7.8100     1.0122     2.4709 </r>
       <r>    -7.6860     1.0198     2.5965 </r>
       <r>    -7.5620     1.0414     2.7237 </r>
       <r>    -7.4380     1.0649     2.8548 </r>
       <r>    -7.3140     1.1298     2.9888 </r>
       <r>    -7.1900     1.1244     3.1282 </r>
       <r>    -7.0660     1.0764     3.2630 </r>
       <r>    -6.9419     1.0725     3.3959 </r>
       <r>    -6.8179     1.1705     3.5343 </r>
       <r>    -6.6939     1.2280     3.6839 </r>
       <r>    -6.5699     1.2247     3.8353 </r>
       <r>    -6.4459     1.2610     3.9887 </r>
       <r>    -6.3219     1.3284     4.1489 </r>
       <r>    -6.1979     1.4208     4.3193 </r>
       <r>    -6.0739     1.5959     4.5062 </r>
       <r>    -5.9498     1.5646     4.7009 </r>
       <r>    -5.8258     1.5581     4.8944 </r>
       <r>    -5.7018     1.4798     5.0794 </r>
       <r>    -5.5778     1.4648     5.2636 </r>
       <r>    -5.4538     1.4118     5.4407 </r>
       <r>    -5.3298     1.3847     5.6127 </r>
       <r>    -5.2058     1.3393     5.7818 </r>
       <r>    -5.0817     1.2915     5.9448 </r>
       <r>    -4.9577     1.2472     6.1012 </r>
       <r>    -4.8337     1.2222     6.2543 </r>
       <r>    -4.7097     1.2430     6.4059 </r>
       <r>    -4.5857     1.1524     6.5528 </r>
       <r>    -4.4617     1.0950     6.6919 </r>
       <r>    -4.3377     1.0527     6.8250 </r>
       <r>    -4.2137     1.0209     6.9534 </r>
       <r>    -4.0896     0.9985     7.0781 </r>
       <r>    -3.9656     0.9893     7.2009 </r>
       <r>    -3.8416     0.9209     7.3181 </r>
       <r>    -3.7176     0.8753     7.4290 </r>
       <r>    -3.5936     1.0155     7.5424 </r>
       <r>    -3.4696     1.0662     7.6674 </r>
       <r>    -3.3456     1.0978     7.8035 </r>
       <r>    -3.2215     1.0677     7.9349 </r>
       <r>    -3.0975     1.0772     8.0668 </r>
       <r>    -2.9735     0.9317     8.1902 </r>
       <r>    -2.8495     0.9472     8.3059 </r>
       <r>    -2.7255     1.0127     8.4265 </r>
       <r>    -2.6015     1.0024     8.5481 </r>
       <r>    -2.4775     1.1483     8.6813 </r>
       <r>    -2.3535     1.3376     8.8356 </r>
       <r>    -2.2294     1.5611     9.0140 </r>
       <r>    -2.1054     1.9385     9.2285 </r>
       <r>    -1.9814     2.4344     9.4977 </r>
       <r>    -1.8574     2.9561     9.8323 </r>
       <r>    -1.7334     2.5567    10.1713 </r>
       <r>    -1.6094     2.0909    10.4541 </r>
       <r>    -1.4854     1.8721    10.6984 </r>
       <r>    -1.3613     1.7472    10.9224 </r>
       <r>    -1.2373     1.6839    11.1335 </r>
       <r>    -1.1133     1.6203    11.3396 </r>
       <r>    -0.9893     1.4274    11.5228 </r>
       <r>    -0.8653     1.3634    11.6955 </r>
       <r>    -0.7413     1.3181    11.8616 </r>
       <r>    -0.6173     1.2721    12.0223 </r>
       <r>    -0.4933     1.2171    12.1767 </r>
       <r>    -0.3692     1.1765    12.3245 </r>
       <r>    -0.2452     1.1455    12.4694 </r>
       <r>    -0.1212     1.0813    12.6070 </r>
       <r>     0.0028     1.0497    12.7387 </r>
       <r>     0.1268     1.0535    12.8683 </r>
       <r>     0.2508     1.0759    13.0015 </r>
       <r>     0.3748     1.2302    13.1410 </r>
       <r>     0.4989     1.5762    13.3154 </r>
       <r>     0.6229     1.6887    13.5197 </r>
       <r>     0.7469     1.7286    13.7300 </r>
       <r>     0.8709     1.8887    13.9543 </r>
       <r>     0.9949     2.2175    14.2122 </r>
       <r>     1.1189     2.2484    14.4864 </r>
       <r>     1.2429     2.2686    14.7654 </r>
       <r>     1.3669     2.4327    15.0574 </r>
       <r>     1.4910     2.1989    15.3544 </r>
       <r>     1.6150     1.5366    15.5865 </r>
       <r>     1.7390     1.4281    15.7600 </r>
       <r>     1.8630     1.8676    15.9636 </r>
       <r>     1.9870     2.4058    16.2268 </r>
       <r>     2.1110     2.3179    16.5231 </r>
       <r>     2.2350     2.1947    16.8007 </r>
       <r>     2.3591     2.2887    17.0777 </r>
       <r>     2.4831     2.3973    17.3700 </r>
       <r>     2.6071     2.3450    17.6636 </r>
       <r>     2.7311     2.4358    17.9556 </r>
       <r>     2.8551     2.5857    18.2650 </r>
       <r>     2.9791     2.8704    18.6036 </r>
       <r>     3.1031     2.7993    18.9616 </r>
       <r>     3.2271     2.8521    19.2978 </r>
       <r>     3.3512     3.1228    19.6597 </r>
       <r>     3.4752     3.0140    20.0338 </r>
       <r>     3.5992     3.3193    20.4182 </r>
       <r>     3.7232     3.3364    20.8333 </r>
       <r>     3.8472     3.1411    21.2313 </r>
       <r>     3.9712     3.2236    21.6238 </r>
       <r>     4.0952     2.9964    22.0131 </r>
       <r>     4.2193     3.1416    22.3822 </r>
       <r>     4.3433     3.1695    22.7790 </r>
       <r>     4.4673     2.7745    23.1440 </r>
       <r>     4.5913     2.7691    23.4864 </r>
       <r>     4.7153     2.7544    23.8266 </r>
       <r>     4.8393     3.0580    24.1845 </r>
       <r>     4.9633     3.0327    24.5664 </r>
       <r>     5.0874     2.9853    24.9379 </r>
       <r>     5.2114     2.9660    25.3066 </r>
       <r>     5.3354     2.7537    25.6625 </r>
       <r>     5.4594     2.6779    26.0033 </r>
       <r>     5.5834     2.6267    26.3284 </r>
       <r>     5.7074     2.7092    26.6569 </r>
       <r>     5.8314     2.6876    26.9868 </r>
       <r>     5.9554     2.8167    27.3290 </r>
       <r>     6.0795     2.7680    27.6737 </r>
       <r>     6.2035     2.7090    28.0073 </r>
       <r>     6.3275     2.5887    28.3353 </r>
       <r>     6.4515     2.7895    28.6601 </r>
       <r>     6.5755     2.8649    29.0108 </r>
       <r>     6.6995     2.0403    29.2849 </r>
       <r>     6.8235     2.0016    29.4928 </r>
       <r>     6.9476     2.3309    29.7434 </r>
       <r>     7.0716     2.1453    30.0071 </r>
       <r>     7.1956     1.8021    30.2368 </r>
       <r>     7.3196     1.4383    30.4295 </r>
       <r>     7.4436     1.3195    30.6004 </r>
       <r>     7.5676     1.2199    30.7576 </r>
       <r>     7.6916     1.1342    30.9035 </r>
       <r>     7.8156     1.0542    31.0390 </r>
       <r>     7.9397     0.9642    31.1641 </r>
       <r>     8.0637     0.8902    31.2791 </r>
       <r>     8.1877     0.8204    31.3853 </r>
       <r>     8.3117     0.7556    31.4828 </r>
       <r>     8.4357     0.6873    31.5725 </r>
       <r>     8.5597     0.6215    31.6540 </r>
       <r>     8.6837     0.5505    31.7266 </r>
       <r>     8.8078     0.5031    31.7916 </r>
       <r>     8.9318     0.4379    31.8505 </r>
       <r>     9.0558     0.3642    31.8995 </r>
       <r>     9.1798     0.2921    31.9414 </r>
       <r>     9.3038     0.2226    31.9723 </r>
       <r>     9.4278     0.1094    31.9933 </r>
       <r>     9.5518     0.0083    32.0000 </r>
       <r>     9.6758     0.0000    32.0000 </r>
       <r>     9.7999     0.0000    32.0000 </r>
       <r>     9.9239     0.0000    32.0000 </r>
       <r>    10.0479     0.0000    32.0000 </r>
       <r>    10.1719     0.0000    32.0000 </r>
       <r>    10.2959     0.0000    32.0000 </r>
       <r>    10.4199     0.0000    32.0000 </r>
       <r>    10.5439     0.0000    32.0000 </r>
       <r>    10.6680     0.0000    32.0000 </r>
       <r>    10.7920     0.0000    32.0000 </r>
       <r>    10.9160     0.0000    32.0000 </r>
       <r>    11.0400     0.0000    32.0000 </r>
       <r>    11.1640     0.0000    32.0000 </r>
       <r>    11.2880     0.0000    32.0000 </r>
       <r>    11.4120     0.0000    32.0000 </r>
       <r>    11.5360     0.0000    32.0000 </r>
       <r>    11.6601     0.0000    32.0000 </r>
       <r>    11.7841     0.0000    32.0000 </r>
       <r>    11.9081     0.0000    32.0000 </r>
       <r>    12.0321     0.0000    32.0000 </r>
       <r>    12.1561     0.0000    32.0000 </r>
       <r>    12.2801     0.0000    32.0000 </r>
       <r>    12.4041     0.0000    32.0000 </r>
       <r>    12.5282     0.0000    32.0000 </r>
       <r>    12.6522     0.0000    32.0000 </r>
       <r>    12.7762     0.0000    32.0000 </r>
       <r>    12.9002     0.0000    32.0000 </r>
       <r>    13.0242     0.0000    32.0000 </r>
       <r>    13.1482     0.0000    32.0000 </r>
       <r>    13.2722     0.0000    32.0000 </r>
       <r>    13.3962     0.0000    32.0000 </r>
       <r>    13.5203     0.0000    32.0000 </r>
       <r>    13.6443     0.1074    32.0047 </r>
       <r>    13.7683     0.2333    32.0279 </r>
       <r>    13.8923     0.3777    32.0638 </r>
       <r>    14.0163     0.5320    32.1217 </r>
       <r>    14.1403     0.6543    32.1948 </r>
       <r>    14.2643     0.7198    32.2793 </r>
       <r>    14.3884     0.8728    32.3775 </r>
       <r>    14.5124     1.0139    32.4940 </r>
       <r>    14.6364     1.1616    32.6293 </r>
       <r>    14.7604     1.3454    32.7833 </r>
       <r>    14.8844     1.4787    32.9610 </r>
       <r>    15.0084     1.5495    33.1457 </r>
       <r>    15.1324     1.6524    33.3444 </r>
       <r>    15.2564     1.6919    33.5522 </r>
       <r>    15.3805     1.8119    33.7691 </r>
       <r>    15.5045     1.9829    34.0039 </r>
       <r>    15.6285     2.0579    34.2555 </r>
       <r>    15.7525     2.0045    34.5054 </r>
       <r>    15.8765     1.9958    34.7515 </r>
       <r>    16.0005     2.1392    35.0065 </r>
       <r>    16.1245     2.3190    35.2817 </r>
       <r>    16.2486     2.4132    35.5785 </r>
       <r>    16.3726     2.4414    35.8783 </r>
       <r>    16.4966     2.4991    36.1838 </r>
       <r>    16.6206     2.5752    36.4992 </r>
       <r>    16.7446     2.7539    36.8290 </r>
       <r>    16.8686     2.9081    37.1827 </r>
       <r>    16.9926     2.9833    37.5469 </r>
       <r>    17.1166     3.1706    37.9244 </r>
       <r>    17.2407     3.2232    38.3169 </r>
       <r>    17.3647     3.8121    38.7454 </r>
       <r>    17.4887     4.0314    39.2380 </r>
       <r>    17.6127     4.3882    39.7462 </r>
       <r>    17.7367     4.8301    40.3376 </r>
       <r>    17.8607     3.8753    40.8514 </r>
       <r>    17.9847     3.7814    41.3014 </r>
       <r>    18.1088     3.5406    41.7485 </r>
       <r>    18.2328     4.1603    42.2052 </r>
       <r>    18.3568     3.7890    42.6906 </r>
       <r>    18.4808     3.5949    43.1445 </r>
       <r>    18.6048     3.3188    43.5716 </r>
       <r>    18.7288     3.1403    43.9698 </r>
       <r>    18.8528     2.9983    44.3507 </r>
       <r>    18.9768     2.7623    44.7066 </r>
       <r>    19.1009     2.6351    45.0381 </r>
       <r>    19.2249     2.7823    45.3727 </r>
       <r>    19.3489     2.8017    45.7178 </r>
       <r>    19.4729     2.7387    46.0576 </r>
       <r>    19.5969     2.5781    46.3810 </r>
       <r>    19.7209     2.3144    46.6899 </r>
       <r>    19.8449     1.9834    46.9506 </r>
       <r>    19.9690     1.8072    47.1858 </r>
       <r>    20.0930     1.7051    47.4007 </r>
       <r>    20.2170     1.3560    47.5873 </r>
       <r>    20.3410     1.0814    47.7371 </r>
       <r>    20.4650     0.7377    47.8491 </r>
       <r>    20.5890     0.4164    47.9144 </r>
       <r>    20.7130     0.2032    47.9503 </r>
       <r>    20.8371     0.1362    47.9711 </r>
       <r>    20.9611     0.0880    47.9848 </r>
       <r>    21.0851     0.0530    47.9933 </r>
       <r>    21.2091     0.0234    47.9979 </r>
       <r>    21.3331     0.0067    47.9998 </r>
       <r>    21.4571     0.0000    48.0000 </r>
       <r>    21.5811     0.0000    48.0000 </r>
       <r>    21.7051     0.0000    48.0000 </r>
       <r>    21.8292     0.0000    48.0000 </r>
       <r>    21.9532     0.0000    48.0000 </r>
       <r>    22.0772     0.0000    48.0000 </r>
       <r>    22.2012     0.0000    48.0000 </r>
       <r>    22.3252     0.0000    48.0000 </r>
       <r>    22.4492     0.0000    48.0000 </r>
       <r>    22.5732     0.0000    48.0000 </r>
       <r>    22.6973     0.0000    48.0000 </r>
       <r>    22.8213     0.0000    48.0000 </r>
       <r>    22.9453     0.0000    48.0000 </r>
       <r>    23.0693     0.0000    48.0000 </r>
       <r>    23.1933     0.0000    48.0000 </r>
       <r>    23.3173     0.0000    48.0000 </r>
       <r>    23.4413     0.0000    48.0000 </r>
      </set>
     </set>
    </array>
   </total>
  </dos>
 </calculation>
 <structure name="finalpos" >
  <crystal>
   <varray name="basis" >
    <v>       3.60829601       0.01786300       0.00000000 </v>
    <v>       0.01786300       3.57257001       0.00000000 </v>
    <v>       0.00000000       0.00000000       3.57257001 </v>
   </varray>
   <i name="volume">     46.05246751 </i>
   <varray name="rec_basis" >
    <v>       0.27714599      -0.00138574       0.00000000 </v>
    <v>      -0.00138574       0.27991747       0.00000000 </v>
    <v>       0.00000000       0.00000000       0.27991054 </v>
   </varray>
  </crystal>
  <varray name="positions" >
   <v>       0.00000000       0.00000000       0.50000000 </v>
   <v>       0.25000000       0.25000000       0.75000000 </v>
   <v>       0.00000000       0.50000000       0.00000000 </v>
   <v>       0.25000000       0.75000000       0.25000000 </v>
   <v>       0.50000000       0.00000000       0.00000000 </v>
   <v>       0.75000000       0.25000000       0.25000000 </v>
   <v>       0.50000000       0.50000000       0.50000000 </v>
   <v>       0.75000000       0.75000000       0.75000000 </v>
  </varray>
 </structure>
</modeling>
