  64  64   0   0
  0.2013400E+02  0.1088187E-08  0.1088187E-08  0.1088187E-08  0.5000000E-15
  1.000000000000000E-004
  CAR 
 Si64                                    
     11.74694608     -8.05072330  301      6.52738979      1.00000000
     -8.051  0.0000E+00  0.0000E+00
     -7.985  0.0000E+00  0.0000E+00
     -7.919  0.0000E+00  0.0000E+00
     -7.853  0.0000E+00  0.0000E+00
     -7.787  0.0000E+00  0.0000E+00
     -7.721  0.0000E+00  0.0000E+00
     -7.655 -0.1657E-28 -0.1093E-29
     -7.589 -0.2817E-26 -0.1870E-27
     -7.523 -0.3862E-24 -0.2568E-25
     -7.457 -0.4250E-22 -0.2830E-23
     -7.391 -0.3751E-20 -0.2503E-21
     -7.325 -0.2655E-18 -0.1777E-19
     -7.259 -0.1506E-16 -0.1012E-17
     -7.193 -0.6636E-15 -0.4480E-16
     -7.127 -0.2407E-13 -0.1633E-14
     -7.061 -0.6978E-12 -0.4768E-13
     -6.995 -0.1615E-10 -0.1114E-11
     -6.929 -0.2982E-09 -0.2079E-10
     -6.863 -0.4381E-08 -0.3099E-09
     -6.797 -0.5109E-07 -0.3681E-08
     -6.731 -0.4713E-06 -0.3478E-07
     -6.665 -0.3421E-05 -0.2605E-06
     -6.599 -0.1939E-04 -0.1540E-05
     -6.533 -0.8468E-04 -0.7128E-05
     -6.467 -0.2788E-03 -0.2553E-04
     -6.401 -0.6606E-03 -0.6912E-04
     -6.335 -0.9909E-03 -0.1345E-03
     -6.269 -0.4053E-03 -0.1613E-03
     -6.203  0.2144E-02 -0.1979E-04
     -6.137  0.6308E-02  0.3965E-03
     -6.071  0.1002E-01  0.1057E-02
     -6.005  0.1347E-01  0.1946E-02
     -5.939  0.2320E-01  0.3477E-02
     -5.873  0.4580E-01  0.6500E-02
     -5.807  0.7478E-01  0.1143E-01
     -5.741  0.9385E-01  0.1763E-01
     -5.675  0.1018E+00  0.2435E-01
     -5.609  0.1204E+00  0.3230E-01
     -5.543  0.1607E+00  0.4290E-01
     -5.477  0.1958E+00  0.5582E-01
     -5.411  0.1933E+00  0.6857E-01
     -5.345  0.1622E+00  0.7928E-01
     -5.279  0.1382E+00  0.8840E-01
     -5.213  0.1304E+00  0.9700E-01
     -5.147  0.1178E+00  0.1048E+00
     -5.081  0.9235E-01  0.1109E+00
     -5.015  0.7173E-01  0.1156E+00
     -4.949  0.7016E-01  0.1202E+00
     -4.883  0.9002E-01  0.1262E+00
     -4.817  0.1436E+00  0.1356E+00
     -4.751  0.2429E+00  0.1517E+00
     -4.685  0.3570E+00  0.1752E+00
     -4.619  0.4274E+00  0.2034E+00
     -4.553  0.4427E+00  0.2327E+00
     -4.487  0.4444E+00  0.2620E+00
     -4.421  0.4406E+00  0.2911E+00
     -4.355  0.3820E+00  0.3163E+00
     -4.289  0.2478E+00  0.3326E+00
     -4.223  0.9373E-01  0.3388E+00
     -4.157 -0.6989E-02  0.3383E+00
     -4.091 -0.2386E-01  0.3368E+00
     -4.025  0.3800E-01  0.3393E+00
     -3.959  0.1629E+00  0.3500E+00
     -3.893  0.3219E+00  0.3713E+00
     -3.827  0.4621E+00  0.4018E+00
     -3.761  0.5216E+00  0.4362E+00
     -3.695  0.4739E+00  0.4675E+00
     -3.629  0.3563E+00  0.4910E+00
     -3.563  0.2469E+00  0.5073E+00
     -3.497  0.2134E+00  0.5214E+00
     -3.431  0.2831E+00  0.5400E+00
     -3.365  0.4307E+00  0.5685E+00
     -3.299  0.5840E+00  0.6070E+00
     -3.233  0.6717E+00  0.6513E+00
     -3.167  0.6755E+00  0.6959E+00
     -3.101  0.6251E+00  0.7372E+00
     -3.035  0.5501E+00  0.7735E+00
     -2.969  0.4680E+00  0.8044E+00
     -2.903  0.4106E+00  0.8314E+00
     -2.837  0.4050E+00  0.8582E+00
     -2.771  0.4162E+00  0.8856E+00
     -2.705  0.3678E+00  0.9099E+00
     -2.639  0.2398E+00  0.9257E+00
     -2.573  0.9495E-01  0.9320E+00
     -2.507  0.5614E-03  0.9320E+00
     -2.441 -0.3243E-01  0.9299E+00
     -2.375 -0.2623E-01  0.9282E+00
     -2.309  0.8661E-02  0.9287E+00
     -2.243  0.7463E-01  0.9337E+00
     -2.177  0.1545E+00  0.9439E+00
     -2.111  0.2011E+00  0.9571E+00
     -2.045  0.1762E+00  0.9688E+00
     -1.979  0.9542E-01  0.9751E+00
     -1.913  0.2243E-01  0.9765E+00
     -1.847  0.2596E-01  0.9783E+00
     -1.781  0.1417E+00  0.9876E+00
     -1.715  0.3458E+00  0.1010E+01
     -1.649  0.5463E+00  0.1046E+01
     -1.583  0.6280E+00  0.1088E+01
     -1.517  0.5397E+00  0.1124E+01
     -1.452  0.3379E+00  0.1146E+01
     -1.386  0.1374E+00  0.1155E+01
     -1.320  0.2719E-01  0.1157E+01
     -1.254  0.2969E-01  0.1159E+01
     -1.188  0.1076E+00  0.1166E+01
     -1.122  0.1907E+00  0.1178E+01
     -1.056  0.2186E+00  0.1193E+01
     -0.990  0.1868E+00  0.1205E+01
     -0.924  0.1556E+00  0.1215E+01
     -0.858  0.1927E+00  0.1228E+01
     -0.792  0.2931E+00  0.1247E+01
     -0.726  0.3673E+00  0.1272E+01
     -0.660  0.3418E+00  0.1294E+01
     -0.594  0.2695E+00  0.1312E+01
     -0.528  0.2972E+00  0.1332E+01
     -0.462  0.5083E+00  0.1365E+01
     -0.396  0.8178E+00  0.1419E+01
     -0.330  0.1028E+01  0.1487E+01
     -0.264  0.9852E+00  0.1552E+01
     -0.198  0.7024E+00  0.1598E+01
     -0.132  0.3387E+00  0.1621E+01
     -0.066  0.6856E-01  0.1625E+01
      0.000 -0.2493E-01  0.1624E+01
      0.066  0.4645E-01  0.1627E+01
      0.132  0.2129E+00  0.1641E+01
      0.198  0.3677E+00  0.1665E+01
      0.264  0.4141E+00  0.1692E+01
      0.330  0.3382E+00  0.1715E+01
      0.396  0.2128E+00  0.1729E+01
      0.462  0.1195E+00  0.1736E+01
      0.528  0.9474E-01  0.1743E+01
      0.594  0.1451E+00  0.1752E+01
      0.660  0.2625E+00  0.1770E+01
      0.726  0.4083E+00  0.1797E+01
      0.792  0.5074E+00  0.1830E+01
      0.858  0.4899E+00  0.1862E+01
      0.924  0.3536E+00  0.1886E+01
      0.990  0.1743E+00  0.1897E+01
      1.056  0.4015E-01  0.1900E+01
      1.122 -0.1783E-01  0.1899E+01
      1.188 -0.2479E-01  0.1897E+01
      1.254 -0.1767E-01  0.1896E+01
      1.320 -0.1692E-01  0.1895E+01
      1.386 -0.2484E-01  0.1893E+01
      1.452 -0.2685E-01  0.1891E+01
      1.518  0.1069E-01  0.1892E+01
      1.584  0.1260E+00  0.1900E+01
      1.650  0.3224E+00  0.1922E+01
      1.716  0.5414E+00  0.1957E+01
      1.782  0.6939E+00  0.2003E+01
      1.848  0.7226E+00  0.2051E+01
      1.914  0.6321E+00  0.2093E+01
      1.980  0.4814E+00  0.2124E+01
      2.046  0.3617E+00  0.2148E+01
      2.112  0.3412E+00  0.2171E+01
      2.178  0.3958E+00  0.2197E+01
      2.244  0.4225E+00  0.2225E+01
      2.310  0.3598E+00  0.2248E+01
      2.376  0.2825E+00  0.2267E+01
      2.442  0.3546E+00  0.2291E+01
      2.508  0.6698E+00  0.2335E+01
      2.574  0.1127E+01  0.2409E+01
      2.640  0.1460E+01  0.2505E+01
      2.706  0.1436E+01  0.2600E+01
      2.772  0.1051E+01  0.2670E+01
      2.838  0.5345E+00  0.2705E+01
      2.904  0.1342E+00  0.2714E+01
      2.970 -0.6234E-01  0.2710E+01
      3.036 -0.1086E+00  0.2702E+01
      3.102 -0.6468E-01  0.2698E+01
      3.168  0.7710E-01  0.2703E+01
      3.234  0.3435E+00  0.2726E+01
      3.300  0.6924E+00  0.2772E+01
      3.366  0.1009E+01  0.2838E+01
      3.432  0.1199E+01  0.2917E+01
      3.498  0.1246E+01  0.3000E+01
      3.564  0.1186E+01  0.3078E+01
      3.630  0.1050E+01  0.3147E+01
      3.696  0.8639E+00  0.3204E+01
      3.762  0.6897E+00  0.3250E+01
      3.828  0.6207E+00  0.3291E+01
      3.894  0.6888E+00  0.3336E+01
      3.960  0.7751E+00  0.3387E+01
      4.026  0.7124E+00  0.3434E+01
      4.092  0.4963E+00  0.3467E+01
      4.158  0.3057E+00  0.3487E+01
      4.224  0.2923E+00  0.3506E+01
      4.290  0.4240E+00  0.3534E+01
      4.356  0.5597E+00  0.3571E+01
      4.422  0.6194E+00  0.3612E+01
      4.488  0.6326E+00  0.3654E+01
      4.554  0.6456E+00  0.3697E+01
      4.620  0.6567E+00  0.3740E+01
      4.686  0.6619E+00  0.3784E+01
      4.752  0.6957E+00  0.3830E+01
      4.818  0.7844E+00  0.3881E+01
      4.884  0.8837E+00  0.3940E+01
      4.950  0.8913E+00  0.3998E+01
      5.016  0.7347E+00  0.4047E+01
      5.082  0.4524E+00  0.4077E+01
      5.148  0.1765E+00  0.4088E+01
      5.214  0.3342E-01  0.4091E+01
      5.280  0.6722E-01  0.4095E+01
      5.346  0.2278E+00  0.4110E+01
      5.412  0.3976E+00  0.4136E+01
      5.478  0.4558E+00  0.4166E+01
      5.544  0.3641E+00  0.4190E+01
      5.610  0.1925E+00  0.4203E+01
      5.676  0.4729E-01  0.4206E+01
      5.742 -0.1136E-01  0.4206E+01
      5.808  0.1685E-01  0.4207E+01
      5.874  0.9772E-01  0.4213E+01
      5.940  0.1773E+00  0.4225E+01
      6.006  0.2031E+00  0.4238E+01
      6.072  0.1643E+00  0.4249E+01
      6.138  0.1007E+00  0.4256E+01
      6.204  0.5736E-01  0.4259E+01
      6.270  0.4142E-01  0.4262E+01
      6.336  0.3154E-01  0.4264E+01
      6.402  0.1516E-01  0.4265E+01
      6.468  0.4033E-02  0.4266E+01
      6.534  0.2088E-01  0.4267E+01
      6.600  0.7578E-01  0.4272E+01
      6.666  0.1485E+00  0.4282E+01
      6.732  0.1944E+00  0.4295E+01
      6.798  0.1799E+00  0.4306E+01
      6.864  0.1135E+00  0.4314E+01
      6.930  0.3680E-01  0.4316E+01
      6.996 -0.9562E-02  0.4316E+01
      7.061 -0.1253E-02  0.4316E+01
      7.127  0.7021E-01  0.4320E+01
      7.193  0.1822E+00  0.4332E+01
      7.259  0.2701E+00  0.4350E+01
      7.325  0.2736E+00  0.4368E+01
      7.391  0.2147E+00  0.4382E+01
      7.457  0.1972E+00  0.4395E+01
      7.523  0.2922E+00  0.4415E+01
      7.589  0.4375E+00  0.4444E+01
      7.655  0.4908E+00  0.4476E+01
      7.721  0.3853E+00  0.4501E+01
      7.787  0.2004E+00  0.4515E+01
      7.853  0.8181E-01  0.4520E+01
      7.919  0.1358E+00  0.4529E+01
      7.985  0.3752E+00  0.4554E+01
      8.051  0.6879E+00  0.4599E+01
      8.117  0.8725E+00  0.4657E+01
      8.183  0.8015E+00  0.4710E+01
      8.249  0.5619E+00  0.4747E+01
      8.315  0.3697E+00  0.4771E+01
      8.381  0.3577E+00  0.4795E+01
      8.447  0.5090E+00  0.4828E+01
      8.513  0.7614E+00  0.4878E+01
      8.579  0.1061E+01  0.4948E+01
      8.645  0.1301E+01  0.5034E+01
      8.711  0.1326E+01  0.5122E+01
      8.777  0.1080E+01  0.5193E+01
      8.843  0.6862E+00  0.5238E+01
      8.909  0.3492E+00  0.5261E+01
      8.975  0.1803E+00  0.5273E+01
      9.041  0.1479E+00  0.5283E+01
      9.107  0.1688E+00  0.5294E+01
      9.173  0.2078E+00  0.5308E+01
      9.239  0.2698E+00  0.5326E+01
      9.305  0.3283E+00  0.5347E+01
      9.371  0.3243E+00  0.5369E+01
      9.437  0.2377E+00  0.5384E+01
      9.503  0.1178E+00  0.5392E+01
      9.569  0.3113E-01  0.5394E+01
      9.635  0.2245E-02  0.5394E+01
      9.701  0.1104E-01  0.5395E+01
      9.767  0.2541E-01  0.5397E+01
      9.833  0.2740E-01  0.5399E+01
      9.899  0.1787E-01  0.5400E+01
      9.965  0.6442E-02  0.5400E+01
     10.031 -0.1895E-03  0.5400E+01
     10.097 -0.1848E-02  0.5400E+01
     10.163 -0.1299E-02  0.5400E+01
     10.229 -0.5548E-03  0.5400E+01
     10.295 -0.1691E-03  0.5400E+01
     10.361 -0.3874E-04  0.5400E+01
     10.427 -0.6840E-05  0.5400E+01
     10.493 -0.9424E-06  0.5400E+01
     10.559 -0.1022E-06  0.5400E+01
     10.625 -0.8760E-08  0.5400E+01
     10.691 -0.5963E-09  0.5400E+01
     10.757 -0.3230E-10  0.5400E+01
     10.823 -0.1395E-11  0.5400E+01
     10.889 -0.4814E-13  0.5400E+01
     10.955 -0.1318E-14  0.5400E+01
     11.021 -0.2804E-16  0.5400E+01
     11.087  0.0000E+00  0.5400E+01
     11.153  0.0000E+00  0.5400E+01
     11.219  0.0000E+00  0.5400E+01
     11.285  0.0000E+00  0.5400E+01
     11.351  0.0000E+00  0.5400E+01
     11.417  0.0000E+00  0.5400E+01
     11.483  0.0000E+00  0.5400E+01
     11.549  0.0000E+00  0.5400E+01
     11.615  0.0000E+00  0.5400E+01
     11.681  0.0000E+00  0.5400E+01
     11.747  0.0000E+00  0.5400E+01
