       N       E                     dE             d eps       ncg     rms          rms(c)
DAV:   1     0.555804707810E+03    0.55580E+03   -0.83694E+04  1296   0.106E+03
DAV:   2    -0.309906729313E+03   -0.86571E+03   -0.82147E+03  1536   0.172E+02
DAV:   3    -0.372982226243E+03   -0.63075E+02   -0.61823E+02  1568   0.409E+01
DAV:   4    -0.374664277786E+03   -0.16821E+01   -0.16700E+01  1552   0.800E+00
DAV:   5    -0.374715560020E+03   -0.51282E-01   -0.51178E-01  1510   0.132E+00    0.279E+01
RMM:   6    -0.369822199438E+03    0.48934E+01   -0.24101E+00  1296   0.242E+00    0.168E+01
RMM:   7    -0.367570632286E+03    0.22516E+01   -0.62841E+00  1322   0.391E+00    0.931E-01
RMM:   8    -0.367608697552E+03   -0.38065E-01   -0.55290E-01  1310   0.148E+00    0.480E-01
RMM:   9    -0.367626680108E+03   -0.17983E-01   -0.16517E-01  1322   0.726E-01    0.564E-01
RMM:  10    -0.367629569675E+03   -0.28896E-02   -0.28950E-02  1354   0.344E-01    0.682E-01
RMM:  11    -0.367628071929E+03    0.14977E-02   -0.95577E-03  1296   0.203E-01    0.819E-01
RMM:  12    -0.367627955941E+03    0.11599E-03   -0.17209E-03  1304   0.978E-02    0.981E-01
RMM:  13    -0.367628101844E+03   -0.14590E-03   -0.33053E-04  1368   0.421E-02    0.956E-01
RMM:  14    -0.367626376640E+03    0.17252E-02   -0.67685E-04  1296   0.575E-02    0.151E+00
RMM:  15    -0.367626156066E+03    0.22057E-03   -0.16016E-04  1299   0.257E-02    0.166E+00
RMM:  16    -0.367626243714E+03   -0.87648E-04   -0.20131E-05  1338   0.954E-03    0.162E+00
RMM:  17    -0.367627310177E+03   -0.10665E-02   -0.16341E-04  1350   0.268E-02    0.104E+00
RMM:  18    -0.367628459247E+03   -0.11491E-02   -0.57836E-04  1747   0.535E-02    0.293E-01
RMM:  19    -0.367628593289E+03   -0.13404E-03   -0.17536E-04  1324   0.278E-02    0.366E-02
RMM:  20    -0.367628600874E+03   -0.75853E-05   -0.46774E-05  1300   0.130E-02    0.337E-03
RMM:  21    -0.367628601368E+03   -0.49359E-06   -0.66531E-06  1076   0.503E-03
   1 F= -.32741532E+03 E0= -.32742371E+03  d E =-.327415E+03
       N       E                     dE             d eps       ncg     rms          rms(c)
DAV:   1    -0.365732589139E+03    0.18960E+01   -0.58093E+01  1376   0.135E+01    0.808E+00
RMM:   2    -0.364594138946E+03    0.11385E+01   -0.19892E+00  1296   0.267E+00    0.474E+00
RMM:   3    -0.364004679620E+03    0.58946E+00   -0.13569E+00  1296   0.205E+00    0.843E-01
RMM:   4    -0.364019345950E+03   -0.14666E-01   -0.12930E-01  1296   0.848E-01    0.943E-01
RMM:   5    -0.364022225003E+03   -0.28791E-02   -0.26615E-02  1322   0.353E-01    0.131E+00
RMM:   6    -0.364022721001E+03   -0.49600E-03   -0.10714E-02  1296   0.216E-01    0.890E-01
RMM:   7    -0.364020651568E+03    0.20694E-02   -0.27375E-03  1296   0.119E-01    0.324E-01
RMM:   8    -0.364020500206E+03    0.15136E-03   -0.37495E-04  1298   0.530E-02    0.288E-01
RMM:   9    -0.364020289237E+03    0.21097E-03   -0.11266E-04  1297   0.231E-02    0.177E-01
RMM:  10    -0.364020130699E+03    0.15854E-03   -0.38474E-04  1309   0.327E-02    0.190E-02
RMM:  11    -0.364020135087E+03   -0.43885E-05   -0.37513E-05  1326   0.120E-02    0.185E-02
RMM:  12    -0.364020135278E+03   -0.19065E-06   -0.58520E-06  1051   0.468E-03
   2 F= -.32753496E+03 E0= -.32754495E+03  d E =-.119634E+00
       N       E                     dE             d eps       ncg     rms          rms(c)
DAV:   1    -0.367137786581E+03   -0.31177E+01   -0.12759E+01  1334   0.615E+00    0.373E+00
RMM:   2    -0.366878203311E+03    0.25958E+00   -0.37235E-01  1296   0.119E+00    0.224E+00
RMM:   3    -0.366740959717E+03    0.13724E+00   -0.31703E-01  1296   0.968E-01    0.409E-01
RMM:   4    -0.366744010075E+03   -0.30504E-02   -0.27662E-02  1296   0.395E-01    0.430E-01
RMM:   5    -0.366744614037E+03   -0.60396E-03   -0.54759E-03  1322   0.164E-01    0.493E-01
RMM:   6    -0.366745801008E+03   -0.11870E-02   -0.39179E-03  1296   0.111E-01    0.808E-01
RMM:   7    -0.366769543503E+03   -0.23742E-01   -0.39738E-02  1780   0.300E-01    0.279E+00
RMM:   8    -0.366754332424E+03    0.15211E-01   -0.17040E-01  2046   0.627E-01    0.181E+00
RMM:   9    -0.366744128752E+03    0.10204E-01   -0.19304E-02  1522   0.222E-01    0.302E-01
RMM:  10    -0.366744171398E+03   -0.42647E-04   -0.23201E-03  1296   0.803E-02    0.170E-01
RMM:  11    -0.366744049182E+03    0.12222E-03   -0.36127E-04  1296   0.363E-02    0.185E-02
RMM:  12    -0.366744050068E+03   -0.88670E-06   -0.54808E-05  1304   0.137E-02    0.184E-02
RMM:  13    -0.366744051672E+03   -0.16037E-05   -0.88162E-06   977   0.489E-03    0.853E-03
RMM:  14    -0.366744052453E+03   -0.78083E-06   -0.51882E-06  1126   0.427E-03
   3 F= -.32850897E+03 E0= -.32851976E+03  d E =-.109365E+01
