 vasp.6.4.3 19Mar24 (build Oct 21 2024 22:36:34) complex                        
  
 executed on             LinuxIFC date 2024.11.01  22:38:20
 running   96 mpi-ranks, on    1 nodes
 distrk:  each k-point on   24 cores,    4 groups
 distr:  one band on NCORE=  12 cores,    2 groups


--------------------------------------------------------------------------------------------------------


 INCAR:
   SYSTEM = Si64
   ISTART = 0
   ICHARG = 2
   LREAL = Auto
   PREC = Accurate
   LWAVE = .False.
   LCHARG = .False.
   ADDGRID = .True.
   ENCUT = 400
   GGA = PS
   GGA_COMPAT = .FALSE.
   ISMEAR = 1
   SIGMA = 0.2
   NELM = 60
   NELMIN = 8
   EDIFF = 1e-06
   EDIFFG = -0.01
   NSW = 60
   IBRION = 2
   ISIF = 3
   PSTRESS = 50.0
   KPAR = 4
   NPAR = 2
   ALGO = Fast

 POTCAR:    PAW_PBE Si 05Jan2001                  
 POTCAR:    PAW_PBE Si 05Jan2001                  
   VRHFIN =Si: s2p2                                                                                 
   LEXCH  = PE                                                                                      
   EATOM  =   103.0669 eV,    7.5752 Ry                                                             
                                                                                                    
   TITEL  = PAW_PBE Si 05Jan2001                                                                    
   LULTRA =        F    use ultrasoft PP ?                                                          
   IUNSCR =        1    unscreen: 0-lin 1-nonlin 2-no                                               
   RPACOR =    1.500    partial core radius                                                         
   POMASS =   28.085; ZVAL   =    4.000    mass and valenz                                          
   RCORE  =    1.900    outmost cutoff radius                                                       
   RWIGS  =    2.480; RWIGS  =    1.312    wigner-seitz radius (au A)                               
   ENMAX  =  245.345; ENMIN  =  184.009 eV                                                          
   ICORE  =        2    local potential                                                             
   LCOR   =        T    correct aug charges                                                         
   LPAW   =        T    paw PP                                                                      
   EAUG   =  322.069                                                                                
   DEXC   =    0.000                                                                                
   RMAX   =    1.950    core radius for proj-oper                                                   
   RAUG   =    1.300    factor for augmentation sphere                                              
   RDEP   =    1.993    radius for radial grids                                                     
   RDEPT  =    1.837    core radius for aug-charge                                                  
                                                                                                    
   Atomic configuration                                                                             
    6 entries                                                                                       
     n  l   j            E        occ.                                                              
     1  0  0.50     -1785.8828   2.0000                                                             
     2  0  0.50      -139.4969   2.0000                                                             
     2  1  1.50       -95.5546   6.0000                                                             
     3  0  0.50       -10.8127   2.0000                                                             
     3  1  0.50        -4.0811   2.0000                                                             
     3  2  1.50        -4.0817   0.0000                                                             
   Description                                                                                      
     l       E           TYP  RCUT    TYP  RCUT                                                     
     0    -10.8127223     23  1.900                                                                 
     0     -7.6451159     23  1.900                                                                 
     1     -4.0811372     23  1.900                                                                 
     1      2.4879257     23  1.900                                                                 
     2     -4.0817478      7  1.900                                                                 
  local pseudopotential read in
  partial core-charges read in
  partial kinetic energy density read in
  atomic valenz-charges read in
  non local Contribution for L=           0  read in
    real space projection operators read in
  non local Contribution for L=           0  read in
    real space projection operators read in
  non local Contribution for L=           1  read in
    real space projection operators read in
  non local Contribution for L=           1  read in
    real space projection operators read in
    PAW grid and wavefunctions read in
 
   number of l-projection  operators is LMAX  =           4
   number of lm-projection operators is LMMAX =           8
 
 Optimization of the real space projectors (new method)

 maximal supplied QI-value         = 19.84
 optimisation between [QCUT,QGAM] = [ 10.12, 20.44] = [ 28.68,116.96] Ry 
 Optimized for a Real-space Cutoff    1.38 Angstroem

   l    n(q)    QCUT    max X(q) W(low)/X(q) W(high)/X(q)  e(spline) 
   0      8    10.119   159.560    0.58E-04    0.11E-03    0.54E-07
   0      8    10.119   115.863    0.56E-04    0.11E-03    0.54E-07
   1      8    10.119    88.339    0.22E-03    0.17E-03    0.19E-06
   1      8    10.119    48.592    0.22E-03    0.17E-03    0.18E-06
 -----------------------------------------------------------------------------
|                                                                             |
|               ----> ADVICE to this user running VASP <----                  |
|                                                                             |
|     You enforced a specific xc type in the INCAR file but a different       |
|     type was found in the POTCAR file.                                      |
|     I HOPE YOU KNOW WHAT YOU ARE DOING!                                     |
|                                                                             |
 -----------------------------------------------------------------------------

  PAW_PBE Si 05Jan2001                  :
 energy of atom  1       EATOM= -103.0669
 kinetic energy error for atom=    0.0012 (will be added to EATOM!!)
 
 
 POSCAR: Si8
  positions in direct lattice
  velocities in cartesian coordinates
  No initial velocities read in


 exchange-correlation table for PS
   RHO(1)=    0.500       N(1)  =     2000
   RHO(2)=  100.500       N(2)  =     4000
 


--------------------------------------------------------------------------------------------------------


 ion  position               nearest neighbor table
   1  0.000  0.000  0.000-  15 2.36  30 2.36  44 2.36  57 2.36
   2  0.000  0.000  0.500-  16 2.36  29 2.36  43 2.36  58 2.36
   3  0.000  0.500  0.000-  13 2.36  32 2.36  42 2.36  59 2.36
   4  0.000  0.500  0.500-  14 2.36  31 2.36  41 2.36  60 2.36
   5  0.500  0.000  0.000-  11 2.36  26 2.36  48 2.36  61 2.36
   6  0.500  0.000  0.500-  12 2.36  25 2.36  47 2.36  62 2.36
   7  0.500  0.500  0.000-   9 2.36  28 2.36  46 2.36  63 2.36
   8  0.500  0.500  0.500-  10 2.36  27 2.36  45 2.36  64 2.36
   9  0.375  0.375  0.125-   7 2.36  21 2.36  35 2.36  49 2.36
  10  0.375  0.375  0.625-   8 2.36  22 2.36  36 2.36  50 2.36
  11  0.375  0.875  0.125-   5 2.36  23 2.36  33 2.36  51 2.36
  12  0.375  0.875  0.625-   6 2.36  24 2.36  34 2.36  52 2.36
  13  0.875  0.375  0.125-   3 2.36  17 2.36  39 2.36  53 2.36
  14  0.875  0.375  0.625-   4 2.36  18 2.36  40 2.36  54 2.36
  15  0.875  0.875  0.125-   1 2.36  19 2.36  37 2.36  55 2.36
  16  0.875  0.875  0.625-   2 2.36  20 2.36  38 2.36  56 2.36
  17  0.000  0.250  0.250-  13 2.36  29 2.36  41 2.36  57 2.36
  18  0.000  0.250  0.750-  14 2.36  30 2.36  42 2.36  58 2.36
  19  0.000  0.750  0.250-  15 2.36  31 2.36  43 2.36  59 2.36
  20  0.000  0.750  0.750-  16 2.36  32 2.36  44 2.36  60 2.36
  21  0.500  0.250  0.250-   9 2.36  25 2.36  45 2.36  61 2.36
  22  0.500  0.250  0.750-  10 2.36  26 2.36  46 2.36  62 2.36
  23  0.500  0.750  0.250-  11 2.36  27 2.36  47 2.36  63 2.36
  24  0.500  0.750  0.750-  12 2.36  28 2.36  48 2.36  64 2.36
  25  0.375  0.125  0.375-   6 2.36  21 2.36  33 2.36  50 2.36
  26  0.375  0.125  0.875-   5 2.36  22 2.36  34 2.36  49 2.36
  27  0.375  0.625  0.375-   8 2.36  23 2.36  35 2.36  52 2.36
  28  0.375  0.625  0.875-   7 2.36  24 2.36  36 2.36  51 2.36
  29  0.875  0.125  0.375-   2 2.36  17 2.36  37 2.36  54 2.36
  30  0.875  0.125  0.875-   1 2.36  18 2.36  38 2.36  53 2.36
  31  0.875  0.625  0.375-   4 2.36  19 2.36  39 2.36  56 2.36
  32  0.875  0.625  0.875-   3 2.36  20 2.36  40 2.36  55 2.36
  33  0.250  0.000  0.250-  11 2.36  25 2.36  43 2.36  57 2.36
  34  0.250  0.000  0.750-  12 2.36  26 2.36  44 2.36  58 2.36
  35  0.250  0.500  0.250-   9 2.36  27 2.36  41 2.36  59 2.36
  36  0.250  0.500  0.750-  10 2.36  28 2.36  42 2.36  60 2.36
  37  0.750  0.000  0.250-  15 2.36  29 2.36  47 2.36  61 2.36
  38  0.750  0.000  0.750-  16 2.36  30 2.36  48 2.36  62 2.36
  39  0.750  0.500  0.250-  13 2.36  31 2.36  45 2.36  63 2.36
  40  0.750  0.500  0.750-  14 2.36  32 2.36  46 2.36  64 2.36
  41  0.125  0.375  0.375-   4 2.36  17 2.36  35 2.36  50 2.36
  42  0.125  0.375  0.875-   3 2.36  18 2.36  36 2.36  49 2.36
  43  0.125  0.875  0.375-   2 2.36  19 2.36  33 2.36  52 2.36
  44  0.125  0.875  0.875-   1 2.36  20 2.36  34 2.36  51 2.36
  45  0.625  0.375  0.375-   8 2.36  21 2.36  39 2.36  54 2.36
  46  0.625  0.375  0.875-   7 2.36  22 2.36  40 2.36  53 2.36
  47  0.625  0.875  0.375-   6 2.36  23 2.36  37 2.36  56 2.36
  48  0.625  0.875  0.875-   5 2.36  24 2.36  38 2.36  55 2.36
  49  0.250  0.250  0.000-   9 2.36  26 2.36  42 2.36  57 2.36
  50  0.250  0.250  0.500-  10 2.36  25 2.36  41 2.36  58 2.36
  51  0.250  0.750  0.000-  11 2.36  28 2.36  44 2.36  59 2.36
  52  0.250  0.750  0.500-  12 2.36  27 2.36  43 2.36  60 2.36
  53  0.750  0.250  0.000-  13 2.36  30 2.36  46 2.36  61 2.36
  54  0.750  0.250  0.500-  14 2.36  29 2.36  45 2.36  62 2.36
  55  0.750  0.750  0.000-  15 2.36  32 2.36  48 2.36  63 2.36
  56  0.750  0.750  0.500-  16 2.36  31 2.36  47 2.36  64 2.36
  57  0.125  0.125  0.125-   1 2.36  17 2.36  33 2.36  49 2.36
  58  0.125  0.125  0.625-   2 2.36  18 2.36  34 2.36  50 2.36
  59  0.125  0.625  0.125-   3 2.36  19 2.36  35 2.36  51 2.36
  60  0.125  0.625  0.625-   4 2.36  20 2.36  36 2.36  52 2.36
  61  0.625  0.125  0.125-   5 2.36  21 2.36  37 2.36  53 2.36
  62  0.625  0.125  0.625-   6 2.36  22 2.36  38 2.36  54 2.36
  63  0.625  0.625  0.125-   7 2.36  23 2.36  39 2.36  55 2.36
  64  0.625  0.625  0.625-   8 2.36  24 2.36  40 2.36  56 2.36
 
  LATTYP: Found a simple cubic cell.
 ALAT       =    10.8818653088
  
  Lattice vectors:
  
 A1 = (  10.8818653088,   0.0000000000,   0.0000000000)
 A2 = (   0.0000000000,  10.8818653088,   0.0000000000)
 A3 = (   0.0000000000,   0.0000000000,  10.8818653088)


Analysis of symmetry for initial positions (statically):
=====================================================================
 Subroutine PRICEL returns following result:
 
  LATTYP: Found a face centered cubic cell.
 ALAT       =     5.4409326544
  
  Lattice vectors:
  
 A1 = (   2.7204663272,  -2.7204663272,   0.0000000000)
 A2 = (   2.7204663272,   0.0000000000,   2.7204663272)
 A3 = (   0.0000000000,  -2.7204663272,   2.7204663272)
 
  32 primitive cells build up your supercell.
 

 Routine SETGRP: Setting up the symmetry group for a 
 simple cubic supercell.


 Subroutine GETGRP returns: Found 48 space group operations
 (whereof 24 operations were pure point group operations)
 out of a pool of 48 trial point group operations.


The static configuration has the point symmetry T_d .
 The point group associated with its full space group is O_h .


Analysis of symmetry for dynamics (positions and initial velocities):
=====================================================================
 Subroutine PRICEL returns following result:
 
  LATTYP: Found a face centered cubic cell.
 ALAT       =     5.4409326544
  
  Lattice vectors:
  
 A1 = (   2.7204663272,  -2.7204663272,   0.0000000000)
 A2 = (   2.7204663272,   0.0000000000,   2.7204663272)
 A3 = (   0.0000000000,  -2.7204663272,   2.7204663272)
 
  32 primitive cells build up your supercell.
 

 Routine SETGRP: Setting up the symmetry group for a 
 simple cubic supercell.


 Subroutine GETGRP returns: Found 48 space group operations
 (whereof 24 operations were pure point group operations)
 out of a pool of 48 trial point group operations.


The dynamic configuration has the point symmetry T_d .
 The point group associated with its full space group is O_h .


 Subroutine INISYM returns: Found 48 space group operations
 (whereof 24 operations are pure point group operations),
 and found    32 'primitive' translations


----------------------------------------------------------------------------------------

                                     Primitive cell                                     

  volume of cell :      40.2680

  direct lattice vectors                    reciprocal lattice vectors
     2.720466327 -2.720466327  0.000000000     0.183792019 -0.183792019 -0.183792019
     2.720466327  0.000000000  2.720466327     0.183792019  0.183792019  0.183792019
     0.000000000 -2.720466327  2.720466327    -0.183792019 -0.183792019  0.183792019

  length of vectors
     3.847320376  3.847320376  3.847320376     0.318337116  0.318337116  0.318337116

  position of ions in fractional coordinates (direct lattice)
     0.000000000  0.000000000  0.000000000
     0.750000000  0.750000000  0.750000000

  ion indices of the primitive-cell ions
   primitive index   ion index
                 1           1
                 2          30

----------------------------------------------------------------------------------------

 
 
 KPOINTS: Automatic mesh                          

Automatic generation of k-mesh.
 Grid dimensions read from file:
 generate k-points for:    2    2    2

 Generating k-lattice:

  Cartesian coordinates                     Fractional coordinates (reciprocal lattice)
     0.045948005  0.000000000  0.000000000     0.500000000  0.000000000  0.000000000
     0.000000000  0.045948005  0.000000000     0.000000000  0.500000000  0.000000000
     0.000000000  0.000000000  0.045948005     0.000000000  0.000000000  0.500000000

  Length of vectors
     0.045948005  0.045948005  0.045948005

  Shift w.r.t. Gamma in fractional coordinates (k-lattice)
     0.000000000  0.000000000  0.000000000

 
 Subroutine IBZKPT returns following result:
 ===========================================
 
 Found      4 irreducible k-points:
 
 Following reciprocal coordinates:
            Coordinates               Weight
  0.000000  0.000000  0.000000      1.000000
  0.500000  0.000000  0.000000      3.000000
  0.500000  0.500000  0.000000      3.000000
  0.500000  0.500000  0.500000      1.000000
 
 Following cartesian coordinates:
            Coordinates               Weight
  0.000000  0.000000  0.000000      1.000000
  0.045948  0.000000  0.000000      3.000000
  0.045948  0.045948  0.000000      3.000000
  0.045948  0.045948  0.045948      1.000000
 


--------------------------------------------------------------------------------------------------------




 Dimension of arrays:
   k-points           NKPTS =      4   k-points in BZ     NKDIM =      4   number of bands    NBANDS=    162
   number of dos      NEDOS =    301   number of ions     NIONS =     64
   non local maximal  LDIM  =      4   non local SUM 2l+1 LMDIM =      8
   total plane-waves  NPLWV = 373248
   max r-space proj   IRMAX =   3242   max aug-charges    IRDMAX=  77668
   dimension x,y,z NGX =    72 NGY =   72 NGZ =   72
   dimension x,y,z NGXF=   144 NGYF=  144 NGZF=  144
   support grid    NGXF=   288 NGYF=  288 NGZF=  288
   ions per type =              64
   NGX,Y,Z   is equivalent  to a cutoff of  11.00, 11.00, 11.00 a.u.
   NGXF,Y,Z  is equivalent  to a cutoff of  22.00, 22.00, 22.00 a.u.

 SYSTEM =  Si64                                    
 POSCAR =  Si8                                     

 Startparameter for this run:
   NWRITE =      2    write-flag & timer
   PREC   = accura    normal or accurate (medium, high low for compatibility)
   ISTART =      0    job   : 0-new  1-cont  2-samecut
   ICHARG =      2    charge: 1-file 2-atom 10-const
   ISPIN  =      1    spin polarized calculation?
   LNONCOLLINEAR =      F non collinear calculations
   LSORBIT =      F    spin-orbit coupling
   INIWAV =      1    electr: 0-lowe 1-rand  2-diag
   LASPH  =      F    aspherical Exc in radial PAW
 Electronic Relaxation 1
   ENCUT  =  400.0 eV  29.40 Ry    5.42 a.u.  17.75 17.75 17.75*2*pi/ulx,y,z
   ENINI  =  400.0     initial cutoff
   ENAUG  =  322.1 eV  augmentation charge cutoff
   NELM   =     60;   NELMIN=  8; NELMDL= -5     # of ELM steps 
   EDIFF  = 0.1E-05   stopping-criterion for ELM
   LREAL  =      T    real-space projection
   NLSPLINE    = F    spline interpolate recip. space projectors
   LCOMPAT=      F    compatible to vasp.4.4
   GGA_COMPAT  = F    GGA compatible to vasp.4.4-vasp.4.6
   LMAXPAW     = -100 max onsite density
   LMAXMIX     =    2 max onsite mixed and CHGCAR
   VOSKOWN=      0    Vosko Wilk Nusair interpolation
   ROPT   =   -0.00025
 Ionic relaxation
   EDIFFG = -.1E-01   stopping-criterion for IOM
   NSW    =     60    number of steps for IOM
   NBLOCK =      1;   KBLOCK =     60    inner block; outer block 
   IBRION =      2    ionic relax: 0-MD 1-quasi-New 2-CG
   NFREE  =      1    steps in history (QN), initial steepest desc. (CG)
   ISIF   =      3    stress and relaxation
   IWAVPR =     11    prediction:  0-non 1-charg 2-wave 3-comb
   ISYM   =      2    0-nonsym 1-usesym 2-fastsym
   LCORR  =      T    Harris-Foulkes like correction to forces

   POTIM  = 0.5000    time-step for ionic-motion
   TEIN   =    0.0    initial temperature
   TEBEG  =    0.0;   TEEND  =   0.0 temperature during run
   SMASS  =  -3.00    Nose mass-parameter (am)
   estimated Nose-frequenzy (Omega)   =  0.10E-29 period in steps = 0.13E+47 mass=  -0.271E-26a.u.
   SCALEE = 1.0000    scale energy and forces
   NPACO  =    256;   APACO  = 10.0  distance and # of slots for P.C.
   PSTRESS=   50.0 pullay stress

  Mass of Ions in am
   POMASS =  28.09
  Ionic Valenz
   ZVAL   =   4.00
  Atomic Wigner-Seitz radii
   RWIGS  =  -1.00
  virtual crystal weights 
   VCA    =   1.00
   NELECT =     256.0000    total number of electrons
   NUPDOWN=      -1.0000    fix difference up-down

 DOS related values:
   EMIN   =  10.00;   EMAX   =-10.00  energy-range for DOS
   EFERMI =   0.00;   METHOD = LEGACY      
   ISMEAR =     1;   SIGMA  =   0.20  broadening in eV -4-tet -1-fermi 0-gaus

 Electronic relaxation 2 (details)
   IALGO  =     68    algorithm
   LDIAG  =      T    sub-space diagonalisation (order eigenvalues)
   LSUBROT=      F    optimize rotation matrix (better conditioning)
   TURBO    =      0    0=normal 1=particle mesh
   IRESTART =      0    0=no restart 2=restart with 2 vectors
   NREBOOT  =      0    no. of reboots
   NMIN     =      0    reboot dimension
   EREF     =   0.00    reference energy to select bands
   IMIX   =      4    mixing-type and parameters
     AMIX     =   0.40;   BMIX     =  1.00
     AMIX_MAG =   1.60;   BMIX_MAG =  1.00
     AMIN     =   0.10
     WC   =   100.;   INIMIX=   1;  MIXPRE=   1;  MAXMIX= -45

 Intra band minimization:
   WEIMIN = 0.0010     energy-eigenvalue tresh-hold
   EBREAK =  0.15E-08  absolut break condition
   DEPER  =   0.30     relativ break condition  

   TIME   =   0.40     timestep for ELM

  volume/ion in A,a.u.               =      20.13       135.87
  Fermi-wavevector in a.u.,A,eV,Ry     =   0.955252  1.805165 12.415414  0.912507
  Thomas-Fermi vector in A             =   2.084073
 
 Write flags
   LWAVE        =      F    write WAVECAR
   LDOWNSAMPLE  =      F    k-point downsampling of WAVECAR
   LCHARG       =      F    write CHGCAR
   LVTOT        =      F    write LOCPOT, total local potential
   LVHAR        =      F    write LOCPOT, Hartree potential only
   WRT_POTENTIAL= false  ! write potential to hdf5 file
   LELF         =      F    write electronic localiz. function (ELF)
   LORBIT       =      0    0 simple, 1 ext, 2 COOP (PROOUT), +10 PAW based schemes


 Dipole corrections
   LMONO      =      F    monopole corrections only (constant potential shift)
   LDIPOL     =      F    correct potential (dipole corrections)
   IDIPOL     =      0    1-x, 2-y, 3-z, 4-all directions 
   EPSILON    =  1.0000000 bulk dielectric constant
   LVACPOTAV  =      F  vacuum potentials using an averaging scheme for the charge density
   VACPOTFLAT =  0.1000000 required flatness to determine vacuum potential
 Exchange correlation treatment:
   GGA     = PS    functional components
   XC_C    = 1    coefficients multiplying the functional components
   LIBXC   =     F    Libxc                    
   VOSKOWN =     0    Vosko Wilk Nusair interpolation
   LHFCALC =     F    Hartree Fock is set to
   LHFONE  =     F    Hartree Fock one center treatment
   AEXX    =    0.0000 exact exchange contribution

 Parameters of functionals:
   PS:
     No parameter
 
 Van der Waals corrections
   IVDW    =     0    specifies the selected vdW correction

 Linear response parameters
   LEPSILON=     F    determine dielectric tensor
   LRPA    =     F    only Hartree local field effects (RPA)
   LNABLA  =     F    use nabla operator in PAW spheres
   LVEL    =     F    velocity operator in full k-point grid
   CSHIFT  =0.1000    complex shift for real part using Kramers Kronig
   OMEGAMAX=  -1.0    maximum frequency
   DEG_THRESHOLD= 0.2000000E-02 threshold for treating states as degnerate
   RTIME   =   -0.100 relaxation time in fs
  (WPLASMAI=    0.000 imaginary part of plasma frequency in eV, 0.658/RTIME)
   DFIELD  = 0.0000000 0.0000000 0.0000000 field for delta impulse in time
 
  Optional k-point grid parameters
   LKPOINTS_OPT  =     F    use optional k-point grid
   KPOINTS_OPT_MODE=     1    mode for optional k-point grid
 
 Orbital magnetization related:
   ORBITALMAG=     F  switch on orbital magnetization
   LCHIMAG   =     F  perturbation theory with respect to B field
   DQ        =  0.001000  dq finite difference perturbation B field
   LLRAUG    =     F  two centre corrections for induced B field
   LBONE     =     F  B-component reconstruction in AE one-centre
   LVGVCALC  =     T  calculate vGv susceptibility
   LVGVAPPL  =     F  apply vGv susceptibility instead of pGv for G=0

 Random number generation:
   RANDOM_GENERATOR = DEFAULT
   PCG_SEED         = not used


--------------------------------------------------------------------------------------------------------


 conjugate gradient relaxation of ions
 charge density and potential will be updated during run
 non-spin polarized calculation
 RMM-DIIS sequential band-by-band and
  variant of blocked Davidson during initial phase
 perform sub-space diagonalisation
    before iterative eigenvector-optimisation
 modified Broyden-mixing scheme, WC =      100.0
 initial mixing is a Kerker type mixing with AMIX =  0.4000 and BMIX =      1.0000
 Hartree-type preconditioning will be used
 using additional bands           34
 real space projection scheme for non local part
 use partial core corrections
 calculate Harris-corrections to forces 
   (improved forces if not selfconsistent)
 use gradient corrections 
 use of overlap-Matrix (Vanderbilt PP)
 Methfessel and Paxton  Order N= 1 SIGMA  =   0.20


--------------------------------------------------------------------------------------------------------


  energy-cutoff  :      400.00
  volume of cell :     1288.58
      direct lattice vectors                 reciprocal lattice vectors
    10.881865309  0.000000000  0.000000000     0.091896010  0.000000000  0.000000000
     0.000000000 10.881865309  0.000000000     0.000000000  0.091896010  0.000000000
     0.000000000  0.000000000 10.881865309     0.000000000  0.000000000  0.091896010

  length of vectors
    10.881865309 10.881865309 10.881865309     0.091896010  0.091896010  0.091896010


 
 k-points in units of 2pi/SCALE and weight: Automatic mesh                          
   0.00000000  0.00000000  0.00000000       0.125
   0.04594801  0.00000000  0.00000000       0.375
   0.04594801  0.04594801  0.00000000       0.375
   0.04594801  0.04594801  0.04594801       0.125
 
 k-points in reciprocal lattice and weights: Automatic mesh                          
   0.00000000  0.00000000  0.00000000       0.125
   0.50000000  0.00000000  0.00000000       0.375
   0.50000000  0.50000000  0.00000000       0.375
   0.50000000  0.50000000  0.50000000       0.125
 
 position of ions in fractional coordinates (direct lattice) 
   0.00000000  0.00000000  0.00000000
   0.00000000  0.00000000  0.50000000
   0.00000000  0.50000000  0.00000000
   0.00000000  0.50000000  0.50000000
   0.50000000  0.00000000  0.00000000
   0.50000000  0.00000000  0.50000000
   0.50000000  0.50000000  0.00000000
   0.50000000  0.50000000  0.50000000
   0.37500000  0.37500000  0.12500000
   0.37500000  0.37500000  0.62500000
   0.37500000  0.87500000  0.12500000
   0.37500000  0.87500000  0.62500000
   0.87500000  0.37500000  0.12500000
   0.87500000  0.37500000  0.62500000
   0.87500000  0.87500000  0.12500000
   0.87500000  0.87500000  0.62500000
   0.00000000  0.25000000  0.25000000
   0.00000000  0.25000000  0.75000000
   0.00000000  0.75000000  0.25000000
   0.00000000  0.75000000  0.75000000
   0.50000000  0.25000000  0.25000000
   0.50000000  0.25000000  0.75000000
   0.50000000  0.75000000  0.25000000
   0.50000000  0.75000000  0.75000000
   0.37500000  0.12500000  0.37500000
   0.37500000  0.12500000  0.87500000
   0.37500000  0.62500000  0.37500000
   0.37500000  0.62500000  0.87500000
   0.87500000  0.12500000  0.37500000
   0.87500000  0.12500000  0.87500000
   0.87500000  0.62500000  0.37500000
   0.87500000  0.62500000  0.87500000
   0.25000000  0.00000000  0.25000000
   0.25000000  0.00000000  0.75000000
   0.25000000  0.50000000  0.25000000
   0.25000000  0.50000000  0.75000000
   0.75000000  0.00000000  0.25000000
   0.75000000  0.00000000  0.75000000
   0.75000000  0.50000000  0.25000000
   0.75000000  0.50000000  0.75000000
   0.12500000  0.37500000  0.37500000
   0.12500000  0.37500000  0.87500000
   0.12500000  0.87500000  0.37500000
   0.12500000  0.87500000  0.87500000
   0.62500000  0.37500000  0.37500000
   0.62500000  0.37500000  0.87500000
   0.62500000  0.87500000  0.37500000
   0.62500000  0.87500000  0.87500000
   0.25000000  0.25000000  0.00000000
   0.25000000  0.25000000  0.50000000
   0.25000000  0.75000000  0.00000000
   0.25000000  0.75000000  0.50000000
   0.75000000  0.25000000  0.00000000
   0.75000000  0.25000000  0.50000000
   0.75000000  0.75000000  0.00000000
   0.75000000  0.75000000  0.50000000
   0.12500000  0.12500000  0.12500000
   0.12500000  0.12500000  0.62500000
   0.12500000  0.62500000  0.12500000
   0.12500000  0.62500000  0.62500000
   0.62500000  0.12500000  0.12500000
   0.62500000  0.12500000  0.62500000
   0.62500000  0.62500000  0.12500000
   0.62500000  0.62500000  0.62500000
 
 position of ions in cartesian coordinates  (Angst):
   0.00000000  0.00000000  0.00000000
   0.00000000  0.00000000  5.44093265
   0.00000000  5.44093265  0.00000000
   0.00000000  5.44093265  5.44093265
   5.44093265  0.00000000  0.00000000
   5.44093265  0.00000000  5.44093265
   5.44093265  5.44093265  0.00000000
   5.44093265  5.44093265  5.44093265
   4.08069949  4.08069949  1.36023316
   4.08069949  4.08069949  6.80116582
   4.08069949  9.52163215  1.36023316
   4.08069949  9.52163215  6.80116582
   9.52163215  4.08069949  1.36023316
   9.52163215  4.08069949  6.80116582
   9.52163215  9.52163215  1.36023316
   9.52163215  9.52163215  6.80116582
   0.00000000  2.72046633  2.72046633
   0.00000000  2.72046633  8.16139898
   0.00000000  8.16139898  2.72046633
   0.00000000  8.16139898  8.16139898
   5.44093265  2.72046633  2.72046633
   5.44093265  2.72046633  8.16139898
   5.44093265  8.16139898  2.72046633
   5.44093265  8.16139898  8.16139898
   4.08069949  1.36023316  4.08069949
   4.08069949  1.36023316  9.52163215
   4.08069949  6.80116582  4.08069949
   4.08069949  6.80116582  9.52163215
   9.52163215  1.36023316  4.08069949
   9.52163215  1.36023316  9.52163215
   9.52163215  6.80116582  4.08069949
   9.52163215  6.80116582  9.52163215
   2.72046633  0.00000000  2.72046633
   2.72046633  0.00000000  8.16139898
   2.72046633  5.44093265  2.72046633
   2.72046633  5.44093265  8.16139898
   8.16139898  0.00000000  2.72046633
   8.16139898  0.00000000  8.16139898
   8.16139898  5.44093265  2.72046633
   8.16139898  5.44093265  8.16139898
   1.36023316  4.08069949  4.08069949
   1.36023316  4.08069949  9.52163215
   1.36023316  9.52163215  4.08069949
   1.36023316  9.52163215  9.52163215
   6.80116582  4.08069949  4.08069949
   6.80116582  4.08069949  9.52163215
   6.80116582  9.52163215  4.08069949
   6.80116582  9.52163215  9.52163215
   2.72046633  2.72046633  0.00000000
   2.72046633  2.72046633  5.44093265
   2.72046633  8.16139898  0.00000000
   2.72046633  8.16139898  5.44093265
   8.16139898  2.72046633  0.00000000
   8.16139898  2.72046633  5.44093265
   8.16139898  8.16139898  0.00000000
   8.16139898  8.16139898  5.44093265
   1.36023316  1.36023316  1.36023316
   1.36023316  1.36023316  6.80116582
   1.36023316  6.80116582  1.36023316
   1.36023316  6.80116582  6.80116582
   6.80116582  1.36023316  1.36023316
   6.80116582  1.36023316  6.80116582
   6.80116582  6.80116582  1.36023316
   6.80116582  6.80116582  6.80116582
 


--------------------------------------------------------------------------------------------------------


 k-point     1 :   0.0000 0.0000 0.0000  plane waves:   23439
 k-point     2 :   0.5000 0.0000 0.0000  plane waves:   23396
 k-point     3 :   0.5000 0.5000 0.0000  plane waves:   23380
 k-point     4 :   0.5000 0.5000 0.5000  plane waves:   23600

 maximum and minimum number of plane-waves per node :      1983     1922

 maximum number of plane-waves:     23600
 maximum index in each direction: 
   IXMAX=   17   IYMAX=   17   IZMAX=   17
   IXMIN=  -18   IYMIN=  -18   IZMIN=  -18


 real space projection operators:
  total allocation   :      12284.00 KBytes
  max/ min on nodes  :       1038.00        995.00


 parallel 3D FFT for wavefunctions:
    minimum data exchange during FFTs selected (reduces bandwidth)
 parallel 3D FFT for charge:
    minimum data exchange during FFTs selected (reduces bandwidth)


 total amount of memory used by VASP MPI-rank0    71558. kBytes
=======================================================================

   base      :      30000. kBytes
   nonlr-proj:       4681. kBytes
   fftplans  :      19172. kBytes
   grid      :       7278. kBytes
   one-center:         18. kBytes
   wavefun   :      10409. kBytes
 
     INWAV:  cpu time      0.0000: real time      0.0000
 Broyden mixing: mesh for mixing (old mesh)
   NGX = 35   NGY = 35   NGZ = 35
  (NGX  =144   NGY  =144   NGZ  =144)
  gives a total of  42875 points

 initial charge density was supplied:
 charge density of overlapping atoms calculated
 number of electron     256.0000000 magnetization 
 keeping initial charge density in first step


--------------------------------------------------------------------------------------------------------


 Maximum index for non-local projection operator          290
 Maximum index for augmentation-charges         3402 (set IRDMAX)


--------------------------------------------------------------------------------------------------------


 First call to EWALD:  gamma=   0.163
 Maximum number of real-space cells 3x 3x 3
 Maximum number of reciprocal cells 3x 3x 3

    FEWALD:  cpu time      0.0058: real time      0.0058


--------------------------------------- Ionic step        1  -------------------------------------------




--------------------------------------- Iteration      1(   1)  ---------------------------------------


    POTLOK:  cpu time      0.0852: real time      0.0868
    SETDIJ:  cpu time      0.0820: real time      0.0822
     EDDAV:  cpu time      0.7085: real time      0.7536
       DOS:  cpu time      0.0038: real time      0.0038
    --------------------------------------------
      LOOP:  cpu time      0.8795: real time      0.9263

 eigenvalue-minimisations  :  1296
 total energy-change (2. order) : 0.5558047E+03  (-0.8369446E+04)
 number of electron     256.0000000 magnetization 
 augmentation part      256.0000000 magnetization 

 Free energy of the ion-electron system (eV)
  ---------------------------------------------------
  alpha Z        PSCENC =       107.00508449
  Ewald energy   TEWEN  =     -7299.33766899
  -Hartree energ DENC   =      -354.93841849
  -exchange      EXHF   =         0.00000000
  -V(xc)+E(xc)   XCENC  =      -559.26310674
  PAW double counting   =      5598.62625415    -4492.17844134
  entropy T*S    EENTRO =        -0.01043342
  eigenvalues    EBANDS =       991.10557716
  atomic energy  EATOM  =      6564.79586099
  Solvation  Ediel_sol  =         0.00000000
  ---------------------------------------------------
  free energy    TOTEN  =       555.80470781 eV

  energy without entropy =      555.81514123  energy(sigma->0) =      555.80818562


--------------------------------------------------------------------------------------------------------




--------------------------------------- Iteration      1(   2)  ---------------------------------------


     EDDAV:  cpu time      0.7186: real time      0.7256
       DOS:  cpu time      0.0008: real time      0.0008
    --------------------------------------------
      LOOP:  cpu time      0.7193: real time      0.7263

 eigenvalue-minimisations  :  1536
 total energy-change (2. order) :-0.8657114E+03  (-0.8214741E+03)
 number of electron     256.0000000 magnetization 
 augmentation part      256.0000000 magnetization 

 Free energy of the ion-electron system (eV)
  ---------------------------------------------------
  alpha Z        PSCENC =       107.00508449
  Ewald energy   TEWEN  =     -7299.33766899
  -Hartree energ DENC   =      -354.93841849
  -exchange      EXHF   =         0.00000000
  -V(xc)+E(xc)   XCENC  =      -559.26310674
  PAW double counting   =      5598.62625415    -4492.17844134
  entropy T*S    EENTRO =         0.00464599
  eigenvalues    EBANDS =       125.37906063
  atomic energy  EATOM  =      6564.79586099
  Solvation  Ediel_sol  =         0.00000000
  ---------------------------------------------------
  free energy    TOTEN  =      -309.90672931 eV

  energy without entropy =     -309.91137530  energy(sigma->0) =     -309.90827798


--------------------------------------------------------------------------------------------------------




--------------------------------------- Iteration      1(   3)  ---------------------------------------


     EDDAV:  cpu time      0.6994: real time      0.7118
       DOS:  cpu time      0.0011: real time      0.0011
    --------------------------------------------
      LOOP:  cpu time      0.7005: real time      0.7129

 eigenvalue-minimisations  :  1568
 total energy-change (2. order) :-0.6307550E+02  (-0.6182341E+02)
 number of electron     256.0000000 magnetization 
 augmentation part      256.0000000 magnetization 

 Free energy of the ion-electron system (eV)
  ---------------------------------------------------
  alpha Z        PSCENC =       107.00508449
  Ewald energy   TEWEN  =     -7299.33766899
  -Hartree energ DENC   =      -354.93841849
  -exchange      EXHF   =         0.00000000
  -V(xc)+E(xc)   XCENC  =      -559.26310674
  PAW double counting   =      5598.62625415    -4492.17844134
  entropy T*S    EENTRO =         0.00739353
  eigenvalues    EBANDS =        62.30081615
  atomic energy  EATOM  =      6564.79586099
  Solvation  Ediel_sol  =         0.00000000
  ---------------------------------------------------
  free energy    TOTEN  =      -372.98222624 eV

  energy without entropy =     -372.98961977  energy(sigma->0) =     -372.98469075


--------------------------------------------------------------------------------------------------------




--------------------------------------- Iteration      1(   4)  ---------------------------------------


     EDDAV:  cpu time      0.6987: real time      0.7091
       DOS:  cpu time      0.0012: real time      0.0012
    --------------------------------------------
      LOOP:  cpu time      0.6999: real time      0.7104

 eigenvalue-minimisations  :  1552
 total energy-change (2. order) :-0.1682052E+01  (-0.1669962E+01)
 number of electron     256.0000000 magnetization 
 augmentation part      256.0000000 magnetization 

 Free energy of the ion-electron system (eV)
  ---------------------------------------------------
  alpha Z        PSCENC =       107.00508449
  Ewald energy   TEWEN  =     -7299.33766899
  -Hartree energ DENC   =      -354.93841849
  -exchange      EXHF   =         0.00000000
  -V(xc)+E(xc)   XCENC  =      -559.26310674
  PAW double counting   =      5598.62625415    -4492.17844134
  entropy T*S    EENTRO =         0.00851277
  eigenvalues    EBANDS =        60.61764537
  atomic energy  EATOM  =      6564.79586099
  Solvation  Ediel_sol  =         0.00000000
  ---------------------------------------------------
  free energy    TOTEN  =      -374.66427779 eV

  energy without entropy =     -374.67279055  energy(sigma->0) =     -374.66711538


--------------------------------------------------------------------------------------------------------




--------------------------------------- Iteration      1(   5)  ---------------------------------------


     EDDAV:  cpu time      0.7010: real time      0.7155
       DOS:  cpu time      0.0010: real time      0.0010
    CHARGE:  cpu time      0.2587: real time      0.2602
    MIXING:  cpu time      0.0063: real time      0.0064
    --------------------------------------------
      LOOP:  cpu time      0.9671: real time      0.9831

 eigenvalue-minimisations  :  1510
 total energy-change (2. order) :-0.5128223E-01  (-0.5117784E-01)
 number of electron     255.9999996 magnetization 
 augmentation part      -14.9586065 magnetization 

 Broyden mixing:
  rms(total) = 0.27920E+01    rms(broyden)= 0.27920E+01
  rms(prec ) = 0.30807E+01
  weight for this iteration     100.00

 Free energy of the ion-electron system (eV)
  ---------------------------------------------------
  alpha Z        PSCENC =       107.00508449
  Ewald energy   TEWEN  =     -7299.33766899
  -Hartree energ DENC   =      -354.93841849
  -exchange      EXHF   =         0.00000000
  -V(xc)+E(xc)   XCENC  =      -559.26310674
  PAW double counting   =      5598.62625415    -4492.17844134
  entropy T*S    EENTRO =         0.00852614
  eigenvalues    EBANDS =        60.56634976
  atomic energy  EATOM  =      6564.79586099
  Solvation  Ediel_sol  =         0.00000000
  ---------------------------------------------------
  free energy    TOTEN  =      -374.71556002 eV

  energy without entropy =     -374.72408616  energy(sigma->0) =     -374.71840207


--------------------------------------------------------------------------------------------------------




--------------------------------------- Iteration      1(   6)  ---------------------------------------


    POTLOK:  cpu time      0.0848: real time      0.0946
    SETDIJ:  cpu time      0.0725: real time      0.0727
    EDDIAG:  cpu time      0.0680: real time      0.0685
  RMM-DIIS:  cpu time      0.3675: real time      0.3946
    ORTHCH:  cpu time      0.0104: real time      0.0104
       DOS:  cpu time      0.0015: real time      0.0015
    CHARGE:  cpu time      0.2492: real time      0.2498
    MIXING:  cpu time      0.0066: real time      0.0081
    --------------------------------------------
      LOOP:  cpu time      0.8605: real time      0.9002

 eigenvalue-minimisations  :  1296
 total energy-change (2. order) : 0.4893361E+01  (-0.2410092E+00)
 number of electron     255.9999996 magnetization 
 augmentation part      -14.8025700 magnetization 

 Broyden mixing:
  rms(total) = 0.16784E+01    rms(broyden)= 0.16784E+01
  rms(prec ) = 0.18446E+01
  weight for this iteration     100.00

 eigenvalues of (default mixing * dielectric matrix)
  average eigenvalue GAMMA=   2.5023
  2.5023

 Free energy of the ion-electron system (eV)
  ---------------------------------------------------
  alpha Z        PSCENC =       107.00508449
  Ewald energy   TEWEN  =     -7299.33766899
  -Hartree energ DENC   =      -400.75552083
  -exchange      EXHF   =         0.00000000
  -V(xc)+E(xc)   XCENC  =      -552.02591430
  PAW double counting   =     12245.12852905   -11141.87321818
  entropy T*S    EENTRO =         0.00861412
  eigenvalues    EBANDS =       107.23203421
  atomic energy  EATOM  =      6564.79586099
  Solvation  Ediel_sol  =         0.00000000
  ---------------------------------------------------
  free energy    TOTEN  =      -369.82219944 eV

  energy without entropy =     -369.83081356  energy(sigma->0) =     -369.82507081


--------------------------------------------------------------------------------------------------------




--------------------------------------- Iteration      1(   7)  ---------------------------------------


    POTLOK:  cpu time      0.0792: real time      0.0930
    SETDIJ:  cpu time      0.0708: real time      0.0710
    EDDIAG:  cpu time      0.0677: real time      0.0679
  RMM-DIIS:  cpu time      0.3743: real time      0.3753
    ORTHCH:  cpu time      0.0102: real time      0.0102
       DOS:  cpu time      0.0011: real time      0.0011
    CHARGE:  cpu time      0.2491: real time      0.2497
    MIXING:  cpu time      0.0054: real time      0.0054
    --------------------------------------------
      LOOP:  cpu time      0.8578: real time      0.8734

 eigenvalue-minimisations  :  1322
 total energy-change (2. order) : 0.2251567E+01  (-0.6284101E+00)
 number of electron     255.9999996 magnetization 
 augmentation part      -14.5833248 magnetization 

 Broyden mixing:
  rms(total) = 0.93069E-01    rms(broyden)= 0.93068E-01
  rms(prec ) = 0.11732E+00
  weight for this iteration     100.00

 eigenvalues of (default mixing * dielectric matrix)
  average eigenvalue GAMMA=   2.2293
  2.2293  2.2293

 Free energy of the ion-electron system (eV)
  ---------------------------------------------------
  alpha Z        PSCENC =       107.00508449
  Ewald energy   TEWEN  =     -7299.33766899
  -Hartree energ DENC   =      -476.61913306
  -exchange      EXHF   =         0.00000000
  -V(xc)+E(xc)   XCENC  =      -539.48086433
  PAW double counting   =     28022.59841710   -26923.73667216
  entropy T*S    EENTRO =         0.02830968
  eigenvalues    EBANDS =       177.17603399
  atomic energy  EATOM  =      6564.79586099
  Solvation  Ediel_sol  =         0.00000000
  ---------------------------------------------------
  free energy    TOTEN  =      -367.57063229 eV

  energy without entropy =     -367.59894196  energy(sigma->0) =     -367.58006885


--------------------------------------------------------------------------------------------------------




--------------------------------------- Iteration      1(   8)  ---------------------------------------


    POTLOK:  cpu time      0.0772: real time      0.0918
    SETDIJ:  cpu time      0.0714: real time      0.0716
    EDDIAG:  cpu time      0.0656: real time      0.0657
  RMM-DIIS:  cpu time      0.3753: real time      0.3762
    ORTHCH:  cpu time      0.0103: real time      0.0103
       DOS:  cpu time      0.0010: real time      0.0010
    CHARGE:  cpu time      0.2481: real time      0.2487
    MIXING:  cpu time      0.0055: real time      0.0055
    --------------------------------------------
      LOOP:  cpu time      0.8545: real time      0.8709

 eigenvalue-minimisations  :  1310
 total energy-change (2. order) :-0.3806527E-01  (-0.5528951E-01)
 number of electron     255.9999996 magnetization 
 augmentation part      -14.6337206 magnetization 

 Broyden mixing:
  rms(total) = 0.48021E-01    rms(broyden)= 0.48021E-01
  rms(prec ) = 0.51597E-01
  weight for this iteration     100.00

 eigenvalues of (default mixing * dielectric matrix)
  average eigenvalue GAMMA=   2.0538
  2.5294  1.8160  1.8160

 Free energy of the ion-electron system (eV)
  ---------------------------------------------------
  alpha Z        PSCENC =       107.00508449
  Ewald energy   TEWEN  =     -7299.33766899
  -Hartree energ DENC   =      -469.75831221
  -exchange      EXHF   =         0.00000000
  -V(xc)+E(xc)   XCENC  =      -540.03882979
  PAW double counting   =     27632.45459122   -26532.75232695
  entropy T*S    EENTRO =         0.02554468
  eigenvalues    EBANDS =       169.99735900
  atomic energy  EATOM  =      6564.79586099
  Solvation  Ediel_sol  =         0.00000000
  ---------------------------------------------------
  free energy    TOTEN  =      -367.60869755 eV

  energy without entropy =     -367.63424223  energy(sigma->0) =     -367.61721245


--------------------------------------------------------------------------------------------------------




--------------------------------------- Iteration      1(   9)  ---------------------------------------


    POTLOK:  cpu time      0.0819: real time      0.0962
    SETDIJ:  cpu time      0.0693: real time      0.0694
    EDDIAG:  cpu time      0.0661: real time      0.0662
  RMM-DIIS:  cpu time      0.3783: real time      0.3792
    ORTHCH:  cpu time      0.0109: real time      0.0109
       DOS:  cpu time      0.0011: real time      0.0011
    CHARGE:  cpu time      0.2481: real time      0.2487
    MIXING:  cpu time      0.0058: real time      0.0058
    --------------------------------------------
      LOOP:  cpu time      0.8613: real time      0.8774

 eigenvalue-minimisations  :  1322
 total energy-change (2. order) :-0.1798256E-01  (-0.1651742E-01)
 number of electron     255.9999996 magnetization 
 augmentation part      -14.6247373 magnetization 

 Broyden mixing:
  rms(total) = 0.56427E-01    rms(broyden)= 0.56427E-01
  rms(prec ) = 0.62625E-01
  weight for this iteration     100.00

 eigenvalues of (default mixing * dielectric matrix)
  average eigenvalue GAMMA=   1.7795
  2.5211  2.1321  2.1321  0.3329

 Free energy of the ion-electron system (eV)
  ---------------------------------------------------
  alpha Z        PSCENC =       107.00508449
  Ewald energy   TEWEN  =     -7299.33766899
  -Hartree energ DENC   =      -472.27779143
  -exchange      EXHF   =         0.00000000
  -V(xc)+E(xc)   XCENC  =      -539.68807200
  PAW double counting   =     27937.78767514   -26838.27498188
  entropy T*S    EENTRO =         0.02610189
  eigenvalues    EBANDS =       172.33711166
  atomic energy  EATOM  =      6564.79586099
  Solvation  Ediel_sol  =         0.00000000
  ---------------------------------------------------
  free energy    TOTEN  =      -367.62668011 eV

  energy without entropy =     -367.65278200  energy(sigma->0) =     -367.63538074


--------------------------------------------------------------------------------------------------------




--------------------------------------- Iteration      1(  10)  ---------------------------------------


    POTLOK:  cpu time      0.0801: real time      0.0939
    SETDIJ:  cpu time      0.0708: real time      0.0710
    EDDIAG:  cpu time      0.0667: real time      0.0668
  RMM-DIIS:  cpu time      0.3885: real time      0.3895
    ORTHCH:  cpu time      0.0106: real time      0.0106
       DOS:  cpu time      0.0010: real time      0.0010
    CHARGE:  cpu time      0.2483: real time      0.2489
    MIXING:  cpu time      0.0057: real time      0.0058
    --------------------------------------------
      LOOP:  cpu time      0.8717: real time      0.8875

 eigenvalue-minimisations  :  1354
 total energy-change (2. order) :-0.2889567E-02  (-0.2895046E-02)
 number of electron     255.9999996 magnetization 
 augmentation part      -14.6313984 magnetization 

 Broyden mixing:
  rms(total) = 0.68222E-01    rms(broyden)= 0.68222E-01
  rms(prec ) = 0.73512E-01
  weight for this iteration     100.00

 eigenvalues of (default mixing * dielectric matrix)
  average eigenvalue GAMMA=   1.4770
  2.6191  2.0656  1.9174  0.6530  0.1300

 Free energy of the ion-electron system (eV)
  ---------------------------------------------------
  alpha Z        PSCENC =       107.00508449
  Ewald energy   TEWEN  =     -7299.33766899
  -Hartree energ DENC   =      -472.25818887
  -exchange      EXHF   =         0.00000000
  -V(xc)+E(xc)   XCENC  =      -539.69015783
  PAW double counting   =     27932.11631670   -26832.60291348
  entropy T*S    EENTRO =         0.02609359
  eigenvalues    EBANDS =       172.31600374
  atomic energy  EATOM  =      6564.79586099
  Solvation  Ediel_sol  =         0.00000000
  ---------------------------------------------------
  free energy    TOTEN  =      -367.62956968 eV

  energy without entropy =     -367.65566326  energy(sigma->0) =     -367.63826754


--------------------------------------------------------------------------------------------------------




--------------------------------------- Iteration      1(  11)  ---------------------------------------


    POTLOK:  cpu time      0.0810: real time      0.0941
    SETDIJ:  cpu time      0.0711: real time      0.0712
    EDDIAG:  cpu time      0.0668: real time      0.0669
  RMM-DIIS:  cpu time      0.3641: real time      0.3650
    ORTHCH:  cpu time      0.0102: real time      0.0103
       DOS:  cpu time      0.0012: real time      0.0012
    CHARGE:  cpu time      0.2497: real time      0.2503
    MIXING:  cpu time      0.0053: real time      0.0053
    --------------------------------------------
      LOOP:  cpu time      0.8493: real time      0.8643

 eigenvalue-minimisations  :  1296
 total energy-change (2. order) : 0.1497746E-02  (-0.9557718E-03)
 number of electron     255.9999996 magnetization 
 augmentation part      -14.6441200 magnetization 

 Broyden mixing:
  rms(total) = 0.81938E-01    rms(broyden)= 0.81938E-01
  rms(prec ) = 0.82664E-01
  weight for this iteration     100.00

 eigenvalues of (default mixing * dielectric matrix)
  average eigenvalue GAMMA=   1.2961
  2.5088  2.5088  1.4135  0.5653  0.5653  0.2149

 Free energy of the ion-electron system (eV)
  ---------------------------------------------------
  alpha Z        PSCENC =       107.00508449
  Ewald energy   TEWEN  =     -7299.33766899
  -Hartree energ DENC   =      -470.27449804
  -exchange      EXHF   =         0.00000000
  -V(xc)+E(xc)   XCENC  =      -539.80656962
  PAW double counting   =     27960.31798258   -26860.56985442
  entropy T*S    EENTRO =         0.02530303
  eigenvalues    EBANDS =       170.21628805
  atomic energy  EATOM  =      6564.79586099
  Solvation  Ediel_sol  =         0.00000000
  ---------------------------------------------------
  free energy    TOTEN  =      -367.62807193 eV

  energy without entropy =     -367.65337496  energy(sigma->0) =     -367.63650627


--------------------------------------------------------------------------------------------------------




--------------------------------------- Iteration      1(  12)  ---------------------------------------


    POTLOK:  cpu time      0.0829: real time      0.0974
    SETDIJ:  cpu time      0.0696: real time      0.0698
    EDDIAG:  cpu time      0.0665: real time      0.0667
  RMM-DIIS:  cpu time      0.3679: real time      0.3688
    ORTHCH:  cpu time      0.0106: real time      0.0106
       DOS:  cpu time      0.0009: real time      0.0009
    CHARGE:  cpu time      0.2490: real time      0.2496
    MIXING:  cpu time      0.0061: real time      0.0061
    --------------------------------------------
      LOOP:  cpu time      0.8537: real time      0.8700

 eigenvalue-minimisations  :  1304
 total energy-change (2. order) : 0.1159884E-03  (-0.1720855E-03)
 number of electron     255.9999996 magnetization 
 augmentation part      -14.6483094 magnetization 

 Broyden mixing:
  rms(total) = 0.98105E-01    rms(broyden)= 0.98105E-01
  rms(prec ) = 0.98765E-01
  weight for this iteration     100.00

 eigenvalues of (default mixing * dielectric matrix)
  average eigenvalue GAMMA=   1.1957
  2.5008  2.5008  1.4012  0.6587  0.5355  0.5355  0.2374

 Free energy of the ion-electron system (eV)
  ---------------------------------------------------
  alpha Z        PSCENC =       107.00508449
  Ewald energy   TEWEN  =     -7299.33766899
  -Hartree energ DENC   =      -469.91677078
  -exchange      EXHF   =         0.00000000
  -V(xc)+E(xc)   XCENC  =      -539.85200891
  PAW double counting   =     27930.89750977   -26831.14702336
  entropy T*S    EENTRO =         0.02525955
  eigenvalues    EBANDS =       169.90180128
  atomic energy  EATOM  =      6564.79586099
  Solvation  Ediel_sol  =         0.00000000
  ---------------------------------------------------
  free energy    TOTEN  =      -367.62795594 eV

  energy without entropy =     -367.65321549  energy(sigma->0) =     -367.63637579


--------------------------------------------------------------------------------------------------------




--------------------------------------- Iteration      1(  13)  ---------------------------------------


    POTLOK:  cpu time      0.0782: real time      0.0942
    SETDIJ:  cpu time      0.0758: real time      0.0760
    EDDIAG:  cpu time      0.0703: real time      0.0704
  RMM-DIIS:  cpu time      0.3845: real time      0.3854
    ORTHCH:  cpu time      0.0107: real time      0.0107
       DOS:  cpu time      0.0014: real time      0.0014
    CHARGE:  cpu time      0.2516: real time      0.2522
    MIXING:  cpu time      0.0061: real time      0.0062
    --------------------------------------------
      LOOP:  cpu time      0.8785: real time      0.8964

 eigenvalue-minimisations  :  1368
 total energy-change (2. order) :-0.1459024E-03  (-0.3305317E-04)
 number of electron     255.9999996 magnetization 
 augmentation part      -14.6485327 magnetization 

 Broyden mixing:
  rms(total) = 0.95638E-01    rms(broyden)= 0.95638E-01
  rms(prec ) = 0.96224E-01
  weight for this iteration     100.00

 eigenvalues of (default mixing * dielectric matrix)
  average eigenvalue GAMMA=   1.5163
  2.3729  2.3729  2.5916  1.8196  1.2265  0.7482  0.7482  0.2507

 Free energy of the ion-electron system (eV)
  ---------------------------------------------------
  alpha Z        PSCENC =       107.00508449
  Ewald energy   TEWEN  =     -7299.33766899
  -Hartree energ DENC   =      -469.99123600
  -exchange      EXHF   =         0.00000000
  -V(xc)+E(xc)   XCENC  =      -539.84487481
  PAW double counting   =     27928.40688003   -26828.65704362
  entropy T*S    EENTRO =         0.02525859
  eigenvalues    EBANDS =       169.96963747
  atomic energy  EATOM  =      6564.79586099
  Solvation  Ediel_sol  =         0.00000000
  ---------------------------------------------------
  free energy    TOTEN  =      -367.62810184 eV

  energy without entropy =     -367.65336043  energy(sigma->0) =     -367.63652137


--------------------------------------------------------------------------------------------------------




--------------------------------------- Iteration      1(  14)  ---------------------------------------


    POTLOK:  cpu time      0.0853: real time      0.0983
    SETDIJ:  cpu time      0.0710: real time      0.0711
    EDDIAG:  cpu time      0.0678: real time      0.0680
  RMM-DIIS:  cpu time      0.3661: real time      0.3670
    ORTHCH:  cpu time      0.0106: real time      0.0106
       DOS:  cpu time      0.0012: real time      0.0012
    CHARGE:  cpu time      0.2500: real time      0.2506
    MIXING:  cpu time      0.0055: real time      0.0056
    --------------------------------------------
      LOOP:  cpu time      0.8575: real time      0.8723

 eigenvalue-minimisations  :  1296
 total energy-change (2. order) : 0.1725203E-02  (-0.6768494E-04)
 number of electron     255.9999996 magnetization 
 augmentation part      -14.6506815 magnetization 

 Broyden mixing:
  rms(total) = 0.15065E+00    rms(broyden)= 0.15065E+00
  rms(prec ) = 0.15201E+00
  weight for this iteration     100.00

 eigenvalues of (default mixing * dielectric matrix)
  average eigenvalue GAMMA=   1.5485
  3.2910  2.3930  2.3930  1.4833  1.4833  1.0792  0.7814  0.7814  0.2511

 Free energy of the ion-electron system (eV)
  ---------------------------------------------------
  alpha Z        PSCENC =       107.00508449
  Ewald energy   TEWEN  =     -7299.33766899
  -Hartree energ DENC   =      -469.31306961
  -exchange      EXHF   =         0.00000000
  -V(xc)+E(xc)   XCENC  =      -539.89520630
  PAW double counting   =     28063.58275863   -26963.85110225
  entropy T*S    EENTRO =         0.02529452
  eigenvalues    EBANDS =       169.36167187
  atomic energy  EATOM  =      6564.79586099
  Solvation  Ediel_sol  =         0.00000000
  ---------------------------------------------------
  free energy    TOTEN  =      -367.62637664 eV

  energy without entropy =     -367.65167116  energy(sigma->0) =     -367.63480815


--------------------------------------------------------------------------------------------------------




--------------------------------------- Iteration      1(  15)  ---------------------------------------


    POTLOK:  cpu time      0.0838: real time      0.0991
    SETDIJ:  cpu time      0.0699: real time      0.0700
    EDDIAG:  cpu time      0.0671: real time      0.0673
  RMM-DIIS:  cpu time      0.3664: real time      0.3673
    ORTHCH:  cpu time      0.0102: real time      0.0103
       DOS:  cpu time      0.0010: real time      0.0010
    CHARGE:  cpu time      0.2492: real time      0.2498
    MIXING:  cpu time      0.0055: real time      0.0055
    --------------------------------------------
      LOOP:  cpu time      0.8532: real time      0.8703

 eigenvalue-minimisations  :  1299
 total energy-change (2. order) : 0.2205745E-03  (-0.1601608E-04)
 number of electron     255.9999996 magnetization 
 augmentation part      -14.6527694 magnetization 

 Broyden mixing:
  rms(total) = 0.16554E+00    rms(broyden)= 0.16554E+00
  rms(prec ) = 0.16700E+00
  weight for this iteration     100.00

 eigenvalues of (default mixing * dielectric matrix)
  average eigenvalue GAMMA=   1.4922
  3.1131  2.4920  2.4920  1.7569  1.7569  0.2511  0.9670  0.7103  0.7103  0.6727

 Free energy of the ion-electron system (eV)
  ---------------------------------------------------
  alpha Z        PSCENC =       107.00508449
  Ewald energy   TEWEN  =     -7299.33766899
  -Hartree energ DENC   =      -469.06415663
  -exchange      EXHF   =         0.00000000
  -V(xc)+E(xc)   XCENC  =      -539.91063811
  PAW double counting   =     28111.33375995   -27011.59186443
  entropy T*S    EENTRO =         0.02525358
  eigenvalues    EBANDS =       169.11821308
  atomic energy  EATOM  =      6564.79586099
  Solvation  Ediel_sol  =         0.00000000
  ---------------------------------------------------
  free energy    TOTEN  =      -367.62615607 eV

  energy without entropy =     -367.65140965  energy(sigma->0) =     -367.63457393


--------------------------------------------------------------------------------------------------------




--------------------------------------- Iteration      1(  16)  ---------------------------------------


    POTLOK:  cpu time      0.0850: real time      0.0984
    SETDIJ:  cpu time      0.0682: real time      0.0683
    EDDIAG:  cpu time      0.0655: real time      0.0657
  RMM-DIIS:  cpu time      0.3792: real time      0.3802
    ORTHCH:  cpu time      0.0105: real time      0.0106
       DOS:  cpu time      0.0009: real time      0.0009
    CHARGE:  cpu time      0.2481: real time      0.2487
    MIXING:  cpu time      0.0059: real time      0.0059
    --------------------------------------------
      LOOP:  cpu time      0.8634: real time      0.8787

 eigenvalue-minimisations  :  1338
 total energy-change (2. order) :-0.8764763E-04  (-0.2013056E-05)
 number of electron     255.9999996 magnetization 
 augmentation part      -14.6528733 magnetization 

 Broyden mixing:
  rms(total) = 0.16153E+00    rms(broyden)= 0.16153E+00
  rms(prec ) = 0.16297E+00
  weight for this iteration     100.00

 eigenvalues of (default mixing * dielectric matrix)
  average eigenvalue GAMMA=   1.7857
  4.6791  2.8627  2.6352  2.6352  2.1949  0.2511  1.1815  0.9553  0.7485  0.7485
  0.7502

 Free energy of the ion-electron system (eV)
  ---------------------------------------------------
  alpha Z        PSCENC =       107.00508449
  Ewald energy   TEWEN  =     -7299.33766899
  -Hartree energ DENC   =      -469.08076196
  -exchange      EXHF   =         0.00000000
  -V(xc)+E(xc)   XCENC  =      -539.91142308
  PAW double counting   =     28087.40836229   -26987.66701685
  entropy T*S    EENTRO =         0.02525156
  eigenvalues    EBANDS =       169.13606783
  atomic energy  EATOM  =      6564.79586099
  Solvation  Ediel_sol  =         0.00000000
  ---------------------------------------------------
  free energy    TOTEN  =      -367.62624371 eV

  energy without entropy =     -367.65149527  energy(sigma->0) =     -367.63466090


--------------------------------------------------------------------------------------------------------




--------------------------------------- Iteration      1(  17)  ---------------------------------------


    POTLOK:  cpu time      0.0830: real time      0.1002
    SETDIJ:  cpu time      0.0682: real time      0.0684
    EDDIAG:  cpu time      0.0657: real time      0.0659
  RMM-DIIS:  cpu time      0.3861: real time      0.3871
    ORTHCH:  cpu time      0.0104: real time      0.0104
       DOS:  cpu time      0.0009: real time      0.0009
    CHARGE:  cpu time      0.2484: real time      0.2490
    MIXING:  cpu time      0.0059: real time      0.0059
    --------------------------------------------
      LOOP:  cpu time      0.8687: real time      0.8877

 eigenvalue-minimisations  :  1350
 total energy-change (2. order) :-0.1066463E-02  (-0.1634070E-04)
 number of electron     255.9999996 magnetization 
 augmentation part      -14.6526415 magnetization 

 Broyden mixing:
  rms(total) = 0.10436E+00    rms(broyden)= 0.10436E+00
  rms(prec ) = 0.10558E+00
  weight for this iteration     100.00

 eigenvalues of (default mixing * dielectric matrix)
  average eigenvalue GAMMA=   2.3323
 12.9301  2.5960  2.5960  2.5157  0.2511  1.3852  1.3852  1.1351  0.7767  0.7767
  0.9075  0.7319

 Free energy of the ion-electron system (eV)
  ---------------------------------------------------
  alpha Z        PSCENC =       107.00508449
  Ewald energy   TEWEN  =     -7299.33766899
  -Hartree energ DENC   =      -469.09864595
  -exchange      EXHF   =         0.00000000
  -V(xc)+E(xc)   XCENC  =      -539.93813743
  PAW double counting   =     27774.08476732   -26674.34719682
  entropy T*S    EENTRO =         0.02517262
  eigenvalues    EBANDS =       169.18345359
  atomic energy  EATOM  =      6564.79586099
  Solvation  Ediel_sol  =         0.00000000
  ---------------------------------------------------
  free energy    TOTEN  =      -367.62731018 eV

  energy without entropy =     -367.65248280  energy(sigma->0) =     -367.63570105


--------------------------------------------------------------------------------------------------------




--------------------------------------- Iteration      1(  18)  ---------------------------------------


    POTLOK:  cpu time      0.0772: real time      0.0928
    SETDIJ:  cpu time      0.0727: real time      0.0728
    EDDIAG:  cpu time      0.0655: real time      0.0657
  RMM-DIIS:  cpu time      0.5100: real time      0.5112
    ORTHCH:  cpu time      0.0102: real time      0.0102
       DOS:  cpu time      0.0012: real time      0.0012
    CHARGE:  cpu time      0.2480: real time      0.2486
    MIXING:  cpu time      0.0062: real time      0.0062
    --------------------------------------------
      LOOP:  cpu time      0.9909: real time      1.0087

 eigenvalue-minimisations  :  1747
 total energy-change (2. order) :-0.1149070E-02  (-0.5783624E-04)
 number of electron     255.9999996 magnetization 
 augmentation part      -14.6498043 magnetization 

 Broyden mixing:
  rms(total) = 0.29295E-01    rms(broyden)= 0.29295E-01
  rms(prec ) = 0.29915E-01
  weight for this iteration     100.00

 eigenvalues of (default mixing * dielectric matrix)
  average eigenvalue GAMMA=   1.6824
  3.5283  2.4545  2.4545  2.8537  2.6458  2.2860  0.2511  1.1460  0.9907  0.9907
  0.7553  0.7553  0.7599

 Free energy of the ion-electron system (eV)
  ---------------------------------------------------
  alpha Z        PSCENC =       107.00508449
  Ewald energy   TEWEN  =     -7299.33766899
  -Hartree energ DENC   =      -469.59475660
  -exchange      EXHF   =         0.00000000
  -V(xc)+E(xc)   XCENC  =      -539.91374303
  PAW double counting   =     27474.88263890   -26375.16374358
  entropy T*S    EENTRO =         0.02511792
  eigenvalues    EBANDS =       169.67275065
  atomic energy  EATOM  =      6564.79586099
  Solvation  Ediel_sol  =         0.00000000
  ---------------------------------------------------
  free energy    TOTEN  =      -367.62845925 eV

  energy without entropy =     -367.65357716  energy(sigma->0) =     -367.63683189


--------------------------------------------------------------------------------------------------------




--------------------------------------- Iteration      1(  19)  ---------------------------------------


    POTLOK:  cpu time      0.0775: real time      0.0938
    SETDIJ:  cpu time      0.0732: real time      0.0734
    EDDIAG:  cpu time      0.0659: real time      0.0661
  RMM-DIIS:  cpu time      0.3784: real time      0.3793
    ORTHCH:  cpu time      0.0104: real time      0.0104
       DOS:  cpu time      0.0011: real time      0.0011
    CHARGE:  cpu time      0.2486: real time      0.2492
    MIXING:  cpu time      0.0055: real time      0.0055
    --------------------------------------------
      LOOP:  cpu time      0.8606: real time      0.8788

 eigenvalue-minimisations  :  1324
 total energy-change (2. order) :-0.1340425E-03  (-0.1753627E-04)
 number of electron     255.9999996 magnetization 
 augmentation part      -14.6480959 magnetization 

 Broyden mixing:
  rms(total) = 0.36561E-02    rms(broyden)= 0.36561E-02
  rms(prec ) = 0.39244E-02
  weight for this iteration     100.00

 eigenvalues of (default mixing * dielectric matrix)
  average eigenvalue GAMMA=   1.6962
  4.7465  2.2037  2.2037  2.9087  2.5888  2.2021  1.6701  0.2511  1.0649  0.7592
  0.7592  0.9047  0.7421  0.7421

 Free energy of the ion-electron system (eV)
  ---------------------------------------------------
  alpha Z        PSCENC =       107.00508449
  Ewald energy   TEWEN  =     -7299.33766899
  -Hartree energ DENC   =      -470.03803509
  -exchange      EXHF   =         0.00000000
  -V(xc)+E(xc)   XCENC  =      -539.87233945
  PAW double counting   =     27425.21064993   -26325.50523291
  entropy T*S    EENTRO =         0.02513981
  eigenvalues    EBANDS =       170.08794792
  atomic energy  EATOM  =      6564.79586099
  Solvation  Ediel_sol  =         0.00000000
  ---------------------------------------------------
  free energy    TOTEN  =      -367.62859329 eV

  energy without entropy =     -367.65373310  energy(sigma->0) =     -367.63697323


--------------------------------------------------------------------------------------------------------




--------------------------------------- Iteration      1(  20)  ---------------------------------------


    POTLOK:  cpu time      0.0849: real time      0.1002
    SETDIJ:  cpu time      0.0700: real time      0.0702
    EDDIAG:  cpu time      0.0664: real time      0.0665
  RMM-DIIS:  cpu time      0.3673: real time      0.3682
    ORTHCH:  cpu time      0.0108: real time      0.0108
       DOS:  cpu time      0.0011: real time      0.0011
    CHARGE:  cpu time      0.2490: real time      0.2497
    MIXING:  cpu time      0.0063: real time      0.0063
    --------------------------------------------
      LOOP:  cpu time      0.8557: real time      0.8728

 eigenvalue-minimisations  :  1300
 total energy-change (2. order) :-0.7585250E-05  (-0.4677432E-05)
 number of electron     255.9999996 magnetization 
 augmentation part      -14.6471601 magnetization 

 Broyden mixing:
  rms(total) = 0.33721E-03    rms(broyden)= 0.33721E-03
  rms(prec ) = 0.34814E-03
  weight for this iteration     100.00

 eigenvalues of (default mixing * dielectric matrix)
  average eigenvalue GAMMA=   1.7776
  6.5078  2.8770  2.6992  2.2039  2.2039  1.6441  1.6441  0.2511  1.6355  0.7489
  0.7489  0.8992  0.8992  0.9072  0.7934

 Free energy of the ion-electron system (eV)
  ---------------------------------------------------
  alpha Z        PSCENC =       107.00508449
  Ewald energy   TEWEN  =     -7299.33766899
  -Hartree energ DENC   =      -470.19383634
  -exchange      EXHF   =         0.00000000
  -V(xc)+E(xc)   XCENC  =      -539.85620674
  PAW double counting   =     27432.83894502   -26333.13806654
  entropy T*S    EENTRO =         0.02515992
  eigenvalues    EBANDS =       170.23212731
  atomic energy  EATOM  =      6564.79586099
  Solvation  Ediel_sol  =         0.00000000
  ---------------------------------------------------
  free energy    TOTEN  =      -367.62860087 eV

  energy without entropy =     -367.65376080  energy(sigma->0) =     -367.63698752


--------------------------------------------------------------------------------------------------------




--------------------------------------- Iteration      1(  21)  ---------------------------------------


    POTLOK:  cpu time      0.0772: real time      0.0933
    SETDIJ:  cpu time      0.0739: real time      0.0740
    EDDIAG:  cpu time      0.0656: real time      0.0657
  RMM-DIIS:  cpu time      0.3135: real time      0.3142
    ORTHCH:  cpu time      0.0100: real time      0.0100
       DOS:  cpu time      0.0011: real time      0.0011
    --------------------------------------------
      LOOP:  cpu time      0.5412: real time      0.5584

 eigenvalue-minimisations  :  1076
 total energy-change (2. order) :-0.4935864E-06  (-0.6653106E-06)
 number of electron     255.9999996 magnetization 
 augmentation part      -14.6471601 magnetization 

 Free energy of the ion-electron system (eV)
  ---------------------------------------------------
  alpha Z        PSCENC =       107.00508449
  Ewald energy   TEWEN  =     -7299.33766899
  -Hartree energ DENC   =      -470.21391392
  -exchange      EXHF   =         0.00000000
  -V(xc)+E(xc)   XCENC  =      -539.85343208
  PAW double counting   =     27437.90384739   -26338.20283826
  entropy T*S    EENTRO =         0.02516416
  eigenvalues    EBANDS =       170.24929485
  atomic energy  EATOM  =      6564.79586099
  Solvation  Ediel_sol  =         0.00000000
  ---------------------------------------------------
  free energy    TOTEN  =      -367.62860137 eV

  energy without entropy =     -367.65376553  energy(sigma->0) =     -367.63698942


--------------------------------------------------------------------------------------------------------




 average (electrostatic) potential at core
  the test charge radii are     0.9892
  (the norm of the test charge is              1.0000)
       1 -83.0950       2 -83.0950       3 -83.0950       4 -83.0950       5 -83.0950
       6 -83.0950       7 -83.0950       8 -83.0950       9 -83.0950      10 -83.0950
      11 -83.0950      12 -83.0950      13 -83.0950      14 -83.0950      15 -83.0950
      16 -83.0950      17 -83.0950      18 -83.0950      19 -83.0950      20 -83.0950
      21 -83.0950      22 -83.0950      23 -83.0950      24 -83.0950      25 -83.0950
      26 -83.0950      27 -83.0950      28 -83.0950      29 -83.0950      30 -83.0950
      31 -83.0950      32 -83.0950      33 -83.0950      34 -83.0950      35 -83.0950
      36 -83.0950      37 -83.0950      38 -83.0950      39 -83.0950      40 -83.0950
      41 -83.0950      42 -83.0950      43 -83.0950      44 -83.0950      45 -83.0950
      46 -83.0950      47 -83.0950      48 -83.0950      49 -83.0950      50 -83.0950
      51 -83.0950      52 -83.0950      53 -83.0950      54 -83.0950      55 -83.0950
      56 -83.0950      57 -83.0950      58 -83.0950      59 -83.0950      60 -83.0950
      61 -83.0950      62 -83.0950      63 -83.0950      64 -83.0950
 
 
 
 E-fermi :   6.1000     XC(G=0):  -9.5308     alpha+bet :-11.9124

 val. band max:        5.7358680801   @ k =   0.0000   0.0000   0.0000
 cond. band min:       6.2471865573   @ k =   0.5000   0.0000   0.0000
 fundamental gap:      0.5113184772
 Fermi energy:         6.0999798620

 k-point     1 :       0.0000    0.0000    0.0000
  band No.  band energies     occupation 
      1      -6.2168      2.00000
      2      -5.1358      2.00000
      3      -5.1358      2.00000
      4      -5.1358      2.00000
      5      -5.1358      2.00000
      6      -5.1358      2.00000
      7      -5.1358      2.00000
      8      -4.1731      2.00000
      9      -4.1731      2.00000
     10      -4.1731      2.00000
     11      -4.1731      2.00000
     12      -4.1731      2.00000
     13      -4.1731      2.00000
     14      -4.1731      2.00000
     15      -4.1731      2.00000
     16      -4.1731      2.00000
     17      -4.1731      2.00000
     18      -4.1731      2.00000
     19      -4.1731      2.00000
     20      -3.8810      2.00000
     21      -3.8810      2.00000
     22      -3.8810      2.00000
     23      -3.8810      2.00000
     24      -2.0761      2.00000
     25      -2.0761      2.00000
     26      -2.0761      2.00000
     27      -2.0761      2.00000
     28      -2.0761      2.00000
     29      -2.0761      2.00000
     30      -1.9085      2.00000
     31      -1.9085      2.00000
     32      -1.9085      2.00000
     33      -1.9085      2.00000
     34      -1.9085      2.00000
     35      -1.9085      2.00000
     36      -1.9085      2.00000
     37      -1.9085      2.00000
     38      -1.9085      2.00000
     39      -1.9085      2.00000
     40      -1.9085      2.00000
     41      -1.9085      2.00000
     42      -1.2537      2.00000
     43      -1.2537      2.00000
     44      -1.2537      2.00000
     45      -1.2537      2.00000
     46       0.2526      2.00000
     47       0.2526      2.00000
     48       0.2526      2.00000
     49       0.2526      2.00000
     50       0.2526      2.00000
     51       0.2526      2.00000
     52       0.2526      2.00000
     53       0.2526      2.00000
     54       0.2526      2.00000
     55       0.2526      2.00000
     56       0.2526      2.00000
     57       0.2526      2.00000
     58       1.8504      2.00000
     59       1.8504      2.00000
     60       1.8504      2.00000
     61       1.8504      2.00000
     62       1.8504      2.00000
     63       1.8504      2.00000
     64       1.8504      2.00000
     65       1.8504      2.00000
     66       1.8504      2.00000
     67       1.8504      2.00000
     68       1.8504      2.00000
     69       1.8504      2.00000
     70       1.9510      2.00000
     71       1.9510      2.00000
     72       1.9510      2.00000
     73       1.9510      2.00000
     74       1.9510      2.00000
     75       1.9510      2.00000
     76       1.9510      2.00000
     77       1.9510      2.00000
     78       1.9510      2.00000
     79       1.9510      2.00000
     80       1.9510      2.00000
     81       1.9510      2.00000
     82       2.2151      2.00000
     83       2.2151      2.00000
     84       2.2151      2.00000
     85       2.2151      2.00000
     86       2.2151      2.00000
     87       2.2151      2.00000
     88       2.8755      2.00000
     89       2.8755      2.00000
     90       2.8755      2.00000
     91       2.8755      2.00000
     92       2.8755      2.00000
     93       2.8755      2.00000
     94       3.8374      2.00000
     95       3.8374      2.00000
     96       3.8374      2.00000
     97       3.8374      2.00000
     98       3.8374      2.00000
     99       3.8374      2.00000
    100       3.8374      2.00000
    101       3.8374      2.00000
    102       3.8374      2.00000
    103       3.8374      2.00000
    104       3.8374      2.00000
    105       3.8374      2.00000
    106       4.4051      2.00000
    107       4.4051      2.00000
    108       4.4051      2.00000
    109       4.4051      2.00000
    110       4.4051      2.00000
    111       4.4051      2.00000
    112       4.4051      2.00000
    113       4.4051      2.00000
    114       4.4051      2.00000
    115       4.4051      2.00000
    116       4.4051      2.00000
    117       4.4051      2.00000
    118       4.5369      2.00000
    119       4.5369      2.00000
    120       4.5369      2.00000
    121       4.5369      2.00000
    122       4.5369      2.00000
    123       4.5369      2.00000
    124       4.5369      2.00000
    125       4.5369      2.00000
    126       5.7359      2.02731
    127       5.7359      2.02731
    128       5.7359      2.02731
    129       6.3347     -0.07005
    130       6.3347     -0.07005
    131       6.3347     -0.07005
    132       6.3347     -0.07005
    133       6.3347     -0.07005
    134       6.3347     -0.07005
    135       6.7737     -0.00002
    136       6.7737     -0.00002
    137       6.7737     -0.00002
    138       6.7737     -0.00002
    139       6.7737     -0.00002
    140       6.7737     -0.00002
    141       7.1810     -0.00000
    142       7.1810     -0.00000
    143       7.1810     -0.00000
    144       7.1810     -0.00000
    145       8.0968     -0.00000
    146       8.0968     -0.00000
    147       8.0968     -0.00000
    148       8.0968     -0.00000
    149       8.0968     -0.00000
    150       8.0968     -0.00000
    151       8.0969     -0.00000
    152       8.0970     -0.00000
    153       8.0971     -0.00000
    154       8.0972     -0.00000
    155       8.0976     -0.00000
    156       8.0983     -0.00000
    157       8.2501     -0.00000
    158       8.2505     -0.00000
    159       8.2521     -0.00000
    160       8.7714     -0.00000
    161       8.8124     -0.00000
    162       8.9374     -0.00000

 k-point     2 :       0.5000    0.0000    0.0000
  band No.  band energies     occupation 
      1      -5.9441      2.00000
      2      -5.9441      2.00000
      3      -4.8882      2.00000
      4      -4.8882      2.00000
      5      -4.8882      2.00000
      6      -4.8882      2.00000
      7      -4.8882      2.00000
      8      -4.8882      2.00000
      9      -4.8882      2.00000
     10      -4.8882      2.00000
     11      -4.0417      2.00000
     12      -4.0417      2.00000
     13      -4.0417      2.00000
     14      -4.0417      2.00000
     15      -4.0417      2.00000
     16      -4.0417      2.00000
     17      -4.0417      2.00000
     18      -4.0417      2.00000
[...]
  0.000   0.000   0.000   4.171   0.000   0.000   7.771   0.000
  0.000   0.000  -0.000   0.000   4.171  -0.000   0.000   7.771
  0.000   0.000   7.771   0.000  -0.000  14.487   0.000  -0.000
  0.000   0.000   0.000   7.771   0.000   0.000  14.487   0.000
  0.000   0.000  -0.000   0.000   7.771  -0.000   0.000  14.487
 total augmentation occupancy for first ion, spin component:           1
  6.313  -2.493   0.000  -0.000  -0.000  -0.000  -0.000   0.000
 -2.493   1.092  -0.000  -0.000  -0.000  -0.000   0.000  -0.000
  0.000  -0.000   3.103   0.000   0.000  -0.706   0.000   0.000
 -0.000  -0.000   0.000   3.103  -0.000   0.000  -0.706   0.000
 -0.000  -0.000   0.000  -0.000   3.103   0.000  -0.000  -0.706
 -0.000  -0.000  -0.706   0.000   0.000   0.170   0.000  -0.000
 -0.000   0.000   0.000  -0.706  -0.000   0.000   0.170   0.000
  0.000  -0.000   0.000   0.000  -0.706  -0.000   0.000   0.170


------------------------ aborting loop because EDIFF is reached ----------------------------------------


    CHARGE:  cpu time      0.2533: real time      0.2539
    FORLOC:  cpu time      0.0235: real time      0.0235
    FORNL :  cpu time      0.6054: real time      0.6068
    STRESS:  cpu time      1.8701: real time      1.9020
    FORCOR:  cpu time      0.0922: real time      0.0924
    FORHAR:  cpu time      0.0366: real time      0.0367
    MIXING:  cpu time      0.0047: real time      0.0047
    OFIELD:  cpu time      0.0000: real time      0.0000

  FORCE on cell =-STRESS in cart. coord.  units (eV):
  Direction    XX          YY          ZZ          XY          YZ          ZX
  --------------------------------------------------------------------------------------
  Alpha Z   112.54129   112.54129   112.54129
  Ewald   -2474.38582 -2474.38582 -2474.38582    -0.00000     0.00000     0.00000
  Hartree   150.54190   150.54190   150.54190    -0.00000    -0.00000    -0.00000
  E(xc)    -826.57027  -826.57027  -826.57027    -0.00000     0.00000     0.00000
  Local    -910.69803  -910.69803  -910.69803    -0.00000     0.00000     0.00000
  n-local  2509.54583  2520.67264  2508.49769     0.00003    -0.00000    -0.00002
  augment  -369.19665  -369.19665  -369.19665     0.00000     0.00000     0.00000
  Kinetic  1839.52213  1853.48711  1835.32538     0.00001     0.00000    -0.00002
  Fock        0.00000     0.00000     0.00000     0.00000     0.00000     0.00000
  -------------------------------------------------------------------------------------
  Total      37.91602    37.91602    37.91602    -0.00000     0.00000     0.00000
  in kB      49.58277    49.58277    49.58277    -0.00000     0.00000     0.00000
  external pressure =       -0.42 kB  Pullay stress =       50.00 kB


 VOLUME and BASIS-vectors are now :
 -----------------------------------------------------------------------------
  energy-cutoff  :      400.00
  volume of cell :     1225.19
      direct lattice vectors                 reciprocal lattice vectors
    10.700420760  0.000000000  0.000000000     0.093454269 -0.000000000  0.000000000
     0.000000000 10.700420760  0.000000000    -0.000000000  0.093454269 -0.000000000
    -0.000000000  0.000000000 10.700420760    -0.000000000  0.000000000  0.093454269

  length of vectors
    10.700420760 10.700420760 10.700420760     0.093454269  0.093454269  0.093454269


 FORCES acting on ions
    electron-ion (+dipol)            ewald-force                    non-local-force                 convergence-correction
 -----------------------------------------------------------------------------------------------
   -.332E-13 0.272E-14 0.838E-14   -.711E-14 -.171E-13 -.104E-13   -.372E-23 0.253E-22 -.199E-22   0.318E-13 0.508E-13 0.281E-13
   -.246E-13 -.639E-14 -.319E-13   -.666E-14 -.933E-14 -.180E-13   0.249E-22 0.574E-22 0.353E-24   0.228E-13 0.654E-13 -.310E-13
   -.398E-13 -.255E-13 0.243E-14   -.129E-13 -.209E-13 -.102E-13   -.274E-22 0.766E-23 0.192E-23   0.310E-13 -.515E-13 0.260E-13
   -.173E-13 -.225E-13 -.262E-13   0.160E-13 -.182E-13 -.111E-13   -.919E-23 0.498E-22 0.467E-23   0.320E-13 -.635E-13 -.287E-13
   -.372E-13 0.813E-13 0.364E-12   -.444E-15 -.164E-13 -.666E-14   -.382E-23 0.125E-22 -.318E-22   -.416E-13 0.432E-13 0.159E-13
   -.478E-13 0.784E-14 0.192E-12   0.577E-14 -.888E-14 -.147E-13   0.113E-22 0.725E-22 -.188E-22   -.324E-13 0.570E-13 -.181E-13
   -.372E-13 0.361E-12 -.189E-12   0.888E-15 -.222E-14 -.622E-14   0.543E-22 -.482E-23 0.728E-22   -.417E-13 -.429E-13 0.242E-13
   -.485E-13 -.428E-12 0.151E-12   0.000E+00 -.711E-14 -.142E-13   -.185E-22 -.122E-22 0.108E-22   -.394E-13 -.553E-13 -.263E-13
   0.226E-13 0.312E-13 -.452E-12   0.133E-14 -.888E-14 0.156E-13   -.179E-22 0.181E-22 0.236E-22   -.354E-13 -.191E-13 0.451E-13
   0.153E-13 -.648E-12 -.127E-12   0.178E-14 -.888E-14 0.198E-13   -.930E-23 0.345E-22 0.510E-24   -.518E-13 -.330E-13 -.524E-13
   0.133E-14 -.287E-12 -.471E-12   0.222E-14 -.115E-13 0.114E-13   0.394E-22 -.256E-22 -.129E-22   -.364E-13 0.110E-13 0.465E-13
   0.863E-14 0.490E-12 -.208E-13   0.000E+00 -.107E-13 0.156E-13   -.171E-23 0.382E-22 -.228E-22   -.346E-13 0.353E-13 -.498E-13
   0.332E-14 -.612E-12 -.530E-12   0.142E-13 -.138E-13 0.114E-13   -.576E-22 0.714E-22 -.138E-22   0.384E-13 -.237E-13 0.675E-13
   -.531E-14 -.631E-12 0.604E-12   0.160E-13 -.107E-13 0.160E-13   -.222E-22 -.855E-23 0.467E-22   0.528E-13 -.387E-13 -.715E-13
   -.146E-13 0.398E-12 -.539E-12   0.355E-14 -.115E-13 0.140E-13   0.543E-22 0.150E-21 -.281E-22   0.371E-13 0.211E-13 0.712E-13
   -.398E-14 0.390E-12 0.583E-12   -.124E-13 -.107E-13 0.151E-13   0.402E-22 -.382E-22 0.155E-22   0.399E-13 0.317E-13 -.697E-13
   -.219E-13 -.110E-13 -.181E-13   0.120E-13 -.666E-15 -.866E-14   -.193E-22 0.770E-22 -.408E-22   0.229E-13 0.223E-13 0.789E-13
   -.299E-13 -.876E-14 -.388E-13   0.142E-13 -.444E-14 -.140E-13   -.368E-22 -.208E-22 -.244E-22   0.247E-13 0.245E-13 -.827E-13
   -.319E-13 -.444E-13 -.142E-13   0.173E-13 0.577E-14 -.124E-13   0.127E-22 0.167E-22 -.191E-22   0.351E-13 -.197E-13 0.653E-13
   -.186E-13 -.447E-13 -.367E-13   0.142E-13 0.147E-13 -.147E-13   0.136E-22 -.723E-24 0.129E-23   0.332E-13 -.218E-13 -.699E-13
   -.485E-13 -.140E-12 0.356E-12   0.178E-13 -.444E-14 -.155E-13   0.347E-22 -.410E-22 -.983E-23   -.317E-13 0.140E-13 0.448E-13
   -.505E-13 -.138E-12 -.729E-13   0.133E-13 0.622E-14 -.173E-13   0.900E-23 0.618E-22 -.523E-23   -.338E-13 0.355E-14 -.499E-13
   -.392E-13 0.203E-12 -.405E-12   0.258E-13 0.222E-14 -.195E-13   0.302E-24 0.217E-22 -.383E-22   -.470E-13 -.116E-13 0.311E-13
   -.571E-13 -.588E-12 -.543E-13   0.249E-13 0.107E-13 -.178E-13   0.690E-23 0.448E-22 -.102E-23   -.416E-13 -.441E-14 -.363E-13
   0.332E-14 -.494E-12 0.129E-12   0.178E-13 0.689E-15 0.107E-13   0.438E-22 -.176E-22 -.165E-22   -.438E-13 0.351E-13 0.226E-13
   0.179E-13 -.473E-12 -.271E-12   0.178E-13 0.467E-15 0.107E-13   -.575E-22 0.394E-22 0.451E-22   -.290E-13 0.362E-13 -.208E-13
   0.863E-14 -.171E-12 -.614E-12   0.160E-13 0.624E-14 0.355E-14   -.108E-22 0.315E-24 0.536E-23   -.508E-13 -.425E-13 0.105E-14
   0.996E-14 -.112E-12 0.532E-12   0.231E-13 0.185E-16 0.107E-13   0.392E-22 -.312E-23 -.947E-23   -.361E-13 -.399E-13 -.402E-14
   -.133E-14 -.115E-11 -.367E-13   0.195E-13 0.158E-13 0.711E-14   0.176E-22 0.406E-22 0.160E-23   0.410E-13 0.513E-13 0.371E-13
   -.286E-13 0.183E-12 -.443E-12   0.124E-13 0.868E-14 0.711E-14   0.513E-22 0.179E-22 -.934E-23   0.270E-13 0.505E-13 -.401E-13
   -.398E-14 -.853E-13 0.136E-12   0.302E-13 0.357E-14 0.711E-14   0.471E-22 0.124E-21 -.390E-22   0.601E-13 -.526E-13 0.242E-13
   -.286E-13 -.127E-12 0.126E-11   0.888E-14 -.264E-14 0.142E-13   0.224E-22 -.586E-22 0.352E-22   0.394E-13 -.556E-13 -.267E-13
   -.359E-13 -.934E-15 0.108E-12   -.144E-13 -.910E-14 -.289E-14   -.772E-23 0.941E-22 -.415E-22   -.235E-13 0.501E-13 0.622E-13
   -.425E-13 -.400E-14 -.294E-12   -.711E-14 -.888E-14 -.955E-14   0.265E-23 0.814E-22 -.895E-23   -.109E-13 0.476E-13 -.672E-13
   -.412E-13 -.282E-13 -.309E-12   -.173E-13 0.222E-15 -.355E-14   -.328E-22 0.503E-22 -.239E-22   -.316E-13 -.513E-13 0.438E-13
   -.478E-13 -.200E-13 0.854E-13   -.799E-14 0.666E-14 -.666E-14   -.321E-22 -.212E-23 -.109E-22   -.306E-13 -.444E-13 -.468E-13
   -.498E-13 -.198E-13 0.759E-12   -.264E-13 -.444E-14 -.711E-14   -.117E-23 0.107E-22 0.318E-22   0.187E-13 0.663E-13 0.715E-13
   -.498E-13 -.460E-13 -.104E-11   -.244E-13 -.799E-14 -.622E-14   -.201E-22 0.319E-22 -.734E-23   0.563E-14 0.559E-13 -.762E-13
   -.511E-13 -.465E-12 -.868E-12   -.262E-13 0.444E-14 -.799E-14   -.125E-22 0.865E-22 0.147E-22   0.269E-13 -.646E-13 0.419E-13
   -.485E-13 -.214E-12 0.166E-12   -.391E-13 -.178E-13 -.711E-14   -.358E-22 0.544E-22 -.213E-22   0.238E-13 -.544E-13 -.493E-13
   0.133E-13 -.866E-13 0.891E-13   -.206E-13 -.355E-14 0.213E-13   0.662E-23 0.559E-22 -.357E-22   -.619E-14 -.309E-13 0.249E-13
   0.139E-13 -.116E-12 0.990E-13   -.217E-13 -.355E-14 0.213E-13   -.300E-22 -.345E-22 0.193E-22   0.163E-13 -.163E-13 -.253E-13
   0.179E-13 -.135E-12 0.116E-12   -.197E-13 0.355E-14 0.213E-13   0.179E-22 0.647E-22 -.351E-22   0.891E-14 0.325E-13 0.245E-13
   0.266E-14 -.988E-13 0.107E-12   -.730E-14 -.355E-14 0.213E-13   0.225E-22 0.314E-22 0.433E-22   0.304E-13 0.530E-14 -.290E-13
   0.392E-13 0.816E-12 0.394E-12   -.151E-13 -.888E-14 0.711E-14   0.366E-22 0.198E-22 0.320E-22   0.105E-13 -.495E-13 0.107E-13
   -.206E-13 -.765E-12 -.201E-13   -.142E-13 -.888E-14 0.213E-13   -.338E-22 0.459E-22 -.378E-22   -.745E-14 -.193E-13 -.841E-14
   -.252E-13 -.109E-11 0.379E-12   0.211E-16 -.888E-14 0.107E-13   0.876E-23 -.448E-22 0.166E-22   -.246E-14 0.405E-13 0.249E-13
   0.286E-13 0.321E-12 0.312E-13   -.133E-13 -.178E-14 0.178E-13   -.156E-22 0.423E-22 0.352E-23   -.255E-13 0.215E-13 -.276E-13
   -.372E-13 0.227E-12 -.101E-12   -.866E-14 0.200E-14 -.200E-13   -.612E-23 0.538E-22 -.207E-22   -.102E-13 0.277E-13 0.263E-13
   -.332E-13 -.209E-12 -.111E-12   0.488E-14 0.933E-14 -.124E-13   0.387E-22 0.714E-22 0.233E-23   -.457E-13 0.656E-14 -.301E-13
   -.485E-13 -.155E-12 -.132E-12   0.577E-14 0.175E-13 -.155E-13   -.336E-22 0.406E-22 0.103E-22   -.327E-14 -.239E-13 0.218E-13
   -.478E-13 0.159E-12 -.104E-12   0.355E-14 0.187E-13 -.155E-13   -.227E-22 -.196E-22 0.126E-22   -.363E-13 -.548E-14 -.257E-13
   -.564E-13 0.748E-12 0.279E-13   -.888E-14 0.488E-14 -.151E-13   0.475E-22 0.197E-22 -.277E-22   0.612E-14 0.268E-13 0.280E-13
   -.525E-13 -.932E-12 -.360E-12   -.711E-14 0.444E-14 -.799E-14   -.114E-22 0.576E-22 -.335E-23   0.379E-13 -.134E-14 -.310E-13
   -.571E-13 -.112E-11 0.131E-13   -.124E-13 0.164E-13 -.142E-13   0.152E-22 0.560E-22 -.771E-24   -.223E-14 -.268E-13 0.188E-13
   -.505E-13 0.714E-13 -.104E-12   -.142E-13 0.142E-13 -.213E-13   -.308E-22 0.222E-23 0.681E-23   0.321E-13 0.224E-14 -.206E-13
   0.000E+00 -.956E-13 0.119E-12   -.555E-14 0.154E-13 0.525E-14   0.388E-22 0.421E-22 0.954E-23   0.205E-13 0.490E-13 0.760E-13
   0.000E+00 -.114E-12 0.111E-12   -.489E-14 0.152E-13 -.168E-14   -.287E-22 0.117E-21 -.477E-24   0.353E-14 0.464E-13 -.792E-13
   0.139E-13 -.992E-13 0.111E-12   0.135E-14 0.184E-13 -.253E-14   0.704E-22 0.332E-22 -.252E-22   0.251E-13 -.517E-13 0.559E-13
   0.465E-14 -.109E-12 0.117E-12   -.708E-14 0.102E-13 0.877E-14   -.502E-22 -.281E-22 0.440E-22   -.957E-16 -.520E-13 -.571E-13
   0.305E-13 0.925E-13 -.354E-12   -.543E-14 0.195E-13 0.408E-14   0.141E-22 0.202E-22 0.242E-22   -.102E-13 0.480E-13 0.609E-13
   0.232E-13 0.417E-12 0.993E-12   -.733E-16 0.128E-13 0.830E-14   0.255E-22 -.452E-23 0.981E-23   0.721E-14 0.301E-13 -.662E-13
   0.226E-13 -.145E-12 0.151E-11   -.180E-14 0.195E-13 0.341E-14   0.330E-22 0.474E-22 0.144E-22   -.209E-13 -.514E-13 0.375E-13
   0.664E-14 -.434E-12 -.760E-12   -.711E-14 0.749E-14 0.112E-13   0.338E-22 0.352E-22 0.372E-22   0.140E-15 -.376E-13 -.406E-13
 -----------------------------------------------------------------------------------------------
   -.116E-11 -.775E-11 0.707E-12   -.353E-13 0.961E-14 -.156E-13   0.235E-21 0.188E-20 -.639E-22   -.512E-13 -.473E-13 -.989E-13
 
 
 POSITION                                       TOTAL-FORCE (eV/Angst)
 -----------------------------------------------------------------------------------
      0.00000      0.00000      0.00000         0.000000      0.000000      0.000000
     -0.00000      0.00000      5.35021         0.000000     -0.000000      0.000000
      0.00000      5.35021      0.00000         0.000000      0.000000      0.000000
      0.00000      5.35021      5.35021         0.000000     -0.000000      0.000000
      5.35021      0.00000      0.00000         0.000000     -0.000000      0.000000
      5.35021      0.00000      5.35021         0.000000     -0.000000      0.000000
      5.35021      5.35021      0.00000         0.000000      0.000000      0.000000
      5.35021      5.35021      5.35021         0.000000     -0.000000      0.000000
      4.01266      4.01266      1.33755        -0.000000      0.000000     -0.000000
      4.01266      4.01266      6.68776        -0.000000     -0.000000     -0.000000
      4.01266      9.36287      1.33755        -0.000000      0.000000     -0.000000
      4.01266      9.36287      6.68776        -0.000000     -0.000000     -0.000000
      9.36287      4.01266      1.33755        -0.000000     -0.000000     -0.000000
      9.36287      4.01266      6.68776        -0.000000      0.000000     -0.000000
      9.36287      9.36287      1.33755        -0.000000     -0.000000     -0.000000
      9.36287      9.36287      6.68776        -0.000000      0.000000     -0.000000
      0.00000      2.67511      2.67511         0.000000     -0.000000      0.000000
     -0.00000      2.67511      8.02532         0.000000     -0.000000      0.000000
      0.00000      8.02532      2.67511         0.000000      0.000000      0.000000
      0.00000      8.02532      8.02532         0.000000     -0.000000      0.000000
      5.35021      2.67511      2.67511         0.000000     -0.000000      0.000000
      5.35021      2.67511      8.02532         0.000000      0.000000      0.000000
      5.35021      8.02532      2.67511         0.000000      0.000000      0.000000
      5.35021      8.02532      8.02532         0.000000      0.000000      0.000000
      4.01266      1.33755      4.01266        -0.000000     -0.000000     -0.000000
      4.01266      1.33755      9.36287        -0.000000     -0.000000     -0.000000
      4.01266      6.68776      4.01266        -0.000000      0.000000     -0.000000
      4.01266      6.68776      9.36287        -0.000000      0.000000     -0.000000
      9.36287      1.33755      4.01266        -0.000000     -0.000000     -0.000000
      9.36287      1.33755      9.36287        -0.000000     -0.000000     -0.000000
      9.36287      6.68776      4.01266        -0.000000      0.000000     -0.000000
      9.36287      6.68776      9.36287        -0.000000      0.000000     -0.000000
      2.67511      0.00000      2.67511         0.000000      0.000000      0.000000
      2.67511      0.00000      8.02532         0.000000     -0.000000      0.000000
      2.67511      5.35021      2.67511         0.000000     -0.000000      0.000000
      2.67511      5.35021      8.02532         0.000000      0.000000      0.000000
      8.02532      0.00000      2.67511         0.000000     -0.000000      0.000000
      8.02532      0.00000      8.02532         0.000000     -0.000000      0.000000
      8.02532      5.35021      2.67511         0.000000      0.000000      0.000000
      8.02532      5.35021      8.02532         0.000000     -0.000000      0.000000
      1.33755      4.01266      4.01266        -0.000000     -0.000000     -0.000000
      1.33755      4.01266      9.36287        -0.000000     -0.000000     -0.000000
      1.33755      9.36287      4.01266        -0.000000     -0.000000     -0.000000
      1.33755      9.36287      9.36287        -0.000000     -0.000000     -0.000000
      6.68776      4.01266      4.01266        -0.000000      0.000000     -0.000000
      6.68776      4.01266      9.36287        -0.000000     -0.000000     -0.000000
      6.68776      9.36287      4.01266        -0.000000      0.000000     -0.000000
      6.68776      9.36287      9.36287        -0.000000     -0.000000     -0.000000
      2.67511      2.67511      0.00000         0.000000      0.000000      0.000000
      2.67511      2.67511      5.35021         0.000000     -0.000000      0.000000
      2.67511      8.02532      0.00000         0.000000      0.000000      0.000000
      2.67511      8.02532      5.35021         0.000000     -0.000000      0.000000
      8.02532      2.67511      0.00000         0.000000     -0.000000      0.000000
      8.02532      2.67511      5.35021         0.000000     -0.000000      0.000000
      8.02532      8.02532      0.00000         0.000000     -0.000000      0.000000
      8.02532      8.02532      5.35021         0.000000     -0.000000      0.000000
      1.33755      1.33755      1.33755        -0.000000     -0.000000     -0.000000
      1.33755      1.33755      6.68776        -0.000000     -0.000000     -0.000000
      1.33755      6.68776      1.33755        -0.000000      0.000000     -0.000000
      1.33755      6.68776      6.68776        -0.000000      0.000000     -0.000000
      6.68776      1.33755      1.33755        -0.000000     -0.000000     -0.000000
      6.68776      1.33755      6.68776        -0.000000     -0.000000     -0.000000
      6.68776      6.68776      1.33755        -0.000000     -0.000000     -0.000000
      6.68776      6.68776      6.68776        -0.000000      0.000000     -0.000000
 -----------------------------------------------------------------------------------
    total drift:                               -0.000000     -0.000000      0.000000


--------------------------------------------------------------------------------------------------------



  FREE ENERGIE OF THE ION-ELECTRON SYSTEM (eV)
  ---------------------------------------------------
  free  energy   TOTEN  =      -366.74405245 eV

  energy  without entropy=     -366.77640486  energy(sigma->0) =     -366.75483659
  enthalpy is  TOTEN    =      -328.50897381 eV   P V=       38.23507864

 d Force =-0.8669457E-59[-0.104E-58,-0.692E-59]  d Energy = 0.9740153E+00-0.974E+00
 d Force = 0.1609690E-43[ 0.776E-44, 0.244E-43]  d Ewald  =-0.1168274E+03 0.117E+03


--------------------------------------------------------------------------------------------------------


    POTLOK:  cpu time      0.1570: real time      0.1574


--------------------------------------------------------------------------------------------------------




--------------------------------------------------------------------------------------------------------


  
 reached required accuracy - stopping structural energy minimisation
     LOOP+:  cpu time     15.5491: real time     15.8760
    4ORBIT:  cpu time      0.0000: real time      0.0000

 total amount of memory used by VASP MPI-rank0    71935. kBytes
=======================================================================

   base      :      30000. kBytes
   nonlr-proj:       5058. kBytes
   fftplans  :      19172. kBytes
   grid      :       7278. kBytes
   one-center:         18. kBytes
   wavefun   :      10409. kBytes
 
  
  
 General timing and accounting informations for this job:
 ========================================================
  
                  Total CPU time used (sec):       55.437
                            User time (sec):       51.862
                          System time (sec):        3.575
                         Elapsed time (sec):       59.074
  
                   Maximum memory used (kb):      376744.
                   Average memory used (kb):          N/A
  
                          Minor page faults:        89621
                          Major page faults:            0
                 Voluntary context switches:         9496
