<?xml version="1.0" encoding="ISO-8859-1"?>
<modeling>
 <generator>
  <i name="program" type="string">vasp </i>
  <i name="version" type="string">6.4.3  </i>
  <i name="subversion" type="string">19Mar24 (build Oct 21 2024 22:36:34) complex                          parallel </i>
  <i name="platform" type="string">LinuxIFC </i>
  <i name="date" type="string">2024 11 01 </i>
  <i name="time" type="string">22:38:20 </i>
 </generator>
 <incar>
  <i type="string" name="SYSTEM">Si64</i>
  <i type="int" name="ISTART">     0</i>
  <i type="string" name="PREC">Accurate</i>
  <i type="string" name="ALGO">Fast</i>
  <i type="logical" name="ADDGRID"> T  </i>
  <i type="int" name="ICHARG">     2</i>
  <i type="int" name="NELM">    60</i>
  <i type="int" name="NELMIN">     8</i>
  <i type="int" name="IBRION">     2</i>
  <i name="EDIFF">      0.00000100</i>
  <i name="EDIFFG">     -0.01000000</i>
  <i type="int" name="NSW">    60</i>
  <i type="int" name="ISIF">     3</i>
  <i name="ENCUT">    400.00000000</i>
  <i type="string" name="LREAL">Auto</i>
  <i type="int" name="ISMEAR">     1</i>
  <i name="SIGMA">      0.20000000</i>
  <i name="PSTRESS">     50.00000000</i>
  <i type="logical" name="LWAVE"> F  </i>
  <i type="logical" name="LCHARG"> F  </i>
  <i type="logical" name="GGA_COMPAT"> F  </i>
  <i type="string" name="GGA">PS</i>
 </incar>
 <primitive_cell>
  <structure name="primitive_cell" >
   <crystal>
    <varray name="basis" >
     <v>       2.72046633      -2.72046633       0.00000000 </v>
     <v>       2.72046633       0.00000000       2.72046633 </v>
     <v>       0.00000000      -2.72046633       2.72046633 </v>
    </varray>
    <i name="volume">     40.26800000 </i>
    <varray name="rec_basis" >
     <v>       0.18379202      -0.18379202      -0.18379202 </v>
     <v>       0.18379202       0.18379202       0.18379202 </v>
     <v>      -0.18379202      -0.18379202       0.18379202 </v>
    </varray>
   </crystal>
   <varray name="positions" >
    <v>       0.00000000       0.00000000       0.00000000 </v>
    <v>       0.75000000       0.75000000       0.75000000 </v>
   </varray>
  </structure>
  <varray name="primitive_index" >
   <v type="int" >        1 </v>
   <v type="int" >       30 </v>
  </varray>
 </primitive_cell>
 <kpoints>
  <generation param="Gamma">
   <v type="int" name="divisions">       2        2        2 </v>
   <v name="usershift">      0.00000000       0.00000000       0.00000000 </v>
   <v name="genvec1">      0.50000000       0.00000000       0.00000000 </v>
   <v name="genvec2">      0.00000000       0.50000000       0.00000000 </v>
   <v name="genvec3">      0.00000000       0.00000000       0.50000000 </v>
   <v name="shift">      0.00000000       0.00000000       0.00000000 </v>
  </generation>
  <varray name="kpointlist" >
   <v>       0.00000000       0.00000000       0.00000000 </v>
   <v>       0.50000000       0.00000000       0.00000000 </v>
   <v>       0.50000000       0.50000000       0.00000000 </v>
   <v>       0.50000000       0.50000000       0.50000000 </v>
  </varray>
  <varray name="weights" >
   <v>       0.12500000 </v>
   <v>       0.37500000 </v>
   <v>       0.37500000 </v>
   <v>       0.12500000 </v>
  </varray>
 </kpoints>
 <parameters>
  <separator name="general" >
   <i type="string" name="SYSTEM">Si64</i>
   <i type="logical" name="LCOMPAT"> F  </i>
  </separator>
  <separator name="electronic" >
   <i type="string" name="PREC">accura</i>
   <i name="ENMAX">    400.00000000</i>
   <i name="ENAUG">    322.06900000</i>
   <i name="EDIFF">      0.00000100</i>
   <i type="int" name="IALGO">    68</i>
   <i type="int" name="IWAVPR">    11</i>
   <i type="int" name="NBANDS">   162</i>
   <i type="int" name="NBANDSLOW">    -1</i>
   <i type="int" name="NBANDSHIGH">    -1</i>
   <i name="NELECT">    256.00000000</i>
   <i type="int" name="TURBO">     0</i>
   <i type="int" name="IRESTART">     0</i>
   <i type="int" name="NREBOOT">     0</i>
   <i type="int" name="NMIN">     0</i>
   <i name="EREF">      0.00000000</i>
   <separator name="electronic smearing" >
    <i type="int" name="ISMEAR">     1</i>
    <i name="SIGMA">      0.20000000</i>
    <i name="KSPACING">      0.50000000</i>
    <i type="logical" name="KGAMMA"> T  </i>
    <i type="logical" name="KBLOWUP"> T  </i>
   </separator>
   <separator name="electronic projectors" >
    <i type="logical" name="LREAL"> T  </i>
    <v name="ROPT">     -0.00025000</v>
    <i type="int" name="LMAXPAW">  -100</i>
    <i type="int" name="LMAXMIX">     2</i>
    <i type="logical" name="NLSPLINE"> F  </i>
   </separator>
   <separator name="electronic startup" >
    <i type="int" name="ISTART">     0</i>
    <i type="int" name="ICHARG">     2</i>
    <i type="int" name="INIWAV">     1</i>
   </separator>
   <separator name="electronic spin" >
    <i type="int" name="ISPIN">     1</i>
    <i type="logical" name="LNONCOLLINEAR"> F  </i>
    <v name="MAGMOM">      1.00000000      1.00000000      1.00000000      1.00000000      1.00000000      1.00000000      1.00000000      1.00000000      1.00000000      1.00000000      1.00000000      1.00000000      1.00000000      1.00000000      1.00000000      1.00000000      1.00000000      1.00000000      1.00000000      1.00000000
      1.00000000      1.00000000      1.00000000      1.00000000      1.00000000      1.00000000      1.00000000      1.00000000      1.00000000      1.00000000      1.00000000      1.00000000      1.00000000      1.00000000      1.00000000      1.00000000      1.00000000      1.00000000      1.00000000      1.00000000
      1.00000000      1.00000000      1.00000000      1.00000000      1.00000000      1.00000000      1.00000000      1.00000000      1.00000000      1.00000000      1.00000000      1.00000000      1.00000000      1.00000000      1.00000000      1.00000000      1.00000000      1.00000000      1.00000000      1.00000000
      1.00000000      1.00000000      1.00000000      1.00000000</v>
    <i name="NUPDOWN">     -1.00000000</i>
    <i type="logical" name="LSORBIT"> F  </i>
    <v name="SAXIS">      0.00000000      0.00000000      1.00000000</v>
    <i type="logical" name="LSPIRAL"> F  </i>
    <v name="QSPIRAL">      0.00000000      0.00000000      0.00000000</v>
    <i type="logical" name="LZEROZ"> F  </i>
   </separator>
   <separator name="electronic exchange-correlation" >
    <i type="logical" name="LASPH"> F  </i>
   </separator>
   <separator name="electronic convergence" >
    <i type="int" name="NELM">    60</i>
    <i type="int" name="NELMDL">    -5</i>
    <i type="int" name="NELMIN">     8</i>
    <i name="ENINI">    400.00000000</i>
    <separator name="electronic convergence detail" >
     <i type="logical" name="LDIAG"> T  </i>
     <i type="logical" name="LSUBROT"> F  </i>
     <i name="WEIMIN">      0.00100000</i>
     <i name="EBREAK">      0.00000000</i>
     <i name="DEPER">      0.30000000</i>
     <i type="int" name="NRMM">     4</i>
     <i name="TIME">      0.40000000</i>
    </separator>
   </separator>
   <separator name="electronic mixer" >
    <i name="AMIX">      0.40000000</i>
    <i name="BMIX">      1.00000000</i>
    <i name="AMIN">      0.10000000</i>
    <i name="AMIX_MAG">      1.60000000</i>
    <i name="BMIX_MAG">      1.00000000</i>
    <separator name="electronic mixer details" >
     <i type="int" name="IMIX">     4</i>
     <i type="logical" name="MIXFIRST"> F  </i>
     <i type="int" name="MAXMIX">   -45</i>
     <i name="WC">    100.00000000</i>
     <i type="int" name="INIMIX">     1</i>
     <i type="int" name="MIXPRE">     1</i>
     <i type="int" name="MREMOVE">     5</i>
    </separator>
   </separator>
   <separator name="electronic dipolcorrection" >
    <i type="logical" name="LDIPOL"> F  </i>
    <i type="logical" name="LMONO"> F  </i>
    <i type="int" name="IDIPOL">     0</i>
    <i name="EPSILON">      1.00000000</i>
    <v name="DIPOL">   -100.00000000   -100.00000000   -100.00000000</v>
    <i name="EFIELD">      0.00000000</i>
    <i type="logical" name="LVACPOTAV"> F  </i>
   </separator>
  </separator>
  <separator name="grids" >
   <i type="int" name="NGX">    72</i>
   <i type="int" name="NGY">    72</i>
   <i type="int" name="NGZ">    72</i>
   <i type="int" name="NGXF">   144</i>
   <i type="int" name="NGYF">   144</i>
   <i type="int" name="NGZF">   144</i>
   <i type="logical" name="ADDGRID"> T  </i>
  </separator>
  <separator name="ionic" >
   <i type="int" name="NSW">    60</i>
   <i type="int" name="IBRION">     2</i>
   <i type="int" name="MDALGO">     0</i>
   <i type="int" name="ISIF">     3</i>
   <i name="PSTRESS">     50.00000000</i>
   <i name="EDIFFG">     -0.01000000</i>
   <i type="int" name="NFREE">     1</i>
   <i name="POTIM">      0.50000000</i>
   <i name="SMASS">     -3.00000000</i>
   <i name="SCALEE">      1.00000000</i>
  </separator>
  <separator name="ionic md" >
   <i name="TEBEG">      0.00010000</i>
   <i name="TEEND">      0.00010000</i>
   <i type="int" name="NBLOCK">     1</i>
   <i type="int" name="KBLOCK">    60</i>
   <i type="int" name="NPACO">   256</i>
   <i name="APACO">     10.00000000</i>
  </separator>
  <separator name="symmetry" >
   <i type="int" name="ISYM">     2</i>
   <i name="SYMPREC">      0.00001000</i>
  </separator>
  <separator name="dos" >
   <i type="int" name="LORBIT">     0</i>
   <v name="RWIGS">     -1.00000000</v>
   <i type="int" name="NEDOS">   301</i>
   <i name="EMIN">     10.00000000</i>
   <i name="EMAX">    -10.00000000</i>
   <i name="EFERMI">      0.00000000</i>
  </separator>
  <separator name="writing" >
   <i type="int" name="NWRITE">     2</i>
   <i type="logical" name="LWAVE"> F  </i>
   <i type="logical" name="LDOWNSAMPLE"> F  </i>
   <i type="logical" name="LCHARG"> F  </i>
   <i type="logical" name="LPARD"> F  </i>
   <i type="logical" name="LVTOT"> F  </i>
   <i type="logical" name="LVHAR"> F  </i>
   <i type="logical" name="LELF"> F  </i>
   <i type="logical" name="LOPTICS"> F  </i>
   <v name="STM">      0.00000000      0.00000000      0.00000000      0.00000000      0.00000000      0.00000000      0.00000000</v>
  </separator>
  <separator name="performance" >
   <i type="int" name="NPAR">     2</i>
   <i type="int" name="NSIM">     4</i>
   <i type="int" name="NBLK">    -1</i>
   <i type="logical" name="LPLANE"> T  </i>
   <i type="logical" name="LSCALAPACK"> T  </i>
   <i type="logical" name="LSCAAWARE"> F  </i>
   <i type="logical" name="LSCALU"> F  </i>
   <i type="logical" name="LASYNC"> F  </i>
   <i type="logical" name="LORBITALREAL"> F  </i>
  </separator>
  <separator name="miscellaneous" >
   <i type="int" name="IDIOT">     3</i>
   <i type="int" name="PHON_NSTRUCT">    -1</i>
   <i type="logical" name="LMUSIC"> F  </i>
   <v name="POMASS">     28.08500000</v>
   <v name="DARWINR">      0.00000000</v>
   <v name="DARWINV">      1.00000000</v>
   <i type="logical" name="LCORR"> T  </i>
  </separator>
  <i type="logical" name="GGA_COMPAT"> F  </i>
  <i type="logical" name="LBERRY"> F  </i>
  <i type="int" name="ICORELEVEL">     0</i>
  <i type="logical" name="LDAU"> F  </i>
  <i type="int" name="I_CONSTRAINED_M">     0</i>
  <separator name="electronic exchange-correlation" >
   <i type="string" name="GGA    ">PS</i>
   <i type="string" name="XC_C">1</i>
   <i type="int" name="VOSKOWN">     0</i>
   <i type="logical" name="LHFCALC"> F  </i>
   <i type="string" name="PRECFOCK"></i>
   <i type="logical" name="LSYMGRAD"> F  </i>
   <i type="logical" name="LHFONE"> F  </i>
   <i type="logical" name="LRHFCALC"> F  </i>
   <i type="logical" name="LTHOMAS"> F  </i>
   <i type="logical" name="LMODELHF"> F  </i>
   <i type="logical" name="LFOCKACE"> F  </i>
   <i name="ENCUT4O">     -1.00000000</i>
   <i type="int" name="EXXOEP">     0</i>
   <i type="int" name="FOURORBIT">     0</i>
   <i name="AEXX">      0.00000000</i>
   <i name="HFALPHA">      0.00000000</i>
   <i name="MCALPHA">      0.00000000</i>
   <i name="ALDAX">      1.00000000</i>
   <i name="AGGAX">      1.00000000</i>
   <i name="AMGGAX">      1.00000000</i>
   <i name="ALDAC">      1.00000000</i>
   <i name="AGGAC">      1.00000000</i>
   <i name="AMGGAC">      1.00000000</i>
   <i type="int" name="NKREDX">     1</i>
   <i type="int" name="NKREDY">     1</i>
   <i type="int" name="NKREDZ">     1</i>
   <i type="logical" name="SHIFTRED"> F  </i>
   <i type="logical" name="ODDONLY"> F  </i>
   <i type="logical" name="EVENONLY"> F  </i>
   <i type="int" name="LMAXFOCK">     0</i>
   <i type="int" name="NMAXFOCKAE">     0</i>
   <i type="logical" name="LFOCKAEDFT"> F  </i>
   <i name="HFSCREEN">      0.00000000</i>
   <i name="HFSCREENC">      0.00000000</i>
   <i type="int" name="NBANDSGWLOW">     0</i>
  </separator>
  <separator name="vdW DFT" >
   <i type="logical" name="LUSE_VDW"> F  </i>
   <i type="int" name="IVDW_NL">    -1</i>
   <i type="logical" name="LSPIN_VDW"> F  </i>
   <i name="ZAB_VDW">     -0.84910000</i>
   <i name="GAMMA_VDW">      1.39626340</i>
   <i name="ALPHA_VDW">      0.00000000</i>
   <i name="PARAM1">      0.12340000</i>
   <i name="PARAM2">      1.00000000</i>
   <i name="BPARAM">      6.30000000</i>
   <i name="CPARAM">      0.00930000</i>
  </separator>
  <separator name="model GW" >
   <i type="int" name="MODEL_GW">     0</i>
   <i name="MODEL_EPS0">     12.08040000</i>
   <i name="MODEL_ALPHA">      1.00000000</i>
  </separator>
  <separator name="linear response parameters" >
   <i type="logical" name="LEPSILON"> F  </i>
   <i type="logical" name="LRPA"> F  </i>
   <i type="logical" name="LNABLA"> F  </i>
   <i type="logical" name="LVEL"> F  </i>
   <i name="CSHIFT">      0.10000000</i>
   <i name="OMEGAMAX">     -1.00000000</i>
   <i name="DEG_THRESHOLD">      0.00200000</i>
   <i name="RTIME">     -0.10000000</i>
   <i name="WPLASMAI">      0.00000000</i>
   <v name="DFIELD">      0.00000000      0.00000000      0.00000000</v>
   <v name="WPLASMA">      0.00000000      0.00000000      0.00000000      0.00000000      0.00000000      0.00000000      0.00000000      0.00000000      0.00000000</v>
  </separator>
  <separator name="orbital magnetization" >
   <i type="logical" name="NUCIND"> F  </i>
   <v name="MAGPOS">      0.00000000      0.00000000      0.00000000</v>
   <i type="logical" name="LNICSALL"> T  </i>
   <i type="logical" name="ORBITALMAG"> F  </i>
   <i type="logical" name="LMAGBLOCH"> F  </i>
   <i type="logical" name="LCHIMAG"> F  </i>
   <i type="logical" name="LGAUGE"> T  </i>
   <i type="int" name="MAGATOM">     0</i>
   <v name="MAGDIPOL">      0.00000000      0.00000000      0.00000000</v>
   <v name="AVECCONST">      0.00000000      0.00000000      0.00000000</v>
  </separator>
  <separator name="response functions" >
   <i type="logical" name="LALL_IN_ONE"> F  </i>
   <i type="int" name="IALL_IN_ONE">    -1</i>
   <i type="int" name="NBANDS_WAVE">    -1</i>
   <i type="logical" name="LFINITE_TEMPERATURE"> F  </i>
   <i type="logical" name="LADDER"> F  </i>
   <i type="logical" name="LRPAFORCE"> F  </i>
   <i type="logical" name="LFXC"> F  </i>
   <i type="logical" name="LHARTREE"> T  </i>
   <i type="int" name="IBSE">     0</i>
   <v type="int" name="KPOINT">    -1     0     0     0</v>
   <i type="logical" name="LTCTC"> F  </i>
   <i type="logical" name="LTCTE"> F  </i>
   <i type="logical" name="LTETE"> F  </i>
   <i type="logical" name="LTRIPLET"> F  </i>
   <i type="logical" name="LFXCEPS"> F  </i>
   <i type="logical" name="LFXHEG"> F  </i>
   <i type="int" name="NATURALO">     2</i>
   <i type="logical" name="LHOLEGF"> F  </i>
   <i type="logical" name="L2ORDER"> F  </i>
   <i type="logical" name="LDMP1"> F  </i>
   <i type="logical" name="LMP2LT"> F  </i>
   <i type="logical" name="LSMP2LT"> F  </i>
   <i type="logical" name="LGWLF"> F  </i>
   <i name="ENCUTGW">     -1.60000002</i>
   <i name="ENCUTGWSOFT">     -1.60000002</i>
   <i name="ENCUTLF">     -1.00000000</i>
   <i type="logical" name="ESF_SPLINES"> F  </i>
   <i name="ESF_CONV">      0.01000000</i>
   <i type="int" name="ESF_NINTER">    15</i>
   <i type="int" name="LMAXMP2">    -1</i>
   <i name="SCISSOR">      0.00000000</i>
   <i type="int" name="NOMEGA">     0</i>
   <i type="int" name="NOMEGAR">     0</i>
   <i type="int" name="NBANDSGW">    -1</i>
   <i type="int" name="NBANDSO">    -1</i>
   <i type="int" name="NBANDSV">    -1</i>
   <i type="int" name="NELMGW">     1</i>
   <i type="int" name="NELMHF">     1</i>
   <i type="int" name="DIM">     3</i>
   <i type="int" name="IESPILON">     4</i>
   <i type="int" name="ANTIRES">     0</i>
   <i name="OMEGAMAX">    -30.00000000</i>
   <i name="OMEGAMIN">    -30.00000000</i>
   <i name="OMEGATL">   -200.00000000</i>
   <i type="int" name="OMEGAGRID">     0</i>
   <i name="CSHIFT">     -0.10000000</i>
   <i type="logical" name="LSELFENERGY"> F  </i>
   <i type="logical" name="LSPECTRAL"> F  </i>
   <i type="logical" name="LSPECTRALGW"> F  </i>
   <i type="logical" name="LSINGLES"> F  </i>
   <i type="logical" name="LFERMIGW"> F  </i>
   <i type="logical" name="ODDONLYGW"> F  </i>
   <i type="logical" name="EVENONLYGW"> F  </i>
   <i type="int" name="NKREDLFX">     1</i>
   <i type="int" name="NKREDLFY">     1</i>
   <i type="int" name="NKREDLFZ">     1</i>
   <i type="int" name="MAXMEM">  2800</i>
   <i type="int" name="TELESCOPE">     0</i>
   <i type="int" name="NTAUPAR">    -1</i>
   <i type="int" name="NOMEGAPAR">    -1</i>
   <i name="DAMP_NEWTON">      0.80000001</i>
   <i name="LAMBDA">      1.00000000</i>
  </separator>
  <separator name="External order field" >
   <i name="OFIELD_KAPPA">      0.00000000</i>
   <v name="OFIELD_K">      0.00000000      0.00000000      0.00000000</v>
   <i name="OFIELD_Q6_NEAR">      0.00000000</i>
   <i name="OFIELD_Q6_FAR">      0.00000000</i>
   <i name="OFIELD_A">      0.00000000</i>
  </separator>
  <separator name="optional k-points parameters" >
   <i type="int" name="KPOINTS_OPT_MODE">     1</i>
   <i type="logical" name="LKPOINTS_OPT"> F  </i>
  </separator>
 </parameters>
 <atominfo>
  <atoms>      64 </atoms>
  <types>       1 </types>
  <array name="atoms" >
   <dimension dim="1">ion</dimension>
   <field type="string">element</field>
   <field type="int">atomtype</field>
   <set>
    <rc><c>Si</c><c>   1</c></rc>
    <rc><c>Si</c><c>   1</c></rc>
    <rc><c>Si</c><c>   1</c></rc>
    <rc><c>Si</c><c>   1</c></rc>
    <rc><c>Si</c><c>   1</c></rc>
    <rc><c>Si</c><c>   1</c></rc>
    <rc><c>Si</c><c>   1</c></rc>
    <rc><c>Si</c><c>   1</c></rc>
    <rc><c>Si</c><c>   1</c></rc>
    <rc><c>Si</c><c>   1</c></rc>
    <rc><c>Si</c><c>   1</c></rc>
    <rc><c>Si</c><c>   1</c></rc>
    <rc><c>Si</c><c>   1</c></rc>
    <rc><c>Si</c><c>   1</c></rc>
    <rc><c>Si</c><c>   1</c></rc>
    <rc><c>Si</c><c>   1</c></rc>
    <rc><c>Si</c><c>   1</c></rc>
    <rc><c>Si</c><c>   1</c></rc>
    <rc><c>Si</c><c>   1</c></rc>
    <rc><c>Si</c><c>   1</c></rc>
    <rc><c>Si</c><c>   1</c></rc>
    <rc><c>Si</c><c>   1</c></rc>
    <rc><c>Si</c><c>   1</c></rc>
    <rc><c>Si</c><c>   1</c></rc>
    <rc><c>Si</c><c>   1</c></rc>
    <rc><c>Si</c><c>   1</c></rc>
    <rc><c>Si</c><c>   1</c></rc>
    <rc><c>Si</c><c>   1</c></rc>
    <rc><c>Si</c><c>   1</c></rc>
    <rc><c>Si</c><c>   1</c></rc>
    <rc><c>Si</c><c>   1</c></rc>
    <rc><c>Si</c><c>   1</c></rc>
    <rc><c>Si</c><c>   1</c></rc>
    <rc><c>Si</c><c>   1</c></rc>
    <rc><c>Si</c><c>   1</c></rc>
    <rc><c>Si</c><c>   1</c></rc>
    <rc><c>Si</c><c>   1</c></rc>
    <rc><c>Si</c><c>   1</c></rc>
    <rc><c>Si</c><c>   1</c></rc>
    <rc><c>Si</c><c>   1</c></rc>
    <rc><c>Si</c><c>   1</c></rc>
    <rc><c>Si</c><c>   1</c></rc>
    <rc><c>Si</c><c>   1</c></rc>
    <rc><c>Si</c><c>   1</c></rc>
    <rc><c>Si</c><c>   1</c></rc>
    <rc><c>Si</c><c>   1</c></rc>
    <rc><c>Si</c><c>   1</c></rc>
    <rc><c>Si</c><c>   1</c></rc>
    <rc><c>Si</c><c>   1</c></rc>
    <rc><c>Si</c><c>   1</c></rc>
    <rc><c>Si</c><c>   1</c></rc>
    <rc><c>Si</c><c>   1</c></rc>
    <rc><c>Si</c><c>   1</c></rc>
    <rc><c>Si</c><c>   1</c></rc>
    <rc><c>Si</c><c>   1</c></rc>
    <rc><c>Si</c><c>   1</c></rc>
    <rc><c>Si</c><c>   1</c></rc>
    <rc><c>Si</c><c>   1</c></rc>
    <rc><c>Si</c><c>   1</c></rc>
    <rc><c>Si</c><c>   1</c></rc>
    <rc><c>Si</c><c>   1</c></rc>
    <rc><c>Si</c><c>   1</c></rc>
    <rc><c>Si</c><c>   1</c></rc>
    <rc><c>Si</c><c>   1</c></rc>
   </set>
  </array>
  <array name="atomtypes" >
   <dimension dim="1">type</dimension>
   <field type="int">atomspertype</field>
   <field type="string">element</field>
   <field>mass</field>
   <field>valence</field>
   <field type="string">pseudopotential</field>
   <set>
    <rc><c>  64</c><c>Si</c><c>     28.08500000</c><c>      4.00000000</c><c>  PAW_PBE Si 05Jan2001                  </c></rc>
   </set>
  </array>
 </atominfo>
 <structure name="initialpos" >
  <crystal>
   <varray name="basis" >
    <v>      10.88186531       0.00000000       0.00000000 </v>
    <v>       0.00000000      10.88186531       0.00000000 </v>
    <v>       0.00000000       0.00000000      10.88186531 </v>
   </varray>
   <i name="volume">   1288.57600000 </i>
   <varray name="rec_basis" >
    <v>       0.09189601       0.00000000       0.00000000 </v>
    <v>       0.00000000       0.09189601       0.00000000 </v>
    <v>       0.00000000       0.00000000       0.09189601 </v>
   </varray>
  </crystal>
  <varray name="positions" >
   <v>       0.00000000       0.00000000       0.00000000 </v>
   <v>       0.00000000       0.00000000       0.50000000 </v>
   <v>       0.00000000       0.50000000       0.00000000 </v>
   <v>       0.00000000       0.50000000       0.50000000 </v>
   <v>       0.50000000       0.00000000       0.00000000 </v>
   <v>       0.50000000       0.00000000       0.50000000 </v>
   <v>       0.50000000       0.50000000       0.00000000 </v>
   <v>       0.50000000       0.50000000       0.50000000 </v>
   <v>       0.37500000       0.37500000       0.12500000 </v>
   <v>       0.37500000       0.37500000       0.62500000 </v>
   <v>       0.37500000       0.87500000       0.12500000 </v>
   <v>       0.37500000       0.87500000       0.62500000 </v>
   <v>       0.87500000       0.37500000       0.12500000 </v>
   <v>       0.87500000       0.37500000       0.62500000 </v>
   <v>       0.87500000       0.87500000       0.12500000 </v>
   <v>       0.87500000       0.87500000       0.62500000 </v>
   <v>       0.00000000       0.25000000       0.25000000 </v>
   <v>       0.00000000       0.25000000       0.75000000 </v>
   <v>       0.00000000       0.75000000       0.25000000 </v>
   <v>       0.00000000       0.75000000       0.75000000 </v>
   <v>       0.50000000       0.25000000       0.25000000 </v>
   <v>       0.50000000       0.25000000       0.75000000 </v>
   <v>       0.50000000       0.75000000       0.25000000 </v>
   <v>       0.50000000       0.75000000       0.75000000 </v>
   <v>       0.37500000       0.12500000       0.37500000 </v>
   <v>       0.37500000       0.12500000       0.87500000 </v>
   <v>       0.37500000       0.62500000       0.37500000 </v>
   <v>       0.37500000       0.62500000       0.87500000 </v>
   <v>       0.87500000       0.12500000       0.37500000 </v>
   <v>       0.87500000       0.12500000       0.87500000 </v>
   <v>       0.87500000       0.62500000       0.37500000 </v>
   <v>       0.87500000       0.62500000       0.87500000 </v>
   <v>       0.25000000       0.00000000       0.25000000 </v>
   <v>       0.25000000       0.00000000       0.75000000 </v>
   <v>       0.25000000       0.50000000       0.25000000 </v>
   <v>       0.25000000       0.50000000       0.75000000 </v>
   <v>       0.75000000       0.00000000       0.25000000 </v>
   <v>       0.75000000       0.00000000       0.75000000 </v>
   <v>       0.75000000       0.50000000       0.25000000 </v>
   <v>       0.75000000       0.50000000       0.75000000 </v>
   <v>       0.12500000       0.37500000       0.37500000 </v>
   <v>       0.12500000       0.37500000       0.87500000 </v>
   <v>       0.12500000       0.87500000       0.37500000 </v>
   <v>       0.12500000       0.87500000       0.87500000 </v>
   <v>       0.62500000       0.37500000       0.37500000 </v>
   <v>       0.62500000       0.37500000       0.87500000 </v>
   <v>       0.62500000       0.87500000       0.37500000 </v>
   <v>       0.62500000       0.87500000       0.87500000 </v>
   <v>       0.25000000       0.25000000       0.00000000 </v>
   <v>       0.25000000       0.25000000       0.50000000 </v>
   <v>       0.25000000       0.75000000       0.00000000 </v>
   <v>       0.25000000       0.75000000       0.50000000 </v>
   <v>       0.75000000       0.25000000       0.00000000 </v>
   <v>       0.75000000       0.25000000       0.50000000 </v>
   <v>       0.75000000       0.75000000       0.00000000 </v>
   <v>       0.75000000       0.75000000       0.50000000 </v>
   <v>       0.12500000       0.12500000       0.12500000 </v>
   <v>       0.12500000       0.12500000       0.62500000 </v>
   <v>       0.12500000       0.62500000       0.12500000 </v>
   <v>       0.12500000       0.62500000       0.62500000 </v>
   <v>       0.62500000       0.12500000       0.12500000 </v>
   <v>       0.62500000       0.12500000       0.62500000 </v>
   <v>       0.62500000       0.62500000       0.12500000 </v>
   <v>       0.62500000       0.62500000       0.62500000 </v>
  </varray>
 </structure>
 <calculation>
  <scstep>
   <time name="dav">    0.71    0.75</time>
   <time name="total">    0.88    0.93</time>
   <energy>
    <i name="alphaZ">    107.00508449 </i>
    <i name="ewald">  -7299.33766899 </i>
    <i name="hartreedc">   -354.93841849 </i>
    <i name="XCdc">   -559.26310674 </i>
    <i name="pawpsdc">   5598.62625415 </i>
    <i name="pawaedc">  -4492.17844134 </i>
    <i name="eentropy">     -0.01043342 </i>
    <i name="bandstr">    991.10557716 </i>
    <i name="atom">   6564.79586099 </i>
    <i name="e_fr_energy">    555.80470781 </i>
    <i name="e_wo_entrp">    555.81514123 </i>
    <i name="e_0_energy">    555.80818562 </i>
   </energy>
  </scstep>
  <scstep>
   <time name="dav">    0.72    0.73</time>
   <time name="total">    0.72    0.73</time>
   <energy>
    <i name="e_fr_energy">   -309.90672931 </i>
    <i name="e_wo_entrp">   -309.91137530 </i>
    <i name="e_0_energy">   -309.90827798 </i>
   </energy>
  </scstep>
  <scstep>
   <time name="dav">    0.70    0.71</time>
   <time name="total">    0.70    0.71</time>
   <energy>
    <i name="e_fr_energy">   -372.98222624 </i>
    <i name="e_wo_entrp">   -372.98961977 </i>
    <i name="e_0_energy">   -372.98469075 </i>
   </energy>
  </scstep>
  <scstep>
   <time name="dav">    0.70    0.71</time>
   <time name="total">    0.70    0.71</time>
   <energy>
    <i name="e_fr_energy">   -374.66427779 </i>
    <i name="e_wo_entrp">   -374.67279055 </i>
    <i name="e_0_energy">   -374.66711538 </i>
   </energy>
  </scstep>
  <scstep>
   <time name="dav">    0.70    0.72</time>
   <time name="total">    0.97    0.98</time>
   <energy>
    <i name="e_fr_energy">   -374.71556002 </i>
    <i name="e_wo_entrp">   -374.72408616 </i>
    <i name="e_0_energy">   -374.71840207 </i>
   </energy>
  </scstep>
  <scstep>
   <time name="diag">    0.07    0.07</time>
   <time name="diis">    0.37    0.39</time>
   <time name="orth">    0.01    0.01</time>
   <time name="total">    0.86    0.90</time>
   <energy>
    <i name="e_fr_energy">   -369.82219944 </i>
    <i name="e_wo_entrp">   -369.83081356 </i>
    <i name="e_0_energy">   -369.82507081 </i>
   </energy>
  </scstep>
  <scstep>
   <time name="diag">    0.07    0.07</time>
   <time name="diis">    0.37    0.38</time>
   <time name="orth">    0.01    0.01</time>
   <time name="total">    0.86    0.87</time>
   <energy>
    <i name="e_fr_energy">   -367.57063229 </i>
    <i name="e_wo_entrp">   -367.59894196 </i>
    <i name="e_0_energy">   -367.58006885 </i>
   </energy>
  </scstep>
  <scstep>
   <time name="diag">    0.07    0.07</time>
   <time name="diis">    0.38    0.38</time>
   <time name="orth">    0.01    0.01</time>
   <time name="total">    0.85    0.87</time>
   <energy>
    <i name="e_fr_energy">   -367.60869755 </i>
    <i name="e_wo_entrp">   -367.63424223 </i>
    <i name="e_0_energy">   -367.61721245 </i>
   </energy>
  </scstep>
  <scstep>
   <time name="diag">    0.07    0.07</time>
   <time name="diis">    0.38    0.38</time>
   <time name="orth">    0.01    0.01</time>
   <time name="total">    0.86    0.88</time>
   <energy>
    <i name="e_fr_energy">   -367.62668011 </i>
    <i name="e_wo_entrp">   -367.65278200 </i>
    <i name="e_0_energy">   -367.63538074 </i>
   </energy>
  </scstep>
  <scstep>
   <time name="diag">    0.07    0.07</time>
   <time name="diis">    0.39    0.39</time>
   <time name="orth">    0.01    0.01</time>
   <time name="total">    0.87    0.89</time>
   <energy>
    <i name="e_fr_energy">   -367.62956968 </i>
    <i name="e_wo_entrp">   -367.65566326 </i>
    <i name="e_0_energy">   -367.63826754 </i>
   </energy>
  </scstep>
  <scstep>
   <time name="diag">    0.07    0.07</time>
   <time name="diis">    0.36    0.37</time>
   <time name="orth">    0.01    0.01</time>
   <time name="total">    0.85    0.86</time>
   <energy>
    <i name="e_fr_energy">   -367.62807193 </i>
    <i name="e_wo_entrp">   -367.65337496 </i>
    <i name="e_0_energy">   -367.63650627 </i>
   </energy>
  </scstep>
  <scstep>
   <time name="diag">    0.07    0.07</time>
   <time name="diis">    0.37    0.37</time>
   <time name="orth">    0.01    0.01</time>
   <time name="total">    0.85    0.87</time>
   <energy>
    <i name="e_fr_energy">   -367.62795594 </i>
    <i name="e_wo_entrp">   -367.65321549 </i>
    <i name="e_0_energy">   -367.63637579 </i>
   </energy>
  </scstep>
  <scstep>
   <time name="diag">    0.07    0.07</time>
   <time name="diis">    0.38    0.39</time>
   <time name="orth">    0.01    0.01</time>
   <time name="total">    0.88    0.90</time>
   <energy>
    <i name="e_fr_energy">   -367.62810184 </i>
    <i name="e_wo_entrp">   -367.65336043 </i>
    <i name="e_0_energy">   -367.63652137 </i>
   </energy>
  </scstep>
  <scstep>
   <time name="diag">    0.07    0.07</time>
   <time name="diis">    0.37    0.37</time>
   <time name="orth">    0.01    0.01</time>
   <time name="total">    0.86    0.87</time>
   <energy>
    <i name="e_fr_energy">   -367.62637664 </i>
    <i name="e_wo_entrp">   -367.65167116 </i>
    <i name="e_0_energy">   -367.63480815 </i>
   </energy>
  </scstep>
  <scstep>
   <time name="diag">    0.07    0.07</time>
   <time name="diis">    0.37    0.37</time>
   <time name="orth">    0.01    0.01</time>
   <time name="total">    0.85    0.87</time>
   <energy>
    <i name="e_fr_energy">   -367.62615607 </i>
    <i name="e_wo_entrp">   -367.65140965 </i>
    <i name="e_0_energy">   -367.63457393 </i>
   </energy>
  </scstep>
  <scstep>
   <time name="diag">    0.07    0.07</time>
   <time name="diis">    0.38    0.38</time>
   <time name="orth">    0.01    0.01</time>
   <time name="total">    0.86    0.88</time>
   <energy>
    <i name="e_fr_energy">   -367.62624371 </i>
    <i name="e_wo_entrp">   -367.65149527 </i>
    <i name="e_0_energy">   -367.63466090 </i>
   </energy>
  </scstep>
  <scstep>
   <time name="diag">    0.07    0.07</time>
   <time name="diis">    0.39    0.39</time>
   <time name="orth">    0.01    0.01</time>
   <time name="total">    0.87    0.89</time>
   <energy>
    <i name="e_fr_energy">   -367.62731018 </i>
    <i name="e_wo_entrp">   -367.65248280 </i>
    <i name="e_0_energy">   -367.63570105 </i>
   </energy>
  </scstep>
  <scstep>
   <time name="diag">    0.07    0.07</time>
   <time name="diis">    0.51    0.51</time>
   <time name="orth">    0.01    0.01</time>
   <time name="total">    0.99    1.01</time>
   <energy>
    <i name="e_fr_energy">   -367.62845925 </i>
    <i name="e_wo_entrp">   -367.65357716 </i>
    <i name="e_0_energy">   -367.63683189 </i>
   </energy>
  </scstep>
  <scstep>
   <time name="diag">    0.07    0.07</time>
   <time name="diis">    0.38    0.38</time>
   <time name="orth">    0.01    0.01</time>
   <time name="total">    0.86    0.88</time>
   <energy>
    <i name="e_fr_energy">   -367.62859329 </i>
    <i name="e_wo_entrp">   -367.65373310 </i>
    <i name="e_0_energy">   -367.63697323 </i>
   </energy>
  </scstep>
  <scstep>
   <time name="diag">    0.07    0.07</time>
   <time name="diis">    0.37    0.37</time>
   <time name="orth">    0.01    0.01</time>
   <time name="total">    0.86    0.87</time>
   <energy>
    <i name="e_fr_energy">   -367.62860087 </i>
    <i name="e_wo_entrp">   -367.65376080 </i>
    <i name="e_0_energy">   -367.63698752 </i>
   </energy>
  </scstep>
  <scstep>
   <time name="diag">    0.07    0.07</time>
   <time name="diis">    0.31    0.31</time>
   <time name="orth">    0.01    0.01</time>
   <time name="total">    0.54    0.56</time>
   <energy>
    <i name="alphaZ">    107.00508449 </i>
    <i name="ewald">  -7299.33766899 </i>
    <i name="hartreedc">   -470.21391392 </i>
    <i name="XCdc">   -539.85343208 </i>
    <i name="pawpsdc">  27437.90384739 </i>
    <i name="pawaedc"> -26338.20283826 </i>
    <i name="eentropy">      0.02516416 </i>
    <i name="bandstr">    170.24929485 </i>
    <i name="atom">   6564.79586099 </i>
    <i name="e_fr_energy">   -367.62860137 </i>
    <i name="e_wo_entrp">   -367.65376553 </i>
    <i name="e_0_energy">   -367.63698942 </i>
   </energy>
  </scstep>
  <structure>
   <crystal>
    <varray name="basis" >
     <v>      10.88186531       0.00000000       0.00000000 </v>
     <v>       0.00000000      10.88186531       0.00000000 </v>
     <v>       0.00000000       0.00000000      10.88186531 </v>
    </varray>
    <i name="volume">   1288.57600000 </i>
    <varray name="rec_basis" >
     <v>       0.09189601       0.00000000       0.00000000 </v>
     <v>       0.00000000       0.09189601       0.00000000 </v>
     <v>       0.00000000       0.00000000       0.09189601 </v>
    </varray>
   </crystal>
   <varray name="positions" >
    <v>       0.00000000       0.00000000       0.00000000 </v>
    <v>       0.00000000       0.00000000       0.50000000 </v>
    <v>       0.00000000       0.50000000       0.00000000 </v>
    <v>       0.00000000       0.50000000       0.50000000 </v>
    <v>       0.50000000       0.00000000       0.00000000 </v>
    <v>       0.50000000       0.00000000       0.50000000 </v>
    <v>       0.50000000       0.50000000       0.00000000 </v>
    <v>       0.50000000       0.50000000       0.50000000 </v>
    <v>       0.37500000       0.37500000       0.12500000 </v>
    <v>       0.37500000       0.37500000       0.62500000 </v>
    <v>       0.37500000       0.87500000       0.12500000 </v>
    <v>       0.37500000       0.87500000       0.62500000 </v>
    <v>       0.87500000       0.37500000       0.12500000 </v>
    <v>       0.87500000       0.37500000       0.62500000 </v>
    <v>       0.87500000       0.87500000       0.12500000 </v>
    <v>       0.87500000       0.87500000       0.62500000 </v>
    <v>       0.00000000       0.25000000       0.25000000 </v>
    <v>       0.00000000       0.25000000       0.75000000 </v>
    <v>       0.00000000       0.75000000       0.25000000 </v>
    <v>       0.00000000       0.75000000       0.75000000 </v>
    <v>       0.50000000       0.25000000       0.25000000 </v>
    <v>       0.50000000       0.25000000       0.75000000 </v>
    <v>       0.50000000       0.75000000       0.25000000 </v>
    <v>       0.50000000       0.75000000       0.75000000 </v>
    <v>       0.37500000       0.12500000       0.37500000 </v>
    <v>       0.37500000       0.12500000       0.87500000 </v>
    <v>       0.37500000       0.62500000       0.37500000 </v>
    <v>       0.37500000       0.62500000       0.87500000 </v>
    <v>       0.87500000       0.12500000       0.37500000 </v>
    <v>       0.87500000       0.12500000       0.87500000 </v>
    <v>       0.87500000       0.62500000       0.37500000 </v>
    <v>       0.87500000       0.62500000       0.87500000 </v>
    <v>       0.25000000       0.00000000       0.25000000 </v>
    <v>       0.25000000       0.00000000       0.75000000 </v>
    <v>       0.25000000       0.50000000       0.25000000 </v>
    <v>       0.25000000       0.50000000       0.75000000 </v>
    <v>       0.75000000       0.00000000       0.25000000 </v>
    <v>       0.75000000       0.00000000       0.75000000 </v>
    <v>       0.75000000       0.50000000       0.25000000 </v>
    <v>       0.75000000       0.50000000       0.75000000 </v>
    <v>       0.12500000       0.37500000       0.37500000 </v>
    <v>       0.12500000       0.37500000       0.87500000 </v>
    <v>       0.12500000       0.87500000       0.37500000 </v>
    <v>       0.12500000       0.87500000       0.87500000 </v>
    <v>       0.62500000       0.37500000       0.37500000 </v>
    <v>       0.62500000       0.37500000       0.87500000 </v>
    <v>       0.62500000       0.87500000       0.37500000 </v>
    <v>       0.62500000       0.87500000       0.87500000 </v>
    <v>       0.25000000       0.25000000       0.00000000 </v>
    <v>       0.25000000       0.25000000       0.50000000 </v>
    <v>       0.25000000       0.75000000       0.00000000 </v>
    <v>       0.25000000       0.75000000       0.50000000 </v>
    <v>       0.75000000       0.25000000       0.00000000 </v>
    <v>       0.75000000       0.25000000       0.50000000 </v>
    <v>       0.75000000       0.75000000       0.00000000 </v>
    <v>       0.75000000       0.75000000       0.50000000 </v>
    <v>       0.12500000       0.12500000       0.12500000 </v>
    <v>       0.12500000       0.12500000       0.62500000 </v>
    <v>       0.12500000       0.62500000       0.12500000 </v>
    <v>       0.12500000       0.62500000       0.62500000 </v>
    <v>       0.62500000       0.12500000       0.12500000 </v>
    <v>       0.62500000       0.12500000       0.62500000 </v>
    <v>       0.62500000       0.62500000       0.12500000 </v>
    <v>       0.62500000       0.62500000       0.62500000 </v>
   </varray>
  </structure>
  <varray name="forces" >
   <v>       0.00000000      -0.00000000       0.00000000 </v>
   <v>       0.00000000      -0.00000000       0.00000000 </v>
   <v>       0.00000000      -0.00000000       0.00000000 </v>
   <v>      -0.00000000      -0.00000000      -0.00000000 </v>
   <v>       0.00000000       0.00000000       0.00000000 </v>
   <v>       0.00000000      -0.00000000       0.00000000 </v>
   <v>      -0.00000000      -0.00000000       0.00000000 </v>
   <v>       0.00000000      -0.00000000       0.00000000 </v>
   <v>       0.00000000      -0.00000000      -0.00000000 </v>
   <v>      -0.00000000      -0.00000000      -0.00000000 </v>
   <v>       0.00000000       0.00000000      -0.00000000 </v>
   <v>      -0.00000000      -0.00000000      -0.00000000 </v>
   <v>      -0.00000000      -0.00000000      -0.00000000 </v>
   <v>      -0.00000000       0.00000000      -0.00000000 </v>
   <v>      -0.00000000       0.00000000      -0.00000000 </v>
   <v>      -0.00000000       0.00000000      -0.00000000 </v>
   <v>      -0.00000000      -0.00000000       0.00000000 </v>
   <v>       0.00000000       0.00000000       0.00000000 </v>
   <v>      -0.00000000       0.00000000       0.00000000 </v>
   <v>       0.00000000      -0.00000000       0.00000000 </v>
   <v>       0.00000000      -0.00000000       0.00000000 </v>
   <v>      -0.00000000       0.00000000      -0.00000000 </v>
   <v>       0.00000000      -0.00000000       0.00000000 </v>
   <v>      -0.00000000      -0.00000000       0.00000000 </v>
   <v>      -0.00000000      -0.00000000      -0.00000000 </v>
   <v>      -0.00000000      -0.00000000      -0.00000000 </v>
   <v>      -0.00000000       0.00000000       0.00000000 </v>
   <v>      -0.00000000       0.00000000      -0.00000000 </v>
   <v>      -0.00000000       0.00000000      -0.00000000 </v>
   <v>      -0.00000000       0.00000000      -0.00000000 </v>
   <v>      -0.00000000       0.00000000      -0.00000000 </v>
   <v>      -0.00000000       0.00000000      -0.00000000 </v>
   <v>       0.00000000      -0.00000000       0.00000000 </v>
   <v>       0.00000000      -0.00000000       0.00000000 </v>
   <v>       0.00000000      -0.00000000       0.00000000 </v>
   <v>       0.00000000      -0.00000000       0.00000000 </v>
   <v>       0.00000000       0.00000000       0.00000000 </v>
   <v>       0.00000000      -0.00000000       0.00000000 </v>
   <v>      -0.00000000      -0.00000000       0.00000000 </v>
   <v>       0.00000000      -0.00000000      -0.00000000 </v>
   <v>      -0.00000000      -0.00000000      -0.00000000 </v>
   <v>       0.00000000       0.00000000       0.00000000 </v>
   <v>      -0.00000000       0.00000000       0.00000000 </v>
   <v>       0.00000000       0.00000000      -0.00000000 </v>
   <v>       0.00000000       0.00000000      -0.00000000 </v>
   <v>      -0.00000000      -0.00000000      -0.00000000 </v>
   <v>       0.00000000       0.00000000      -0.00000000 </v>
   <v>      -0.00000000       0.00000000       0.00000000 </v>
   <v>       0.00000000       0.00000000       0.00000000 </v>
   <v>      -0.00000000      -0.00000000       0.00000000 </v>
   <v>       0.00000000      -0.00000000       0.00000000 </v>
   <v>       0.00000000      -0.00000000       0.00000000 </v>
   <v>      -0.00000000       0.00000000       0.00000000 </v>
   <v>       0.00000000      -0.00000000       0.00000000 </v>
   <v>      -0.00000000      -0.00000000       0.00000000 </v>
   <v>       0.00000000       0.00000000       0.00000000 </v>
   <v>       0.00000000       0.00000000      -0.00000000 </v>
   <v>      -0.00000000      -0.00000000      -0.00000000 </v>
   <v>       0.00000000       0.00000000      -0.00000000 </v>
   <v>      -0.00000000       0.00000000      -0.00000000 </v>
   <v>      -0.00000000      -0.00000000      -0.00000000 </v>
   <v>       0.00000000       0.00000000      -0.00000000 </v>
   <v>      -0.00000000       0.00000000      -0.00000000 </v>
   <v>       0.00000000       0.00000000      -0.00000000 </v>
  </varray>
  <varray name="stress" >
   <v>      -2.63543687       0.00000000       0.00000000 </v>
   <v>       0.00000000      -2.63543687       0.00000000 </v>
   <v>      -0.00000000       0.00000000      -2.63543687 </v>
  </varray>
  <energy>
   <i name="e_fr_energy">   -327.41532485 </i>
   <i name="e_wo_entrp">   -327.44048901 </i>
   <i name="e_0_energy">   -327.42371290 </i>
  </energy>
  <time name="totalsc">   20.66   21.08</time>
 </calculation>
 <calculation>
  <scstep>
   <time name="dav">    0.65    0.66</time>
   <time name="total">    1.09    1.09</time>
   <energy>
    <i name="alphaZ">    117.93899428 </i>
    <i name="ewald">  -7539.93826375 </i>
    <i name="hartreedc">   -485.71123807 </i>
    <i name="XCdc">   -525.86868906 </i>
    <i name="pawpsdc">  27435.40211024 </i>
    <i name="pawaedc"> -26335.70095357 </i>
    <i name="eentropy">     -0.00343281 </i>
    <i name="bandstr">    403.35302261 </i>
    <i name="atom">   6564.79586099 </i>
    <i name="e_fr_energy">   -365.73258914 </i>
    <i name="e_wo_entrp">   -365.72915633 </i>
    <i name="e_0_energy">   -365.73144487 </i>
   </energy>
  </scstep>
  <scstep>
   <time name="diag">    0.07    0.07</time>
   <time name="diis">    0.37    0.37</time>
   <time name="orth">    0.01    0.01</time>
   <time name="total">    0.88    0.90</time>
   <energy>
    <i name="e_fr_energy">   -364.59413895 </i>
    <i name="e_wo_entrp">   -364.60750852 </i>
    <i name="e_0_energy">   -364.59859547 </i>
   </energy>
  </scstep>
  <scstep>
   <time name="diag">    0.07    0.07</time>
   <time name="diis">    0.37    0.37</time>
   <time name="orth">    0.01    0.01</time>
   <time name="total">    0.88    0.89</time>
   <energy>
    <i name="e_fr_energy">   -364.00467962 </i>
    <i name="e_wo_entrp">   -364.03556906 </i>
    <i name="e_0_energy">   -364.01497610 </i>
   </energy>
  </scstep>
  <scstep>
   <time name="diag">    0.07    0.07</time>
   <time name="diis">    0.37    0.37</time>
   <time name="orth">    0.01    0.01</time>
   <time name="total">    0.87    0.89</time>
   <energy>
    <i name="e_fr_energy">   -364.01934595 </i>
    <i name="e_wo_entrp">   -364.04969333 </i>
    <i name="e_0_energy">   -364.02946174 </i>
   </energy>
  </scstep>
  <scstep>
   <time name="diag">    0.07    0.07</time>
   <time name="diis">    0.38    0.38</time>
   <time name="orth">    0.01    0.01</time>
   <time name="total">    0.89    0.90</time>
   <energy>
    <i name="e_fr_energy">   -364.02222500 </i>
    <i name="e_wo_entrp">   -364.05271557 </i>
    <i name="e_0_energy">   -364.03238853 </i>
   </energy>
  </scstep>
  <scstep>
   <time name="diag">    0.07    0.07</time>
   <time name="diis">    0.37    0.37</time>
   <time name="orth">    0.01    0.01</time>
   <time name="total">    0.88    0.89</time>
   <energy>
    <i name="e_fr_energy">   -364.02272100 </i>
    <i name="e_wo_entrp">   -364.05361026 </i>
    <i name="e_0_energy">   -364.03301742 </i>
   </energy>
  </scstep>
  <scstep>
   <time name="diag">    0.07    0.07</time>
   <time name="diis">    0.37    0.37</time>
   <time name="orth">    0.01    0.01</time>
   <time name="total">    0.88    0.89</time>
   <energy>
    <i name="e_fr_energy">   -364.02065157 </i>
    <i name="e_wo_entrp">   -364.05100867 </i>
    <i name="e_0_energy">   -364.03077060 </i>
   </energy>
  </scstep>
  <scstep>
   <time name="diag">    0.07    0.07</time>
   <time name="diis">    0.37    0.37</time>
   <time name="orth">    0.01    0.01</time>
   <time name="total">    0.88    0.89</time>
   <energy>
    <i name="e_fr_energy">   -364.02050021 </i>
    <i name="e_wo_entrp">   -364.05078842 </i>
    <i name="e_0_energy">   -364.03059628 </i>
   </energy>
  </scstep>
  <scstep>
   <time name="diag">    0.07    0.07</time>
   <time name="diis">    0.37    0.37</time>
   <time name="orth">    0.01    0.01</time>
   <time name="total">    0.88    0.90</time>
   <energy>
    <i name="e_fr_energy">   -364.02028924 </i>
    <i name="e_wo_entrp">   -364.05046798 </i>
    <i name="e_0_energy">   -364.03034882 </i>
   </energy>
  </scstep>
  <scstep>
   <time name="diag">    0.07    0.07</time>
   <time name="diis">    0.38    0.38</time>
   <time name="orth">    0.01    0.01</time>
   <time name="total">    0.89    0.90</time>
   <energy>
    <i name="e_fr_energy">   -364.02013070 </i>
    <i name="e_wo_entrp">   -364.05010459 </i>
    <i name="e_0_energy">   -364.03012200 </i>
   </energy>
  </scstep>
  <scstep>
   <time name="diag">    0.07    0.07</time>
   <time name="diis">    0.38    0.39</time>
   <time name="orth">    0.01    0.01</time>
   <time name="total">    0.89    0.91</time>
   <energy>
    <i name="e_fr_energy">   -364.02013509 </i>
    <i name="e_wo_entrp">   -364.05010214 </i>
    <i name="e_0_energy">   -364.03012411 </i>
   </energy>
  </scstep>
  <scstep>
   <time name="diag">    0.07    0.07</time>
   <time name="diis">    0.32    0.32</time>
   <time name="orth">    0.01    0.01</time>
   <time name="total">    0.57    0.58</time>
   <energy>
    <i name="alphaZ">    117.93899428 </i>
    <i name="ewald">  -7539.93826375 </i>
    <i name="hartreedc">   -434.56340937 </i>
    <i name="XCdc">   -526.32199205 </i>
    <i name="pawpsdc">  33881.58385440 </i>
    <i name="pawaedc"> -32784.47414093 </i>
    <i name="eentropy">      0.02996475 </i>
    <i name="bandstr">    356.92899640 </i>
    <i name="atom">   6564.79586099 </i>
    <i name="e_fr_energy">   -364.02013528 </i>
    <i name="e_wo_entrp">   -364.05010003 </i>
    <i name="e_0_energy">   -364.03012353 </i>
   </energy>
  </scstep>
  <structure>
   <crystal>
    <varray name="basis" >
     <v>      10.53462331       0.00000000       0.00000000 </v>
     <v>       0.00000000      10.53462331       0.00000000 </v>
     <v>      -0.00000000       0.00000000      10.53462331 </v>
    </varray>
    <i name="volume">   1169.11446124 </i>
    <varray name="rec_basis" >
     <v>       0.09492508      -0.00000000       0.00000000 </v>
     <v>      -0.00000000       0.09492508      -0.00000000 </v>
     <v>      -0.00000000       0.00000000       0.09492508 </v>
    </varray>
   </crystal>
   <varray name="positions" >
    <v>       0.00000000       1.00000000       0.00000000 </v>
    <v>       0.00000000       1.00000000       0.50000000 </v>
    <v>       0.00000000       0.50000000       0.00000000 </v>
    <v>       1.00000000       0.50000000       0.50000000 </v>
    <v>       0.50000000       0.00000000       0.00000000 </v>
    <v>       0.50000000       1.00000000       0.50000000 </v>
    <v>       0.50000000       0.50000000       0.00000000 </v>
    <v>       0.50000000       0.50000000       0.50000000 </v>
    <v>       0.37500000       0.37500000       0.12500000 </v>
    <v>       0.37500000       0.37500000       0.62500000 </v>
    <v>       0.37500000       0.87500000       0.12500000 </v>
    <v>       0.37500000       0.87500000       0.62500000 </v>
    <v>       0.87500000       0.37500000       0.12500000 </v>
    <v>       0.87500000       0.37500000       0.62500000 </v>
    <v>       0.87500000       0.87500000       0.12500000 </v>
    <v>       0.87500000       0.87500000       0.62500000 </v>
    <v>       1.00000000       0.25000000       0.25000000 </v>
    <v>       0.00000000       0.25000000       0.75000000 </v>
    <v>       1.00000000       0.75000000       0.25000000 </v>
    <v>       0.00000000       0.75000000       0.75000000 </v>
    <v>       0.50000000       0.25000000       0.25000000 </v>
    <v>       0.50000000       0.25000000       0.75000000 </v>
    <v>       0.50000000       0.75000000       0.25000000 </v>
    <v>       0.50000000       0.75000000       0.75000000 </v>
    <v>       0.37500000       0.12500000       0.37500000 </v>
    <v>       0.37500000       0.12500000       0.87500000 </v>
    <v>       0.37500000       0.62500000       0.37500000 </v>
    <v>       0.37500000       0.62500000       0.87500000 </v>
    <v>       0.87500000       0.12500000       0.37500000 </v>
    <v>       0.87500000       0.12500000       0.87500000 </v>
    <v>       0.87500000       0.62500000       0.37500000 </v>
    <v>       0.87500000       0.62500000       0.87500000 </v>
    <v>       0.25000000       1.00000000       0.25000000 </v>
    <v>       0.25000000       1.00000000       0.75000000 </v>
    <v>       0.25000000       0.50000000       0.25000000 </v>
    <v>       0.25000000       0.50000000       0.75000000 </v>
    <v>       0.75000000       0.00000000       0.25000000 </v>
    <v>       0.75000000       1.00000000       0.75000000 </v>
    <v>       0.75000000       0.50000000       0.25000000 </v>
    <v>       0.75000000       0.50000000       0.75000000 </v>
    <v>       0.12500000       0.37500000       0.37500000 </v>
    <v>       0.12500000       0.37500000       0.87500000 </v>
    <v>       0.12500000       0.87500000       0.37500000 </v>
    <v>       0.12500000       0.87500000       0.87500000 </v>
    <v>       0.62500000       0.37500000       0.37500000 </v>
    <v>       0.62500000       0.37500000       0.87500000 </v>
    <v>       0.62500000       0.87500000       0.37500000 </v>
    <v>       0.62500000       0.87500000       0.87500000 </v>
    <v>       0.25000000       0.25000000       0.00000000 </v>
    <v>       0.25000000       0.25000000       0.50000000 </v>
    <v>       0.25000000       0.75000000       0.00000000 </v>
    <v>       0.25000000       0.75000000       0.50000000 </v>
    <v>       0.75000000       0.25000000       0.00000000 </v>
    <v>       0.75000000       0.25000000       0.50000000 </v>
    <v>       0.75000000       0.75000000       0.00000000 </v>
    <v>       0.75000000       0.75000000       0.50000000 </v>
    <v>       0.12500000       0.12500000       0.12500000 </v>
    <v>       0.12500000       0.12500000       0.62500000 </v>
    <v>       0.12500000       0.62500000       0.12500000 </v>
    <v>       0.12500000       0.62500000       0.62500000 </v>
    <v>       0.62500000       0.12500000       0.12500000 </v>
    <v>       0.62500000       0.12500000       0.62500000 </v>
    <v>       0.62500000       0.62500000       0.12500000 </v>
    <v>       0.62500000       0.62500000       0.62500000 </v>
   </varray>
  </structure>
  <varray name="forces" >
   <v>       0.00000000       0.00000000       0.00000000 </v>
   <v>       0.00000000       0.00000000       0.00000000 </v>
   <v>       0.00000000      -0.00000000       0.00000000 </v>
   <v>       0.00000000       0.00000000       0.00000000 </v>
   <v>       0.00000000       0.00000000       0.00000000 </v>
   <v>       0.00000000       0.00000000       0.00000000 </v>
   <v>       0.00000000      -0.00000000       0.00000000 </v>
   <v>       0.00000000       0.00000000       0.00000000 </v>
   <v>      -0.00000000      -0.00000000      -0.00000000 </v>
   <v>       0.00000000       0.00000000      -0.00000000 </v>
   <v>      -0.00000000      -0.00000000      -0.00000000 </v>
   <v>      -0.00000000      -0.00000000      -0.00000000 </v>
   <v>      -0.00000000      -0.00000000      -0.00000000 </v>
   <v>      -0.00000000      -0.00000000      -0.00000000 </v>
   <v>      -0.00000000      -0.00000000      -0.00000000 </v>
   <v>      -0.00000000       0.00000000      -0.00000000 </v>
   <v>       0.00000000       0.00000000       0.00000000 </v>
   <v>       0.00000000       0.00000000       0.00000000 </v>
   <v>       0.00000000       0.00000000       0.00000000 </v>
   <v>       0.00000000       0.00000000       0.00000000 </v>
   <v>      -0.00000000       0.00000000       0.00000000 </v>
   <v>       0.00000000       0.00000000       0.00000000 </v>
   <v>       0.00000000       0.00000000       0.00000000 </v>
   <v>       0.00000000       0.00000000       0.00000000 </v>
   <v>      -0.00000000      -0.00000000      -0.00000000 </v>
   <v>      -0.00000000      -0.00000000      -0.00000000 </v>
   <v>       0.00000000      -0.00000000      -0.00000000 </v>
   <v>      -0.00000000      -0.00000000      -0.00000000 </v>
   <v>      -0.00000000       0.00000000      -0.00000000 </v>
   <v>      -0.00000000      -0.00000000      -0.00000000 </v>
   <v>      -0.00000000      -0.00000000      -0.00000000 </v>
   <v>       0.00000000      -0.00000000      -0.00000000 </v>
   <v>       0.00000000       0.00000000       0.00000000 </v>
   <v>       0.00000000       0.00000000       0.00000000 </v>
   <v>       0.00000000       0.00000000       0.00000000 </v>
   <v>       0.00000000       0.00000000       0.00000000 </v>
   <v>       0.00000000       0.00000000       0.00000000 </v>
   <v>       0.00000000       0.00000000       0.00000000 </v>
   <v>       0.00000000       0.00000000       0.00000000 </v>
   <v>       0.00000000      -0.00000000       0.00000000 </v>
   <v>      -0.00000000      -0.00000000      -0.00000000 </v>
   <v>      -0.00000000      -0.00000000      -0.00000000 </v>
   <v>      -0.00000000      -0.00000000      -0.00000000 </v>
   <v>      -0.00000000      -0.00000000      -0.00000000 </v>
   <v>      -0.00000000      -0.00000000      -0.00000000 </v>
   <v>      -0.00000000      -0.00000000      -0.00000000 </v>
   <v>      -0.00000000      -0.00000000      -0.00000000 </v>
   <v>      -0.00000000      -0.00000000      -0.00000000 </v>
   <v>       0.00000000       0.00000000       0.00000000 </v>
   <v>       0.00000000       0.00000000       0.00000000 </v>
   <v>       0.00000000       0.00000000       0.00000000 </v>
   <v>       0.00000000      -0.00000000       0.00000000 </v>
   <v>       0.00000000       0.00000000       0.00000000 </v>
   <v>      -0.00000000       0.00000000       0.00000000 </v>
   <v>       0.00000000       0.00000000       0.00000000 </v>
   <v>       0.00000000      -0.00000000       0.00000000 </v>
   <v>      -0.00000000      -0.00000000      -0.00000000 </v>
   <v>       0.00000000       0.00000000      -0.00000000 </v>
   <v>      -0.00000000      -0.00000000      -0.00000000 </v>
   <v>      -0.00000000      -0.00000000      -0.00000000 </v>
   <v>      -0.00000000       0.00000000      -0.00000000 </v>
   <v>      -0.00000000      -0.00000000      -0.00000000 </v>
   <v>       0.00000000      -0.00000000      -0.00000000 </v>
   <v>       0.00000000      -0.00000000      -0.00000000 </v>
  </varray>
  <varray name="stress" >
   <v>     108.23717820       0.00000000       0.00000000 </v>
   <v>       0.00000000     108.23717820       0.00000000 </v>
   <v>       0.00000000       0.00000000     108.23717820 </v>
  </varray>
  <energy>
   <i name="e_fr_energy">   -327.53495853 </i>
   <i name="e_wo_entrp">   -327.56492329 </i>
   <i name="e_0_energy">   -327.54494678 </i>
  </energy>
  <time name="totalsc">   13.96   14.15</time>
 </calculation>
 <calculation>
  <scstep>
   <time name="dav">    0.63    0.63</time>
   <time name="total">    1.04    1.04</time>
   <energy>
    <i name="alphaZ">    112.54128942 </i>
    <i name="ewald">  -7423.11084179 </i>
    <i name="hartreedc">   -427.87510966 </i>
    <i name="XCdc">   -533.22553488 </i>
    <i name="pawpsdc">  33899.71405893 </i>
    <i name="pawaedc"> -32802.60447475 </i>
    <i name="eentropy">      0.02554042 </i>
    <i name="bandstr">    242.60142473 </i>
    <i name="atom">   6564.79586099 </i>
    <i name="e_fr_energy">   -367.13778658 </i>
    <i name="e_wo_entrp">   -367.16332700 </i>
    <i name="e_0_energy">   -367.14630005 </i>
   </energy>
  </scstep>
  <scstep>
   <time name="diag">    0.07    0.07</time>
   <time name="diis">    0.37    0.37</time>
   <time name="orth">    0.01    0.01</time>
   <time name="total">    0.86    0.88</time>
   <energy>
    <i name="e_fr_energy">   -366.87820331 </i>
    <i name="e_wo_entrp">   -366.90698812 </i>
    <i name="e_0_energy">   -366.88779825 </i>
   </energy>
  </scstep>
  <scstep>
   <time name="diag">    0.07    0.07</time>
   <time name="diis">    0.37    0.37</time>
   <time name="orth">    0.01    0.01</time>
   <time name="total">    0.86    0.88</time>
   <energy>
    <i name="e_fr_energy">   -366.74095972 </i>
    <i name="e_wo_entrp">   -366.77363033 </i>
    <i name="e_0_energy">   -366.75184992 </i>
   </energy>
  </scstep>
  <scstep>
   <time name="diag">    0.07    0.07</time>
   <time name="diis">    0.37    0.38</time>
   <time name="orth">    0.01    0.01</time>
   <time name="total">    0.86    0.90</time>
   <energy>
    <i name="e_fr_energy">   -366.74401008 </i>
    <i name="e_wo_entrp">   -366.77651518 </i>
    <i name="e_0_energy">   -366.75484511 </i>
   </energy>
  </scstep>
  <scstep>
   <time name="diag">    0.07    0.07</time>
   <time name="diis">    0.38    0.38</time>
   <time name="orth">    0.01    0.01</time>
   <time name="total">    0.88    0.89</time>
   <energy>
    <i name="e_fr_energy">   -366.74461404 </i>
    <i name="e_wo_entrp">   -366.77710850 </i>
    <i name="e_0_energy">   -366.75544552 </i>
   </energy>
  </scstep>
  <scstep>
   <time name="diag">    0.07    0.07</time>
   <time name="diis">    0.37    0.37</time>
   <time name="orth">    0.01    0.01</time>
   <time name="total">    0.87    0.88</time>
   <energy>
    <i name="e_fr_energy">   -366.74580101 </i>
    <i name="e_wo_entrp">   -366.77855742 </i>
    <i name="e_0_energy">   -366.75671981 </i>
   </energy>
  </scstep>
  <scstep>
   <time name="diag">    0.07    0.07</time>
   <time name="diis">    0.51    0.51</time>
   <time name="orth">    0.01    0.01</time>
   <time name="total">    1.04    1.07</time>
   <energy>
    <i name="e_fr_energy">   -366.76954350 </i>
    <i name="e_wo_entrp">   -366.80294528 </i>
    <i name="e_0_energy">   -366.78067743 </i>
   </energy>
  </scstep>
  <scstep>
   <time name="diag">    0.07    0.07</time>
   <time name="diis">    0.60    0.60</time>
   <time name="orth">    0.01    0.01</time>
   <time name="total">    1.10    1.11</time>
   <energy>
    <i name="e_fr_energy">   -366.75433242 </i>
    <i name="e_wo_entrp">   -366.78565480 </i>
    <i name="e_0_energy">   -366.76477322 </i>
   </energy>
  </scstep>
  <scstep>
   <time name="diag">    0.07    0.07</time>
   <time name="diis">    0.44    0.44</time>
   <time name="orth">    0.01    0.01</time>
   <time name="total">    0.93    0.95</time>
   <energy>
    <i name="e_fr_energy">   -366.74412875 </i>
    <i name="e_wo_entrp">   -366.77637645 </i>
    <i name="e_0_energy">   -366.75487798 </i>
   </energy>
  </scstep>
  <scstep>
   <time name="diag">    0.07    0.07</time>
   <time name="diis">    0.36    0.37</time>
   <time name="orth">    0.01    0.01</time>
   <time name="total">    0.85    0.88</time>
   <energy>
    <i name="e_fr_energy">   -366.74417140 </i>
    <i name="e_wo_entrp">   -366.77664167 </i>
    <i name="e_0_energy">   -366.75499482 </i>
   </energy>
  </scstep>
  <scstep>
   <time name="diag">    0.07    0.07</time>
   <time name="diis">    0.37    0.37</time>
   <time name="orth">    0.01    0.01</time>
   <time name="total">    0.86    0.88</time>
   <energy>
    <i name="e_fr_energy">   -366.74404918 </i>
    <i name="e_wo_entrp">   -366.77642755 </i>
    <i name="e_0_energy">   -366.75484197 </i>
   </energy>
  </scstep>
  <scstep>
   <time name="diag">    0.07    0.07</time>
   <time name="diis">    0.37    0.37</time>
   <time name="orth">    0.01    0.01</time>
   <time name="total">    0.86    0.88</time>
   <energy>
    <i name="e_fr_energy">   -366.74405007 </i>
    <i name="e_wo_entrp">   -366.77640966 </i>
    <i name="e_0_energy">   -366.75483660 </i>
   </energy>
  </scstep>
  <scstep>
   <time name="diag">    0.07    0.07</time>
   <time name="diis">    0.32    0.32</time>
   <time name="orth">    0.01    0.01</time>
   <time name="total">    0.82    0.83</time>
   <energy>
    <i name="e_fr_energy">   -366.74405167 </i>
    <i name="e_wo_entrp">   -366.77641634 </i>
    <i name="e_0_energy">   -366.75483989 </i>
   </energy>
  </scstep>
  <scstep>
   <time name="diag">    0.07    0.07</time>
   <time name="diis">    0.33    0.34</time>
   <time name="orth">    0.01    0.01</time>
   <time name="total">    0.57    0.59</time>
   <energy>
    <i name="alphaZ">    112.54128942 </i>
    <i name="ewald">  -7423.11084179 </i>
    <i name="hartreedc">   -451.58468922 </i>
    <i name="XCdc">   -532.88741663 </i>
    <i name="pawpsdc">  30629.54680532 </i>
    <i name="pawaedc"> -29531.12782783 </i>
    <i name="eentropy">      0.03235241 </i>
    <i name="bandstr">    265.05041488 </i>
    <i name="atom">   6564.79586099 </i>
    <i name="e_fr_energy">   -366.74405245 </i>
    <i name="e_wo_entrp">   -366.77640486 </i>
    <i name="e_0_energy">   -366.75483659 </i>
   </energy>
  </scstep>
  <structure>
   <crystal>
    <varray name="basis" >
     <v>      10.70042076       0.00000000       0.00000000 </v>
     <v>       0.00000000      10.70042076       0.00000000 </v>
     <v>      -0.00000000       0.00000000      10.70042076 </v>
    </varray>
    <i name="volume">   1225.18752421 </i>
    <varray name="rec_basis" >
     <v>       0.09345427      -0.00000000       0.00000000 </v>
     <v>      -0.00000000       0.09345427      -0.00000000 </v>
     <v>      -0.00000000       0.00000000       0.09345427 </v>
    </varray>
   </crystal>
   <varray name="positions" >
    <v>       0.00000000       0.00000000       0.00000000 </v>
    <v>       0.00000000       0.00000000       0.50000000 </v>
    <v>       0.00000000       0.50000000       0.00000000 </v>
    <v>       0.00000000       0.50000000       0.50000000 </v>
    <v>       0.50000000       0.00000000       0.00000000 </v>
    <v>       0.50000000       0.00000000       0.50000000 </v>
    <v>       0.50000000       0.50000000       0.00000000 </v>
    <v>       0.50000000       0.50000000       0.50000000 </v>
    <v>       0.37500000       0.37500000       0.12500000 </v>
    <v>       0.37500000       0.37500000       0.62500000 </v>
    <v>       0.37500000       0.87500000       0.12500000 </v>
    <v>       0.37500000       0.87500000       0.62500000 </v>
    <v>       0.87500000       0.37500000       0.12500000 </v>
    <v>       0.87500000       0.37500000       0.62500000 </v>
    <v>       0.87500000       0.87500000       0.12500000 </v>
    <v>       0.87500000       0.87500000       0.62500000 </v>
    <v>       0.00000000       0.25000000       0.25000000 </v>
    <v>       0.00000000       0.25000000       0.75000000 </v>
    <v>       0.00000000       0.75000000       0.25000000 </v>
    <v>       0.00000000       0.75000000       0.75000000 </v>
    <v>       0.50000000       0.25000000       0.25000000 </v>
    <v>       0.50000000       0.25000000       0.75000000 </v>
    <v>       0.50000000       0.75000000       0.25000000 </v>
    <v>       0.50000000       0.75000000       0.75000000 </v>
    <v>       0.37500000       0.12500000       0.37500000 </v>
    <v>       0.37500000       0.12500000       0.87500000 </v>
    <v>       0.37500000       0.62500000       0.37500000 </v>
    <v>       0.37500000       0.62500000       0.87500000 </v>
    <v>       0.87500000       0.12500000       0.37500000 </v>
    <v>       0.87500000       0.12500000       0.87500000 </v>
    <v>       0.87500000       0.62500000       0.37500000 </v>
    <v>       0.87500000       0.62500000       0.87500000 </v>
    <v>       0.25000000       0.00000000       0.25000000 </v>
    <v>       0.25000000       0.00000000       0.75000000 </v>
    <v>       0.25000000       0.50000000       0.25000000 </v>
    <v>       0.25000000       0.50000000       0.75000000 </v>
    <v>       0.75000000       0.00000000       0.25000000 </v>
    <v>       0.75000000       0.00000000       0.75000000 </v>
    <v>       0.75000000       0.50000000       0.25000000 </v>
    <v>       0.75000000       0.50000000       0.75000000 </v>
    <v>       0.12500000       0.37500000       0.37500000 </v>
    <v>       0.12500000       0.37500000       0.87500000 </v>
    <v>       0.12500000       0.87500000       0.37500000 </v>
    <v>       0.12500000       0.87500000       0.87500000 </v>
    <v>       0.62500000       0.37500000       0.37500000 </v>
    <v>       0.62500000       0.37500000       0.87500000 </v>
    <v>       0.62500000       0.87500000       0.37500000 </v>
    <v>       0.62500000       0.87500000       0.87500000 </v>
    <v>       0.25000000       0.25000000       0.00000000 </v>
    <v>       0.25000000       0.25000000       0.50000000 </v>
    <v>       0.25000000       0.75000000       0.00000000 </v>
    <v>       0.25000000       0.75000000       0.50000000 </v>
    <v>       0.75000000       0.25000000       0.00000000 </v>
    <v>       0.75000000       0.25000000       0.50000000 </v>
    <v>       0.75000000       0.75000000       0.00000000 </v>
    <v>       0.75000000       0.75000000       0.50000000 </v>
    <v>       0.12500000       0.12500000       0.12500000 </v>
    <v>       0.12500000       0.12500000       0.62500000 </v>
    <v>       0.12500000       0.62500000       0.12500000 </v>
    <v>       0.12500000       0.62500000       0.62500000 </v>
    <v>       0.62500000       0.12500000       0.12500000 </v>
    <v>       0.62500000       0.12500000       0.62500000 </v>
    <v>       0.62500000       0.62500000       0.12500000 </v>
    <v>       0.62500000       0.62500000       0.62500000 </v>
   </varray>
  </structure>
  <varray name="forces" >
   <v>       0.00000000       0.00000000       0.00000000 </v>
   <v>       0.00000000      -0.00000000       0.00000000 </v>
   <v>       0.00000000       0.00000000       0.00000000 </v>
   <v>       0.00000000      -0.00000000       0.00000000 </v>
   <v>       0.00000000      -0.00000000       0.00000000 </v>
   <v>       0.00000000      -0.00000000       0.00000000 </v>
   <v>       0.00000000       0.00000000       0.00000000 </v>
   <v>       0.00000000      -0.00000000       0.00000000 </v>
   <v>      -0.00000000       0.00000000      -0.00000000 </v>
   <v>      -0.00000000      -0.00000000      -0.00000000 </v>
   <v>      -0.00000000       0.00000000      -0.00000000 </v>
   <v>      -0.00000000      -0.00000000      -0.00000000 </v>
   <v>      -0.00000000      -0.00000000      -0.00000000 </v>
   <v>      -0.00000000       0.00000000      -0.00000000 </v>
   <v>      -0.00000000      -0.00000000      -0.00000000 </v>
   <v>      -0.00000000       0.00000000      -0.00000000 </v>
   <v>       0.00000000      -0.00000000       0.00000000 </v>
   <v>       0.00000000      -0.00000000       0.00000000 </v>
   <v>       0.00000000       0.00000000       0.00000000 </v>
   <v>       0.00000000      -0.00000000       0.00000000 </v>
   <v>       0.00000000      -0.00000000       0.00000000 </v>
   <v>       0.00000000       0.00000000       0.00000000 </v>
   <v>       0.00000000       0.00000000       0.00000000 </v>
   <v>       0.00000000       0.00000000       0.00000000 </v>
   <v>      -0.00000000      -0.00000000      -0.00000000 </v>
   <v>      -0.00000000      -0.00000000      -0.00000000 </v>
   <v>      -0.00000000       0.00000000      -0.00000000 </v>
   <v>      -0.00000000       0.00000000      -0.00000000 </v>
   <v>      -0.00000000      -0.00000000      -0.00000000 </v>
   <v>      -0.00000000      -0.00000000      -0.00000000 </v>
   <v>      -0.00000000       0.00000000      -0.00000000 </v>
   <v>      -0.00000000       0.00000000      -0.00000000 </v>
   <v>       0.00000000       0.00000000       0.00000000 </v>
   <v>       0.00000000      -0.00000000       0.00000000 </v>
   <v>       0.00000000      -0.00000000       0.00000000 </v>
   <v>       0.00000000       0.00000000       0.00000000 </v>
   <v>       0.00000000      -0.00000000       0.00000000 </v>
   <v>       0.00000000      -0.00000000       0.00000000 </v>
   <v>       0.00000000       0.00000000       0.00000000 </v>
   <v>       0.00000000      -0.00000000       0.00000000 </v>
   <v>      -0.00000000      -0.00000000      -0.00000000 </v>
   <v>      -0.00000000      -0.00000000      -0.00000000 </v>
   <v>      -0.00000000      -0.00000000      -0.00000000 </v>
   <v>      -0.00000000      -0.00000000      -0.00000000 </v>
   <v>      -0.00000000       0.00000000      -0.00000000 </v>
   <v>      -0.00000000      -0.00000000      -0.00000000 </v>
   <v>      -0.00000000       0.00000000      -0.00000000 </v>
   <v>      -0.00000000      -0.00000000      -0.00000000 </v>
   <v>       0.00000000       0.00000000       0.00000000 </v>
   <v>       0.00000000      -0.00000000       0.00000000 </v>
   <v>       0.00000000       0.00000000       0.00000000 </v>
   <v>       0.00000000      -0.00000000       0.00000000 </v>
   <v>       0.00000000      -0.00000000       0.00000000 </v>
   <v>       0.00000000      -0.00000000       0.00000000 </v>
   <v>       0.00000000      -0.00000000       0.00000000 </v>
   <v>       0.00000000      -0.00000000       0.00000000 </v>
   <v>      -0.00000000      -0.00000000      -0.00000000 </v>
   <v>      -0.00000000      -0.00000000      -0.00000000 </v>
   <v>      -0.00000000       0.00000000      -0.00000000 </v>
   <v>      -0.00000000       0.00000000      -0.00000000 </v>
   <v>      -0.00000000      -0.00000000      -0.00000000 </v>
   <v>      -0.00000000      -0.00000000      -0.00000000 </v>
   <v>      -0.00000000      -0.00000000      -0.00000000 </v>
   <v>      -0.00000000       0.00000000      -0.00000000 </v>
  </varray>
  <varray name="stress" >
   <v>      49.58276827      -0.00000000       0.00000000 </v>
   <v>      -0.00000000      49.58276827       0.00000000 </v>
   <v>       0.00000000       0.00000000      49.58276827 </v>
  </varray>
  <energy>
   <i name="e_fr_energy">   -328.50897381 </i>
   <i name="e_wo_entrp">   -328.54132622 </i>
   <i name="e_0_energy">   -328.51975795 </i>
  </energy>
  <time name="totalsc">   15.55   15.88</time>
  <eigenvalues>
   <array>
    <dimension dim="1">band</dimension>
    <dimension dim="2">kpoint</dimension>
    <dimension dim="3">spin</dimension>
    <field>eigene</field>
    <field>occ</field>
    <set>
     <set comment="spin 1">
      <set comment="kpoint 1">
       <r>   -6.0507    1.0000 </r>
       <r>   -4.9221    1.0000 </r>
       <r>   -4.9221    1.0000 </r>
       <r>   -4.9221    1.0000 </r>
       <r>   -4.9221    1.0000 </r>
       <r>   -4.9221    1.0000 </r>
       <r>   -4.9221    1.0000 </r>
       <r>   -3.9096    1.0000 </r>
       <r>   -3.9096    1.0000 </r>
       <r>   -3.9096    1.0000 </r>
       <r>   -3.9096    1.0000 </r>
       <r>   -3.9096    1.0000 </r>
       <r>   -3.9096    1.0000 </r>
       <r>   -3.9096    1.0000 </r>
       <r>   -3.9096    1.0000 </r>
       <r>   -3.9096    1.0000 </r>
       <r>   -3.9096    1.0000 </r>
       <r>   -3.9096    1.0000 </r>
       <r>   -3.9096    1.0000 </r>
       <r>   -3.5842    1.0000 </r>
       <r>   -3.5842    1.0000 </r>
       <r>   -3.5842    1.0000 </r>
       <r>   -3.5842    1.0000 </r>
       <r>   -1.7239    1.0000 </r>
       <r>   -1.7239    1.0000 </r>
       <r>   -1.7239    1.0000 </r>
       <r>   -1.7239    1.0000 </r>
       <r>   -1.7239    1.0000 </r>
       <r>   -1.7239    1.0000 </r>
       <r>   -1.5319    1.0000 </r>
       <r>   -1.5319    1.0000 </r>
       <r>   -1.5319    1.0000 </r>
       <r>   -1.5319    1.0000 </r>
       <r>   -1.5319    1.0000 </r>
       <r>   -1.5319    1.0000 </r>
       <r>   -1.5319    1.0000 </r>
       <r>   -1.5319    1.0000 </r>
       <r>   -1.5319    1.0000 </r>
       <r>   -1.5319    1.0000 </r>
       <r>   -1.5319    1.0000 </r>
       <r>   -1.5319    1.0000 </r>
       <r>   -0.9791    1.0000 </r>
       <r>   -0.9791    1.0000 </r>
       <r>   -0.9791    1.0000 </r>
       <r>   -0.9791    1.0000 </r>
       <r>    0.6762    1.0000 </r>
       <r>    0.6762    1.0000 </r>
       <r>    0.6762    1.0000 </r>
       <r>    0.6762    1.0000 </r>
       <r>    0.6762    1.0000 </r>
       <r>    0.6762    1.0000 </r>
       <r>    0.6762    1.0000 </r>
       <r>    0.6762    1.0000 </r>
       <r>    0.6762    1.0000 </r>
       <r>    0.6762    1.0000 </r>
       <r>    0.6762    1.0000 </r>
       <r>    0.6762    1.0000 </r>
       <r>    2.1514    1.0000 </r>
       <r>    2.1514    1.0000 </r>
       <r>    2.1514    1.0000 </r>
       <r>    2.1514    1.0000 </r>
       <r>    2.1514    1.0000 </r>
       <r>    2.1514    1.0000 </r>
       <r>    2.1514    1.0000 </r>
       <r>    2.1514    1.0000 </r>
       <r>    2.1514    1.0000 </r>
       <r>    2.1514    1.0000 </r>
       <r>    2.1514    1.0000 </r>
       <r>    2.1514    1.0000 </r>
       <r>    2.2738    1.0000 </r>
       <r>    2.2738    1.0000 </r>
       <r>    2.2738    1.0000 </r>
       <r>    2.2738    1.0000 </r>
       <r>    2.2738    1.0000 </r>
       <r>    2.2738    1.0000 </r>
       <r>    2.2738    1.0000 </r>
       <r>    2.2738    1.0000 </r>
       <r>    2.2738    1.0000 </r>
       <r>    2.2738    1.0000 </r>
       <r>    2.2738    1.0000 </r>
       <r>    2.2738    1.0000 </r>
       <r>    2.7425    1.0000 </r>
       <r>    2.7425    1.0000 </r>
       <r>    2.7425    1.0000 </r>
       <r>    2.7425    1.0000 </r>
       <r>    2.7425    1.0000 </r>
       <r>    2.7425    1.0000 </r>
       <r>    3.2611    1.0000 </r>
       <r>    3.2611    1.0000 </r>
       <r>    3.2611    1.0000 </r>
       <r>    3.2611    1.0000 </r>
       <r>    3.2611    1.0000 </r>
       <r>    3.2611    1.0000 </r>
       <r>    4.2616    1.0000 </r>
       <r>    4.2616    1.0000 </r>
       <r>    4.2616    1.0000 </r>
       <r>    4.2616    1.0000 </r>
       <r>    4.2616    1.0000 </r>
       <r>    4.2616    1.0000 </r>
       <r>    4.2616    1.0000 </r>
       <r>    4.2616    1.0000 </r>
       <r>    4.2616    1.0000 </r>
       <r>    4.2616    1.0000 </r>
       <r>    4.2616    1.0000 </r>
       <r>    4.2616    1.0000 </r>
       <r>    4.8677    1.0000 </r>
       <r>    4.8677    1.0000 </r>
       <r>    4.8677    1.0000 </r>
       <r>    4.8677    1.0000 </r>
       <r>    4.8677    1.0000 </r>
       <r>    4.8677    1.0000 </r>
       <r>    4.8677    1.0000 </r>
       <r>    4.8677    1.0000 </r>
       <r>    4.8677    1.0000 </r>
       <r>    4.8677    1.0000 </r>
       <r>    4.8677    1.0000 </r>
       <r>    4.8677    1.0000 </r>
       <r>    5.0130    1.0000 </r>
       <r>    5.0130    1.0000 </r>
       <r>    5.0130    1.0000 </r>
       <r>    5.0130    1.0000 </r>
       <r>    5.0130    1.0000 </r>
       <r>    5.0130    1.0000 </r>
       <r>    5.0130    1.0000 </r>
       <r>    5.0130    1.0000 </r>
       <r>    6.2562    1.0333 </r>
       <r>    6.2562    1.0333 </r>
       <r>    6.2562    1.0333 </r>
       <r>    6.7517   -0.0336 </r>
       <r>    6.7517   -0.0336 </r>
       <r>    6.7517   -0.0336 </r>
       <r>    6.7517   -0.0336 </r>
       <r>    6.7517   -0.0336 </r>
       <r>    6.7517   -0.0336 </r>
       <r>    7.2443   -0.0000 </r>
       <r>    7.2443   -0.0000 </r>
       <r>    7.2443   -0.0000 </r>
       <r>    7.2443   -0.0000 </r>
       <r>    7.2443   -0.0000 </r>
       <r>    7.2443   -0.0000 </r>
       <r>    7.8799   -0.0000 </r>
       <r>    7.8799   -0.0000 </r>
       <r>    7.8799   -0.0000 </r>
       <r>    7.8799   -0.0000 </r>
       <r>    8.6394   -0.0000 </r>
       <r>    8.6394   -0.0000 </r>
       <r>    8.6394   -0.0000 </r>
       <r>    8.6394   -0.0000 </r>
       <r>    8.6394   -0.0000 </r>
       <r>    8.6394   -0.0000 </r>
       <r>    8.6394   -0.0000 </r>
       <r>    8.6394   -0.0000 </r>
       <r>    8.6394   -0.0000 </r>
       <r>    8.6394   -0.0000 </r>
       <r>    8.6394   -0.0000 </r>
       <r>    8.6394   -0.0000 </r>
       <r>    8.7889   -0.0000 </r>
       <r>    8.7889   -0.0000 </r>
       <r>    8.7891   -0.0000 </r>
       <r>    9.2595   -0.0000 </r>
       <r>    9.2623   -0.0000 </r>
       <r>    9.2736   -0.0000 </r>
      </set>
      <set comment="kpoint 2">
       <r>   -5.7661    1.0000 </r>
       <r>   -5.7661    1.0000 </r>
       <r>   -4.6619    1.0000 </r>
       <r>   -4.6619    1.0000 </r>
       <r>   -4.6619    1.0000 </r>
       <r>   -4.6619    1.0000 </r>
       <r>   -4.6619    1.0000 </r>
       <r>   -4.6619    1.0000 </r>
       <r>   -4.6619    1.0000 </r>
       <r>   -4.6619    1.0000 </r>
       <r>   -3.7647    1.0000 </r>
       <r>   -3.7647    1.0000 </r>
       <r>   -3.7647    1.0000 </r>
       <r>   -3.7647    1.0000 </r>
       <r>   -3.7647    1.0000 </r>
       <r>   -3.7647    1.0000 </r>
       <r>   -3.7647    1.0000 </r>
       <r>   -3.7647    1.0000 </r>
       <r>   -3.5518    1.0000 </r>
       <r>   -3.5518    1.0000 </r>
       <r>   -2.7771    1.0000 </r>
       <r>   -2.7771    1.0000 </r>
       <r>   -2.7771    1.0000 </r>
       <r>   -2.7771    1.0000 </r>
       <r>   -2.7771    1.0000 </r>
       <r>   -2.7771    1.0000 </r>
       <r>   -2.7771    1.0000 </r>
       <r>   -2.7771    1.0000 </r>
       <r>   -1.6333    1.0000 </r>
       <r>   -1.6333    1.0000 </r>
       <r>   -1.6333    1.0000 </r>
       <r>   -1.6333    1.0000 </r>
       <r>   -1.6333    1.0000 </r>
       <r>   -1.6333    1.0000 </r>
       <r>   -1.6333    1.0000 </r>
       <r>   -1.6333    1.0000 </r>
       <r>   -0.4300    1.0000 </r>
       <r>   -0.4300    1.0000 </r>
       <r>   -0.4300    1.0000 </r>
       <r>   -0.4300    1.0000 </r>
[...]
      </set>
     </set>
    </set>
   </array>
  </eigenvalues>
  <separator name="orbital magnetization" >
   <v name="MAGDIPOLOUT">      0.00000000      0.00000000      0.00000000</v>
  </separator>
  <dos>
   <i name="efermi">      6.52738979 </i>
   <total>
    <array>
     <dimension dim="1">gridpoints</dimension>
     <dimension dim="2">spin</dimension>
     <field>energy</field>
     <field>total</field>
     <field>integrated</field>
     <set>
      <set comment="spin 1">
       <r>    -8.0507     0.0000     0.0000 </r>
       <r>    -7.9847     0.0000     0.0000 </r>
       <r>    -7.9187     0.0000     0.0000 </r>
       <r>    -7.8527     0.0000     0.0000 </r>
       <r>    -7.7868     0.0000     0.0000 </r>
       <r>    -7.7208     0.0000     0.0000 </r>
       <r>    -7.6548    -0.0000    -0.0000 </r>
       <r>    -7.5888    -0.0000    -0.0000 </r>
       <r>    -7.5228    -0.0000    -0.0000 </r>
       <r>    -7.4568    -0.0000    -0.0000 </r>
       <r>    -7.3908    -0.0000    -0.0000 </r>
       <r>    -7.3248    -0.0000    -0.0000 </r>
       <r>    -7.2588    -0.0000    -0.0000 </r>
       <r>    -7.1928    -0.0000    -0.0000 </r>
       <r>    -7.1268    -0.0000    -0.0000 </r>
       <r>    -7.0608    -0.0000    -0.0000 </r>
       <r>    -6.9948    -0.0000    -0.0000 </r>
       <r>    -6.9289    -0.0000    -0.0000 </r>
       <r>    -6.8629    -0.0000    -0.0000 </r>
       <r>    -6.7969    -0.0000    -0.0000 </r>
       <r>    -6.7309    -0.0000    -0.0000 </r>
       <r>    -6.6649    -0.0002    -0.0000 </r>
       <r>    -6.5989    -0.0012    -0.0001 </r>
       <r>    -6.5329    -0.0051    -0.0004 </r>
       <r>    -6.4669    -0.0167    -0.0015 </r>
       <r>    -6.4009    -0.0396    -0.0041 </r>
       <r>    -6.3349    -0.0595    -0.0081 </r>
       <r>    -6.2689    -0.0243    -0.0097 </r>
       <r>    -6.2029     0.1286    -0.0012 </r>
       <r>    -6.1369     0.3785     0.0238 </r>
       <r>    -6.0710     0.6009     0.0634 </r>
       <r>    -6.0050     0.8081     0.1168 </r>
       <r>    -5.9390     1.3920     0.2086 </r>
       <r>    -5.8730     2.7480     0.3900 </r>
       <r>    -5.8070     4.4866     0.6861 </r>
       <r>    -5.7410     5.6313     1.0577 </r>
       <r>    -5.6750     6.1096     1.4609 </r>
       <r>    -5.6090     7.2262     1.9377 </r>
       <r>    -5.5430     9.6408     2.5740 </r>
       <r>    -5.4770    11.7463     3.3491 </r>
       <r>    -5.4110    11.5952     4.1143 </r>
       <r>    -5.3450     9.7334     4.7566 </r>
       <r>    -5.2790     8.2908     5.3038 </r>
       <r>    -5.2131     7.8213     5.8199 </r>
       <r>    -5.1471     7.0666     6.2863 </r>
       <r>    -5.0811     5.5411     6.6519 </r>
       <r>    -5.0151     4.3038     6.9359 </r>
       <r>    -4.9491     4.2098     7.2138 </r>
       <r>    -4.8831     5.4011     7.5702 </r>
       <r>    -4.8171     8.6175     8.1389 </r>
       <r>    -4.7511    14.5746     9.1007 </r>
       <r>    -4.6851    21.4196    10.5142 </r>
       <r>    -4.6191    25.6425    12.2064 </r>
       <r>    -4.5531    26.5644    13.9595 </r>
       <r>    -4.4871    26.6661    15.7192 </r>
       <r>    -4.4212    26.4346    17.4637 </r>
       <r>    -4.3552    22.9195    18.9762 </r>
       <r>    -4.2892    14.8698    19.9575 </r>
       <r>    -4.2232     5.6235    20.3286 </r>
       <r>    -4.1572    -0.4193    20.3009 </r>
       <r>    -4.0912    -1.4317    20.2065 </r>
       <r>    -4.0252     2.2797    20.3569 </r>
       <r>    -3.9592     9.7754    21.0020 </r>
       <r>    -3.8932    19.3167    22.2767 </r>
       <r>    -3.8272    27.7232    24.1063 </r>
       <r>    -3.7612    31.2970    26.1716 </r>
       <r>    -3.6952    28.4318    28.0479 </r>
       <r>    -3.6292    21.3809    29.4589 </r>
       <r>    -3.5633    14.8153    30.4366 </r>
       <r>    -3.4973    12.8024    31.2814 </r>
       <r>    -3.4313    16.9887    32.4026 </r>
       <r>    -3.3653    25.8425    34.1080 </r>
       <r>    -3.2993    35.0416    36.4204 </r>
       <r>    -3.2333    40.3002    39.0799 </r>
       <r>    -3.1673    40.5309    41.7547 </r>
       <r>    -3.1013    37.5071    44.2298 </r>
       <r>    -3.0353    33.0061    46.4080 </r>
       <r>    -2.9693    28.0818    48.2611 </r>
       <r>    -2.9033    24.6365    49.8870 </r>
       <r>    -2.8373    24.3004    51.4906 </r>
       <r>    -2.7713    24.9723    53.1386 </r>
       <r>    -2.7054    22.0708    54.5951 </r>
       <r>    -2.6394    14.3874    55.5445 </r>
       <r>    -2.5734     5.6972    55.9205 </r>
       <r>    -2.5074     0.0337    55.9227 </r>
       <r>    -2.4414    -1.9460    55.7943 </r>
       <r>    -2.3754    -1.5737    55.6905 </r>
       <r>    -2.3094     0.5197    55.7248 </r>
       <r>    -2.2434     4.4777    56.0202 </r>
       <r>    -2.1774     9.2693    56.6319 </r>
       <r>    -2.1114    12.0636    57.4281 </r>
       <r>    -2.0454    10.5721    58.1257 </r>
       <r>    -1.9794     5.7251    58.5035 </r>
       <r>    -1.9134     1.3457    58.5924 </r>
       <r>    -1.8475     1.5578    58.6952 </r>
       <r>    -1.7815     8.5016    59.2562 </r>
       <r>    -1.7155    20.7464    60.6253 </r>
       <r>    -1.6495    32.7760    62.7883 </r>
       <r>    -1.5835    37.6787    65.2748 </r>
       <r>    -1.5175    32.3832    67.4118 </r>
       <r>    -1.4515    20.2766    68.7499 </r>
       <r>    -1.3855     8.2435    69.2939 </r>
       <r>    -1.3195     1.6313    69.4016 </r>
       <r>    -1.2535     1.7811    69.5191 </r>
       <r>    -1.1875     6.4530    69.9449 </r>
       <r>    -1.1215    11.4448    70.7002 </r>
       <r>    -1.0555    13.1175    71.5659 </r>
       <r>    -0.9896    11.2093    72.3056 </r>
       <r>    -0.9236     9.3346    72.9216 </r>
       <r>    -0.8576    11.5634    73.6847 </r>
       <r>    -0.7916    17.5875    74.8453 </r>
       <r>    -0.7256    22.0350    76.2995 </r>
       <r>    -0.6596    20.5078    77.6528 </r>
       <r>    -0.5936    16.1715    78.7200 </r>
       <r>    -0.5276    17.8296    79.8966 </r>
       <r>    -0.4616    30.4967    81.9092 </r>
       <r>    -0.3956    49.0668    85.1472 </r>
       <r>    -0.3296    61.6641    89.2166 </r>
       <r>    -0.2636    59.1095    93.1173 </r>
       <r>    -0.1976    42.1447    95.8986 </r>
       <r>    -0.1317    20.3215    97.2396 </r>
       <r>    -0.0657     4.1135    97.5111 </r>
       <r>     0.0003    -1.4960    97.4123 </r>
       <r>     0.0663     2.7870    97.5963 </r>
       <r>     0.1323    12.7745    98.4393 </r>
       <r>     0.1983    22.0607    99.8951 </r>
       <r>     0.2643    24.8461   101.5348 </r>
       <r>     0.3303    20.2923   102.8739 </r>
       <r>     0.3963    12.7706   103.7167 </r>
       <r>     0.4623     7.1683   104.1897 </r>
       <r>     0.5283     5.6845   104.5648 </r>
       <r>     0.5943     8.7056   105.1393 </r>
       <r>     0.6603    15.7525   106.1789 </r>
       <r>     0.7262    24.4996   107.7957 </r>
       <r>     0.7922    30.4416   109.8046 </r>
       <r>     0.8582    29.3916   111.7442 </r>
       <r>     0.9242    21.2131   113.1441 </r>
       <r>     0.9902    10.4598   113.8344 </r>
       <r>     1.0562     2.4090   113.9933 </r>
       <r>     1.1222    -1.0699   113.9227 </r>
       <r>     1.1882    -1.4872   113.8246 </r>
       <r>     1.2542    -1.0601   113.7546 </r>
       <r>     1.3202    -1.0151   113.6876 </r>
       <r>     1.3862    -1.4904   113.5893 </r>
       <r>     1.4522    -1.6111   113.4830 </r>
       <r>     1.5182     0.6417   113.5253 </r>
       <r>     1.5841     7.5618   114.0243 </r>
       <r>     1.6501    19.3435   115.3009 </r>
       <r>     1.7161    32.4834   117.4445 </r>
       <r>     1.7821    41.6320   120.1919 </r>
       <r>     1.8481    43.3544   123.0529 </r>
       <r>     1.9141    37.9283   125.5559 </r>
       <r>     1.9801    28.8851   127.4621 </r>
       <r>     2.0461    21.7005   128.8942 </r>
       <r>     2.1121    20.4739   130.2453 </r>
       <r>     2.1781    23.7454   131.8123 </r>
       <r>     2.2441    25.3500   133.4852 </r>
       <r>     2.3101    21.5850   134.9097 </r>
       <r>     2.3760    16.9516   136.0283 </r>
       <r>     2.4420    21.2736   137.4322 </r>
       <r>     2.5080    40.1890   140.0844 </r>
       <r>     2.5740    67.6064   144.5459 </r>
       <r>     2.6400    87.6052   150.3271 </r>
       <r>     2.7060    86.1350   156.0114 </r>
       <r>     2.7720    63.0663   160.1733 </r>
       <r>     2.8380    32.0720   162.2898 </r>
       <r>     2.9040     8.0495   162.8210 </r>
       <r>     2.9700    -3.7403   162.5741 </r>
       <r>     3.0360    -6.5172   162.1440 </r>
       <r>     3.1020    -3.8807   161.8880 </r>
       <r>     3.1680     4.6259   162.1932 </r>
       <r>     3.2339    20.6086   163.5532 </r>
       <r>     3.2999    41.5454   166.2949 </r>
       <r>     3.3659    60.5695   170.2920 </r>
       <r>     3.4319    71.9388   175.0394 </r>
       <r>     3.4979    74.7893   179.9749 </r>
       <r>     3.5639    71.1795   184.6722 </r>
       <r>     3.6299    62.9745   188.8281 </r>
       <r>     3.6959    51.8358   192.2488 </r>
       <r>     3.7619    41.3845   194.9799 </r>
       <r>     3.8279    37.2409   197.4375 </r>
       <r>     3.8939    41.3260   200.1647 </r>
       <r>     3.9599    46.5071   203.2338 </r>
       <r>     4.0259    42.7444   206.0546 </r>
       <r>     4.0918    29.7799   208.0198 </r>
       <r>     4.1578    18.3443   209.2304 </r>
       <r>     4.2238    17.5382   210.3878 </r>
       <r>     4.2898    25.4415   212.0667 </r>
       <r>     4.3558    33.5819   214.2829 </r>
       <r>     4.4218    37.1631   216.7354 </r>
       <r>     4.4878    37.9564   219.2402 </r>
       <r>     4.5538    38.7336   221.7963 </r>
       <r>     4.6198    39.4031   224.3966 </r>
       <r>     4.6858    39.7157   227.0175 </r>
       <r>     4.7518    41.7425   229.7722 </r>
       <r>     4.8178    47.0659   232.8782 </r>
       <r>     4.8838    53.0247   236.3774 </r>
       <r>     4.9497    53.4775   239.9065 </r>
       <r>     5.0157    44.0825   242.8156 </r>
       <r>     5.0817    27.1467   244.6071 </r>
       <r>     5.1477    10.5911   245.3060 </r>
       <r>     5.2137     2.0054   245.4384 </r>
       <r>     5.2797     4.0332   245.7045 </r>
       <r>     5.3457    13.6667   246.6064 </r>
       <r>     5.4117    23.8560   248.1807 </r>
       <r>     5.4777    27.3462   249.9854 </r>
       <r>     5.5437    21.8438   251.4269 </r>
       <r>     5.6097    11.5478   252.1889 </r>
       <r>     5.6757     2.8377   252.3762 </r>
       <r>     5.7417    -0.6817   252.3312 </r>
       <r>     5.8076     1.0112   252.3980 </r>
       <r>     5.8736     5.8631   252.7849 </r>
       <r>     5.9396    10.6352   253.4867 </r>
       <r>     6.0056    12.1866   254.2909 </r>
       <r>     6.0716     9.8587   254.9415 </r>
       <r>     6.1376     6.0399   255.3401 </r>
       <r>     6.2036     3.4414   255.5672 </r>
       <r>     6.2696     2.4854   255.7312 </r>
       <r>     6.3356     1.8925   255.8561 </r>
       <r>     6.4016     0.9096   255.9161 </r>
       <r>     6.4676     0.2420   255.9321 </r>
       <r>     6.5336     1.2526   256.0148 </r>
       <r>     6.5996     4.5471   256.3149 </r>
       <r>     6.6655     8.9107   256.9029 </r>
       <r>     6.7315    11.6662   257.6728 </r>
       <r>     6.7975    10.7918   258.3849 </r>
       <r>     6.8635     6.8084   258.8342 </r>
       <r>     6.9295     2.2081   258.9800 </r>
       <r>     6.9955    -0.5737   258.9421 </r>
       <r>     7.0615    -0.0752   258.9371 </r>
       <r>     7.1275     4.2125   259.2151 </r>
       <r>     7.1935    10.9348   259.9367 </r>
       <r>     7.2595    16.2088   261.0064 </r>
       <r>     7.3255    16.4142   262.0896 </r>
       <r>     7.3915    12.8809   262.9397 </r>
       <r>     7.4575    11.8346   263.7206 </r>
       <r>     7.5234    17.5331   264.8777 </r>
       <r>     7.5894    26.2503   266.6100 </r>
       <r>     7.6554    29.4467   268.5533 </r>
       <r>     7.7214    23.1207   270.0791 </r>
       <r>     7.7874    12.0248   270.8726 </r>
       <r>     7.8534     4.9085   271.1965 </r>
       <r>     7.9194     8.1489   271.7343 </r>
       <r>     7.9854    22.5100   273.2198 </r>
       <r>     8.0514    41.2729   275.9435 </r>
       <r>     8.1174    52.3497   279.3981 </r>
       <r>     8.1834    48.0908   282.5717 </r>
       <r>     8.2494    33.7169   284.7968 </r>
       <r>     8.3154    22.1843   286.2608 </r>
       <r>     8.3813    21.4602   287.6770 </r>
       <r>     8.4473    30.5425   289.6926 </r>
       <r>     8.5133    45.6854   292.7074 </r>
       <r>     8.5793    63.6603   296.9085 </r>
       <r>     8.6453    78.0439   302.0588 </r>
       <r>     8.7113    79.5724   307.3100 </r>
       <r>     8.7773    64.7787   311.5849 </r>
       <r>     8.8433    41.1738   314.3020 </r>
       <r>     8.9093    20.9550   315.6849 </r>
       <r>     8.9753    10.8167   316.3987 </r>
       <r>     9.0413     8.8753   316.9844 </r>
       <r>     9.1073    10.1260   317.6527 </r>
       <r>     9.1732    12.4705   318.4756 </r>
       <r>     9.2392    16.1866   319.5438 </r>
       <r>     9.3052    19.6963   320.8436 </r>
       <r>     9.3712    19.4565   322.1276 </r>
       <r>     9.4372    14.2590   323.0686 </r>
       <r>     9.5032     7.0684   323.5350 </r>
       <r>     9.5692     1.8680   323.6583 </r>
       <r>     9.6352     0.1347   323.6672 </r>
       <r>     9.7012     0.6621   323.7109 </r>
       <r>     9.7672     1.5249   323.8115 </r>
       <r>     9.8332     1.6441   323.9200 </r>
       <r>     9.8992     1.0720   323.9908 </r>
       <r>     9.9652     0.3865   324.0163 </r>
       <r>    10.0311    -0.0114   324.0155 </r>
       <r>    10.0971    -0.1109   324.0082 </r>
       <r>    10.1631    -0.0779   324.0031 </r>
       <r>    10.2291    -0.0333   324.0009 </r>
       <r>    10.2951    -0.0101   324.0002 </r>
       <r>    10.3611    -0.0023   324.0000 </r>
       <r>    10.4271    -0.0004   324.0000 </r>
       <r>    10.4931    -0.0001   324.0000 </r>
       <r>    10.5591    -0.0000   324.0000 </r>
       <r>    10.6251    -0.0000   324.0000 </r>
       <r>    10.6911    -0.0000   324.0000 </r>
       <r>    10.7571    -0.0000   324.0000 </r>
       <r>    10.8231    -0.0000   324.0000 </r>
       <r>    10.8890    -0.0000   324.0000 </r>
       <r>    10.9550    -0.0000   324.0000 </r>
       <r>    11.0210    -0.0000   324.0000 </r>
       <r>    11.0870     0.0000   324.0000 </r>
       <r>    11.1530     0.0000   324.0000 </r>
       <r>    11.2190     0.0000   324.0000 </r>
       <r>    11.2850     0.0000   324.0000 </r>
       <r>    11.3510     0.0000   324.0000 </r>
       <r>    11.4170     0.0000   324.0000 </r>
       <r>    11.4830     0.0000   324.0000 </r>
       <r>    11.5490     0.0000   324.0000 </r>
       <r>    11.6150     0.0000   324.0000 </r>
       <r>    11.6810     0.0000   324.0000 </r>
       <r>    11.7469     0.0000   324.0000 </r>
      </set>
     </set>
    </array>
   </total>
  </dos>
 </calculation>
 <structure name="finalpos" >
  <crystal>
   <varray name="basis" >
    <v>      10.70042076       0.00000000       0.00000000 </v>
    <v>       0.00000000      10.70042076       0.00000000 </v>
    <v>      -0.00000000       0.00000000      10.70042076 </v>
   </varray>
   <i name="volume">   1225.18752421 </i>
   <varray name="rec_basis" >
    <v>       0.09345427      -0.00000000       0.00000000 </v>
    <v>      -0.00000000       0.09345427      -0.00000000 </v>
    <v>      -0.00000000       0.00000000       0.09345427 </v>
   </varray>
  </crystal>
  <varray name="positions" >
   <v>       0.00000000       0.00000000       0.00000000 </v>
   <v>       0.00000000       0.00000000       0.50000000 </v>
   <v>       0.00000000       0.50000000       0.00000000 </v>
   <v>       0.00000000       0.50000000       0.50000000 </v>
   <v>       0.50000000       0.00000000       0.00000000 </v>
   <v>       0.50000000       0.00000000       0.50000000 </v>
   <v>       0.50000000       0.50000000       0.00000000 </v>
   <v>       0.50000000       0.50000000       0.50000000 </v>
   <v>       0.37500000       0.37500000       0.12500000 </v>
   <v>       0.37500000       0.37500000       0.62500000 </v>
   <v>       0.37500000       0.87500000       0.12500000 </v>
   <v>       0.37500000       0.87500000       0.62500000 </v>
   <v>       0.87500000       0.37500000       0.12500000 </v>
   <v>       0.87500000       0.37500000       0.62500000 </v>
   <v>       0.87500000       0.87500000       0.12500000 </v>
   <v>       0.87500000       0.87500000       0.62500000 </v>
   <v>       0.00000000       0.25000000       0.25000000 </v>
   <v>       0.00000000       0.25000000       0.75000000 </v>
   <v>       0.00000000       0.75000000       0.25000000 </v>
   <v>       0.00000000       0.75000000       0.75000000 </v>
   <v>       0.50000000       0.25000000       0.25000000 </v>
   <v>       0.50000000       0.25000000       0.75000000 </v>
   <v>       0.50000000       0.75000000       0.25000000 </v>
   <v>       0.50000000       0.75000000       0.75000000 </v>
   <v>       0.37500000       0.12500000       0.37500000 </v>
   <v>       0.37500000       0.12500000       0.87500000 </v>
   <v>       0.37500000       0.62500000       0.37500000 </v>
   <v>       0.37500000       0.62500000       0.87500000 </v>
   <v>       0.87500000       0.12500000       0.37500000 </v>
   <v>       0.87500000       0.12500000       0.87500000 </v>
   <v>       0.87500000       0.62500000       0.37500000 </v>
   <v>       0.87500000       0.62500000       0.87500000 </v>
   <v>       0.25000000       0.00000000       0.25000000 </v>
   <v>       0.25000000       0.00000000       0.75000000 </v>
   <v>       0.25000000       0.50000000       0.25000000 </v>
   <v>       0.25000000       0.50000000       0.75000000 </v>
   <v>       0.75000000       0.00000000       0.25000000 </v>
   <v>       0.75000000       0.00000000       0.75000000 </v>
   <v>       0.75000000       0.50000000       0.25000000 </v>
   <v>       0.75000000       0.50000000       0.75000000 </v>
   <v>       0.12500000       0.37500000       0.37500000 </v>
   <v>       0.12500000       0.37500000       0.87500000 </v>
   <v>       0.12500000       0.87500000       0.37500000 </v>
   <v>       0.12500000       0.87500000       0.87500000 </v>
   <v>       0.62500000       0.37500000       0.37500000 </v>
   <v>       0.62500000       0.37500000       0.87500000 </v>
   <v>       0.62500000       0.87500000       0.37500000 </v>
   <v>       0.62500000       0.87500000       0.87500000 </v>
   <v>       0.25000000       0.25000000       0.00000000 </v>
   <v>       0.25000000       0.25000000       0.50000000 </v>
   <v>       0.25000000       0.75000000       0.00000000 </v>
   <v>       0.25000000       0.75000000       0.50000000 </v>
   <v>       0.75000000       0.25000000       0.00000000 </v>
   <v>       0.75000000       0.25000000       0.50000000 </v>
   <v>       0.75000000       0.75000000       0.00000000 </v>
   <v>       0.75000000       0.75000000       0.50000000 </v>
   <v>       0.12500000       0.12500000       0.12500000 </v>
   <v>       0.12500000       0.12500000       0.62500000 </v>
   <v>       0.12500000       0.62500000       0.12500000 </v>
   <v>       0.12500000       0.62500000       0.62500000 </v>
   <v>       0.62500000       0.12500000       0.12500000 </v>
   <v>       0.62500000       0.12500000       0.62500000 </v>
   <v>       0.62500000       0.62500000       0.12500000 </v>
   <v>       0.62500000       0.62500000       0.62500000 </v>
  </varray>
 </structure>
</modeling>
