       N       E                     dE             d eps       ncg     rms          rms(c)
DAV:   1     0.560307994361E+03    0.56031E+03   -0.83802E+04  2592   0.106E+03
DAV:   2    -0.309555144868E+03   -0.86986E+03   -0.82401E+03  3088   0.171E+02
DAV:   3    -0.372945434312E+03   -0.63390E+02   -0.62316E+02  3144   0.410E+01
DAV:   4    -0.374596291121E+03   -0.16509E+01   -0.16378E+01  3096   0.806E+00
DAV:   5    -0.374654621386E+03   -0.58330E-01   -0.58227E-01  3086   0.139E+00    0.278E+01
RMM:   6    -0.369790096425E+03    0.48645E+01   -0.23906E+00  2592   0.241E+00    0.167E+01
RMM:   7    -0.367544578112E+03    0.22455E+01   -0.61984E+00  2652   0.390E+00    0.916E-01
RMM:   8    -0.367586892164E+03   -0.42314E-01   -0.58260E-01  2618   0.148E+00    0.483E-01
RMM:   9    -0.367604996172E+03   -0.18104E-01   -0.16634E-01  2661   0.728E-01    0.563E-01
RMM:  10    -0.367608068814E+03   -0.30726E-02   -0.30123E-02  2746   0.344E-01    0.704E-01
RMM:  11    -0.367606531463E+03    0.15374E-02   -0.95820E-03  2592   0.202E-01    0.738E-01
RMM:  12    -0.367606562817E+03   -0.31354E-04   -0.16542E-03  2605   0.962E-02    0.805E-01
RMM:  13    -0.367606618656E+03   -0.55839E-04   -0.30785E-04  2779   0.395E-02    0.832E-01
RMM:  14    -0.367606246800E+03    0.37186E-03   -0.14221E-04  2592   0.281E-02    0.794E-01
RMM:  15    -0.367606443601E+03   -0.19680E-03   -0.87446E-05  2592   0.168E-02    0.750E-01
RMM:  16    -0.367606710936E+03   -0.26734E-03   -0.49987E-05  2592   0.164E-02    0.594E-01
RMM:  17    -0.367606842539E+03   -0.13160E-03   -0.39403E-05  2592   0.148E-02    0.397E-01
RMM:  18    -0.367606907746E+03   -0.65208E-04   -0.19276E-05  2594   0.108E-02    0.215E-01
RMM:  19    -0.367606943921E+03   -0.36174E-04   -0.15593E-05  2595   0.943E-03    0.649E-02
RMM:  20    -0.367606954105E+03   -0.10185E-04   -0.74320E-06  2511   0.644E-03    0.199E-02
RMM:  21    -0.367606955981E+03   -0.18760E-05   -0.18025E-06  1573   0.301E-03    0.250E-02
RMM:  22    -0.367606956836E+03   -0.85430E-06   -0.35171E-07  1558   0.116E-03
   1 F= -.36760696E+03 E0= -.36761546E+03  d E =-.367607E+03
       N       E                     dE             d eps       ncg     rms          rms(c)
DAV:   1    -0.367608929573E+03   -0.19736E-02   -0.91687E-02  2960   0.577E-01    0.128E-01
RMM:   2    -0.367609396313E+03   -0.46674E-03   -0.49135E-03  2592   0.145E-01    0.519E-02
RMM:   3    -0.367609477832E+03   -0.81519E-04   -0.81589E-04  2648   0.663E-02    0.222E-02
RMM:   4    -0.367609479596E+03   -0.17646E-05   -0.11126E-04  2679   0.277E-02    0.770E-03
RMM:   5    -0.367609480478E+03   -0.88145E-06   -0.18977E-05  2616   0.110E-02    0.181E-03
RMM:   6    -0.367609480884E+03   -0.40603E-06   -0.38926E-06  1896   0.467E-03    0.285E-04
RMM:   7    -0.367609480951E+03   -0.66870E-07   -0.69085E-07  1535   0.193E-03    0.206E-04
RMM:   8    -0.367609480966E+03   -0.15570E-07   -0.18486E-07  1279   0.960E-04
   2 F= -.36760948E+03 E0= -.36761802E+03  d E =-.252413E-02
       N       E                     dE             d eps       ncg     rms          rms(c)
DAV:   1    -0.367609685675E+03   -0.20472E-03   -0.47101E-03  3008   0.131E-01    0.288E-02
RMM:   2    -0.367609709435E+03   -0.23761E-04   -0.24871E-04  2592   0.328E-02    0.118E-02
RMM:   3    -0.367609713546E+03   -0.41110E-05   -0.40399E-05  2630   0.149E-02    0.501E-03
RMM:   4    -0.367609713660E+03   -0.11340E-06   -0.54086E-06  2063   0.623E-03    0.169E-03
RMM:   5    -0.367609713710E+03   -0.50167E-07   -0.90342E-07  1533   0.251E-03    0.428E-04
RMM:   6    -0.367609713732E+03   -0.22473E-07   -0.22047E-07  1366   0.111E-03    0.719E-05
RMM:   7    -0.367609713737E+03   -0.48867E-08   -0.51674E-08   816   0.622E-04    0.608E-05
RMM:   8    -0.367609713739E+03   -0.18581E-08   -0.96795E-09   520   0.458E-04
   3 F= -.36760971E+03 E0= -.36761824E+03  d E =-.275690E-02
