<?xml version="1.0" encoding="ISO-8859-1"?>
<modeling>
 <generator>
  <i name="program" type="string">vasp </i>
  <i name="version" type="string">6.4.3  </i>
  <i name="subversion" type="string">19Mar24 (build Oct 21 2024 22:36:34) complex                          parallel </i>
  <i name="platform" type="string">LinuxIFC </i>
  <i name="date" type="string">2024 11 01 </i>
  <i name="time" type="string">22:44:03 </i>
 </generator>
 <incar>
  <i type="string" name="SYSTEM">Si64</i>
  <i type="int" name="ISTART">     0</i>
  <i type="string" name="PREC">Accurate</i>
  <i type="string" name="ALGO">Fast</i>
  <i type="logical" name="ADDGRID"> T  </i>
  <i type="int" name="ICHARG">     2</i>
  <i type="int" name="NELM">    60</i>
  <i type="int" name="NELMIN">     8</i>
  <i type="int" name="IBRION">     2</i>
  <i name="EDIFF">      0.00000100</i>
  <i name="EDIFFG">     -0.01000000</i>
  <i type="int" name="NSW">    60</i>
  <i type="int" name="ISIF">     2</i>
  <i name="ENCUT">    400.00000000</i>
  <i type="string" name="LREAL">Auto</i>
  <i type="int" name="ISMEAR">     1</i>
  <i name="SIGMA">      0.20000000</i>
  <i type="logical" name="LWAVE"> F  </i>
  <i type="logical" name="LCHARG"> F  </i>
  <i type="logical" name="GGA_COMPAT"> F  </i>
  <i type="string" name="GGA">PS</i>
 </incar>
 <primitive_cell>
  <structure name="primitive_cell" >
   <crystal>
    <varray name="basis" >
     <v>       0.00679475       2.71786690      -2.71786690 </v>
     <v>       0.00679475       2.71786690       2.71786690 </v>
     <v>       2.72466140      -2.71107215       0.00000000 </v>
    </varray>
    <i name="volume">     40.35319236 </i>
    <varray name="rec_basis" >
     <v>       0.18259604       0.18351131      -0.18396780 </v>
     <v>       0.18259604       0.18351131       0.18396780 </v>
     <v>       0.36610737      -0.00091528      -0.00000000 </v>
    </varray>
   </crystal>
   <varray name="positions" >
    <v>       0.00000000       0.00000000       0.00000000 </v>
    <v>       0.25000000       0.75000000       0.50000000 </v>
   </varray>
  </structure>
  <varray name="primitive_index" >
   <v type="int" >        1 </v>
   <v type="int" >       15 </v>
  </varray>
 </primitive_cell>
 <kpoints>
  <generation param="Gamma">
   <v type="int" name="divisions">       2        2        2 </v>
   <v name="usershift">      0.00000000       0.00000000       0.00000000 </v>
   <v name="genvec1">      0.50000000       0.00000000       0.00000000 </v>
   <v name="genvec2">     -0.00000000       0.50000000       0.00000000 </v>
   <v name="genvec3">      0.00000000       0.00000000       0.50000000 </v>
   <v name="shift">      0.00000000       0.00000000       0.00000000 </v>
  </generation>
  <varray name="kpointlist" >
   <v>       0.00000000       0.00000000       0.00000000 </v>
   <v>       0.50000000       0.00000000       0.00000000 </v>
   <v>      -0.00000000       0.50000000       0.00000000 </v>
   <v>       0.50000000       0.50000000       0.00000000 </v>
   <v>       0.00000000       0.00000000       0.50000000 </v>
   <v>       0.50000000       0.00000000       0.50000000 </v>
   <v>      -0.00000000       0.50000000       0.50000000 </v>
   <v>       0.50000000       0.50000000       0.50000000 </v>
  </varray>
  <varray name="weights" >
   <v>       0.12500000 </v>
   <v>       0.12500000 </v>
   <v>       0.12500000 </v>
   <v>       0.12500000 </v>
   <v>       0.12500000 </v>
   <v>       0.12500000 </v>
   <v>       0.12500000 </v>
   <v>       0.12500000 </v>
  </varray>
 </kpoints>
 <parameters>
  <separator name="general" >
   <i type="string" name="SYSTEM">Si64</i>
   <i type="logical" name="LCOMPAT"> F  </i>
  </separator>
  <separator name="electronic" >
   <i type="string" name="PREC">accura</i>
   <i name="ENMAX">    400.00000000</i>
   <i name="ENAUG">    322.06900000</i>
   <i name="EDIFF">      0.00000100</i>
   <i type="int" name="IALGO">    68</i>
   <i type="int" name="IWAVPR">    11</i>
   <i type="int" name="NBANDS">   162</i>
   <i type="int" name="NBANDSLOW">    -1</i>
   <i type="int" name="NBANDSHIGH">    -1</i>
   <i name="NELECT">    256.00000000</i>
   <i type="int" name="TURBO">     0</i>
   <i type="int" name="IRESTART">     0</i>
   <i type="int" name="NREBOOT">     0</i>
   <i type="int" name="NMIN">     0</i>
   <i name="EREF">      0.00000000</i>
   <separator name="electronic smearing" >
    <i type="int" name="ISMEAR">     1</i>
    <i name="SIGMA">      0.20000000</i>
    <i name="KSPACING">      0.50000000</i>
    <i type="logical" name="KGAMMA"> T  </i>
    <i type="logical" name="KBLOWUP"> T  </i>
   </separator>
   <separator name="electronic projectors" >
    <i type="logical" name="LREAL"> T  </i>
    <v name="ROPT">     -0.00025000</v>
    <i type="int" name="LMAXPAW">  -100</i>
    <i type="int" name="LMAXMIX">     2</i>
    <i type="logical" name="NLSPLINE"> F  </i>
   </separator>
   <separator name="electronic startup" >
    <i type="int" name="ISTART">     0</i>
    <i type="int" name="ICHARG">     2</i>
    <i type="int" name="INIWAV">     1</i>
   </separator>
   <separator name="electronic spin" >
    <i type="int" name="ISPIN">     1</i>
    <i type="logical" name="LNONCOLLINEAR"> F  </i>
    <v name="MAGMOM">      1.00000000      1.00000000      1.00000000      1.00000000      1.00000000      1.00000000      1.00000000      1.00000000      1.00000000      1.00000000      1.00000000      1.00000000      1.00000000      1.00000000      1.00000000      1.00000000      1.00000000      1.00000000      1.00000000      1.00000000
      1.00000000      1.00000000      1.00000000      1.00000000      1.00000000      1.00000000      1.00000000      1.00000000      1.00000000      1.00000000      1.00000000      1.00000000      1.00000000      1.00000000      1.00000000      1.00000000      1.00000000      1.00000000      1.00000000      1.00000000
      1.00000000      1.00000000      1.00000000      1.00000000      1.00000000      1.00000000      1.00000000      1.00000000      1.00000000      1.00000000      1.00000000      1.00000000      1.00000000      1.00000000      1.00000000      1.00000000      1.00000000      1.00000000      1.00000000      1.00000000
      1.00000000      1.00000000      1.00000000      1.00000000</v>
    <i name="NUPDOWN">     -1.00000000</i>
    <i type="logical" name="LSORBIT"> F  </i>
    <v name="SAXIS">      0.00000000      0.00000000      1.00000000</v>
    <i type="logical" name="LSPIRAL"> F  </i>
    <v name="QSPIRAL">      0.00000000      0.00000000      0.00000000</v>
    <i type="logical" name="LZEROZ"> F  </i>
   </separator>
   <separator name="electronic exchange-correlation" >
    <i type="logical" name="LASPH"> F  </i>
   </separator>
   <separator name="electronic convergence" >
    <i type="int" name="NELM">    60</i>
    <i type="int" name="NELMDL">    -5</i>
    <i type="int" name="NELMIN">     8</i>
    <i name="ENINI">    400.00000000</i>
    <separator name="electronic convergence detail" >
     <i type="logical" name="LDIAG"> T  </i>
     <i type="logical" name="LSUBROT"> F  </i>
     <i name="WEIMIN">      0.00100000</i>
     <i name="EBREAK">      0.00000000</i>
     <i name="DEPER">      0.30000000</i>
     <i type="int" name="NRMM">     4</i>
     <i name="TIME">      0.40000000</i>
    </separator>
   </separator>
   <separator name="electronic mixer" >
    <i name="AMIX">      0.40000000</i>
    <i name="BMIX">      1.00000000</i>
    <i name="AMIN">      0.10000000</i>
    <i name="AMIX_MAG">      1.60000000</i>
    <i name="BMIX_MAG">      1.00000000</i>
    <separator name="electronic mixer details" >
     <i type="int" name="IMIX">     4</i>
     <i type="logical" name="MIXFIRST"> F  </i>
     <i type="int" name="MAXMIX">   -45</i>
     <i name="WC">    100.00000000</i>
     <i type="int" name="INIMIX">     1</i>
     <i type="int" name="MIXPRE">     1</i>
     <i type="int" name="MREMOVE">     5</i>
    </separator>
   </separator>
   <separator name="electronic dipolcorrection" >
    <i type="logical" name="LDIPOL"> F  </i>
    <i type="logical" name="LMONO"> F  </i>
    <i type="int" name="IDIPOL">     0</i>
    <i name="EPSILON">      1.00000000</i>
    <v name="DIPOL">   -100.00000000   -100.00000000   -100.00000000</v>
    <i name="EFIELD">      0.00000000</i>
    <i type="logical" name="LVACPOTAV"> F  </i>
   </separator>
  </separator>
  <separator name="grids" >
   <i type="int" name="NGX">    72</i>
   <i type="int" name="NGY">    72</i>
   <i type="int" name="NGZ">    72</i>
   <i type="int" name="NGXF">   144</i>
   <i type="int" name="NGYF">   144</i>
   <i type="int" name="NGZF">   144</i>
   <i type="logical" name="ADDGRID"> T  </i>
  </separator>
  <separator name="ionic" >
   <i type="int" name="NSW">    60</i>
   <i type="int" name="IBRION">     2</i>
   <i type="int" name="MDALGO">     0</i>
   <i type="int" name="ISIF">     2</i>
   <i name="PSTRESS">      0.00000000</i>
   <i name="EDIFFG">     -0.01000000</i>
   <i type="int" name="NFREE">     1</i>
   <i name="POTIM">      0.50000000</i>
   <i name="SMASS">     -3.00000000</i>
   <i name="SCALEE">      1.00000000</i>
  </separator>
  <separator name="ionic md" >
   <i name="TEBEG">      0.00010000</i>
   <i name="TEEND">      0.00010000</i>
   <i type="int" name="NBLOCK">     1</i>
   <i type="int" name="KBLOCK">    60</i>
   <i type="int" name="NPACO">   256</i>
   <i name="APACO">     10.00000000</i>
  </separator>
  <separator name="symmetry" >
   <i type="int" name="ISYM">     2</i>
   <i name="SYMPREC">      0.00001000</i>
  </separator>
  <separator name="dos" >
   <i type="int" name="LORBIT">     0</i>
   <v name="RWIGS">     -1.00000000</v>
   <i type="int" name="NEDOS">   301</i>
   <i name="EMIN">     10.00000000</i>
   <i name="EMAX">    -10.00000000</i>
   <i name="EFERMI">      0.00000000</i>
  </separator>
  <separator name="writing" >
   <i type="int" name="NWRITE">     2</i>
   <i type="logical" name="LWAVE"> F  </i>
   <i type="logical" name="LDOWNSAMPLE"> F  </i>
   <i type="logical" name="LCHARG"> F  </i>
   <i type="logical" name="LPARD"> F  </i>
   <i type="logical" name="LVTOT"> F  </i>
   <i type="logical" name="LVHAR"> F  </i>
   <i type="logical" name="LELF"> F  </i>
   <i type="logical" name="LOPTICS"> F  </i>
   <v name="STM">      0.00000000      0.00000000      0.00000000      0.00000000      0.00000000      0.00000000      0.00000000</v>
  </separator>
  <separator name="performance" >
   <i type="int" name="NPAR">     2</i>
   <i type="int" name="NSIM">     4</i>
   <i type="int" name="NBLK">    -1</i>
   <i type="logical" name="LPLANE"> T  </i>
   <i type="logical" name="LSCALAPACK"> T  </i>
   <i type="logical" name="LSCAAWARE"> F  </i>
   <i type="logical" name="LSCALU"> F  </i>
   <i type="logical" name="LASYNC"> F  </i>
   <i type="logical" name="LORBITALREAL"> F  </i>
  </separator>
  <separator name="miscellaneous" >
   <i type="int" name="IDIOT">     3</i>
   <i type="int" name="PHON_NSTRUCT">    -1</i>
   <i type="logical" name="LMUSIC"> F  </i>
   <v name="POMASS">     28.08500000</v>
   <v name="DARWINR">      0.00000000</v>
   <v name="DARWINV">      1.00000000</v>
   <i type="logical" name="LCORR"> T  </i>
  </separator>
  <i type="logical" name="GGA_COMPAT"> F  </i>
  <i type="logical" name="LBERRY"> F  </i>
  <i type="int" name="ICORELEVEL">     0</i>
  <i type="logical" name="LDAU"> F  </i>
  <i type="int" name="I_CONSTRAINED_M">     0</i>
  <separator name="electronic exchange-correlation" >
   <i type="string" name="GGA    ">PS</i>
   <i type="string" name="XC_C">1</i>
   <i type="int" name="VOSKOWN">     0</i>
   <i type="logical" name="LHFCALC"> F  </i>
   <i type="string" name="PRECFOCK"></i>
   <i type="logical" name="LSYMGRAD"> F  </i>
   <i type="logical" name="LHFONE"> F  </i>
   <i type="logical" name="LRHFCALC"> F  </i>
   <i type="logical" name="LTHOMAS"> F  </i>
   <i type="logical" name="LMODELHF"> F  </i>
   <i type="logical" name="LFOCKACE"> F  </i>
   <i name="ENCUT4O">     -1.00000000</i>
   <i type="int" name="EXXOEP">     0</i>
   <i type="int" name="FOURORBIT">     0</i>
   <i name="AEXX">      0.00000000</i>
   <i name="HFALPHA">      0.00000000</i>
   <i name="MCALPHA">      0.00000000</i>
   <i name="ALDAX">      1.00000000</i>
   <i name="AGGAX">      1.00000000</i>
   <i name="AMGGAX">      1.00000000</i>
   <i name="ALDAC">      1.00000000</i>
   <i name="AGGAC">      1.00000000</i>
   <i name="AMGGAC">      1.00000000</i>
   <i type="int" name="NKREDX">     1</i>
   <i type="int" name="NKREDY">     1</i>
   <i type="int" name="NKREDZ">     1</i>
   <i type="logical" name="SHIFTRED"> F  </i>
   <i type="logical" name="ODDONLY"> F  </i>
   <i type="logical" name="EVENONLY"> F  </i>
   <i type="int" name="LMAXFOCK">     0</i>
   <i type="int" name="NMAXFOCKAE">     0</i>
   <i type="logical" name="LFOCKAEDFT"> F  </i>
   <i name="HFSCREEN">      0.00000000</i>
   <i name="HFSCREENC">      0.00000000</i>
   <i type="int" name="NBANDSGWLOW">     0</i>
  </separator>
  <separator name="vdW DFT" >
   <i type="logical" name="LUSE_VDW"> F  </i>
   <i type="int" name="IVDW_NL">    -1</i>
   <i type="logical" name="LSPIN_VDW"> F  </i>
   <i name="ZAB_VDW">     -0.84910000</i>
   <i name="GAMMA_VDW">      1.39626340</i>
   <i name="ALPHA_VDW">      0.00000000</i>
   <i name="PARAM1">      0.12340000</i>
   <i name="PARAM2">      1.00000000</i>
   <i name="BPARAM">      6.30000000</i>
   <i name="CPARAM">      0.00930000</i>
  </separator>
  <separator name="model GW" >
   <i type="int" name="MODEL_GW">     0</i>
   <i name="MODEL_EPS0">     12.10595771</i>
   <i name="MODEL_ALPHA">      1.00000000</i>
  </separator>
  <separator name="linear response parameters" >
   <i type="logical" name="LEPSILON"> F  </i>
   <i type="logical" name="LRPA"> F  </i>
   <i type="logical" name="LNABLA"> F  </i>
   <i type="logical" name="LVEL"> F  </i>
   <i name="CSHIFT">      0.10000000</i>
   <i name="OMEGAMAX">     -1.00000000</i>
   <i name="DEG_THRESHOLD">      0.00200000</i>
   <i name="RTIME">     -0.10000000</i>
   <i name="WPLASMAI">      0.00000000</i>
   <v name="DFIELD">      0.00000000      0.00000000      0.00000000</v>
   <v name="WPLASMA">      0.00000000      0.00000000      0.00000000      0.00000000      0.00000000      0.00000000      0.00000000      0.00000000      0.00000000</v>
  </separator>
  <separator name="orbital magnetization" >
   <i type="logical" name="NUCIND"> F  </i>
   <v name="MAGPOS">      0.00000000      0.00000000      0.00000000</v>
   <i type="logical" name="LNICSALL"> T  </i>
   <i type="logical" name="ORBITALMAG"> F  </i>
   <i type="logical" name="LMAGBLOCH"> F  </i>
   <i type="logical" name="LCHIMAG"> F  </i>
   <i type="logical" name="LGAUGE"> T  </i>
   <i type="int" name="MAGATOM">     0</i>
   <v name="MAGDIPOL">      0.00000000      0.00000000      0.00000000</v>
   <v name="AVECCONST">      0.00000000      0.00000000      0.00000000</v>
  </separator>
  <separator name="response functions" >
   <i type="logical" name="LALL_IN_ONE"> F  </i>
   <i type="int" name="IALL_IN_ONE">    -1</i>
   <i type="int" name="NBANDS_WAVE">    -1</i>
   <i type="logical" name="LFINITE_TEMPERATURE"> F  </i>
   <i type="logical" name="LADDER"> F  </i>
   <i type="logical" name="LRPAFORCE"> F  </i>
   <i type="logical" name="LFXC"> F  </i>
   <i type="logical" name="LHARTREE"> T  </i>
   <i type="int" name="IBSE">     0</i>
   <v type="int" name="KPOINT">    -1     0     0     0</v>
   <i type="logical" name="LTCTC"> F  </i>
   <i type="logical" name="LTCTE"> F  </i>
   <i type="logical" name="LTETE"> F  </i>
   <i type="logical" name="LTRIPLET"> F  </i>
   <i type="logical" name="LFXCEPS"> F  </i>
   <i type="logical" name="LFXHEG"> F  </i>
   <i type="int" name="NATURALO">     2</i>
   <i type="logical" name="LHOLEGF"> F  </i>
   <i type="logical" name="L2ORDER"> F  </i>
   <i type="logical" name="LDMP1"> F  </i>
   <i type="logical" name="LMP2LT"> F  </i>
   <i type="logical" name="LSMP2LT"> F  </i>
   <i type="logical" name="LGWLF"> F  </i>
   <i name="ENCUTGW">     -1.60000002</i>
   <i name="ENCUTGWSOFT">     -1.60000002</i>
   <i name="ENCUTLF">     -1.00000000</i>
   <i type="logical" name="ESF_SPLINES"> F  </i>
   <i name="ESF_CONV">      0.01000000</i>
   <i type="int" name="ESF_NINTER">    15</i>
   <i type="int" name="LMAXMP2">    -1</i>
   <i name="SCISSOR">      0.00000000</i>
   <i type="int" name="NOMEGA">     0</i>
   <i type="int" name="NOMEGAR">     0</i>
   <i type="int" name="NBANDSGW">    -1</i>
   <i type="int" name="NBANDSO">    -1</i>
   <i type="int" name="NBANDSV">    -1</i>
   <i type="int" name="NELMGW">     1</i>
   <i type="int" name="NELMHF">     1</i>
   <i type="int" name="DIM">     3</i>
   <i type="int" name="IESPILON">     4</i>
   <i type="int" name="ANTIRES">     0</i>
   <i name="OMEGAMAX">    -30.00000000</i>
   <i name="OMEGAMIN">    -30.00000000</i>
   <i name="OMEGATL">   -200.00000000</i>
   <i type="int" name="OMEGAGRID">     0</i>
   <i name="CSHIFT">     -0.10000000</i>
   <i type="logical" name="LSELFENERGY"> F  </i>
   <i type="logical" name="LSPECTRAL"> F  </i>
   <i type="logical" name="LSPECTRALGW"> F  </i>
   <i type="logical" name="LSINGLES"> F  </i>
   <i type="logical" name="LFERMIGW"> F  </i>
   <i type="logical" name="ODDONLYGW"> F  </i>
   <i type="logical" name="EVENONLYGW"> F  </i>
   <i type="int" name="NKREDLFX">     1</i>
   <i type="int" name="NKREDLFY">     1</i>
   <i type="int" name="NKREDLFZ">     1</i>
   <i type="int" name="MAXMEM">  2800</i>
   <i type="int" name="TELESCOPE">     0</i>
   <i type="int" name="NTAUPAR">    -1</i>
   <i type="int" name="NOMEGAPAR">    -1</i>
   <i name="DAMP_NEWTON">      0.80000001</i>
   <i name="LAMBDA">      1.00000000</i>
  </separator>
  <separator name="External order field" >
   <i name="OFIELD_KAPPA">      0.00000000</i>
   <v name="OFIELD_K">      0.00000000      0.00000000      0.00000000</v>
   <i name="OFIELD_Q6_NEAR">      0.00000000</i>
   <i name="OFIELD_Q6_FAR">      0.00000000</i>
   <i name="OFIELD_A">      0.00000000</i>
  </separator>
  <separator name="optional k-points parameters" >
   <i type="int" name="KPOINTS_OPT_MODE">     1</i>
   <i type="logical" name="LKPOINTS_OPT"> F  </i>
  </separator>
 </parameters>
 <atominfo>
  <atoms>      64 </atoms>
  <types>       1 </types>
  <array name="atoms" >
   <dimension dim="1">ion</dimension>
   <field type="string">element</field>
   <field type="int">atomtype</field>
   <set>
    <rc><c>Si</c><c>   1</c></rc>
    <rc><c>Si</c><c>   1</c></rc>
    <rc><c>Si</c><c>   1</c></rc>
    <rc><c>Si</c><c>   1</c></rc>
    <rc><c>Si</c><c>   1</c></rc>
    <rc><c>Si</c><c>   1</c></rc>
    <rc><c>Si</c><c>   1</c></rc>
    <rc><c>Si</c><c>   1</c></rc>
    <rc><c>Si</c><c>   1</c></rc>
    <rc><c>Si</c><c>   1</c></rc>
    <rc><c>Si</c><c>   1</c></rc>
    <rc><c>Si</c><c>   1</c></rc>
    <rc><c>Si</c><c>   1</c></rc>
    <rc><c>Si</c><c>   1</c></rc>
    <rc><c>Si</c><c>   1</c></rc>
    <rc><c>Si</c><c>   1</c></rc>
    <rc><c>Si</c><c>   1</c></rc>
    <rc><c>Si</c><c>   1</c></rc>
    <rc><c>Si</c><c>   1</c></rc>
    <rc><c>Si</c><c>   1</c></rc>
    <rc><c>Si</c><c>   1</c></rc>
    <rc><c>Si</c><c>   1</c></rc>
    <rc><c>Si</c><c>   1</c></rc>
    <rc><c>Si</c><c>   1</c></rc>
    <rc><c>Si</c><c>   1</c></rc>
    <rc><c>Si</c><c>   1</c></rc>
    <rc><c>Si</c><c>   1</c></rc>
    <rc><c>Si</c><c>   1</c></rc>
    <rc><c>Si</c><c>   1</c></rc>
    <rc><c>Si</c><c>   1</c></rc>
    <rc><c>Si</c><c>   1</c></rc>
    <rc><c>Si</c><c>   1</c></rc>
    <rc><c>Si</c><c>   1</c></rc>
    <rc><c>Si</c><c>   1</c></rc>
    <rc><c>Si</c><c>   1</c></rc>
    <rc><c>Si</c><c>   1</c></rc>
    <rc><c>Si</c><c>   1</c></rc>
    <rc><c>Si</c><c>   1</c></rc>
    <rc><c>Si</c><c>   1</c></rc>
    <rc><c>Si</c><c>   1</c></rc>
    <rc><c>Si</c><c>   1</c></rc>
    <rc><c>Si</c><c>   1</c></rc>
    <rc><c>Si</c><c>   1</c></rc>
    <rc><c>Si</c><c>   1</c></rc>
    <rc><c>Si</c><c>   1</c></rc>
    <rc><c>Si</c><c>   1</c></rc>
    <rc><c>Si</c><c>   1</c></rc>
    <rc><c>Si</c><c>   1</c></rc>
    <rc><c>Si</c><c>   1</c></rc>
    <rc><c>Si</c><c>   1</c></rc>
    <rc><c>Si</c><c>   1</c></rc>
    <rc><c>Si</c><c>   1</c></rc>
    <rc><c>Si</c><c>   1</c></rc>
    <rc><c>Si</c><c>   1</c></rc>
    <rc><c>Si</c><c>   1</c></rc>
    <rc><c>Si</c><c>   1</c></rc>
    <rc><c>Si</c><c>   1</c></rc>
    <rc><c>Si</c><c>   1</c></rc>
    <rc><c>Si</c><c>   1</c></rc>
    <rc><c>Si</c><c>   1</c></rc>
    <rc><c>Si</c><c>   1</c></rc>
    <rc><c>Si</c><c>   1</c></rc>
    <rc><c>Si</c><c>   1</c></rc>
    <rc><c>Si</c><c>   1</c></rc>
   </set>
  </array>
  <array name="atomtypes" >
   <dimension dim="1">type</dimension>
   <field type="int">atomspertype</field>
   <field type="string">element</field>
   <field>mass</field>
   <field>valence</field>
   <field type="string">pseudopotential</field>
   <set>
    <rc><c>  64</c><c>Si</c><c>     28.08500000</c><c>      4.00000000</c><c>  PAW_PBE Si 05Jan2001                  </c></rc>
   </set>
  </array>
 </atominfo>
 <structure name="initialpos" >
  <crystal>
   <varray name="basis" >
    <v>      10.92582461       0.02717900       0.00000000 </v>
    <v>       0.02717900      10.87146761       0.00000000 </v>
    <v>       0.00000000       0.00000000      10.87146761 </v>
   </varray>
   <i name="volume">   1291.30215564 </i>
   <varray name="rec_basis" >
    <v>       0.09152684      -0.00022882       0.00000000 </v>
    <v>      -0.00022882       0.09198447       0.00000000 </v>
    <v>       0.00000000       0.00000000       0.09198390 </v>
   </varray>
  </crystal>
  <varray name="positions" >
   <v>       0.00000000       0.00000000       0.00000000 </v>
   <v>       0.00000000       0.00000000       0.50000000 </v>
   <v>       0.00000000       0.50000000       0.00000000 </v>
   <v>       0.00000000       0.50000000       0.50000000 </v>
   <v>       0.50000000       0.00000000       0.00000000 </v>
   <v>       0.50000000       0.00000000       0.50000000 </v>
   <v>       0.50000000       0.50000000       0.00000000 </v>
   <v>       0.50000000       0.50000000       0.50000000 </v>
   <v>       0.37500000       0.37500000       0.12500000 </v>
   <v>       0.37500000       0.37500000       0.62500000 </v>
   <v>       0.37500000       0.87500000       0.12500000 </v>
   <v>       0.37500000       0.87500000       0.62500000 </v>
   <v>       0.87500000       0.37500000       0.12500000 </v>
   <v>       0.87500000       0.37500000       0.62500000 </v>
   <v>       0.87500000       0.87500000       0.12500000 </v>
   <v>       0.87500000       0.87500000       0.62500000 </v>
   <v>       0.00000000       0.25000000       0.25000000 </v>
   <v>       0.00000000       0.25000000       0.75000000 </v>
   <v>       0.00000000       0.75000000       0.25000000 </v>
   <v>       0.00000000       0.75000000       0.75000000 </v>
   <v>       0.50000000       0.25000000       0.25000000 </v>
   <v>       0.50000000       0.25000000       0.75000000 </v>
   <v>       0.50000000       0.75000000       0.25000000 </v>
   <v>       0.50000000       0.75000000       0.75000000 </v>
   <v>       0.37500000       0.12500000       0.37500000 </v>
   <v>       0.37500000       0.12500000       0.87500000 </v>
   <v>       0.37500000       0.62500000       0.37500000 </v>
   <v>       0.37500000       0.62500000       0.87500000 </v>
   <v>       0.87500000       0.12500000       0.37500000 </v>
   <v>       0.87500000       0.12500000       0.87500000 </v>
   <v>       0.87500000       0.62500000       0.37500000 </v>
   <v>       0.87500000       0.62500000       0.87500000 </v>
   <v>       0.25000000       0.00000000       0.25000000 </v>
   <v>       0.25000000       0.00000000       0.75000000 </v>
   <v>       0.25000000       0.50000000       0.25000000 </v>
   <v>       0.25000000       0.50000000       0.75000000 </v>
   <v>       0.75000000       0.00000000       0.25000000 </v>
   <v>       0.75000000       0.00000000       0.75000000 </v>
   <v>       0.75000000       0.50000000       0.25000000 </v>
   <v>       0.75000000       0.50000000       0.75000000 </v>
   <v>       0.12500000       0.37500000       0.37500000 </v>
   <v>       0.12500000       0.37500000       0.87500000 </v>
   <v>       0.12500000       0.87500000       0.37500000 </v>
   <v>       0.12500000       0.87500000       0.87500000 </v>
   <v>       0.62500000       0.37500000       0.37500000 </v>
   <v>       0.62500000       0.37500000       0.87500000 </v>
   <v>       0.62500000       0.87500000       0.37500000 </v>
   <v>       0.62500000       0.87500000       0.87500000 </v>
   <v>       0.25000000       0.25000000       0.00000000 </v>
   <v>       0.25000000       0.25000000       0.50000000 </v>
   <v>       0.25000000       0.75000000       0.00000000 </v>
   <v>       0.25000000       0.75000000       0.50000000 </v>
   <v>       0.75000000       0.25000000       0.00000000 </v>
   <v>       0.75000000       0.25000000       0.50000000 </v>
   <v>       0.75000000       0.75000000       0.00000000 </v>
   <v>       0.75000000       0.75000000       0.50000000 </v>
   <v>       0.12500000       0.12500000       0.12500000 </v>
   <v>       0.12500000       0.12500000       0.62500000 </v>
   <v>       0.12500000       0.62500000       0.12500000 </v>
   <v>       0.12500000       0.62500000       0.62500000 </v>
   <v>       0.62500000       0.12500000       0.12500000 </v>
   <v>       0.62500000       0.12500000       0.62500000 </v>
   <v>       0.62500000       0.62500000       0.12500000 </v>
   <v>       0.62500000       0.62500000       0.62500000 </v>
  </varray>
 </structure>
 <calculation>
  <scstep>
   <time name="dav">    1.32    1.39</time>
   <time name="total">    1.51    1.60</time>
   <energy>
    <i name="alphaZ">    106.77917880 </i>
    <i name="ewald">  -7294.19104424 </i>
    <i name="hartreedc">   -355.96177879 </i>
    <i name="XCdc">   -559.50952642 </i>
    <i name="pawpsdc">   5598.62625415 </i>
    <i name="pawaedc">  -4492.17844134 </i>
    <i name="eentropy">      0.00598146 </i>
    <i name="bandstr">    991.94150975 </i>
    <i name="atom">   6564.79586099 </i>
    <i name="e_fr_energy">    560.30799436 </i>
    <i name="e_wo_entrp">    560.30201290 </i>
    <i name="e_0_energy">    560.30600054 </i>
   </energy>
  </scstep>
  <scstep>
   <time name="dav">    1.38    1.42</time>
   <time name="total">    1.39    1.42</time>
   <energy>
    <i name="e_fr_energy">   -309.55514487 </i>
    <i name="e_wo_entrp">   -309.57819457 </i>
    <i name="e_0_energy">   -309.56282810 </i>
   </energy>
  </scstep>
  <scstep>
   <time name="dav">    1.44    1.46</time>
   <time name="total">    1.44    1.46</time>
   <energy>
    <i name="e_fr_energy">   -372.94543431 </i>
    <i name="e_wo_entrp">   -372.95431762 </i>
    <i name="e_0_energy">   -372.94839541 </i>
   </energy>
  </scstep>
  <scstep>
   <time name="dav">    1.37    1.38</time>
   <time name="total">    1.37    1.38</time>
   <energy>
    <i name="e_fr_energy">   -374.59629112 </i>
    <i name="e_wo_entrp">   -374.60483632 </i>
    <i name="e_0_energy">   -374.59913952 </i>
   </energy>
  </scstep>
  <scstep>
   <time name="dav">    1.38    1.39</time>
   <time name="total">    1.65    1.67</time>
   <energy>
    <i name="e_fr_energy">   -374.65462139 </i>
    <i name="e_wo_entrp">   -374.66318897 </i>
    <i name="e_0_energy">   -374.65747725 </i>
   </energy>
  </scstep>
  <scstep>
   <time name="diag">    0.14    0.14</time>
   <time name="diis">    0.75    0.76</time>
   <time name="orth">    0.02    0.02</time>
   <time name="total">    1.31    1.34</time>
   <energy>
    <i name="e_fr_energy">   -369.79009643 </i>
    <i name="e_wo_entrp">   -369.79879976 </i>
    <i name="e_0_energy">   -369.79299754 </i>
   </energy>
  </scstep>
  <scstep>
   <time name="diag">    0.13    0.14</time>
   <time name="diis">    0.74    0.74</time>
   <time name="orth">    0.02    0.02</time>
   <time name="total">    1.31    1.32</time>
   <energy>
    <i name="e_fr_energy">   -367.54457811 </i>
    <i name="e_wo_entrp">   -367.57318638 </i>
    <i name="e_0_energy">   -367.55411420 </i>
   </energy>
  </scstep>
  <scstep>
   <time name="diag">    0.13    0.13</time>
   <time name="diis">    0.73    0.73</time>
   <time name="orth">    0.02    0.02</time>
   <time name="total">    1.29    1.31</time>
   <energy>
    <i name="e_fr_energy">   -367.58689216 </i>
    <i name="e_wo_entrp">   -367.61278752 </i>
    <i name="e_0_energy">   -367.59552395 </i>
   </energy>
  </scstep>
  <scstep>
   <time name="diag">    0.13    0.13</time>
   <time name="diis">    0.74    0.75</time>
   <time name="orth">    0.02    0.02</time>
   <time name="total">    1.30    1.32</time>
   <energy>
    <i name="e_fr_energy">   -367.60499617 </i>
    <i name="e_wo_entrp">   -367.63143487 </i>
    <i name="e_0_energy">   -367.61380907 </i>
   </energy>
  </scstep>
  <scstep>
   <time name="diag">    0.13    0.13</time>
   <time name="diis">    0.77    0.77</time>
   <time name="orth">    0.02    0.02</time>
   <time name="total">    1.33    1.34</time>
   <energy>
    <i name="e_fr_energy">   -367.60806881 </i>
    <i name="e_wo_entrp">   -367.63451717 </i>
    <i name="e_0_energy">   -367.61688493 </i>
   </energy>
  </scstep>
  <scstep>
   <time name="diag">    0.13    0.13</time>
   <time name="diis">    0.72    0.73</time>
   <time name="orth">    0.02    0.02</time>
   <time name="total">    1.28    1.30</time>
   <energy>
    <i name="e_fr_energy">   -367.60653146 </i>
    <i name="e_wo_entrp">   -367.63216855 </i>
    <i name="e_0_energy">   -367.61507716 </i>
   </energy>
  </scstep>
  <scstep>
   <time name="diag">    0.13    0.13</time>
   <time name="diis">    0.71    0.71</time>
   <time name="orth">    0.02    0.02</time>
   <time name="total">    1.27    1.29</time>
   <energy>
    <i name="e_fr_energy">   -367.60656282 </i>
    <i name="e_wo_entrp">   -367.63215818 </i>
    <i name="e_0_energy">   -367.61509460 </i>
   </energy>
  </scstep>
  <scstep>
   <time name="diag">    0.13    0.13</time>
   <time name="diis">    0.77    0.77</time>
   <time name="orth">    0.02    0.02</time>
   <time name="total">    1.33    1.35</time>
   <energy>
    <i name="e_fr_energy">   -367.60661866 </i>
    <i name="e_wo_entrp">   -367.63221548 </i>
    <i name="e_0_energy">   -367.61515093 </i>
   </energy>
  </scstep>
  <scstep>
   <time name="diag">    0.13    0.13</time>
   <time name="diis">    0.76    0.76</time>
   <time name="orth">    0.02    0.02</time>
   <time name="total">    1.31    1.33</time>
   <energy>
    <i name="e_fr_energy">   -367.60624680 </i>
    <i name="e_wo_entrp">   -367.63184693 </i>
    <i name="e_0_energy">   -367.61478018 </i>
   </energy>
  </scstep>
  <scstep>
   <time name="diag">    0.13    0.13</time>
   <time name="diis">    0.73    0.73</time>
   <time name="orth">    0.02    0.02</time>
   <time name="total">    1.30    1.31</time>
   <energy>
    <i name="e_fr_energy">   -367.60644360 </i>
    <i name="e_wo_entrp">   -367.63198026 </i>
    <i name="e_0_energy">   -367.61495582 </i>
   </energy>
  </scstep>
  <scstep>
   <time name="diag">    0.13    0.13</time>
   <time name="diis">    0.72    0.72</time>
   <time name="orth">    0.02    0.02</time>
   <time name="total">    1.28    1.30</time>
   <energy>
    <i name="e_fr_energy">   -367.60671094 </i>
    <i name="e_wo_entrp">   -367.63225032 </i>
    <i name="e_0_energy">   -367.61522406 </i>
   </energy>
  </scstep>
  <scstep>
   <time name="diag">    0.13    0.13</time>
   <time name="diis">    0.72    0.73</time>
   <time name="orth">    0.02    0.02</time>
   <time name="total">    1.29    1.30</time>
   <energy>
    <i name="e_fr_energy">   -367.60684254 </i>
    <i name="e_wo_entrp">   -367.63237947 </i>
    <i name="e_0_energy">   -367.61535485 </i>
   </energy>
  </scstep>
  <scstep>
   <time name="diag">    0.13    0.13</time>
   <time name="diis">    0.72    0.73</time>
   <time name="orth">    0.02    0.02</time>
   <time name="total">    1.28    1.31</time>
   <energy>
    <i name="e_fr_energy">   -367.60690775 </i>
    <i name="e_wo_entrp">   -367.63243270 </i>
    <i name="e_0_energy">   -367.61541606 </i>
   </energy>
  </scstep>
  <scstep>
   <time name="diag">    0.13    0.13</time>
   <time name="diis">    0.73    0.73</time>
   <time name="orth">    0.02    0.02</time>
   <time name="total">    1.28    1.30</time>
   <energy>
    <i name="e_fr_energy">   -367.60694392 </i>
    <i name="e_wo_entrp">   -367.63245553 </i>
    <i name="e_0_energy">   -367.61544779 </i>
   </energy>
  </scstep>
  <scstep>
   <time name="diag">    0.13    0.13</time>
   <time name="diis">    0.71    0.71</time>
   <time name="orth">    0.02    0.02</time>
   <time name="total">    1.27    1.28</time>
   <energy>
    <i name="e_fr_energy">   -367.60695411 </i>
    <i name="e_wo_entrp">   -367.63245820 </i>
    <i name="e_0_energy">   -367.61545547 </i>
   </energy>
  </scstep>
  <scstep>
   <time name="diag">    0.13    0.13</time>
   <time name="diis">    0.47    0.47</time>
   <time name="orth">    0.02    0.02</time>
   <time name="total">    1.03    1.05</time>
   <energy>
    <i name="e_fr_energy">   -367.60695598 </i>
    <i name="e_wo_entrp">   -367.63245938 </i>
    <i name="e_0_energy">   -367.61545712 </i>
   </energy>
  </scstep>
  <scstep>
   <time name="diag">    0.13    0.13</time>
   <time name="diis">    0.47    0.47</time>
   <time name="orth">    0.02    0.02</time>
   <time name="total">    0.77    0.79</time>
   <energy>
    <i name="alphaZ">    106.77917880 </i>
    <i name="ewald">  -7294.19104424 </i>
    <i name="hartreedc">   -471.01138317 </i>
    <i name="XCdc">   -540.14365341 </i>
    <i name="pawpsdc">  27300.86963212 </i>
    <i name="pawaedc"> -26201.11743657 </i>
    <i name="eentropy">      0.02550421 </i>
    <i name="bandstr">    166.38638443 </i>
    <i name="atom">   6564.79586099 </i>
    <i name="e_fr_energy">   -367.60695684 </i>
    <i name="e_wo_entrp">   -367.63246104 </i>
    <i name="e_0_energy">   -367.61545824 </i>
   </energy>
  </scstep>
  <structure>
   <crystal>
    <varray name="basis" >
     <v>      10.92582461       0.02717900       0.00000000 </v>
     <v>       0.02717900      10.87146761       0.00000000 </v>
     <v>       0.00000000       0.00000000      10.87146761 </v>
    </varray>
    <i name="volume">   1291.30215564 </i>
    <varray name="rec_basis" >
     <v>       0.09152684      -0.00022882       0.00000000 </v>
     <v>      -0.00022882       0.09198447       0.00000000 </v>
     <v>       0.00000000       0.00000000       0.09198390 </v>
    </varray>
   </crystal>
   <varray name="positions" >
    <v>       0.00000000       0.00000000       0.00000000 </v>
    <v>       0.00000000       0.00000000       0.50000000 </v>
    <v>       0.00000000       0.50000000       0.00000000 </v>
    <v>       0.00000000       0.50000000       0.50000000 </v>
    <v>       0.50000000       0.00000000       0.00000000 </v>
    <v>       0.50000000       0.00000000       0.50000000 </v>
    <v>       0.50000000       0.50000000       0.00000000 </v>
    <v>       0.50000000       0.50000000       0.50000000 </v>
    <v>       0.37500000       0.37500000       0.12500000 </v>
    <v>       0.37500000       0.37500000       0.62500000 </v>
    <v>       0.37500000       0.87500000       0.12500000 </v>
    <v>       0.37500000       0.87500000       0.62500000 </v>
    <v>       0.87500000       0.37500000       0.12500000 </v>
    <v>       0.87500000       0.37500000       0.62500000 </v>
    <v>       0.87500000       0.87500000       0.12500000 </v>
    <v>       0.87500000       0.87500000       0.62500000 </v>
    <v>       0.00000000       0.25000000       0.25000000 </v>
    <v>       0.00000000       0.25000000       0.75000000 </v>
    <v>       0.00000000       0.75000000       0.25000000 </v>
    <v>       0.00000000       0.75000000       0.75000000 </v>
    <v>       0.50000000       0.25000000       0.25000000 </v>
    <v>       0.50000000       0.25000000       0.75000000 </v>
    <v>       0.50000000       0.75000000       0.25000000 </v>
    <v>       0.50000000       0.75000000       0.75000000 </v>
    <v>       0.37500000       0.12500000       0.37500000 </v>
    <v>       0.37500000       0.12500000       0.87500000 </v>
    <v>       0.37500000       0.62500000       0.37500000 </v>
    <v>       0.37500000       0.62500000       0.87500000 </v>
    <v>       0.87500000       0.12500000       0.37500000 </v>
    <v>       0.87500000       0.12500000       0.87500000 </v>
    <v>       0.87500000       0.62500000       0.37500000 </v>
    <v>       0.87500000       0.62500000       0.87500000 </v>
    <v>       0.25000000       0.00000000       0.25000000 </v>
    <v>       0.25000000       0.00000000       0.75000000 </v>
    <v>       0.25000000       0.50000000       0.25000000 </v>
    <v>       0.25000000       0.50000000       0.75000000 </v>
    <v>       0.75000000       0.00000000       0.25000000 </v>
    <v>       0.75000000       0.00000000       0.75000000 </v>
    <v>       0.75000000       0.50000000       0.25000000 </v>
    <v>       0.75000000       0.50000000       0.75000000 </v>
    <v>       0.12500000       0.37500000       0.37500000 </v>
    <v>       0.12500000       0.37500000       0.87500000 </v>
    <v>       0.12500000       0.87500000       0.37500000 </v>
    <v>       0.12500000       0.87500000       0.87500000 </v>
    <v>       0.62500000       0.37500000       0.37500000 </v>
    <v>       0.62500000       0.37500000       0.87500000 </v>
    <v>       0.62500000       0.87500000       0.37500000 </v>
    <v>       0.62500000       0.87500000       0.87500000 </v>
    <v>       0.25000000       0.25000000       0.00000000 </v>
    <v>       0.25000000       0.25000000       0.50000000 </v>
    <v>       0.25000000       0.75000000       0.00000000 </v>
    <v>       0.25000000       0.75000000       0.50000000 </v>
    <v>       0.75000000       0.25000000       0.00000000 </v>
    <v>       0.75000000       0.25000000       0.50000000 </v>
    <v>       0.75000000       0.75000000       0.00000000 </v>
    <v>       0.75000000       0.75000000       0.50000000 </v>
    <v>       0.12500000       0.12500000       0.12500000 </v>
    <v>       0.12500000       0.12500000       0.62500000 </v>
    <v>       0.12500000       0.62500000       0.12500000 </v>
    <v>       0.12500000       0.62500000       0.62500000 </v>
    <v>       0.62500000       0.12500000       0.12500000 </v>
    <v>       0.62500000       0.12500000       0.62500000 </v>
    <v>       0.62500000       0.62500000       0.12500000 </v>
    <v>       0.62500000       0.62500000       0.62500000 </v>
   </varray>
  </structure>
  <varray name="forces" >
   <v>      -0.00000000       0.00000000       0.04816383 </v>
   <v>      -0.00000000       0.00000000       0.04816383 </v>
   <v>      -0.00000000       0.00000000       0.04816383 </v>
   <v>       0.00000000       0.00000000       0.04816383 </v>
   <v>       0.00000000      -0.00000000       0.04816383 </v>
   <v>       0.00000000      -0.00000000       0.04816383 </v>
   <v>       0.00000000      -0.00000000       0.04816383 </v>
   <v>       0.00000000      -0.00000000       0.04816383 </v>
   <v>      -0.00000000       0.00000000      -0.04816383 </v>
   <v>      -0.00000000       0.00000000      -0.04816383 </v>
   <v>       0.00000000      -0.00000000      -0.04816383 </v>
   <v>       0.00000000      -0.00000000      -0.04816383 </v>
   <v>      -0.00000000       0.00000000      -0.04816383 </v>
   <v>      -0.00000000       0.00000000      -0.04816383 </v>
   <v>      -0.00000000       0.00000000      -0.04816383 </v>
   <v>      -0.00000000       0.00000000      -0.04816383 </v>
   <v>      -0.00000000       0.00000000       0.04816383 </v>
   <v>      -0.00000000       0.00000000       0.04816383 </v>
   <v>      -0.00000000       0.00000000       0.04816383 </v>
   <v>      -0.00000000       0.00000000       0.04816383 </v>
   <v>       0.00000000      -0.00000000       0.04816383 </v>
   <v>       0.00000000      -0.00000000       0.04816383 </v>
   <v>       0.00000000      -0.00000000       0.04816383 </v>
   <v>       0.00000000      -0.00000000       0.04816383 </v>
   <v>      -0.00000000       0.00000000      -0.04816383 </v>
   <v>      -0.00000000      -0.00000000      -0.04816383 </v>
   <v>      -0.00000000       0.00000000      -0.04816383 </v>
   <v>       0.00000000       0.00000000      -0.04816383 </v>
   <v>      -0.00000000      -0.00000000      -0.04816383 </v>
   <v>      -0.00000000       0.00000000      -0.04816383 </v>
   <v>      -0.00000000       0.00000000      -0.04816383 </v>
   <v>      -0.00000000       0.00000000      -0.04816383 </v>
   <v>       0.00000000       0.00000000       0.04816383 </v>
   <v>      -0.00000000       0.00000000       0.04816383 </v>
   <v>      -0.00000000      -0.00000000       0.04816383 </v>
   <v>      -0.00000000      -0.00000000       0.04816383 </v>
   <v>       0.00000000       0.00000000       0.04816383 </v>
   <v>       0.00000000      -0.00000000       0.04816383 </v>
   <v>       0.00000000       0.00000000       0.04816383 </v>
   <v>       0.00000000       0.00000000       0.04816383 </v>
   <v>       0.00000000      -0.00000000      -0.04816383 </v>
   <v>       0.00000000      -0.00000000      -0.04816383 </v>
   <v>       0.00000000      -0.00000000      -0.04816383 </v>
   <v>       0.00000000      -0.00000000      -0.04816383 </v>
   <v>      -0.00000000       0.00000000      -0.04816383 </v>
   <v>       0.00000000       0.00000000      -0.04816383 </v>
   <v>      -0.00000000       0.00000000      -0.04816383 </v>
   <v>       0.00000000       0.00000000      -0.04816383 </v>
   <v>      -0.00000000      -0.00000000       0.04816383 </v>
   <v>      -0.00000000       0.00000000       0.04816383 </v>
   <v>      -0.00000000      -0.00000000       0.04816383 </v>
   <v>      -0.00000000      -0.00000000       0.04816383 </v>
   <v>       0.00000000       0.00000000       0.04816383 </v>
   <v>       0.00000000      -0.00000000       0.04816383 </v>
   <v>       0.00000000       0.00000000       0.04816383 </v>
   <v>       0.00000000       0.00000000       0.04816383 </v>
   <v>       0.00000000      -0.00000000      -0.04816383 </v>
   <v>       0.00000000      -0.00000000      -0.04816383 </v>
   <v>       0.00000000      -0.00000000      -0.04816383 </v>
   <v>      -0.00000000      -0.00000000      -0.04816383 </v>
   <v>      -0.00000000       0.00000000      -0.04816383 </v>
   <v>      -0.00000000       0.00000000      -0.04816383 </v>
   <v>      -0.00000000       0.00000000      -0.04816383 </v>
   <v>      -0.00000000       0.00000000      -0.04816383 </v>
  </varray>
  <varray name="stress" >
   <v>      -7.47724805      -5.02401306       0.00000000 </v>
   <v>      -5.02401297      -3.02967199       0.00000000 </v>
   <v>       0.00000000       0.00000000      -3.12626714 </v>
  </varray>
  <energy>
   <i name="e_fr_energy">   -367.60695684 </i>
   <i name="e_wo_entrp">   -367.63246104 </i>
   <i name="e_0_energy">   -367.61545824 </i>
  </energy>
  <time name="totalsc">   32.26   32.77</time>
 </calculation>
 <calculation>
  <scstep>
   <time name="dav">    1.37    1.37</time>
   <time name="total">    1.78    1.79</time>
   <energy>
    <i name="alphaZ">    106.77917880 </i>
    <i name="ewald">  -7294.24081066 </i>
    <i name="hartreedc">   -470.98341228 </i>
    <i name="XCdc">   -540.14408619 </i>
    <i name="pawpsdc">  27309.93627406 </i>
    <i name="pawaedc"> -26210.18387564 </i>
    <i name="eentropy">      0.02562411 </i>
    <i name="bandstr">    166.40631725 </i>
    <i name="atom">   6564.79586099 </i>
    <i name="e_fr_energy">   -367.60892957 </i>
    <i name="e_wo_entrp">   -367.63455368 </i>
    <i name="e_0_energy">   -367.61747094 </i>
   </energy>
  </scstep>
  <scstep>
   <time name="diag">    0.13    0.13</time>
   <time name="diis">    0.72    0.72</time>
   <time name="orth">    0.02    0.02</time>
   <time name="total">    1.27    1.30</time>
   <energy>
    <i name="e_fr_energy">   -367.60939631 </i>
    <i name="e_wo_entrp">   -367.63502054 </i>
    <i name="e_0_energy">   -367.61793772 </i>
   </energy>
  </scstep>
  <scstep>
   <time name="diag">    0.13    0.13</time>
   <time name="diis">    0.74    0.74</time>
   <time name="orth">    0.02    0.02</time>
   <time name="total">    1.29    1.31</time>
   <energy>
    <i name="e_fr_energy">   -367.60947783 </i>
    <i name="e_wo_entrp">   -367.63509687 </i>
    <i name="e_0_energy">   -367.61801751 </i>
   </energy>
  </scstep>
  <scstep>
   <time name="diag">    0.13    0.13</time>
   <time name="diis">    0.74    0.74</time>
   <time name="orth">    0.02    0.02</time>
   <time name="total">    1.29    1.31</time>
   <energy>
    <i name="e_fr_energy">   -367.60947960 </i>
    <i name="e_wo_entrp">   -367.63509378 </i>
    <i name="e_0_energy">   -367.61801766 </i>
   </energy>
  </scstep>
  <scstep>
   <time name="diag">    0.13    0.13</time>
   <time name="diis">    0.72    0.73</time>
   <time name="orth">    0.02    0.02</time>
   <time name="total">    1.28    1.30</time>
   <energy>
    <i name="e_fr_energy">   -367.60948048 </i>
    <i name="e_wo_entrp">   -367.63509290 </i>
    <i name="e_0_energy">   -367.61801795 </i>
   </energy>
  </scstep>
  <scstep>
   <time name="diag">    0.13    0.13</time>
   <time name="diis">    0.56    0.57</time>
   <time name="orth">    0.02    0.02</time>
   <time name="total">    1.12    1.14</time>
   <energy>
    <i name="e_fr_energy">   -367.60948088 </i>
    <i name="e_wo_entrp">   -367.63509336 </i>
    <i name="e_0_energy">   -367.61801838 </i>
   </energy>
  </scstep>
  <scstep>
   <time name="diag">    0.13    0.13</time>
   <time name="diis">    0.46    0.46</time>
   <time name="orth">    0.02    0.02</time>
   <time name="total">    1.02    1.03</time>
   <energy>
    <i name="e_fr_energy">   -367.60948095 </i>
    <i name="e_wo_entrp">   -367.63509346 </i>
    <i name="e_0_energy">   -367.61801846 </i>
   </energy>
  </scstep>
  <scstep>
   <time name="diag">    0.13    0.13</time>
   <time name="diis">    0.43    0.43</time>
   <time name="orth">    0.02    0.02</time>
   <time name="total">    0.73    0.75</time>
   <energy>
    <i name="alphaZ">    106.77917880 </i>
    <i name="ewald">  -7294.24081066 </i>
    <i name="hartreedc">   -470.96442959 </i>
    <i name="XCdc">   -540.14656176 </i>
    <i name="pawpsdc">  27312.16097210 </i>
    <i name="pawaedc"> -26212.40745521 </i>
    <i name="eentropy">      0.02561251 </i>
    <i name="bandstr">    166.38815186 </i>
    <i name="atom">   6564.79586099 </i>
    <i name="e_fr_energy">   -367.60948097 </i>
    <i name="e_wo_entrp">   -367.63509348 </i>
    <i name="e_0_energy">   -367.61801847 </i>
   </energy>
  </scstep>
  <structure>
   <crystal>
    <varray name="basis" >
     <v>      10.92582461       0.02717900       0.00000000 </v>
     <v>       0.02717900      10.87146761       0.00000000 </v>
     <v>       0.00000000       0.00000000      10.87146761 </v>
    </varray>
    <i name="volume">   1291.30215564 </i>
    <varray name="rec_basis" >
     <v>       0.09152684      -0.00022882       0.00000000 </v>
     <v>      -0.00022882       0.09198447       0.00000000 </v>
     <v>       0.00000000       0.00000000       0.09198390 </v>
    </varray>
   </crystal>
   <varray name="positions" >
    <v>       1.00000000       0.00000000       0.00021373 </v>
    <v>       1.00000000       0.00000000       0.50021373 </v>
    <v>       1.00000000       0.50000000       0.00021373 </v>
    <v>       0.00000000       0.50000000       0.50021373 </v>
    <v>       0.50000000       1.00000000       0.00021373 </v>
    <v>       0.50000000       1.00000000       0.50021373 </v>
    <v>       0.50000000       0.50000000       0.00021373 </v>
    <v>       0.50000000       0.50000000       0.50021373 </v>
    <v>       0.37500000       0.37500000       0.12478627 </v>
    <v>       0.37500000       0.37500000       0.62478627 </v>
    <v>       0.37500000       0.87500000       0.12478627 </v>
    <v>       0.37500000       0.87500000       0.62478627 </v>
    <v>       0.87500000       0.37500000       0.12478627 </v>
    <v>       0.87500000       0.37500000       0.62478627 </v>
    <v>       0.87500000       0.87500000       0.12478627 </v>
    <v>       0.87500000       0.87500000       0.62478627 </v>
    <v>       1.00000000       0.25000000       0.25021373 </v>
    <v>       1.00000000       0.25000000       0.75021373 </v>
    <v>       1.00000000       0.75000000       0.25021373 </v>
    <v>       1.00000000       0.75000000       0.75021373 </v>
    <v>       0.50000000       0.25000000       0.25021373 </v>
    <v>       0.50000000       0.25000000       0.75021373 </v>
    <v>       0.50000000       0.75000000       0.25021373 </v>
    <v>       0.50000000       0.75000000       0.75021373 </v>
    <v>       0.37500000       0.12500000       0.37478627 </v>
    <v>       0.37500000       0.12500000       0.87478627 </v>
    <v>       0.37500000       0.62500000       0.37478627 </v>
    <v>       0.37500000       0.62500000       0.87478627 </v>
    <v>       0.87500000       0.12500000       0.37478627 </v>
    <v>       0.87500000       0.12500000       0.87478627 </v>
    <v>       0.87500000       0.62500000       0.37478627 </v>
    <v>       0.87500000       0.62500000       0.87478627 </v>
    <v>       0.25000000       0.00000000       0.25021373 </v>
    <v>       0.25000000       0.00000000       0.75021373 </v>
    <v>       0.25000000       0.50000000       0.25021373 </v>
    <v>       0.25000000       0.50000000       0.75021373 </v>
    <v>       0.75000000       0.00000000       0.25021373 </v>
    <v>       0.75000000       1.00000000       0.75021373 </v>
    <v>       0.75000000       0.50000000       0.25021373 </v>
    <v>       0.75000000       0.50000000       0.75021373 </v>
    <v>       0.12500000       0.37500000       0.37478627 </v>
    <v>       0.12500000       0.37500000       0.87478627 </v>
    <v>       0.12500000       0.87500000       0.37478627 </v>
    <v>       0.12500000       0.87500000       0.87478627 </v>
    <v>       0.62500000       0.37500000       0.37478627 </v>
    <v>       0.62500000       0.37500000       0.87478627 </v>
    <v>       0.62500000       0.87500000       0.37478627 </v>
    <v>       0.62500000       0.87500000       0.87478627 </v>
    <v>       0.25000000       0.25000000       0.00021373 </v>
    <v>       0.25000000       0.25000000       0.50021373 </v>
    <v>       0.25000000       0.75000000       0.00021373 </v>
    <v>       0.25000000       0.75000000       0.50021373 </v>
    <v>       0.75000000       0.25000000       0.00021373 </v>
    <v>       0.75000000       0.25000000       0.50021373 </v>
    <v>       0.75000000       0.75000000       0.00021373 </v>
    <v>       0.75000000       0.75000000       0.50021373 </v>
    <v>       0.12500000       0.12500000       0.12478627 </v>
    <v>       0.12500000       0.12500000       0.62478627 </v>
    <v>       0.12500000       0.62500000       0.12478627 </v>
    <v>       0.12500000       0.62500000       0.62478627 </v>
    <v>       0.62500000       0.12500000       0.12478627 </v>
    <v>       0.62500000       0.12500000       0.62478627 </v>
    <v>       0.62500000       0.62500000       0.12478627 </v>
    <v>       0.62500000       0.62500000       0.62478627 </v>
   </varray>
  </structure>
  <varray name="forces" >
   <v>       0.00000000       0.00000000      -0.01386865 </v>
   <v>       0.00000000      -0.00000000      -0.01386865 </v>
   <v>       0.00000000       0.00000000      -0.01386865 </v>
   <v>      -0.00000000       0.00000000      -0.01386865 </v>
   <v>      -0.00000000       0.00000000      -0.01386865 </v>
   <v>      -0.00000000      -0.00000000      -0.01386865 </v>
   <v>      -0.00000000      -0.00000000      -0.01386865 </v>
   <v>      -0.00000000      -0.00000000      -0.01386865 </v>
   <v>       0.00000000      -0.00000000       0.01386865 </v>
   <v>       0.00000000      -0.00000000       0.01386865 </v>
   <v>       0.00000000       0.00000000       0.01386865 </v>
   <v>       0.00000000      -0.00000000       0.01386865 </v>
   <v>       0.00000000       0.00000000       0.01386865 </v>
   <v>      -0.00000000       0.00000000       0.01386865 </v>
   <v>       0.00000000       0.00000000       0.01386865 </v>
   <v>      -0.00000000       0.00000000       0.01386865 </v>
   <v>      -0.00000000      -0.00000000      -0.01386865 </v>
   <v>       0.00000000      -0.00000000      -0.01386865 </v>
   <v>       0.00000000       0.00000000      -0.01386865 </v>
   <v>       0.00000000      -0.00000000      -0.01386865 </v>
   <v>      -0.00000000      -0.00000000      -0.01386865 </v>
   <v>      -0.00000000      -0.00000000      -0.01386865 </v>
   <v>      -0.00000000      -0.00000000      -0.01386865 </v>
   <v>      -0.00000000      -0.00000000      -0.01386865 </v>
   <v>      -0.00000000      -0.00000000       0.01386865 </v>
   <v>       0.00000000      -0.00000000       0.01386865 </v>
   <v>       0.00000000       0.00000000       0.01386865 </v>
   <v>       0.00000000      -0.00000000       0.01386865 </v>
   <v>       0.00000000       0.00000000       0.01386865 </v>
   <v>       0.00000000       0.00000000       0.01386865 </v>
   <v>       0.00000000       0.00000000       0.01386865 </v>
   <v>      -0.00000000       0.00000000       0.01386865 </v>
   <v>       0.00000000      -0.00000000      -0.01386865 </v>
   <v>       0.00000000      -0.00000000      -0.01386865 </v>
   <v>      -0.00000000       0.00000000      -0.01386865 </v>
   <v>       0.00000000       0.00000000      -0.01386865 </v>
   <v>       0.00000000      -0.00000000      -0.01386865 </v>
   <v>       0.00000000      -0.00000000      -0.01386865 </v>
   <v>      -0.00000000       0.00000000      -0.01386865 </v>
   <v>      -0.00000000      -0.00000000      -0.01386865 </v>
   <v>      -0.00000000       0.00000000       0.01386865 </v>
   <v>       0.00000000       0.00000000       0.01386865 </v>
   <v>      -0.00000000       0.00000000       0.01386865 </v>
   <v>       0.00000000       0.00000000       0.01386865 </v>
   <v>      -0.00000000       0.00000000       0.01386865 </v>
   <v>      -0.00000000      -0.00000000       0.01386865 </v>
   <v>       0.00000000      -0.00000000       0.01386865 </v>
   <v>       0.00000000      -0.00000000       0.01386865 </v>
   <v>       0.00000000       0.00000000      -0.01386865 </v>
   <v>       0.00000000       0.00000000      -0.01386865 </v>
   <v>      -0.00000000       0.00000000      -0.01386865 </v>
   <v>       0.00000000       0.00000000      -0.01386865 </v>
   <v>       0.00000000       0.00000000      -0.01386865 </v>
   <v>      -0.00000000       0.00000000      -0.01386865 </v>
   <v>       0.00000000      -0.00000000      -0.01386865 </v>
   <v>      -0.00000000      -0.00000000      -0.01386865 </v>
   <v>      -0.00000000       0.00000000       0.01386865 </v>
   <v>      -0.00000000      -0.00000000       0.01386865 </v>
   <v>       0.00000000       0.00000000       0.01386865 </v>
   <v>      -0.00000000       0.00000000       0.01386865 </v>
   <v>      -0.00000000      -0.00000000       0.01386865 </v>
   <v>      -0.00000000      -0.00000000       0.01386865 </v>
   <v>      -0.00000000      -0.00000000       0.01386865 </v>
   <v>      -0.00000000      -0.00000000       0.01386865 </v>
  </varray>
  <varray name="stress" >
   <v>      -7.48224176      -3.23439530       0.00000000 </v>
   <v>      -3.23439527      -3.05195737       0.00000000 </v>
   <v>       0.00000000       0.00000000      -3.09134987 </v>
  </varray>
  <energy>
   <i name="e_fr_energy">   -367.60948097 </i>
   <i name="e_wo_entrp">   -367.63509348 </i>
   <i name="e_0_energy">   -367.61801847 </i>
  </energy>
  <time name="totalsc">   13.42   13.59</time>
 </calculation>
 <calculation>
  <scstep>
   <time name="dav">    1.34    1.34</time>
   <time name="total">    1.74    1.74</time>
   <energy>
    <i name="alphaZ">    106.77917880 </i>
    <i name="ewald">  -7294.23097559 </i>
    <i name="hartreedc">   -470.97020925 </i>
    <i name="XCdc">   -540.14630175 </i>
    <i name="pawpsdc">  27312.14475341 </i>
    <i name="pawaedc"> -26212.39123456 </i>
    <i name="eentropy">      0.02557186 </i>
    <i name="bandstr">    166.38367042 </i>
    <i name="atom">   6564.79586099 </i>
    <i name="e_fr_energy">   -367.60968567 </i>
    <i name="e_wo_entrp">   -367.63525754 </i>
    <i name="e_0_energy">   -367.61820963 </i>
   </energy>
  </scstep>
  <scstep>
   <time name="diag">    0.13    0.13</time>
   <time name="diis">    0.74    0.76</time>
   <time name="orth">    0.02    0.02</time>
   <time name="total">    1.30    1.33</time>
   <energy>
    <i name="e_fr_energy">   -367.60970944 </i>
    <i name="e_wo_entrp">   -367.63528102 </i>
    <i name="e_0_energy">   -367.61823330 </i>
   </energy>
  </scstep>
  <scstep>
   <time name="diag">    0.13    0.13</time>
   <time name="diis">    0.74    0.74</time>
   <time name="orth">    0.02    0.02</time>
   <time name="total">    1.30    1.32</time>
   <energy>
    <i name="e_fr_energy">   -367.60971355 </i>
    <i name="e_wo_entrp">   -367.63528589 </i>
    <i name="e_0_energy">   -367.61823766 </i>
   </energy>
  </scstep>
  <scstep>
   <time name="diag">    0.13    0.13</time>
   <time name="diis">    0.58    0.59</time>
   <time name="orth">    0.02    0.02</time>
   <time name="total">    1.14    1.16</time>
   <energy>
    <i name="e_fr_energy">   -367.60971366 </i>
    <i name="e_wo_entrp">   -367.63528684 </i>
    <i name="e_0_energy">   -367.61823805 </i>
   </energy>
  </scstep>
  <scstep>
   <time name="diag">    0.14    0.14</time>
   <time name="diis">    0.46    0.46</time>
   <time name="orth">    0.02    0.02</time>
   <time name="total">    1.02    1.04</time>
   <energy>
    <i name="e_fr_energy">   -367.60971371 </i>
    <i name="e_wo_entrp">   -367.63528721 </i>
    <i name="e_0_energy">   -367.61823821 </i>
   </energy>
  </scstep>
  <scstep>
   <time name="diag">    0.13    0.13</time>
   <time name="diis">    0.44    0.45</time>
   <time name="orth">    0.02    0.02</time>
   <time name="total">    1.00    1.02</time>
   <energy>
    <i name="e_fr_energy">   -367.60971373 </i>
    <i name="e_wo_entrp">   -367.63528722 </i>
    <i name="e_0_energy">   -367.61823823 </i>
   </energy>
  </scstep>
  <scstep>
   <time name="diag">    0.13    0.13</time>
   <time name="diis">    0.37    0.37</time>
   <time name="orth">    0.02    0.02</time>
   <time name="total">    0.92    0.94</time>
   <energy>
    <i name="e_fr_energy">   -367.60971374 </i>
    <i name="e_wo_entrp">   -367.63528723 </i>
    <i name="e_0_energy">   -367.61823823 </i>
   </energy>
  </scstep>
  <scstep>
   <time name="diag">    0.13    0.13</time>
   <time name="diis">    0.32    0.32</time>
   <time name="orth">    0.02    0.02</time>
   <time name="total">    0.63    0.64</time>
   <energy>
    <i name="alphaZ">    106.77917880 </i>
    <i name="ewald">  -7294.23097559 </i>
    <i name="hartreedc">   -470.97028747 </i>
    <i name="XCdc">   -540.14618948 </i>
    <i name="pawpsdc">  27312.45291657 </i>
    <i name="pawaedc"> -26212.69954566 </i>
    <i name="eentropy">      0.02557349 </i>
    <i name="bandstr">    166.38375462 </i>
    <i name="atom">   6564.79586099 </i>
    <i name="e_fr_energy">   -367.60971374 </i>
    <i name="e_wo_entrp">   -367.63528723 </i>
    <i name="e_0_energy">   -367.61823824 </i>
   </energy>
  </scstep>
  <structure>
   <crystal>
    <varray name="basis" >
     <v>      10.92582461       0.02717900       0.00000000 </v>
     <v>       0.02717900      10.87146761       0.00000000 </v>
     <v>       0.00000000       0.00000000      10.87146761 </v>
    </varray>
    <i name="volume">   1291.30215564 </i>
    <varray name="rec_basis" >
     <v>       0.09152684      -0.00022882       0.00000000 </v>
     <v>      -0.00022882       0.09198447       0.00000000 </v>
     <v>       0.00000000       0.00000000       0.09198390 </v>
    </varray>
   </crystal>
   <varray name="positions" >
    <v>       0.00000000       0.00000000       0.00016532 </v>
    <v>       0.00000000       0.00000000       0.50016532 </v>
    <v>       0.00000000       0.50000000       0.00016532 </v>
    <v>       0.00000000       0.50000000       0.50016532 </v>
    <v>       0.50000000       0.00000000       0.00016532 </v>
    <v>       0.50000000       0.00000000       0.50016532 </v>
    <v>       0.50000000       0.50000000       0.00016532 </v>
    <v>       0.50000000       0.50000000       0.50016532 </v>
    <v>       0.37500000       0.37500000       0.12483468 </v>
    <v>       0.37500000       0.37500000       0.62483468 </v>
    <v>       0.37500000       0.87500000       0.12483468 </v>
    <v>       0.37500000       0.87500000       0.62483468 </v>
    <v>       0.87500000       0.37500000       0.12483468 </v>
    <v>       0.87500000       0.37500000       0.62483468 </v>
    <v>       0.87500000       0.87500000       0.12483468 </v>
    <v>       0.87500000       0.87500000       0.62483468 </v>
    <v>       0.00000000       0.25000000       0.25016532 </v>
    <v>       0.00000000       0.25000000       0.75016532 </v>
    <v>       0.00000000       0.75000000       0.25016532 </v>
    <v>       0.00000000       0.75000000       0.75016532 </v>
    <v>       0.50000000       0.25000000       0.25016532 </v>
    <v>       0.50000000       0.25000000       0.75016532 </v>
    <v>       0.50000000       0.75000000       0.25016532 </v>
    <v>       0.50000000       0.75000000       0.75016532 </v>
    <v>       0.37500000       0.12500000       0.37483468 </v>
    <v>       0.37500000       0.12500000       0.87483468 </v>
    <v>       0.37500000       0.62500000       0.37483468 </v>
    <v>       0.37500000       0.62500000       0.87483468 </v>
    <v>       0.87500000       0.12500000       0.37483468 </v>
    <v>       0.87500000       0.12500000       0.87483468 </v>
    <v>       0.87500000       0.62500000       0.37483468 </v>
    <v>       0.87500000       0.62500000       0.87483468 </v>
    <v>       0.25000000       0.00000000       0.25016532 </v>
    <v>       0.25000000       0.00000000       0.75016532 </v>
    <v>       0.25000000       0.50000000       0.25016532 </v>
    <v>       0.25000000       0.50000000       0.75016532 </v>
    <v>       0.75000000       0.00000000       0.25016532 </v>
    <v>       0.75000000       0.00000000       0.75016532 </v>
    <v>       0.75000000       0.50000000       0.25016532 </v>
    <v>       0.75000000       0.50000000       0.75016532 </v>
    <v>       0.12500000       0.37500000       0.37483468 </v>
    <v>       0.12500000       0.37500000       0.87483468 </v>
    <v>       0.12500000       0.87500000       0.37483468 </v>
    <v>       0.12500000       0.87500000       0.87483468 </v>
    <v>       0.62500000       0.37500000       0.37483468 </v>
    <v>       0.62500000       0.37500000       0.87483468 </v>
    <v>       0.62500000       0.87500000       0.37483468 </v>
    <v>       0.62500000       0.87500000       0.87483468 </v>
    <v>       0.25000000       0.25000000       0.00016532 </v>
    <v>       0.25000000       0.25000000       0.50016532 </v>
    <v>       0.25000000       0.75000000       0.00016532 </v>
    <v>       0.25000000       0.75000000       0.50016532 </v>
    <v>       0.75000000       0.25000000       0.00016532 </v>
    <v>       0.75000000       0.25000000       0.50016532 </v>
    <v>       0.75000000       0.75000000       0.00016532 </v>
    <v>       0.75000000       0.75000000       0.50016532 </v>
    <v>       0.12500000       0.12500000       0.12483468 </v>
    <v>       0.12500000       0.12500000       0.62483468 </v>
    <v>       0.12500000       0.62500000       0.12483468 </v>
    <v>       0.12500000       0.62500000       0.62483468 </v>
    <v>       0.62500000       0.12500000       0.12483468 </v>
    <v>       0.62500000       0.12500000       0.62483468 </v>
    <v>       0.62500000       0.62500000       0.12483468 </v>
    <v>       0.62500000       0.62500000       0.62483468 </v>
   </varray>
  </structure>
  <varray name="forces" >
   <v>       0.00000000       0.00000000       0.00013863 </v>
   <v>      -0.00000000       0.00000000       0.00013863 </v>
   <v>       0.00000000      -0.00000000       0.00013863 </v>
   <v>      -0.00000000      -0.00000000       0.00013863 </v>
   <v>      -0.00000000       0.00000000       0.00013863 </v>
   <v>      -0.00000000      -0.00000000       0.00013863 </v>
   <v>      -0.00000000      -0.00000000       0.00013863 </v>
   <v>       0.00000000      -0.00000000       0.00013863 </v>
   <v>       0.00000000       0.00000000      -0.00013863 </v>
   <v>      -0.00000000       0.00000000      -0.00013863 </v>
   <v>      -0.00000000       0.00000000      -0.00013863 </v>
   <v>      -0.00000000       0.00000000      -0.00013863 </v>
   <v>       0.00000000      -0.00000000      -0.00013863 </v>
   <v>       0.00000000      -0.00000000      -0.00013863 </v>
   <v>      -0.00000000       0.00000000      -0.00013863 </v>
   <v>      -0.00000000       0.00000000      -0.00013863 </v>
   <v>       0.00000000      -0.00000000       0.00013863 </v>
   <v>      -0.00000000      -0.00000000       0.00013863 </v>
   <v>      -0.00000000       0.00000000       0.00013863 </v>
   <v>       0.00000000      -0.00000000       0.00013863 </v>
   <v>      -0.00000000      -0.00000000       0.00013863 </v>
   <v>      -0.00000000      -0.00000000       0.00013863 </v>
   <v>      -0.00000000      -0.00000000       0.00013863 </v>
   <v>       0.00000000      -0.00000000       0.00013863 </v>
   <v>       0.00000000       0.00000000      -0.00013863 </v>
   <v>      -0.00000000       0.00000000      -0.00013863 </v>
   <v>      -0.00000000       0.00000000      -0.00013863 </v>
   <v>       0.00000000      -0.00000000      -0.00013863 </v>
   <v>       0.00000000       0.00000000      -0.00013863 </v>
   <v>       0.00000000      -0.00000000      -0.00013863 </v>
   <v>       0.00000000       0.00000000      -0.00013863 </v>
   <v>       0.00000000      -0.00000000      -0.00013863 </v>
   <v>      -0.00000000       0.00000000       0.00013863 </v>
   <v>      -0.00000000       0.00000000       0.00013863 </v>
   <v>      -0.00000000       0.00000000       0.00013863 </v>
   <v>       0.00000000       0.00000000       0.00013863 </v>
   <v>       0.00000000       0.00000000       0.00013863 </v>
   <v>      -0.00000000       0.00000000       0.00013863 </v>
   <v>       0.00000000      -0.00000000       0.00013863 </v>
   <v>       0.00000000      -0.00000000       0.00013863 </v>
   <v>       0.00000000      -0.00000000      -0.00013863 </v>
   <v>       0.00000000      -0.00000000      -0.00013863 </v>
   <v>      -0.00000000      -0.00000000      -0.00013863 </v>
   <v>      -0.00000000      -0.00000000      -0.00013863 </v>
   <v>       0.00000000       0.00000000      -0.00013863 </v>
   <v>       0.00000000       0.00000000      -0.00013863 </v>
   <v>       0.00000000       0.00000000      -0.00013863 </v>
   <v>      -0.00000000       0.00000000      -0.00013863 </v>
   <v>      -0.00000000       0.00000000       0.00013863 </v>
   <v>      -0.00000000       0.00000000       0.00013863 </v>
   <v>       0.00000000       0.00000000       0.00013863 </v>
   <v>      -0.00000000       0.00000000       0.00013863 </v>
   <v>       0.00000000       0.00000000       0.00013863 </v>
   <v>       0.00000000      -0.00000000       0.00013863 </v>
   <v>       0.00000000       0.00000000       0.00013863 </v>
   <v>       0.00000000      -0.00000000       0.00013863 </v>
   <v>       0.00000000      -0.00000000      -0.00013863 </v>
   <v>      -0.00000000      -0.00000000      -0.00013863 </v>
   <v>      -0.00000000      -0.00000000      -0.00013863 </v>
   <v>      -0.00000000      -0.00000000      -0.00013863 </v>
   <v>      -0.00000000       0.00000000      -0.00013863 </v>
   <v>       0.00000000       0.00000000      -0.00013863 </v>
   <v>       0.00000000       0.00000000      -0.00013863 </v>
   <v>      -0.00000000       0.00000000      -0.00013863 </v>
  </varray>
  <varray name="stress" >
   <v>      -7.47477868      -3.64907797       0.00000000 </v>
   <v>      -3.64907788      -3.02011142       0.00000000 </v>
   <v>       0.00000000       0.00000000      -3.07146525 </v>
  </varray>
  <energy>
   <i name="e_fr_energy">   -367.60971374 </i>
   <i name="e_wo_entrp">   -367.63528723 </i>
   <i name="e_0_energy">   -367.61823824 </i>
  </energy>
  <time name="totalsc">   12.51   12.69</time>
  <eigenvalues>
   <array>
    <dimension dim="1">band</dimension>
    <dimension dim="2">kpoint</dimension>
    <dimension dim="3">spin</dimension>
    <field>eigene</field>
    <field>occ</field>
    <set>
     <set comment="spin 1">
      <set comment="kpoint 1">
       <r>   -6.2235    1.0000 </r>
       <r>   -5.1506    1.0000 </r>
       <r>   -5.1506    1.0000 </r>
       <r>   -5.1415    1.0000 </r>
       <r>   -5.1415    1.0000 </r>
       <r>   -5.1415    1.0000 </r>
       <r>   -5.1415    1.0000 </r>
       <r>   -4.1979    1.0000 </r>
       <r>   -4.1979    1.0000 </r>
       <r>   -4.1860    1.0000 </r>
       <r>   -4.1860    1.0000 </r>
       <r>   -4.1860    1.0000 </r>
       <r>   -4.1860    1.0000 </r>
       <r>   -4.1797    1.0000 </r>
       <r>   -4.1797    1.0000 </r>
       <r>   -4.1797    1.0000 </r>
       <r>   -4.1797    1.0000 </r>
       <r>   -4.1740    1.0000 </r>
       <r>   -4.1740    1.0000 </r>
       <r>   -3.9056    1.0000 </r>
       <r>   -3.9056    1.0000 </r>
       <r>   -3.8805    1.0000 </r>
       <r>   -3.8805    1.0000 </r>
       <r>   -2.1101    1.0000 </r>
       <r>   -2.1101    1.0000 </r>
       <r>   -2.0903    1.0000 </r>
       <r>   -2.0806    1.0000 </r>
       <r>   -2.0806    1.0000 </r>
       <r>   -2.0712    1.0000 </r>
       <r>   -1.9414    1.0000 </r>
       <r>   -1.9414    1.0000 </r>
       <r>   -1.9310    1.0000 </r>
       <r>   -1.9310    1.0000 </r>
       <r>   -1.9273    1.0000 </r>
       <r>   -1.9273    1.0000 </r>
       <r>   -1.9273    1.0000 </r>
       <r>   -1.9273    1.0000 </r>
       <r>   -1.9133    1.0000 </r>
       <r>   -1.9133    1.0000 </r>
       <r>   -1.9031    1.0000 </r>
       <r>   -1.9031    1.0000 </r>
       <r>   -1.2695    1.0000 </r>
       <r>   -1.2695    1.0000 </r>
       <r>   -1.2605    1.0000 </r>
       <r>   -1.2605    1.0000 </r>
       <r>    0.2236    1.0000 </r>
       <r>    0.2236    1.0000 </r>
       <r>    0.2236    1.0000 </r>
       <r>    0.2236    1.0000 </r>
       <r>    0.2391    1.0000 </r>
       <r>    0.2391    1.0000 </r>
       <r>    0.2408    1.0000 </r>
       <r>    0.2408    1.0000 </r>
       <r>    0.2408    1.0000 </r>
       <r>    0.2408    1.0000 </r>
       <r>    0.2426    1.0000 </r>
       <r>    0.2426    1.0000 </r>
       <r>    1.8322    1.0000 </r>
       <r>    1.8322    1.0000 </r>
       <r>    1.8344    1.0000 </r>
       <r>    1.8344    1.0000 </r>
       <r>    1.8375    1.0000 </r>
       <r>    1.8375    1.0000 </r>
       <r>    1.8375    1.0000 </r>
       <r>    1.8375    1.0000 </r>
       <r>    1.8428    1.0000 </r>
       <r>    1.8428    1.0000 </r>
       <r>    1.8451    1.0000 </r>
       <r>    1.8451    1.0000 </r>
       <r>    1.9198    1.0000 </r>
       <r>    1.9198    1.0000 </r>
       <r>    1.9198    1.0000 </r>
       <r>    1.9198    1.0000 </r>
       <r>    1.9426    1.0000 </r>
       <r>    1.9426    1.0000 </r>
       <r>    1.9472    1.0000 </r>
       <r>    1.9472    1.0000 </r>
       <r>    1.9472    1.0000 </r>
       <r>    1.9472    1.0000 </r>
       <r>    1.9514    1.0000 </r>
       <r>    1.9514    1.0000 </r>
       <r>    2.1701    1.0000 </r>
       <r>    2.1701    1.0000 </r>
       <r>    2.2048    1.0000 </r>
       <r>    2.2048    1.0000 </r>
       <r>    2.2051    1.0000 </r>
       <r>    2.2051    1.0000 </r>
       <r>    2.8150    1.0000 </r>
       <r>    2.8473    1.0000 </r>
       <r>    2.8473    1.0000 </r>
       <r>    2.8797    1.0000 </r>
       <r>    2.8851    1.0000 </r>
       <r>    2.8851    1.0000 </r>
       <r>    3.7796    1.0000 </r>
       <r>    3.7796    1.0000 </r>
       <r>    3.8047    1.0000 </r>
       <r>    3.8047    1.0000 </r>
       <r>    3.8159    1.0000 </r>
       <r>    3.8159    1.0000 </r>
       <r>    3.8398    1.0000 </r>
       <r>    3.8398    1.0000 </r>
       <r>    3.8398    1.0000 </r>
       <r>    3.8398    1.0000 </r>
       <r>    3.8414    1.0000 </r>
       <r>    3.8414    1.0000 </r>
       <r>    4.3510    1.0000 </r>
       <r>    4.3510    1.0000 </r>
       <r>    4.3730    1.0000 </r>
       <r>    4.3730    1.0000 </r>
       <r>    4.3730    1.0000 </r>
       <r>    4.3730    1.0000 </r>
       <r>    4.3954    1.0000 </r>
       <r>    4.3954    1.0000 </r>
       <r>    4.4125    1.0000 </r>
       <r>    4.4125    1.0000 </r>
       <r>    4.4125    1.0000 </r>
       <r>    4.4125    1.0000 </r>
       <r>    4.4751    1.0000 </r>
       <r>    4.4751    1.0000 </r>
       <r>    4.5106    1.0000 </r>
       <r>    4.5106    1.0000 </r>
       <r>    4.5322    1.0000 </r>
       <r>    4.5322    1.0000 </r>
       <r>    4.5522    1.0000 </r>
       <r>    4.5522    1.0000 </r>
       <r>    5.6800    1.0085 </r>
       <r>    5.7261    1.0165 </r>
       <r>    5.7377    1.0190 </r>
       <r>    6.2678   -0.0204 </r>
       <r>    6.3044   -0.0343 </r>
       <r>    6.3044   -0.0343 </r>
       <r>    6.3413   -0.0341 </r>
       <r>    6.3439   -0.0337 </r>
       <r>    6.3439   -0.0337 </r>
       <r>    6.7410   -0.0000 </r>
       <r>    6.7410   -0.0000 </r>
       <r>    6.7413   -0.0000 </r>
       <r>    6.7413   -0.0000 </r>
       <r>    6.7810   -0.0000 </r>
       <r>    6.7810   -0.0000 </r>
       <r>    7.1252   -0.0000 </r>
       <r>    7.1252   -0.0000 </r>
       <r>    7.1770   -0.0000 </r>
       <r>    7.1770   -0.0000 </r>
       <r>    8.0322   -0.0000 </r>
       <r>    8.0322   -0.0000 </r>
       <r>    8.0588   -0.0000 </r>
       <r>    8.0588   -0.0000 </r>
       <r>    8.0588   -0.0000 </r>
       <r>    8.0588   -0.0000 </r>
       <r>    8.0858   -0.0000 </r>
       <r>    8.0858   -0.0000 </r>
       <r>    8.1050   -0.0000 </r>
       <r>    8.1050   -0.0000 </r>
       <r>    8.1050   -0.0000 </r>
       <r>    8.1050   -0.0000 </r>
       <r>    8.2016   -0.0000 </r>
       <r>    8.2185   -0.0000 </r>
       <r>    8.2602   -0.0000 </r>
       <r>    8.7354   -0.0000 </r>
       <r>    8.7383   -0.0000 </r>
       <r>    8.7426   -0.0000 </r>
      </set>
      <set comment="kpoint 2">
       <r>   -5.9529    1.0000 </r>
       <r>   -5.9529    1.0000 </r>
       <r>   -4.9020    1.0000 </r>
       <r>   -4.9020    1.0000 </r>
       <r>   -4.8958    1.0000 </r>
       <r>   -4.8958    1.0000 </r>
       <r>   -4.8958    1.0000 </r>
       <r>   -4.8958    1.0000 </r>
       <r>   -4.8896    1.0000 </r>
       <r>   -4.8896    1.0000 </r>
       <r>   -4.0584    1.0000 </r>
       <r>   -4.0584    1.0000 </r>
       <r>   -4.0584    1.0000 </r>
       <r>   -4.0584    1.0000 </r>
       <r>   -4.0427    1.0000 </r>
       <r>   -4.0427    1.0000 </r>
       <r>   -4.0427    1.0000 </r>
       <r>   -4.0427    1.0000 </r>
       <r>   -3.8482    1.0000 </r>
       <r>   -3.8482    1.0000 </r>
       <r>   -3.1330    1.0000 </r>
       <r>   -3.1330    1.0000 </r>
       <r>   -3.1171    1.0000 </r>
       <r>   -3.1171    1.0000 </r>
       <r>   -3.1171    1.0000 </r>
       <r>   -3.1171    1.0000 </r>
       <r>   -3.1013    1.0000 </r>
       <r>   -3.1013    1.0000 </r>
       <r>   -2.0142    1.0000 </r>
       <r>   -2.0142    1.0000 </r>
       <r>   -2.0127    1.0000 </r>
       <r>   -2.0127    1.0000 </r>
       <r>   -1.9929    1.0000 </r>
       <r>   -1.9929    1.0000 </r>
       <r>   -1.9917    1.0000 </r>
       <r>   -1.9917    1.0000 </r>
       <r>   -0.8496    1.0000 </r>
       <r>   -0.8496    1.0000 </r>
       <r>   -0.8437    1.0000 </r>
       <r>   -0.8437    1.0000 </r>
       <r>   -0.8437    1.0000 </r>
       <r>   -0.8437    1.0000 </r>
       <r>   -0.8381    1.0000 </r>
       <r>   -0.8381    1.0000 </r>
       <r>   -0.6828    1.0000 </r>
       <r>   -0.6828    1.0000 </r>
       <r>   -0.6828    1.0000 </r>
       <r>   -0.6828    1.0000 </r>
       <r>   -0.6669    1.0000 </r>
       <r>   -0.6669    1.0000 </r>
       <r>   -0.6669    1.0000 </r>
       <r>   -0.6669    1.0000 </r>
       <r>   -0.0494    1.0000 </r>
       <r>   -0.0494    1.0000 </r>
       <r>    1.4237    1.0000 </r>
       <r>    1.4237    1.0000 </r>
       <r>    1.4283    1.0000 </r>
       <r>    1.4283    1.0000 </r>
       <r>    1.4283    1.0000 </r>
       <r>    1.4283    1.0000 </r>
       <r>    1.4334    1.0000 </r>
       <r>    1.4334    1.0000 </r>
       <r>    1.4692    1.0000 </r>
       <r>    1.4692    1.0000 </r>
       <r>    1.4712    1.0000 </r>
       <r>    1.4712    1.0000 </r>
       <r>    1.4712    1.0000 </r>
       <r>    1.4712    1.0000 </r>
       <r>    1.4731    1.0000 </r>
       <r>    1.4731    1.0000 </r>
       <r>    2.2559    1.0000 </r>
       <r>    2.2559    1.0000 </r>
       <r>    2.2745    1.0000 </r>
       <r>    2.2745    1.0000 </r>
       <r>    2.2795    1.0000 </r>
       <r>    2.2795    1.0000 </r>
       <r>    2.2984    1.0000 </r>
       <r>    2.2984    1.0000 </r>
       <r>    2.9786    1.0000 </r>
       <r>    2.9786    1.0000 </r>
       <r>    2.9861    1.0000 </r>
       <r>    2.9861    1.0000 </r>
       <r>    2.9861    1.0000 </r>
       <r>    2.9861    1.0000 </r>
       <r>    2.9931    1.0000 </r>
       <r>    2.9931    1.0000 </r>
       <r>    3.0851    1.0000 </r>
       <r>    3.0851    1.0000 </r>
       <r>    3.1007    1.0000 </r>
       <r>    3.1007    1.0000 </r>
       <r>    3.1007    1.0000 </r>
       <r>    3.1007    1.0000 </r>
       <r>    3.1165    1.0000 </r>
       <r>    3.1165    1.0000 </r>
       <r>    3.1287    1.0000 </r>
       <r>    3.1287    1.0000 </r>
       <r>    3.1287    1.0000 </r>
       <r>    3.1287    1.0000 </r>
       <r>    3.1990    1.0000 </r>
       <r>    3.1990    1.0000 </r>
       <r>    3.1990    1.0000 </r>
       <r>    3.1990    1.0000 </r>
       <r>    3.2337    1.0000 </r>
       <r>    3.2337    1.0000 </r>
       <r>    3.2337    1.0000 </r>
       <r>    3.2337    1.0000 </r>
       <r>    4.2648    1.0000 </r>
       <r>    4.2648    1.0000 </r>
       <r>    4.2761    1.0000 </r>
       <r>    4.2761    1.0000 </r>
       <r>    4.2761    1.0000 </r>
       <r>    4.2761    1.0000 </r>
       <r>    4.2877    1.0000 </r>
       <r>    4.2877    1.0000 </r>
       <r>    4.3486    1.0000 </r>
       <r>    4.3486    1.0000 </r>
       <r>    4.4678    1.0000 </r>
       <r>    4.4678    1.0000 </r>
       <r>    4.4678    1.0000 </r>
       <r>    4.4678    1.0000 </r>
       <r>    4.4811    1.0000 </r>
       <r>    4.4811    1.0000 </r>
       <r>    4.4811    1.0000 </r>
       <r>    4.4811    1.0000 </r>
[...]
      </set>
     </set>
    </set>
   </array>
  </eigenvalues>
  <separator name="orbital magnetization" >
   <v name="MAGDIPOLOUT">      0.00000000      0.00000000      0.00000000</v>
  </separator>
  <dos>
   <i name="efermi">      6.07587765 </i>
   <total>
    <array>
     <dimension dim="1">gridpoints</dimension>
     <dimension dim="2">spin</dimension>
     <field>energy</field>
     <field>total</field>
     <field>integrated</field>
     <set>
      <set comment="spin 1">
       <r>    -8.2235     0.0000     0.0000 </r>
       <r>    -8.1589     0.0000     0.0000 </r>
       <r>    -8.0943     0.0000     0.0000 </r>
       <r>    -8.0297     0.0000     0.0000 </r>
       <r>    -7.9651     0.0000     0.0000 </r>
       <r>    -7.9005     0.0000     0.0000 </r>
       <r>    -7.8359    -0.0000    -0.0000 </r>
       <r>    -7.7713    -0.0000    -0.0000 </r>
       <r>    -7.7067    -0.0000    -0.0000 </r>
       <r>    -7.6421    -0.0000    -0.0000 </r>
       <r>    -7.5775    -0.0000    -0.0000 </r>
       <r>    -7.5129    -0.0000    -0.0000 </r>
       <r>    -7.4483    -0.0000    -0.0000 </r>
       <r>    -7.3836    -0.0000    -0.0000 </r>
       <r>    -7.3190    -0.0000    -0.0000 </r>
       <r>    -7.2544    -0.0000    -0.0000 </r>
       <r>    -7.1898    -0.0000    -0.0000 </r>
       <r>    -7.1252    -0.0000    -0.0000 </r>
       <r>    -7.0606    -0.0000    -0.0000 </r>
       <r>    -6.9960    -0.0000    -0.0000 </r>
       <r>    -6.9314    -0.0000    -0.0000 </r>
       <r>    -6.8668    -0.0001    -0.0000 </r>
       <r>    -6.8022    -0.0005    -0.0000 </r>
       <r>    -6.7376    -0.0026    -0.0002 </r>
       <r>    -6.6730    -0.0096    -0.0008 </r>
       <r>    -6.6084    -0.0267    -0.0026 </r>
       <r>    -6.5438    -0.0521    -0.0059 </r>
       <r>    -6.4792    -0.0580    -0.0097 </r>
       <r>    -6.4146     0.0142    -0.0088 </r>
       <r>    -6.3499     0.2008     0.0042 </r>
       <r>    -6.2853     0.4433     0.0329 </r>
       <r>    -6.2207     0.6706     0.0762 </r>
       <r>    -6.1561     1.0568     0.1445 </r>
       <r>    -6.0915     2.0145     0.2746 </r>
       <r>    -6.0269     3.6089     0.5078 </r>
       <r>    -5.9623     5.1689     0.8417 </r>
       <r>    -5.8977     6.1123     1.2366 </r>
       <r>    -5.8331     7.0308     1.6908 </r>
       <r>    -5.7685     8.9246     2.2674 </r>
       <r>    -5.7039    11.2646     2.9952 </r>
       <r>    -5.6393    12.1955     3.7831 </r>
       <r>    -5.5747    11.0878     4.4994 </r>
       <r>    -5.5101     9.3962     5.1065 </r>
       <r>    -5.4455     8.3853     5.6482 </r>
       <r>    -5.3809     7.5728     6.1375 </r>
       <r>    -5.3162     6.2039     6.5383 </r>
       <r>    -5.2516     4.7890     6.8477 </r>
       <r>    -5.1870     4.3269     7.1272 </r>
       <r>    -5.1224     5.3574     7.4733 </r>
       <r>    -5.0578     8.5028     8.0227 </r>
       <r>    -4.9932    14.2519     8.9434 </r>
       <r>    -4.9286    21.1647    10.3108 </r>
       <r>    -4.8640    26.2250    12.0051 </r>
       <r>    -4.7994    28.2209    13.8284 </r>
       <r>    -4.7348    28.5467    15.6727 </r>
       <r>    -4.6702    27.5736    17.4541 </r>
       <r>    -4.6056    23.2648    18.9571 </r>
       <r>    -4.5410    14.9406    19.9224 </r>
       <r>    -4.4764     5.7086    20.2912 </r>
       <r>    -4.4118    -0.2265    20.2766 </r>
       <r>    -4.3472    -0.7507    20.2281 </r>
       <r>    -4.2825     4.0961    20.4927 </r>
       <r>    -4.2179    13.0362    21.3349 </r>
       <r>    -4.1533    23.3390    22.8428 </r>
       <r>    -4.0887    30.8577    24.8364 </r>
       <r>    -4.0241    32.0647    26.9079 </r>
       <r>    -3.9595    26.8576    28.6431 </r>
       <r>    -3.8949    19.0100    29.8713 </r>
       <r>    -3.8303    13.6111    30.7506 </r>
       <r>    -3.7657    14.1789    31.6667 </r>
       <r>    -3.7011    21.1687    33.0343 </r>
       <r>    -3.6365    31.6348    35.0781 </r>
       <r>    -3.5719    40.7044    37.7079 </r>
       <r>    -3.5073    44.7932    40.6018 </r>
       <r>    -3.4427    43.4710    43.4103 </r>
       <r>    -3.3781    38.3260    45.8864 </r>
       <r>    -3.3135    31.6016    47.9281 </r>
       <r>    -3.2488    26.2338    49.6229 </r>
       <r>    -3.1842    24.4851    51.2048 </r>
       <r>    -3.1196    24.9160    52.8145 </r>
       <r>    -3.0550    22.9982    54.3004 </r>
       <r>    -2.9904    16.3842    55.3589 </r>
       <r>    -2.9258     7.6877    55.8556 </r>
       <r>    -2.8612     1.0903    55.9260 </r>
       <r>    -2.7966    -1.7515    55.8129 </r>
       <r>    -2.7320    -1.5400    55.7134 </r>
       <r>    -2.6674     0.9494    55.7747 </r>
       <r>    -2.6028     5.2719    56.1153 </r>
       <r>    -2.5382     9.8985    56.7548 </r>
       <r>    -2.4736    12.0518    57.5334 </r>
       <r>    -2.4090     9.9795    58.1782 </r>
       <r>    -2.3444     5.0448    58.5041 </r>
       <r>    -2.2798     1.0937    58.5747 </r>
       <r>    -2.2151     2.0939    58.7100 </r>
       <r>    -2.1505     9.9690    59.3541 </r>
       <r>    -2.0859    22.8597    60.8310 </r>
       <r>    -2.0213    34.7480    63.0759 </r>
       <r>    -1.9567    38.6513    65.5730 </r>
       <r>    -1.8921    32.0735    67.6452 </r>
       <r>    -1.8275    19.1962    68.8854 </r>
       <r>    -1.7629     7.2749    69.3554 </r>
       <r>    -1.6983     1.3576    69.4431 </r>
       <r>    -1.6337     2.0821    69.5776 </r>
       <r>    -1.5691     6.6031    70.0042 </r>
       <r>    -1.5045    10.6866    70.6946 </r>
       <r>    -1.4399    11.3123    71.4255 </r>
       <r>    -1.3753     8.7602    71.9914 </r>
       <r>    -1.3107     6.2445    72.3949 </r>
       <r>    -1.2461     7.2254    72.8617 </r>
       <r>    -1.1814    12.6376    73.6781 </r>
       <r>    -1.1168    19.8786    74.9624 </r>
       <r>    -1.0522    24.7880    76.5639 </r>
       <r>    -0.9876    25.8884    78.2364 </r>
       <r>    -0.9230    26.3582    79.9393 </r>
       <r>    -0.8584    30.8213    81.9306 </r>
       <r>    -0.7938    40.5752    84.5520 </r>
       <r>    -0.7292    51.5771    87.8842 </r>
       <r>    -0.6646    56.0678    91.5065 </r>
       <r>    -0.6000    48.1648    94.6183 </r>
       <r>    -0.5354    30.2755    96.5742 </r>
       <r>    -0.4708    12.6433    97.3911 </r>
       <r>    -0.4062     4.9765    97.7126 </r>
       <r>    -0.3416     8.9562    98.2912 </r>
       <r>    -0.2770    18.1803    99.4658 </r>
       <r>    -0.2124    24.0816   101.0216 </r>
       <r>    -0.1477    22.5704   102.4798 </r>
       <r>    -0.0831    15.9943   103.5131 </r>
       <r>    -0.0185     9.2990   104.1139 </r>
       <r>     0.0461     5.6007   104.4757 </r>
       <r>     0.1107     5.5305   104.8330 </r>
       <r>     0.1753     8.6219   105.3901 </r>
       <r>     0.2399    14.0155   106.2956 </r>
       <r>     0.3045    20.4979   107.6199 </r>
       <r>     0.3691    26.0906   109.3055 </r>
       <r>     0.4337    27.8068   111.1020 </r>
       <r>     0.4983    23.4965   112.6200 </r>
       <r>     0.5629    14.6366   113.5656 </r>
       <r>     0.6275     5.7352   113.9361 </r>
       <r>     0.6921     0.3410   113.9582 </r>
       <r>     0.7567    -1.3412   113.8715 </r>
       <r>     0.8213    -1.1279   113.7986 </r>
       <r>     0.8860    -0.6286   113.7580 </r>
       <r>     0.9506    -0.5498   113.7225 </r>
       <r>     1.0152    -1.1323   113.6494 </r>
       <r>     1.0798    -2.3200   113.4995 </r>
       <r>     1.1444    -2.9489   113.3089 </r>
       <r>     1.2090     0.3219   113.3297 </r>
       <r>     1.2736    11.8238   114.0936 </r>
       <r>     1.3382    31.8217   116.1495 </r>
       <r>     1.4028    51.9882   119.5083 </r>
       <r>     1.4674    59.5263   123.3540 </r>
       <r>     1.5320    49.0584   126.5235 </r>
       <r>     1.5966    28.9260   128.3923 </r>
       <r>     1.6612    13.4825   129.2634 </r>
       <r>     1.7258    10.3703   129.9334 </r>
       <r>     1.7904    16.1951   130.9797 </r>
       <r>     1.8550    22.2574   132.4176 </r>
       <r>     1.9197    22.9804   133.9023 </r>
       <r>     1.9843    20.5922   135.2327 </r>
       <r>     2.0489    23.3977   136.7443 </r>
       <r>     2.1135    38.3217   139.2202 </r>
       <r>     2.1781    62.8708   143.2820 </r>
       <r>     2.2427    84.2238   148.7234 </r>
       <r>     2.3073    88.2119   154.4224 </r>
       <r>     2.3719    70.9635   159.0071 </r>
       <r>     2.4365    41.9386   161.7166 </r>
       <r>     2.5011    15.3882   162.7108 </r>
       <r>     2.5657    -0.5192   162.6772 </r>
       <r>     2.6303    -6.3421   162.2675 </r>
       <r>     2.6949    -5.6450   161.9028 </r>
       <r>     2.7595     0.9754   161.9658 </r>
       <r>     2.8241    15.8259   162.9883 </r>
       <r>     2.8887    38.8486   165.4981 </r>
       <r>     2.9534    63.7016   169.6137 </r>
       <r>     3.0180    80.9004   174.8403 </r>
       <r>     3.0826    85.2090   180.3454 </r>
       <r>     3.1472    78.4895   185.4163 </r>
       <r>     3.2118    65.6842   189.6599 </r>
       <r>     3.2764    51.0780   192.9598 </r>
       <r>     3.3410    39.2513   195.4957 </r>
       <r>     3.4056    35.2945   197.7760 </r>
       <r>     3.4702    39.6713   200.3390 </r>
       <r>     3.5348    44.8137   203.2342 </r>
       <r>     3.5994    42.1100   205.9548 </r>
       <r>     3.6640    32.4254   208.0497 </r>
       <r>     3.7286    25.1554   209.6749 </r>
       <r>     3.7932    26.2437   211.3704 </r>
       <r>     3.8578    31.6758   213.4168 </r>
       <r>     3.9224    34.5415   215.6484 </r>
       <r>     3.9871    34.1857   217.8570 </r>
       <r>     4.0517    34.8480   220.1084 </r>
       <r>     4.1163    38.4059   222.5897 </r>
       <r>     4.1809    43.1092   225.3748 </r>
       <r>     4.2455    47.8880   228.4687 </r>
       <r>     4.3101    53.2182   231.9069 </r>
       <r>     4.3747    57.6060   235.6286 </r>
       <r>     4.4393    56.6270   239.2871 </r>
       <r>     4.5039    46.9542   242.3206 </r>
       <r>     4.5685    30.4770   244.2896 </r>
       <r>     4.6331    13.7174   245.1759 </r>
       <r>     4.6977     3.4705   245.4001 </r>
       <r>     4.7623     3.0183   245.5951 </r>
       <r>     4.8269    10.8772   246.2978 </r>
       <r>     4.8915    21.3335   247.6761 </r>
       <r>     4.9561    27.1265   249.4286 </r>
       <r>     5.0208    24.2677   250.9965 </r>
       <r>     5.0854    15.0405   251.9682 </r>
       <r>     5.1500     5.5711   252.3281 </r>
       <r>     5.2146     0.7371   252.3757 </r>
       <r>     5.2792     1.6131   252.4799 </r>
       <r>     5.3438     6.1094   252.8747 </r>
       <r>     5.4084    10.5926   253.5590 </r>
       <r>     5.4730    11.9448   254.3307 </r>
       <r>     5.5376     9.6984   254.9573 </r>
       <r>     5.6022     6.1040   255.3516 </r>
       <r>     5.6668     3.5915   255.5837 </r>
       <r>     5.7314     2.5965   255.7514 </r>
       <r>     5.7960     2.0576   255.8844 </r>
       <r>     5.8606     1.1768   255.9604 </r>
       <r>     5.9252     0.1243   255.9684 </r>
       <r>     5.9898    -0.4063   255.9422 </r>
       <r>     6.0545     0.3278   255.9634 </r>
       <r>     6.1191     2.7916   256.1437 </r>
       <r>     6.1837     6.5778   256.5687 </r>
       <r>     6.2483    10.0397   257.2173 </r>
       <r>     6.3129    11.1307   257.9364 </r>
       <r>     6.3775     9.0542   258.5214 </r>
       <r>     6.4421     5.0220   258.8458 </r>
       <r>     6.5067     1.4060   258.9367 </r>
       <r>     6.5713     0.3899   258.9618 </r>
       <r>     6.6359     3.0624   259.1597 </r>
       <r>     6.7005     8.6357   259.7176 </r>
       <r>     6.7651    14.0875   260.6277 </r>
       <r>     6.8297    15.9247   261.6566 </r>
       <r>     6.8943    13.8921   262.5541 </r>
       <r>     6.9589    12.4912   263.3611 </r>
       <r>     7.0235    16.8189   264.4477 </r>
       <r>     7.0882    26.0499   266.1307 </r>
       <r>     7.1528    32.5835   268.2358 </r>
       <r>     7.2174    29.4006   270.1353 </r>
       <r>     7.2820    17.8539   271.2887 </r>
       <r>     7.3466     7.2626   271.7579 </r>
       <r>     7.4112     7.4611   272.2400 </r>
       <r>     7.4758    21.3372   273.6185 </r>
       <r>     7.5404    41.8850   276.3245 </r>
       <r>     7.6050    56.1340   279.9511 </r>
       <r>     7.6696    55.4788   283.5354 </r>
       <r>     7.7342    43.8791   286.3703 </r>
       <r>     7.7988    34.0530   288.5703 </r>
       <r>     7.8634    35.1984   290.8443 </r>
       <r>     7.9280    45.9463   293.8128 </r>
       <r>     7.9926    58.0525   297.5633 </r>
       <r>     8.0572    64.0161   301.6992 </r>
       <r>     8.1219    61.5010   305.6725 </r>
       <r>     8.1865    53.0080   309.0972 </r>
       <r>     8.2511    42.4209   311.8378 </r>
       <r>     8.3157    32.1341   313.9139 </r>
       <r>     8.3803    23.3607   315.4231 </r>
       <r>     8.4449    17.4464   316.5503 </r>
       <r>     8.5095    15.4638   317.5493 </r>
       <r>     8.5741    17.0677   318.6520 </r>
       <r>     8.6387    20.1185   319.9518 </r>
       <r>     8.7033    21.3375   321.3303 </r>
       <r>     8.7679    18.3423   322.5154 </r>
       <r>     8.8325    11.8078   323.2782 </r>
       <r>     8.8971     4.9849   323.6003 </r>
       <r>     8.9617     0.7727   323.6502 </r>
       <r>     9.0263    -0.2870   323.6316 </r>
       <r>     9.0909     0.5028   323.6641 </r>
       <r>     9.1556     1.5236   323.7626 </r>
       <r>     9.2202     1.8307   323.8808 </r>
       <r>     9.2848     1.3700   323.9693 </r>
       <r>     9.3494     0.6377   324.0105 </r>
       <r>     9.4140     0.1074   324.0175 </r>
       <r>     9.4786    -0.0952   324.0113 </r>
       <r>     9.5432    -0.0987   324.0050 </r>
       <r>     9.6078    -0.0517   324.0016 </r>
       <r>     9.6724    -0.0187   324.0004 </r>
       <r>     9.7370    -0.0050   324.0001 </r>
       <r>     9.8016    -0.0010   324.0000 </r>
       <r>     9.8662    -0.0002   324.0000 </r>
       <r>     9.9308    -0.0000   324.0000 </r>
       <r>     9.9954    -0.0000   324.0000 </r>
       <r>    10.0600    -0.0000   324.0000 </r>
       <r>    10.1246    -0.0000   324.0000 </r>
       <r>    10.1893    -0.0000   324.0000 </r>
       <r>    10.2539    -0.0000   324.0000 </r>
       <r>    10.3185    -0.0000   324.0000 </r>
       <r>    10.3831    -0.0000   324.0000 </r>
       <r>    10.4477     0.0000   324.0000 </r>
       <r>    10.5123     0.0000   324.0000 </r>
       <r>    10.5769     0.0000   324.0000 </r>
       <r>    10.6415     0.0000   324.0000 </r>
       <r>    10.7061     0.0000   324.0000 </r>
       <r>    10.7707     0.0000   324.0000 </r>
       <r>    10.8353     0.0000   324.0000 </r>
       <r>    10.8999     0.0000   324.0000 </r>
       <r>    10.9645     0.0000   324.0000 </r>
       <r>    11.0291     0.0000   324.0000 </r>
       <r>    11.0937     0.0000   324.0000 </r>
       <r>    11.1583     0.0000   324.0000 </r>
      </set>
     </set>
    </array>
   </total>
  </dos>
 </calculation>
 <structure name="finalpos" >
  <crystal>
   <varray name="basis" >
    <v>      10.92582461       0.02717900       0.00000000 </v>
    <v>       0.02717900      10.87146761       0.00000000 </v>
    <v>       0.00000000       0.00000000      10.87146761 </v>
   </varray>
   <i name="volume">   1291.30215564 </i>
   <varray name="rec_basis" >
    <v>       0.09152684      -0.00022882       0.00000000 </v>
    <v>      -0.00022882       0.09198447       0.00000000 </v>
    <v>       0.00000000       0.00000000       0.09198390 </v>
   </varray>
  </crystal>
  <varray name="positions" >
   <v>       0.00000000       0.00000000       0.00016532 </v>
   <v>       0.00000000       0.00000000       0.50016532 </v>
   <v>       0.00000000       0.50000000       0.00016532 </v>
   <v>       0.00000000       0.50000000       0.50016532 </v>
   <v>       0.50000000       0.00000000       0.00016532 </v>
   <v>       0.50000000       0.00000000       0.50016532 </v>
   <v>       0.50000000       0.50000000       0.00016532 </v>
   <v>       0.50000000       0.50000000       0.50016532 </v>
   <v>       0.37500000       0.37500000       0.12483468 </v>
   <v>       0.37500000       0.37500000       0.62483468 </v>
   <v>       0.37500000       0.87500000       0.12483468 </v>
   <v>       0.37500000       0.87500000       0.62483468 </v>
   <v>       0.87500000       0.37500000       0.12483468 </v>
   <v>       0.87500000       0.37500000       0.62483468 </v>
   <v>       0.87500000       0.87500000       0.12483468 </v>
   <v>       0.87500000       0.87500000       0.62483468 </v>
   <v>       0.00000000       0.25000000       0.25016532 </v>
   <v>       0.00000000       0.25000000       0.75016532 </v>
   <v>       0.00000000       0.75000000       0.25016532 </v>
   <v>       0.00000000       0.75000000       0.75016532 </v>
   <v>       0.50000000       0.25000000       0.25016532 </v>
   <v>       0.50000000       0.25000000       0.75016532 </v>
   <v>       0.50000000       0.75000000       0.25016532 </v>
   <v>       0.50000000       0.75000000       0.75016532 </v>
   <v>       0.37500000       0.12500000       0.37483468 </v>
   <v>       0.37500000       0.12500000       0.87483468 </v>
   <v>       0.37500000       0.62500000       0.37483468 </v>
   <v>       0.37500000       0.62500000       0.87483468 </v>
   <v>       0.87500000       0.12500000       0.37483468 </v>
   <v>       0.87500000       0.12500000       0.87483468 </v>
   <v>       0.87500000       0.62500000       0.37483468 </v>
   <v>       0.87500000       0.62500000       0.87483468 </v>
   <v>       0.25000000       0.00000000       0.25016532 </v>
   <v>       0.25000000       0.00000000       0.75016532 </v>
   <v>       0.25000000       0.50000000       0.25016532 </v>
   <v>       0.25000000       0.50000000       0.75016532 </v>
   <v>       0.75000000       0.00000000       0.25016532 </v>
   <v>       0.75000000       0.00000000       0.75016532 </v>
   <v>       0.75000000       0.50000000       0.25016532 </v>
   <v>       0.75000000       0.50000000       0.75016532 </v>
   <v>       0.12500000       0.37500000       0.37483468 </v>
   <v>       0.12500000       0.37500000       0.87483468 </v>
   <v>       0.12500000       0.87500000       0.37483468 </v>
   <v>       0.12500000       0.87500000       0.87483468 </v>
   <v>       0.62500000       0.37500000       0.37483468 </v>
   <v>       0.62500000       0.37500000       0.87483468 </v>
   <v>       0.62500000       0.87500000       0.37483468 </v>
   <v>       0.62500000       0.87500000       0.87483468 </v>
   <v>       0.25000000       0.25000000       0.00016532 </v>
   <v>       0.25000000       0.25000000       0.50016532 </v>
   <v>       0.25000000       0.75000000       0.00016532 </v>
   <v>       0.25000000       0.75000000       0.50016532 </v>
   <v>       0.75000000       0.25000000       0.00016532 </v>
   <v>       0.75000000       0.25000000       0.50016532 </v>
   <v>       0.75000000       0.75000000       0.00016532 </v>
   <v>       0.75000000       0.75000000       0.50016532 </v>
   <v>       0.12500000       0.12500000       0.12483468 </v>
   <v>       0.12500000       0.12500000       0.62483468 </v>
   <v>       0.12500000       0.62500000       0.12483468 </v>
   <v>       0.12500000       0.62500000       0.62483468 </v>
   <v>       0.62500000       0.12500000       0.12483468 </v>
   <v>       0.62500000       0.12500000       0.62483468 </v>
   <v>       0.62500000       0.62500000       0.12483468 </v>
   <v>       0.62500000       0.62500000       0.62483468 </v>
  </varray>
 </structure>
</modeling>
