  64  64   0   0
  0.1824559E+02  0.1042536E-08  0.1058411E-08  0.1058381E-08  0.5000000E-15
  1.000000000000000E-004
  CAR 
 Si64                                    
     12.26723901     -7.88501949  301      6.93517206      1.00000000
     -7.885  0.0000E+00  0.0000E+00
     -7.818  0.0000E+00  0.0000E+00
     -7.751  0.0000E+00  0.0000E+00
     -7.683  0.0000E+00  0.0000E+00
     -7.616  0.0000E+00  0.0000E+00
     -7.549 -0.1246E-30 -0.8371E-32
     -7.482 -0.2846E-28 -0.1920E-29
     -7.415 -0.5194E-26 -0.3508E-27
     -7.348 -0.7548E-24 -0.5105E-25
     -7.280 -0.8732E-22 -0.5917E-23
     -7.213 -0.8039E-20 -0.5459E-21
     -7.146 -0.5887E-18 -0.4009E-19
     -7.079 -0.3429E-16 -0.2343E-17
     -7.012 -0.1535E-14 -0.1055E-15
     -6.945 -0.5629E-13 -0.3886E-14
     -6.877 -0.1634E-11 -0.1136E-12
     -6.810 -0.3755E-10 -0.2636E-11
     -6.743 -0.6824E-09 -0.4847E-10
     -6.676 -0.9781E-08 -0.7055E-09
     -6.609 -0.1103E-06 -0.8112E-08
     -6.542 -0.9734E-06 -0.7350E-07
     -6.474 -0.6687E-05 -0.5227E-06
     -6.407 -0.3540E-04 -0.2900E-05
     -6.340 -0.1420E-03 -0.1244E-04
     -6.273 -0.4183E-03 -0.4054E-04
     -6.206 -0.8396E-03 -0.9693E-04
     -6.138 -0.8723E-03 -0.1555E-03
     -6.071  0.6622E-03 -0.1110E-03
     -6.004  0.4433E-02  0.1868E-03
     -5.937  0.8829E-02  0.7798E-03
     -5.870  0.1150E-01  0.1552E-02
     -5.803  0.1537E-01  0.2585E-02
     -5.735  0.2971E-01  0.4581E-02
     -5.668  0.5759E-01  0.8450E-02
     -5.601  0.8466E-01  0.1414E-01
     -5.534  0.9491E-01  0.2051E-01
     -5.467  0.9891E-01  0.2716E-01
     -5.400  0.1245E+00  0.3552E-01
     -5.332  0.1707E+00  0.4699E-01
     -5.265  0.1973E+00  0.6024E-01
     -5.198  0.1791E+00  0.7227E-01
     -5.131  0.1430E+00  0.8188E-01
     -5.064  0.1266E+00  0.9038E-01
     -4.997  0.1254E+00  0.9880E-01
     -4.929  0.1116E+00  0.1063E+00
     -4.862  0.8435E-01  0.1120E+00
     -4.795  0.6698E-01  0.1165E+00
     -4.728  0.6942E-01  0.1211E+00
     -4.661  0.8871E-01  0.1271E+00
     -4.593  0.1394E+00  0.1365E+00
     -4.526  0.2377E+00  0.1524E+00
     -4.459  0.3507E+00  0.1760E+00
     -4.392  0.4137E+00  0.2038E+00
     -4.325  0.4173E+00  0.2318E+00
     -4.258  0.4145E+00  0.2596E+00
     -4.190  0.4215E+00  0.2880E+00
     -4.123  0.3822E+00  0.3136E+00
     -4.056  0.2619E+00  0.3312E+00
     -3.989  0.1102E+00  0.3386E+00
     -3.922  0.2824E-02  0.3388E+00
     -3.855 -0.2710E-01  0.3370E+00
     -3.787  0.1447E-01  0.3380E+00
     -3.720  0.1132E+00  0.3456E+00
     -3.653  0.2495E+00  0.3623E+00
     -3.586  0.3879E+00  0.3884E+00
     -3.519  0.4787E+00  0.4206E+00
     -3.452  0.4818E+00  0.4529E+00
     -3.384  0.4008E+00  0.4798E+00
     -3.317  0.2905E+00  0.4994E+00
     -3.250  0.2218E+00  0.5142E+00
     -3.183  0.2403E+00  0.5304E+00
     -3.116  0.3448E+00  0.5535E+00
     -3.048  0.4852E+00  0.5861E+00
     -2.981  0.5911E+00  0.6258E+00
     -2.914  0.6223E+00  0.6676E+00
     -2.847  0.5924E+00  0.7074E+00
     -2.780  0.5400E+00  0.7437E+00
     -2.713  0.4863E+00  0.7764E+00
     -2.645  0.4364E+00  0.8057E+00
     -2.578  0.4071E+00  0.8330E+00
     -2.511  0.4109E+00  0.8606E+00
     -2.444  0.4110E+00  0.8883E+00
     -2.377  0.3476E+00  0.9116E+00
     -2.310  0.2173E+00  0.9262E+00
     -2.242  0.8289E-01  0.9318E+00
     -2.175  0.2613E-04  0.9318E+00
     -2.108 -0.2792E-01  0.9299E+00
     -2.041 -0.2393E-01  0.9283E+00
     -1.974  0.2513E-02  0.9285E+00
     -1.907  0.5730E-01  0.9323E+00
     -1.839  0.1322E+00  0.9412E+00
     -1.772  0.1877E+00  0.9538E+00
     -1.705  0.1817E+00  0.9660E+00
     -1.638  0.1166E+00  0.9738E+00
     -1.571  0.4693E-01  0.9770E+00
     -1.503  0.3918E-01  0.9796E+00
     -1.436  0.1280E+00  0.9882E+00
     -1.369  0.2952E+00  0.1008E+01
     -1.302  0.4710E+00  0.1040E+01
     -1.235  0.5657E+00  0.1078E+01
     -1.168  0.5260E+00  0.1113E+01
     -1.100  0.3743E+00  0.1138E+01
     -1.033  0.1925E+00  0.1151E+01
     -0.966  0.6925E-01  0.1156E+01
     -0.899  0.5028E-01  0.1159E+01
     -0.832  0.1164E+00  0.1167E+01
     -0.765  0.1979E+00  0.1180E+01
     -0.697  0.2283E+00  0.1196E+01
     -0.630  0.2079E+00  0.1210E+01
     -0.563  0.2061E+00  0.1223E+01
     -0.496  0.2733E+00  0.1242E+01
     -0.429  0.3583E+00  0.1266E+01
     -0.362  0.3551E+00  0.1290E+01
     -0.294  0.2455E+00  0.1306E+01
     -0.227  0.1560E+00  0.1317E+01
     -0.160  0.2462E+00  0.1333E+01
     -0.093  0.5423E+00  0.1370E+01
     -0.026  0.8856E+00  0.1429E+01
      0.042  0.1052E+01  0.1500E+01
      0.109  0.9356E+00  0.1563E+01
      0.176  0.6174E+00  0.1604E+01
      0.243  0.2755E+00  0.1623E+01
      0.310  0.4327E-01  0.1625E+01
      0.377 -0.4611E-01  0.1622E+01
      0.445 -0.1560E-01  0.1621E+01
      0.512  0.1045E+00  0.1628E+01
      0.579  0.2662E+00  0.1646E+01
      0.646  0.3857E+00  0.1672E+01
      0.713  0.3914E+00  0.1698E+01
      0.780  0.2925E+00  0.1718E+01
      0.848  0.1713E+00  0.1730E+01
      0.915  0.1135E+00  0.1737E+01
      0.982  0.1596E+00  0.1748E+01
      1.049  0.2956E+00  0.1768E+01
      1.116  0.4519E+00  0.1798E+01
      1.183  0.5318E+00  0.1834E+01
      1.251  0.4778E+00  0.1866E+01
      1.318  0.3201E+00  0.1887E+01
      1.385  0.1468E+00  0.1897E+01
      1.452  0.2956E-01  0.1899E+01
      1.519 -0.1947E-01  0.1898E+01
      1.587 -0.2971E-01  0.1896E+01
      1.654 -0.3082E-01  0.1894E+01
      1.721 -0.2575E-01  0.1892E+01
      1.788  0.1329E-01  0.1893E+01
      1.855  0.1224E+00  0.1901E+01
      1.922  0.2989E+00  0.1921E+01
      1.990  0.4681E+00  0.1953E+01
      2.057  0.5259E+00  0.1988E+01
      2.124  0.4403E+00  0.2018E+01
      2.191  0.3061E+00  0.2038E+01
      2.258  0.2671E+00  0.2056E+01
      2.325  0.3752E+00  0.2081E+01
      2.393  0.5393E+00  0.2118E+01
      2.460  0.6239E+00  0.2160E+01
      2.527  0.5766E+00  0.2198E+01
      2.594  0.4450E+00  0.2228E+01
      2.661  0.3150E+00  0.2249E+01
      2.729  0.2766E+00  0.2268E+01
      2.796  0.4082E+00  0.2295E+01
      2.863  0.7197E+00  0.2344E+01
      2.930  0.1091E+01  0.2417E+01
      2.997  0.1317E+01  0.2505E+01
      3.064  0.1250E+01  0.2589E+01
      3.132  0.9236E+00  0.2651E+01
      3.199  0.5179E+00  0.2686E+01
      3.266  0.2047E+00  0.2700E+01
      3.333  0.3656E-01  0.2702E+01
      3.400 -0.2666E-01  0.2701E+01
      3.467 -0.1733E-01  0.2699E+01
      3.535  0.8918E-01  0.2705E+01
      3.602  0.3273E+00  0.2727E+01
      3.669  0.6552E+00  0.2771E+01
      3.736  0.9412E+00  0.2835E+01
      3.803  0.1070E+01  0.2907E+01
      3.870  0.1047E+01  0.2977E+01
      3.938  0.9746E+00  0.3042E+01
      4.005  0.9182E+00  0.3104E+01
      4.072  0.8603E+00  0.3162E+01
      4.139  0.7780E+00  0.3214E+01
      4.206  0.7135E+00  0.3262E+01
      4.274  0.7174E+00  0.3310E+01
      4.341  0.7538E+00  0.3361E+01
      4.408  0.7230E+00  0.3409E+01
      4.475  0.5806E+00  0.3448E+01
      4.542  0.3959E+00  0.3475E+01
      4.609  0.2828E+00  0.3494E+01
      4.677  0.2968E+00  0.3514E+01
      4.744  0.4052E+00  0.3541E+01
      4.811  0.5331E+00  0.3577E+01
      4.878  0.6211E+00  0.3619E+01
      4.945  0.6475E+00  0.3662E+01
      5.012  0.6275E+00  0.3704E+01
      5.080  0.6068E+00  0.3745E+01
      5.147  0.6311E+00  0.3788E+01
      5.214  0.7008E+00  0.3835E+01
      5.281  0.7682E+00  0.3886E+01
      5.348  0.7848E+00  0.3939E+01
      5.415  0.7320E+00  0.3988E+01
      5.483  0.6120E+00  0.4029E+01
      5.550  0.4427E+00  0.4059E+01
      5.617  0.2709E+00  0.4077E+01
      5.684  0.1639E+00  0.4088E+01
      5.751  0.1638E+00  0.4099E+01
      5.819  0.2460E+00  0.4116E+01
      5.886  0.3323E+00  0.4138E+01
      5.953  0.3530E+00  0.4162E+01
      6.020  0.2953E+00  0.4182E+01
      6.087  0.1957E+00  0.4195E+01
      6.154  0.1000E+00  0.4201E+01
      6.222  0.4084E-01  0.4204E+01
      6.289  0.3474E-01  0.4206E+01
      6.356  0.7686E-01  0.4212E+01
      6.423  0.1363E+00  0.4221E+01
      6.490  0.1724E+00  0.4232E+01
      6.557  0.1652E+00  0.4243E+01
      6.625  0.1262E+00  0.4252E+01
      6.692  0.8041E-01  0.4257E+01
      6.759  0.4537E-01  0.4260E+01
      6.826  0.2797E-01  0.4262E+01
      6.893  0.3230E-01  0.4264E+01
      6.960  0.6066E-01  0.4269E+01
      7.028  0.1062E+00  0.4276E+01
      7.095  0.1487E+00  0.4286E+01
      7.162  0.1635E+00  0.4297E+01
      7.229  0.1396E+00  0.4306E+01
      7.296  0.8920E-01  0.4312E+01
      7.364  0.3894E-01  0.4315E+01
      7.431  0.1463E-01  0.4316E+01
      7.498  0.3245E-01  0.4318E+01
      7.565  0.9092E-01  0.4324E+01
      7.632  0.1642E+00  0.4335E+01
      7.699  0.2144E+00  0.4349E+01
      7.767  0.2253E+00  0.4364E+01
      7.834  0.2243E+00  0.4380E+01
      7.901  0.2583E+00  0.4397E+01
      7.968  0.3355E+00  0.4419E+01
      8.035  0.4027E+00  0.4446E+01
      8.102  0.3950E+00  0.4473E+01
      8.170  0.3035E+00  0.4493E+01
      8.237  0.1880E+00  0.4506E+01
      8.304  0.1332E+00  0.4515E+01
      8.371  0.1913E+00  0.4528E+01
      8.438  0.3454E+00  0.4551E+01
      8.505  0.5221E+00  0.4586E+01
      8.573  0.6412E+00  0.4629E+01
      8.640  0.6533E+00  0.4673E+01
      8.707  0.5566E+00  0.4710E+01
      8.774  0.4101E+00  0.4738E+01
      8.841  0.3176E+00  0.4759E+01
      8.909  0.3611E+00  0.4784E+01
      8.976  0.5443E+00  0.4820E+01
      9.043  0.8051E+00  0.4874E+01
      9.110  0.1059E+01  0.4945E+01
      9.177  0.1223E+01  0.5027E+01
      9.244  0.1233E+01  0.5110E+01
      9.312  0.1076E+01  0.5183E+01
      9.379  0.8108E+00  0.5237E+01
      9.446  0.5349E+00  0.5273E+01
      9.513  0.3348E+00  0.5295E+01
      9.580  0.2521E+00  0.5312E+01
      9.647  0.2651E+00  0.5330E+01
      9.715  0.2997E+00  0.5350E+01
      9.782  0.2840E+00  0.5369E+01
      9.849  0.2057E+00  0.5383E+01
      9.916  0.1074E+00  0.5390E+01
      9.983  0.3458E-01  0.5393E+01
     10.050  0.1689E-02  0.5393E+01
     10.118 -0.2864E-04  0.5393E+01
     10.185  0.1404E-01  0.5394E+01
     10.252  0.2853E-01  0.5396E+01
     10.319  0.3216E-01  0.5398E+01
     10.386  0.2361E-01  0.5399E+01
     10.454  0.1071E-01  0.5400E+01
     10.521  0.1611E-02  0.5400E+01
     10.588 -0.1644E-02  0.5400E+01
     10.655 -0.1555E-02  0.5400E+01
     10.722 -0.7509E-03  0.5400E+01
     10.789 -0.2476E-03  0.5400E+01
     10.857 -0.6012E-04  0.5400E+01
     10.924 -0.1108E-04  0.5400E+01
     10.991 -0.1578E-05  0.5400E+01
     11.058 -0.1749E-06  0.5400E+01
     11.125 -0.1521E-07  0.5400E+01
     11.192 -0.1041E-08  0.5400E+01
     11.260 -0.5625E-10  0.5400E+01
     11.327 -0.2405E-11  0.5400E+01
     11.394 -0.8149E-13  0.5400E+01
     11.461 -0.2176E-14  0.5400E+01
     11.528 -0.5509E-16  0.5400E+01
     11.595  0.0000E+00  0.5400E+01
     11.663  0.0000E+00  0.5400E+01
     11.730  0.0000E+00  0.5400E+01
     11.797  0.0000E+00  0.5400E+01
     11.864  0.0000E+00  0.5400E+01
     11.931  0.0000E+00  0.5400E+01
     11.999  0.0000E+00  0.5400E+01
     12.066  0.0000E+00  0.5400E+01
     12.133  0.0000E+00  0.5400E+01
     12.200  0.0000E+00  0.5400E+01
     12.267  0.0000E+00  0.5400E+01
