 vasp.6.4.3 19Mar24 (build Oct 21 2024 22:36:34) complex                        
  
 executed on             LinuxIFC date 2024.11.01  22:57:14
 running   96 mpi-ranks, on    1 nodes
 distrk:  each k-point on   24 cores,    4 groups
 distr:  one band on NCORE=  12 cores,    2 groups


--------------------------------------------------------------------------------------------------------


 INCAR:
   SYSTEM = Si64
   ISTART = 0
   ICHARG = 2
   LREAL = Auto
   PREC = Accurate
   LWAVE = .False.
   LCHARG = .False.
   ADDGRID = .True.
   ENCUT = 400
   GGA = PS
   GGA_COMPAT = .FALSE.
   ISMEAR = 1
   SIGMA = 0.2
   NELM = 60
   NELMIN = 8
   EDIFF = 1e-06
   EDIFFG = -0.01
   NSW = 60
   IBRION = 2
   ISIF = 2
   KPAR = 4
   NPAR = 2
   ALGO = Fast

 POTCAR:    PAW_PBE Si 05Jan2001                  
 POTCAR:    PAW_PBE Si 05Jan2001                  
   VRHFIN =Si: s2p2                                                                                 
   LEXCH  = PE                                                                                      
   EATOM  =   103.0669 eV,    7.5752 Ry                                                             
                                                                                                    
   TITEL  = PAW_PBE Si 05Jan2001                                                                    
   LULTRA =        F    use ultrasoft PP ?                                                          
   IUNSCR =        1    unscreen: 0-lin 1-nonlin 2-no                                               
   RPACOR =    1.500    partial core radius                                                         
   POMASS =   28.085; ZVAL   =    4.000    mass and valenz                                          
   RCORE  =    1.900    outmost cutoff radius                                                       
   RWIGS  =    2.480; RWIGS  =    1.312    wigner-seitz radius (au A)                               
   ENMAX  =  245.345; ENMIN  =  184.009 eV                                                          
   ICORE  =        2    local potential                                                             
   LCOR   =        T    correct aug charges                                                         
   LPAW   =        T    paw PP                                                                      
   EAUG   =  322.069                                                                                
   DEXC   =    0.000                                                                                
   RMAX   =    1.950    core radius for proj-oper                                                   
   RAUG   =    1.300    factor for augmentation sphere                                              
   RDEP   =    1.993    radius for radial grids                                                     
   RDEPT  =    1.837    core radius for aug-charge                                                  
                                                                                                    
   Atomic configuration                                                                             
    6 entries                                                                                       
     n  l   j            E        occ.                                                              
     1  0  0.50     -1785.8828   2.0000                                                             
     2  0  0.50      -139.4969   2.0000                                                             
     2  1  1.50       -95.5546   6.0000                                                             
     3  0  0.50       -10.8127   2.0000                                                             
     3  1  0.50        -4.0811   2.0000                                                             
     3  2  1.50        -4.0817   0.0000                                                             
   Description                                                                                      
     l       E           TYP  RCUT    TYP  RCUT                                                     
     0    -10.8127223     23  1.900                                                                 
     0     -7.6451159     23  1.900                                                                 
     1     -4.0811372     23  1.900                                                                 
     1      2.4879257     23  1.900                                                                 
     2     -4.0817478      7  1.900                                                                 
  local pseudopotential read in
  partial core-charges read in
  partial kinetic energy density read in
  atomic valenz-charges read in
  non local Contribution for L=           0  read in
    real space projection operators read in
  non local Contribution for L=           0  read in
    real space projection operators read in
  non local Contribution for L=           1  read in
    real space projection operators read in
  non local Contribution for L=           1  read in
    real space projection operators read in
    PAW grid and wavefunctions read in
 
   number of l-projection  operators is LMAX  =           4
   number of lm-projection operators is LMMAX =           8
 
 Optimization of the real space projectors (new method)

 maximal supplied QI-value         = 19.84
 optimisation between [QCUT,QGAM] = [ 10.12, 20.44] = [ 28.68,116.96] Ry 
 Optimized for a Real-space Cutoff    1.38 Angstroem

   l    n(q)    QCUT    max X(q) W(low)/X(q) W(high)/X(q)  e(spline) 
   0      8    10.119   159.560    0.58E-04    0.11E-03    0.54E-07
   0      8    10.119   115.863    0.56E-04    0.11E-03    0.54E-07
   1      8    10.119    88.339    0.22E-03    0.17E-03    0.19E-06
   1      8    10.119    48.592    0.22E-03    0.17E-03    0.18E-06
 -----------------------------------------------------------------------------
|                                                                             |
|               ----> ADVICE to this user running VASP <----                  |
|                                                                             |
|     You enforced a specific xc type in the INCAR file but a different       |
|     type was found in the POTCAR file.                                      |
|     I HOPE YOU KNOW WHAT YOU ARE DOING!                                     |
|                                                                             |
 -----------------------------------------------------------------------------

  PAW_PBE Si 05Jan2001                  :
 energy of atom  1       EATOM= -103.0669
 kinetic energy error for atom=    0.0012 (will be added to EATOM!!)
 
 
 POSCAR: Si8
  positions in direct lattice
  velocities in cartesian coordinates


 exchange-correlation table for PS
   RHO(1)=    0.500       N(1)  =     2000
   RHO(2)=  100.500       N(2)  =     4000
 


--------------------------------------------------------------------------------------------------------


 ion  position               nearest neighbor table
   1  0.000  0.000  0.000-  15 2.27  57 2.27  44 2.29  30 2.29
   2  0.000  0.000  0.500-  16 2.27  58 2.27  43 2.29  29 2.29
   3  0.000  0.500  0.000-  13 2.27  59 2.27  42 2.29  32 2.29
   4  0.000  0.500  0.500-  14 2.27  60 2.27  41 2.29  31 2.29
   5  0.500  0.000  0.000-  11 2.27  61 2.27  48 2.29  26 2.29
   6  0.500  0.000  0.500-  12 2.27  62 2.27  47 2.29  25 2.29
   7  0.500  0.500  0.000-   9 2.27  63 2.27  46 2.29  28 2.29
   8  0.500  0.500  0.500-  10 2.27  64 2.27  45 2.29  27 2.29
   9  0.375  0.375  0.125-   7 2.27  49 2.27  35 2.29  21 2.29
  10  0.375  0.375  0.625-   8 2.27  50 2.27  36 2.29  22 2.29
  11  0.375  0.875  0.125-   5 2.27  51 2.27  33 2.29  23 2.29
  12  0.375  0.875  0.625-   6 2.27  52 2.27  34 2.29  24 2.29
  13  0.875  0.375  0.125-   3 2.27  53 2.27  39 2.29  17 2.29
  14  0.875  0.375  0.625-   4 2.27  54 2.27  40 2.29  18 2.29
  15  0.875  0.875  0.125-   1 2.27  55 2.27  37 2.29  19 2.29
  16  0.875  0.875  0.625-   2 2.27  56 2.27  38 2.29  20 2.29
  17  0.000  0.250  0.250-  29 2.27  41 2.27  13 2.29  57 2.29
  18  0.000  0.250  0.750-  30 2.27  42 2.27  14 2.29  58 2.29
  19  0.000  0.750  0.250-  31 2.27  43 2.27  15 2.29  59 2.29
  20  0.000  0.750  0.750-  32 2.27  44 2.27  16 2.29  60 2.29
  21  0.500  0.250  0.250-  25 2.27  45 2.27   9 2.29  61 2.29
  22  0.500  0.250  0.750-  26 2.27  46 2.27  10 2.29  62 2.29
  23  0.500  0.750  0.250-  27 2.27  47 2.27  11 2.29  63 2.29
  24  0.500  0.750  0.750-  28 2.27  48 2.27  12 2.29  64 2.29
  25  0.375  0.125  0.375-  21 2.27  33 2.27   6 2.29  50 2.29
  26  0.375  0.125  0.875-  22 2.27  34 2.27   5 2.29  49 2.29
  27  0.375  0.625  0.375-  23 2.27  35 2.27   8 2.29  52 2.29
  28  0.375  0.625  0.875-  24 2.27  36 2.27   7 2.29  51 2.29
  29  0.875  0.125  0.375-  17 2.27  37 2.27   2 2.29  54 2.29
  30  0.875  0.125  0.875-  18 2.27  38 2.27   1 2.29  53 2.29
  31  0.875  0.625  0.375-  19 2.27  39 2.27   4 2.29  56 2.29
  32  0.875  0.625  0.875-  20 2.27  40 2.27   3 2.29  55 2.29
  33  0.250  0.000  0.250-  25 2.27  43 2.27  11 2.29  57 2.29
  34  0.250  0.000  0.750-  26 2.27  44 2.27  12 2.29  58 2.29
  35  0.250  0.500  0.250-  27 2.27  41 2.27   9 2.29  59 2.29
  36  0.250  0.500  0.750-  28 2.27  42 2.27  10 2.29  60 2.29
  37  0.750  0.000  0.250-  29 2.27  47 2.27  15 2.29  61 2.29
  38  0.750  0.000  0.750-  30 2.27  48 2.27  16 2.29  62 2.29
  39  0.750  0.500  0.250-  31 2.27  45 2.27  13 2.29  63 2.29
  40  0.750  0.500  0.750-  32 2.27  46 2.27  14 2.29  64 2.29
  41  0.125  0.375  0.375-  17 2.27  35 2.27   4 2.29  50 2.29
  42  0.125  0.375  0.875-  18 2.27  36 2.27   3 2.29  49 2.29
  43  0.125  0.875  0.375-  19 2.27  33 2.27   2 2.29  52 2.29
  44  0.125  0.875  0.875-  20 2.27  34 2.27   1 2.29  51 2.29
  45  0.625  0.375  0.375-  21 2.27  39 2.27   8 2.29  54 2.29
  46  0.625  0.375  0.875-  22 2.27  40 2.27   7 2.29  53 2.29
  47  0.625  0.875  0.375-  23 2.27  37 2.27   6 2.29  56 2.29
  48  0.625  0.875  0.875-  24 2.27  38 2.27   5 2.29  55 2.29
  49  0.250  0.250  0.000-   9 2.27  57 2.27  42 2.29  26 2.29
  50  0.250  0.250  0.500-  10 2.27  58 2.27  41 2.29  25 2.29
  51  0.250  0.750  0.000-  11 2.27  59 2.27  44 2.29  28 2.29
  52  0.250  0.750  0.500-  12 2.27  60 2.27  43 2.29  27 2.29
  53  0.750  0.250  0.000-  13 2.27  61 2.27  46 2.29  30 2.29
  54  0.750  0.250  0.500-  14 2.27  62 2.27  45 2.29  29 2.29
  55  0.750  0.750  0.000-  15 2.27  63 2.27  48 2.29  32 2.29
  56  0.750  0.750  0.500-  16 2.27  64 2.27  47 2.29  31 2.29
  57  0.125  0.125  0.125-   1 2.27  49 2.27  33 2.29  17 2.29
  58  0.125  0.125  0.625-   2 2.27  50 2.27  34 2.29  18 2.29
  59  0.125  0.625  0.125-   3 2.27  51 2.27  35 2.29  19 2.29
  60  0.125  0.625  0.625-   4 2.27  52 2.27  36 2.29  20 2.29
  61  0.625  0.125  0.125-   5 2.27  53 2.27  37 2.29  21 2.29
  62  0.625  0.125  0.625-   6 2.27  54 2.27  38 2.29  22 2.29
  63  0.625  0.625  0.125-   7 2.27  55 2.27  39 2.29  23 2.29
  64  0.625  0.625  0.625-   8 2.27  56 2.27  40 2.29  24 2.29
 
  LATTYP: Found a simple monoclinic cell.
 ALAT       =    10.4253577411
 B/A-ratio  =     1.0151990777
 C/A-ratio  =     1.0152276300
 COS(beta)  =    -0.0151134287
  
  Lattice vectors:
  
 A1 = (  10.4250555396,  -0.0793790117,   0.0000000000)
 A2 = (   0.0000000000,   0.0000000000, -10.5838135630)
 A3 = (  -0.0793790117,  10.5838135630,   0.0000000000)


Analysis of symmetry for initial positions (statically):
=====================================================================
 Subroutine PRICEL returns following result:
 
  LATTYP: Found a base centered monoclinic cell.
 ALAT       =     5.2126788706
 B/A-ratio  =     1.0151990777
 C/A-ratio  =     0.7071067812
 COS(beta)  =    -0.6962572385
  
  Lattice vectors:
  
 A1 = (  -2.6062638849,   0.0198447529,  -2.6459533908)
 A2 = (  -2.6062638849,   0.0198447529,   2.6459533908)
 A3 = (   2.5864191320,   2.6261086378,   0.0000000000)
 
  32 primitive cells build up your supercell.
 

 Routine SETGRP: Setting up the symmetry group for a 
 simple monoclinic supercell.


 Subroutine GETGRP returns: Found  4 space group operations
 (whereof  2 operations were pure point group operations)
 out of a pool of  4 trial point group operations.


The static configuration has the point symmetry C_2 .
 The point group associated with its full space group is C_2h.


Analysis of symmetry for dynamics (positions and initial velocities):
=====================================================================
 Subroutine PRICEL returns following result:
 
  LATTYP: Found a base centered monoclinic cell.
 ALAT       =     5.2126788706
 B/A-ratio  =     1.0151990777
 C/A-ratio  =     0.7071067812
 COS(beta)  =    -0.6962572385
  
  Lattice vectors:
  
 A1 = (  -2.6062638849,   0.0198447529,  -2.6459533908)
 A2 = (  -2.6062638849,   0.0198447529,   2.6459533908)
 A3 = (   2.5864191320,   2.6261086378,   0.0000000000)
 
  32 primitive cells build up your supercell.
 

 Routine SETGRP: Setting up the symmetry group for a 
 simple monoclinic supercell.


 Subroutine GETGRP returns: Found  4 space group operations
 (whereof  2 operations were pure point group operations)
 out of a pool of  4 trial point group operations.


The dynamic configuration has the point symmetry C_2 .
 The point group associated with its full space group is C_2h.


 Subroutine INISYM returns: Found  4 space group operations
 (whereof  2 operations are pure point group operations),
 and found    32 'primitive' translations


----------------------------------------------------------------------------------------

                                     Primitive cell                                     

  volume of cell :      36.4912

  direct lattice vectors                    reciprocal lattice vectors
    -2.606263885  0.019844753 -2.645953391    -0.190417526  0.187539665 -0.188967803
    -2.606263885  0.019844753  2.645953391    -0.190417526  0.187539665  0.188967803
     2.586419132  2.626108638  0.000000000     0.002877862  0.377957191 -0.000000000

  length of vectors
     3.714037506  3.714037506  3.685920578     0.327320624  0.327320624  0.377968147

  position of ions in fractional coordinates (direct lattice)
     0.000000000  0.000000000  0.000000000
     0.750000000  0.250000000  0.500000000

  ion indices of the primitive-cell ions
   primitive index   ion index
                 1           1
                 2          15

----------------------------------------------------------------------------------------

 
 
 KPOINTS: Automatic mesh                          

Automatic generation of k-mesh.
 Grid dimensions read from file:
 generate k-points for:    2    2    2

 Generating k-lattice:

  Cartesian coordinates                     Fractional coordinates (reciprocal lattice)
     0.047964114  0.000359733  0.000000000     0.500000000 -0.000000000  0.000000000
     0.000359733  0.047244649  0.000000000    -0.000000000  0.500000000  0.000000000
     0.000000000  0.000000000  0.047241951     0.000000000  0.000000000  0.500000000

  Length of vectors
     0.047965463  0.047246018  0.047241951

  Shift w.r.t. Gamma in fractional coordinates (k-lattice)
     0.000000000  0.000000000  0.000000000

 
 Subroutine IBZKPT returns following result:
 ===========================================
 
 Found      8 irreducible k-points:
 
 Following reciprocal coordinates:
            Coordinates               Weight
  0.000000  0.000000  0.000000      1.000000
  0.500000 -0.000000  0.000000      1.000000
 -0.000000  0.500000  0.000000      1.000000
  0.500000  0.500000  0.000000      1.000000
  0.000000  0.000000  0.500000      1.000000
  0.500000 -0.000000  0.500000      1.000000
 -0.000000  0.500000  0.500000      1.000000
  0.500000  0.500000  0.500000      1.000000
 
 Following cartesian coordinates:
            Coordinates               Weight
  0.000000  0.000000  0.000000      1.000000
  0.047964  0.000360  0.000000      1.000000
  0.000360  0.047245  0.000000      1.000000
  0.048324  0.047604  0.000000      1.000000
  0.000000  0.000000  0.047242      1.000000
  0.047964  0.000360  0.047242      1.000000
  0.000360  0.047245  0.047242      1.000000
  0.048324  0.047604  0.047242      1.000000
 


--------------------------------------------------------------------------------------------------------




 Dimension of arrays:
   k-points           NKPTS =      8   k-points in BZ     NKDIM =      8   number of bands    NBANDS=    162
   number of dos      NEDOS =    301   number of ions     NIONS =     64
   non local maximal  LDIM  =      4   non local SUM 2l+1 LMDIM =      8
   total plane-waves  NPLWV = 343000
   max r-space proj   IRMAX =   3287   max aug-charges    IRDMAX=  78758
   dimension x,y,z NGX =    70 NGY =   70 NGZ =   70
   dimension x,y,z NGXF=   140 NGYF=  140 NGZF=  140
   support grid    NGXF=   280 NGYF=  280 NGZF=  280
   ions per type =              64
   NGX,Y,Z   is equivalent  to a cutoff of  11.16, 10.99, 11.00 a.u.
   NGXF,Y,Z  is equivalent  to a cutoff of  22.32, 21.99, 21.99 a.u.

 SYSTEM =  Si64                                    
 POSCAR =  Si8                                     

 Startparameter for this run:
   NWRITE =      2    write-flag & timer
   PREC   = accura    normal or accurate (medium, high low for compatibility)
   ISTART =      0    job   : 0-new  1-cont  2-samecut
   ICHARG =      2    charge: 1-file 2-atom 10-const
   ISPIN  =      1    spin polarized calculation?
   LNONCOLLINEAR =      F non collinear calculations
   LSORBIT =      F    spin-orbit coupling
   INIWAV =      1    electr: 0-lowe 1-rand  2-diag
   LASPH  =      F    aspherical Exc in radial PAW
 Electronic Relaxation 1
   ENCUT  =  400.0 eV  29.40 Ry    5.42 a.u.  17.00 17.26 17.26*2*pi/ulx,y,z
   ENINI  =  400.0     initial cutoff
   ENAUG  =  322.1 eV  augmentation charge cutoff
   NELM   =     60;   NELMIN=  8; NELMDL= -5     # of ELM steps 
   EDIFF  = 0.1E-05   stopping-criterion for ELM
   LREAL  =      T    real-space projection
   NLSPLINE    = F    spline interpolate recip. space projectors
   LCOMPAT=      F    compatible to vasp.4.4
   GGA_COMPAT  = F    GGA compatible to vasp.4.4-vasp.4.6
   LMAXPAW     = -100 max onsite density
   LMAXMIX     =    2 max onsite mixed and CHGCAR
   VOSKOWN=      0    Vosko Wilk Nusair interpolation
   ROPT   =   -0.00025
 Ionic relaxation
   EDIFFG = -.1E-01   stopping-criterion for IOM
   NSW    =     60    number of steps for IOM
   NBLOCK =      1;   KBLOCK =     60    inner block; outer block 
   IBRION =      2    ionic relax: 0-MD 1-quasi-New 2-CG
   NFREE  =      1    steps in history (QN), initial steepest desc. (CG)
   ISIF   =      2    stress and relaxation
   IWAVPR =     11    prediction:  0-non 1-charg 2-wave 3-comb
   ISYM   =      2    0-nonsym 1-usesym 2-fastsym
   LCORR  =      T    Harris-Foulkes like correction to forces

   POTIM  = 0.5000    time-step for ionic-motion
   TEIN   =    0.0    initial temperature
   TEBEG  =    0.0;   TEEND  =   0.0 temperature during run
   SMASS  =  -3.00    Nose mass-parameter (am)
   estimated Nose-frequenzy (Omega)   =  0.10E-29 period in steps = 0.13E+47 mass=  -0.248E-26a.u.
   SCALEE = 1.0000    scale energy and forces
   NPACO  =    256;   APACO  = 10.0  distance and # of slots for P.C.
   PSTRESS=    0.0 pullay stress

  Mass of Ions in am
   POMASS =  28.09
  Ionic Valenz
   ZVAL   =   4.00
  Atomic Wigner-Seitz radii
   RWIGS  =  -1.00
  virtual crystal weights 
   VCA    =   1.00
   NELECT =     256.0000    total number of electrons
   NUPDOWN=      -1.0000    fix difference up-down

 DOS related values:
   EMIN   =  10.00;   EMAX   =-10.00  energy-range for DOS
   EFERMI =   0.00;   METHOD = LEGACY      
   ISMEAR =     1;   SIGMA  =   0.20  broadening in eV -4-tet -1-fermi 0-gaus

 Electronic relaxation 2 (details)
   IALGO  =     68    algorithm
   LDIAG  =      T    sub-space diagonalisation (order eigenvalues)
   LSUBROT=      F    optimize rotation matrix (better conditioning)
   TURBO    =      0    0=normal 1=particle mesh
   IRESTART =      0    0=no restart 2=restart with 2 vectors
   NREBOOT  =      0    no. of reboots
   NMIN     =      0    reboot dimension
   EREF     =   0.00    reference energy to select bands
   IMIX   =      4    mixing-type and parameters
     AMIX     =   0.40;   BMIX     =  1.00
     AMIX_MAG =   1.60;   BMIX_MAG =  1.00
     AMIN     =   0.10
     WC   =   100.;   INIMIX=   1;  MIXPRE=   1;  MAXMIX= -45

 Intra band minimization:
   WEIMIN = 0.0010     energy-eigenvalue tresh-hold
   EBREAK =  0.15E-08  absolut break condition
   DEPER  =   0.30     relativ break condition  

   TIME   =   0.40     timestep for ELM

  volume/ion in A,a.u.               =      18.25       123.13
  Fermi-wavevector in a.u.,A,eV,Ry     =   0.987133  1.865410 13.257936  0.974431
  Thomas-Fermi vector in A             =   2.118564
 
 Write flags
   LWAVE        =      F    write WAVECAR
   LDOWNSAMPLE  =      F    k-point downsampling of WAVECAR
   LCHARG       =      F    write CHGCAR
   LVTOT        =      F    write LOCPOT, total local potential
   LVHAR        =      F    write LOCPOT, Hartree potential only
   WRT_POTENTIAL= false  ! write potential to hdf5 file
   LELF         =      F    write electronic localiz. function (ELF)
   LORBIT       =      0    0 simple, 1 ext, 2 COOP (PROOUT), +10 PAW based schemes


 Dipole corrections
   LMONO      =      F    monopole corrections only (constant potential shift)
   LDIPOL     =      F    correct potential (dipole corrections)
   IDIPOL     =      0    1-x, 2-y, 3-z, 4-all directions 
   EPSILON    =  1.0000000 bulk dielectric constant
   LVACPOTAV  =      F  vacuum potentials using an averaging scheme for the charge density
   VACPOTFLAT =  0.1000000 required flatness to determine vacuum potential
 Exchange correlation treatment:
   GGA     = PS    functional components
   XC_C    = 1    coefficients multiplying the functional components
   LIBXC   =     F    Libxc                    
   VOSKOWN =     0    Vosko Wilk Nusair interpolation
   LHFCALC =     F    Hartree Fock is set to
   LHFONE  =     F    Hartree Fock one center treatment
   AEXX    =    0.0000 exact exchange contribution

 Parameters of functionals:
   PS:
     No parameter
 
 Van der Waals corrections
   IVDW    =     0    specifies the selected vdW correction

 Linear response parameters
   LEPSILON=     F    determine dielectric tensor
   LRPA    =     F    only Hartree local field effects (RPA)
   LNABLA  =     F    use nabla operator in PAW spheres
   LVEL    =     F    velocity operator in full k-point grid
   CSHIFT  =0.1000    complex shift for real part using Kramers Kronig
   OMEGAMAX=  -1.0    maximum frequency
   DEG_THRESHOLD= 0.2000000E-02 threshold for treating states as degnerate
   RTIME   =   -0.100 relaxation time in fs
  (WPLASMAI=    0.000 imaginary part of plasma frequency in eV, 0.658/RTIME)
   DFIELD  = 0.0000000 0.0000000 0.0000000 field for delta impulse in time
 
  Optional k-point grid parameters
   LKPOINTS_OPT  =     F    use optional k-point grid
   KPOINTS_OPT_MODE=     1    mode for optional k-point grid
 
 Orbital magnetization related:
   ORBITALMAG=     F  switch on orbital magnetization
   LCHIMAG   =     F  perturbation theory with respect to B field
   DQ        =  0.001000  dq finite difference perturbation B field
   LLRAUG    =     F  two centre corrections for induced B field
   LBONE     =     F  B-component reconstruction in AE one-centre
   LVGVCALC  =     T  calculate vGv susceptibility
   LVGVAPPL  =     F  apply vGv susceptibility instead of pGv for G=0

 Random number generation:
   RANDOM_GENERATOR = DEFAULT
   PCG_SEED         = not used


--------------------------------------------------------------------------------------------------------


 conjugate gradient relaxation of ions
 charge density and potential will be updated during run
 non-spin polarized calculation
 RMM-DIIS sequential band-by-band and
  variant of blocked Davidson during initial phase
 perform sub-space diagonalisation
    before iterative eigenvector-optimisation
 modified Broyden-mixing scheme, WC =      100.0
 initial mixing is a Kerker type mixing with AMIX =  0.4000 and BMIX =      1.0000
 Hartree-type preconditioning will be used
 using additional bands           34
 real space projection scheme for non local part
 use partial core corrections
 calculate Harris-corrections to forces 
   (improved forces if not selfconsistent)
 use gradient corrections 
 use of overlap-Matrix (Vanderbilt PP)
 Methfessel and Paxton  Order N= 1 SIGMA  =   0.20


--------------------------------------------------------------------------------------------------------


  energy-cutoff  :      400.00
  volume of cell :     1167.72
      direct lattice vectors                 reciprocal lattice vectors
    10.425055540 -0.079379012  0.000000000     0.095928229  0.000719465  0.000000000
    -0.079379012 10.583813563  0.000000000     0.000719465  0.094489298  0.000000000
     0.000000000  0.000000000 10.583813563     0.000000000  0.000000000  0.094483902

  length of vectors
    10.425357741 10.584111232 10.583813563     0.095930927  0.094492037  0.094483902


 
 k-points in units of 2pi/SCALE and weight: Automatic mesh                          
   0.00000000  0.00000000  0.00000000       0.125
   0.04796412  0.00035973  0.00000000       0.125
   0.00035973  0.04724466  0.00000000       0.125
   0.04832385  0.04760439  0.00000000       0.125
   0.00000000  0.00000000  0.04724196       0.125
   0.04796412  0.00035973  0.04724196       0.125
   0.00035973  0.04724466  0.04724196       0.125
   0.04832385  0.04760439  0.04724196       0.125
 
 k-points in reciprocal lattice and weights: Automatic mesh                          
   0.00000000  0.00000000  0.00000000       0.125
   0.50000000 -0.00000000  0.00000000       0.125
  -0.00000000  0.50000000  0.00000000       0.125
   0.50000000  0.50000000  0.00000000       0.125
   0.00000000  0.00000000  0.50000000       0.125
   0.50000000 -0.00000000  0.50000000       0.125
  -0.00000000  0.50000000  0.50000000       0.125
   0.50000000  0.50000000  0.50000000       0.125
 
 position of ions in fractional coordinates (direct lattice) 
   0.00000000  0.00000000  0.00000000
   0.00000000  0.00000000  0.50000000
   0.00000000  0.50000000  0.00000000
   0.00000000  0.50000000  0.50000000
   0.50000000  0.00000000  0.00000000
   0.50000000  0.00000000  0.50000000
   0.50000000  0.50000000  0.00000000
   0.50000000  0.50000000  0.50000000
   0.37500000  0.37500000  0.12500000
   0.37500000  0.37500000  0.62500000
   0.37500000  0.87500000  0.12500000
   0.37500000  0.87500000  0.62500000
   0.87500000  0.37500000  0.12500000
   0.87500000  0.37500000  0.62500000
   0.87500000  0.87500000  0.12500000
   0.87500000  0.87500000  0.62500000
   0.00000000  0.25000000  0.25000000
   0.00000000  0.25000000  0.75000000
   0.00000000  0.75000000  0.25000000
   0.00000000  0.75000000  0.75000000
   0.50000000  0.25000000  0.25000000
   0.50000000  0.25000000  0.75000000
   0.50000000  0.75000000  0.25000000
   0.50000000  0.75000000  0.75000000
   0.37500000  0.12500000  0.37500000
   0.37500000  0.12500000  0.87500000
   0.37500000  0.62500000  0.37500000
   0.37500000  0.62500000  0.87500000
   0.87500000  0.12500000  0.37500000
   0.87500000  0.12500000  0.87500000
   0.87500000  0.62500000  0.37500000
   0.87500000  0.62500000  0.87500000
   0.25000000  0.00000000  0.25000000
   0.25000000  0.00000000  0.75000000
   0.25000000  0.50000000  0.25000000
   0.25000000  0.50000000  0.75000000
   0.75000000  0.00000000  0.25000000
   0.75000000  0.00000000  0.75000000
   0.75000000  0.50000000  0.25000000
   0.75000000  0.50000000  0.75000000
   0.12500000  0.37500000  0.37500000
   0.12500000  0.37500000  0.87500000
   0.12500000  0.87500000  0.37500000
   0.12500000  0.87500000  0.87500000
   0.62500000  0.37500000  0.37500000
   0.62500000  0.37500000  0.87500000
   0.62500000  0.87500000  0.37500000
   0.62500000  0.87500000  0.87500000
   0.25000000  0.25000000  0.00000000
   0.25000000  0.25000000  0.50000000
   0.25000000  0.75000000  0.00000000
   0.25000000  0.75000000  0.50000000
   0.75000000  0.25000000  0.00000000
   0.75000000  0.25000000  0.50000000
   0.75000000  0.75000000  0.00000000
   0.75000000  0.75000000  0.50000000
   0.12500000  0.12500000  0.12500000
   0.12500000  0.12500000  0.62500000
   0.12500000  0.62500000  0.12500000
   0.12500000  0.62500000  0.62500000
   0.62500000  0.12500000  0.12500000
   0.62500000  0.12500000  0.62500000
   0.62500000  0.62500000  0.12500000
   0.62500000  0.62500000  0.62500000
 
 position of ions in cartesian coordinates  (Angst):
   0.00000000  0.00000000  0.00000000
   0.00000000  0.00000000  5.29190678
  -0.03968951  5.29190678  0.00000000
  -0.03968951  5.29190678  5.29190678
   5.21252777 -0.03968951  0.00000000
   5.21252777 -0.03968951  5.29190678
   5.17283826  5.25221728  0.00000000
   5.17283826  5.25221728  5.29190678
   3.87962870  3.93916296  1.32297670
   3.87962870  3.93916296  6.61488348
   3.83993919  9.23106974  1.32297670
   3.83993919  9.23106974  6.61488348
   9.09215647  3.89947345  1.32297670
   9.09215647  3.89947345  6.61488348
   9.05246696  9.19138023  1.32297670
   9.05246696  9.19138023  6.61488348
  -0.01984475  2.64595339  2.64595339
  -0.01984475  2.64595339  7.93786017
  -0.05953426  7.93786017  2.64595339
  -0.05953426  7.93786017  7.93786017
   5.19268302  2.60626388  2.64595339
   5.19268302  2.60626388  7.93786017
   5.15299351  7.89817067  2.64595339
   5.15299351  7.89817067  7.93786017
   3.89947345  1.29320957  3.96893009
   3.89947345  1.29320957  9.26083687
   3.85978395  6.58511635  3.96893009
   3.85978395  6.58511635  9.26083687
   9.11200122  1.25352006  3.96893009
   9.11200122  1.25352006  9.26083687
   9.07231171  6.54542684  3.96893009
   9.07231171  6.54542684  9.26083687
   2.60626388 -0.01984475  2.64595339
   2.60626388 -0.01984475  7.93786017
   2.56657438  5.27206203  2.64595339
   2.56657438  5.27206203  7.93786017
   7.81879165 -0.05953426  2.64595339
   7.81879165 -0.05953426  7.93786017
   7.77910215  5.23237252  2.64595339
   7.77910215  5.23237252  7.93786017
   1.27336481  3.95900771  3.96893009
   1.27336481  3.95900771  9.26083687
   1.23367531  9.25091449  3.96893009
   1.23367531  9.25091449  9.26083687
   6.48589258  3.91931820  3.96893009
   6.48589258  3.91931820  9.26083687
   6.44620308  9.21122499  3.96893009
   6.44620308  9.21122499  9.26083687
   2.58641913  2.62610864  0.00000000
   2.58641913  2.62610864  5.29190678
   2.54672963  7.91801542  0.00000000
   2.54672963  7.91801542  5.29190678
   7.79894690  2.58641913  0.00000000
   7.79894690  2.58641913  5.29190678
   7.75925740  7.87832591  0.00000000
   7.75925740  7.87832591  5.29190678
   1.29320957  1.31305432  1.32297670
   1.29320957  1.31305432  6.61488348
   1.25352006  6.60496110  1.32297670
   1.25352006  6.60496110  6.61488348
   6.50573734  1.27336481  1.32297670
   6.50573734  1.27336481  6.61488348
   6.46604783  6.56527159  1.32297670
   6.46604783  6.56527159  6.61488348
 


--------------------------------------------------------------------------------------------------------


 k-point     1 :   0.0000 0.0000 0.0000  plane waves:   21207
 k-point     2 :   0.5000-0.0000 0.0000  plane waves:   21248
 k-point     3 :  -0.0000 0.5000 0.0000  plane waves:   21192
 k-point     4 :   0.5000 0.5000 0.0000  plane waves:   21218
 k-point     5 :   0.0000 0.0000 0.5000  plane waves:   21174
 k-point     6 :   0.5000-0.0000 0.5000  plane waves:   21232
 k-point     7 :  -0.0000 0.5000 0.5000  plane waves:   21224
 k-point     8 :   0.5000 0.5000 0.5000  plane waves:   21224

 maximum and minimum number of plane-waves per node :      1801     1736

 maximum number of plane-waves:     21248
 maximum index in each direction: 
   IXMAX=   16   IYMAX=   17   IZMAX=   17
   IXMIN=  -17   IYMIN=  -17   IZMIN=  -17


 real space projection operators:
  total allocation   :      12576.50 KBytes
  max/ min on nodes  :       1091.75        908.75


 parallel 3D FFT for wavefunctions:
    minimum data exchange during FFTs selected (reduces bandwidth)
 parallel 3D FFT for charge:
    minimum data exchange during FFTs selected (reduces bandwidth)


 total amount of memory used by VASP MPI-rank0    78704. kBytes
=======================================================================

   base      :      30000. kBytes
   nonlr-proj:       4862. kBytes
   fftplans  :      17991. kBytes
   grid      :       6881. kBytes
   one-center:         18. kBytes
   wavefun   :      18952. kBytes
 
     INWAV:  cpu time      0.0000: real time      0.0000
 Broyden mixing: mesh for mixing (old mesh)
   NGX = 33   NGY = 35   NGZ = 35
  (NGX  =140   NGY  =140   NGZ  =140)
  gives a total of  40425 points

 initial charge density was supplied:
 charge density of overlapping atoms calculated
 number of electron     256.0000000 magnetization 
 keeping initial charge density in first step


--------------------------------------------------------------------------------------------------------


 Maximum index for non-local projection operator          294
 Maximum index for augmentation-charges         3913 (set IRDMAX)


--------------------------------------------------------------------------------------------------------


 First call to EWALD:  gamma=   0.168
 Maximum number of real-space cells 3x 3x 3
 Maximum number of reciprocal cells 3x 3x 3

    FEWALD:  cpu time      0.0029: real time      0.0029


--------------------------------------- Ionic step        1  -------------------------------------------




--------------------------------------- Iteration      1(   1)  ---------------------------------------


    POTLOK:  cpu time      0.0813: real time      0.0842
    SETDIJ:  cpu time      0.0844: real time      0.0846
     EDDAV:  cpu time      1.2660: real time      1.3279
       DOS:  cpu time      0.0038: real time      0.0039
    --------------------------------------------
      LOOP:  cpu time      1.4355: real time      1.5006

 eigenvalue-minimisations  :  2592
 total energy-change (2. order) : 0.5801190E+03  (-0.8553178E+04)
 number of electron     256.0000000 magnetization 
 augmentation part      256.0000000 magnetization 

 Free energy of the ion-electron system (eV)
  ---------------------------------------------------
  alpha Z        PSCENC =       118.08004641
  Ewald energy   TEWEN  =     -7542.88331894
  -Hartree energ DENC   =      -309.09178946
  -exchange      EXHF   =         0.00000000
  -V(xc)+E(xc)   XCENC  =      -547.45671587
  PAW double counting   =      5598.62625415    -4492.17844134
  entropy T*S    EENTRO =        -0.00328762
  eigenvalues    EBANDS =      1190.23036924
  atomic energy  EATOM  =      6564.79586099
  Solvation  Ediel_sol  =         0.00000000
  ---------------------------------------------------
  free energy    TOTEN  =       580.11897758 eV

  energy without entropy =      580.12226520  energy(sigma->0) =      580.12007345


--------------------------------------------------------------------------------------------------------




--------------------------------------- Iteration      1(   2)  ---------------------------------------


     EDDAV:  cpu time      1.3017: real time      1.3153
       DOS:  cpu time      0.0013: real time      0.0013
    --------------------------------------------
      LOOP:  cpu time      1.3030: real time      1.3166

 eigenvalue-minimisations  :  3082
 total energy-change (2. order) :-0.8868389E+03  (-0.8395463E+03)
 number of electron     256.0000000 magnetization 
 augmentation part      256.0000000 magnetization 

 Free energy of the ion-electron system (eV)
  ---------------------------------------------------
  alpha Z        PSCENC =       118.08004641
  Ewald energy   TEWEN  =     -7542.88331894
  -Hartree energ DENC   =      -309.09178946
  -exchange      EXHF   =         0.00000000
  -V(xc)+E(xc)   XCENC  =      -547.45671587
  PAW double counting   =      5598.62625415    -4492.17844134
  entropy T*S    EENTRO =        -0.01192081
  eigenvalues    EBANDS =       303.40009181
  atomic energy  EATOM  =      6564.79586099
  Solvation  Ediel_sol  =         0.00000000
  ---------------------------------------------------
  free energy    TOTEN  =      -306.71993304 eV

  energy without entropy =     -306.70801223  energy(sigma->0) =     -306.71595944


--------------------------------------------------------------------------------------------------------




--------------------------------------- Iteration      1(   3)  ---------------------------------------


     EDDAV:  cpu time      1.3213: real time      1.3261
       DOS:  cpu time      0.0018: real time      0.0018
    --------------------------------------------
      LOOP:  cpu time      1.3231: real time      1.3279

 eigenvalue-minimisations  :  3144
 total energy-change (2. order) :-0.6455467E+02  (-0.6313196E+02)
 number of electron     256.0000000 magnetization 
 augmentation part      256.0000000 magnetization 

 Free energy of the ion-electron system (eV)
  ---------------------------------------------------
  alpha Z        PSCENC =       118.08004641
  Ewald energy   TEWEN  =     -7542.88331894
  -Hartree energ DENC   =      -309.09178946
  -exchange      EXHF   =         0.00000000
  -V(xc)+E(xc)   XCENC  =      -547.45671587
  PAW double counting   =      5598.62625415    -4492.17844134
  entropy T*S    EENTRO =         0.00862765
  eigenvalues    EBANDS =       238.82487323
  atomic energy  EATOM  =      6564.79586099
  Solvation  Ediel_sol  =         0.00000000
  ---------------------------------------------------
  free energy    TOTEN  =      -371.27460316 eV

  energy without entropy =     -371.28323081  energy(sigma->0) =     -371.27747905


--------------------------------------------------------------------------------------------------------




--------------------------------------- Iteration      1(   4)  ---------------------------------------


     EDDAV:  cpu time      1.3318: real time      1.3503
       DOS:  cpu time      0.0013: real time      0.0013
    --------------------------------------------
      LOOP:  cpu time      1.3331: real time      1.3516

 eigenvalue-minimisations  :  3176
 total energy-change (2. order) :-0.1661554E+01  (-0.1650550E+01)
 number of electron     256.0000000 magnetization 
 augmentation part      256.0000000 magnetization 

 Free energy of the ion-electron system (eV)
  ---------------------------------------------------
  alpha Z        PSCENC =       118.08004641
  Ewald energy   TEWEN  =     -7542.88331894
  -Hartree energ DENC   =      -309.09178946
  -exchange      EXHF   =         0.00000000
  -V(xc)+E(xc)   XCENC  =      -547.45671587
  PAW double counting   =      5598.62625415    -4492.17844134
  entropy T*S    EENTRO =         0.00841483
  eigenvalues    EBANDS =       237.16353249
  atomic energy  EATOM  =      6564.79586099
  Solvation  Ediel_sol  =         0.00000000
  ---------------------------------------------------
  free energy    TOTEN  =      -372.93615673 eV

  energy without entropy =     -372.94457156  energy(sigma->0) =     -372.93896167


--------------------------------------------------------------------------------------------------------




--------------------------------------- Iteration      1(   5)  ---------------------------------------


     EDDAV:  cpu time      1.2979: real time      1.3138
       DOS:  cpu time      0.0015: real time      0.0015
    CHARGE:  cpu time      0.2456: real time      0.2469
    MIXING:  cpu time      0.0072: real time      0.0072
    --------------------------------------------
      LOOP:  cpu time      1.5523: real time      1.5694

 eigenvalue-minimisations  :  3104
 total energy-change (2. order) :-0.4532176E-01  (-0.4521767E-01)
 number of electron     255.9999998 magnetization 
 augmentation part      -15.1977981 magnetization 

 Broyden mixing:
  rms(total) = 0.31720E+01    rms(broyden)= 0.31720E+01
  rms(prec ) = 0.34889E+01
  weight for this iteration     100.00

 Free energy of the ion-electron system (eV)
  ---------------------------------------------------
  alpha Z        PSCENC =       118.08004641
  Ewald energy   TEWEN  =     -7542.88331894
  -Hartree energ DENC   =      -309.09178946
  -exchange      EXHF   =         0.00000000
  -V(xc)+E(xc)   XCENC  =      -547.45671587
  PAW double counting   =      5598.62625415    -4492.17844134
  entropy T*S    EENTRO =         0.00838386
  eigenvalues    EBANDS =       237.11824170
  atomic energy  EATOM  =      6564.79586099
  Solvation  Ediel_sol  =         0.00000000
  ---------------------------------------------------
  free energy    TOTEN  =      -372.98147849 eV

  energy without entropy =     -372.98986235  energy(sigma->0) =     -372.98427311


--------------------------------------------------------------------------------------------------------




--------------------------------------- Iteration      1(   6)  ---------------------------------------


    POTLOK:  cpu time      0.0749: real time      0.0888
    SETDIJ:  cpu time      0.0759: real time      0.0761
    EDDIAG:  cpu time      0.1323: real time      0.1327
  RMM-DIIS:  cpu time      0.6945: real time      0.6962
    ORTHCH:  cpu time      0.0194: real time      0.0194
       DOS:  cpu time      0.0015: real time      0.0015
    CHARGE:  cpu time      0.2355: real time      0.2361
    MIXING:  cpu time      0.0061: real time      0.0101
    --------------------------------------------
      LOOP:  cpu time      1.2402: real time      1.2609

 eigenvalue-minimisations  :  2592
 total energy-change (2. order) : 0.6508960E+01  (-0.3489046E+00)
 number of electron     255.9999998 magnetization 
 augmentation part      -14.9992864 magnetization 

 Broyden mixing:
  rms(total) = 0.19171E+01    rms(broyden)= 0.19171E+01
  rms(prec ) = 0.20928E+01
  weight for this iteration     100.00

 eigenvalues of (default mixing * dielectric matrix)
  average eigenvalue GAMMA=   2.5206
  2.5206

 Free energy of the ion-electron system (eV)
  ---------------------------------------------------
  alpha Z        PSCENC =       118.08004641
  Ewald energy   TEWEN  =     -7542.88331894
  -Hartree energ DENC   =      -359.91587070
  -exchange      EXHF   =         0.00000000
  -V(xc)+E(xc)   XCENC  =      -539.38931791
  PAW double counting   =     13721.29079355   -12619.17215376
  entropy T*S    EENTRO =         0.02599429
  eigenvalues    EBANDS =       290.69544774
  atomic energy  EATOM  =      6564.79586099
  Solvation  Ediel_sol  =         0.00000000
  ---------------------------------------------------
  free energy    TOTEN  =      -366.47251832 eV

  energy without entropy =     -366.49851262  energy(sigma->0) =     -366.48118309


--------------------------------------------------------------------------------------------------------




--------------------------------------- Iteration      1(   7)  ---------------------------------------


    POTLOK:  cpu time      0.0855: real time      0.0969
    SETDIJ:  cpu time      0.1019: real time      0.1021
    EDDIAG:  cpu time      0.1426: real time      0.1430
  RMM-DIIS:  cpu time      0.7054: real time      0.7071
    ORTHCH:  cpu time      0.0187: real time      0.0188
       DOS:  cpu time      0.0024: real time      0.0024
    CHARGE:  cpu time      0.2362: real time      0.2368
    MIXING:  cpu time      0.0058: real time      0.0073
    --------------------------------------------
      LOOP:  cpu time      1.2985: real time      1.3143

 eigenvalue-minimisations  :  2643
 total energy-change (2. order) : 0.2770756E+01  (-0.8715685E+00)
 number of electron     255.9999998 magnetization 
 augmentation part      -14.7196704 magnetization 

 Broyden mixing:
  rms(total) = 0.12933E+00    rms(broyden)= 0.12933E+00
  rms(prec ) = 0.16229E+00
  weight for this iteration     100.00

 eigenvalues of (default mixing * dielectric matrix)
  average eigenvalue GAMMA=   2.3295
  2.3295  2.3295

 Free energy of the ion-electron system (eV)
  ---------------------------------------------------
  alpha Z        PSCENC =       118.08004641
  Ewald energy   TEWEN  =     -7542.88331894
  -Hartree energ DENC   =      -443.43401526
  -exchange      EXHF   =         0.00000000
  -V(xc)+E(xc)   XCENC  =      -525.53634460
  PAW double counting   =     34169.05758468   -33073.06568225
  entropy T*S    EENTRO =         0.01649927
  eigenvalues    EBANDS =       369.26760705
  atomic energy  EATOM  =      6564.79586099
  Solvation  Ediel_sol  =         0.00000000
  ---------------------------------------------------
  free energy    TOTEN  =      -363.70176263 eV

  energy without entropy =     -363.71826190  energy(sigma->0) =     -363.70726239


--------------------------------------------------------------------------------------------------------




--------------------------------------- Iteration      1(   8)  ---------------------------------------


    POTLOK:  cpu time      0.0864: real time      0.0881
    SETDIJ:  cpu time      0.0764: real time      0.0766
    EDDIAG:  cpu time      0.1319: real time      0.1322
  RMM-DIIS:  cpu time      0.6948: real time      0.6973
    ORTHCH:  cpu time      0.0193: real time      0.0193
       DOS:  cpu time      0.0019: real time      0.0019
    CHARGE:  cpu time      0.2380: real time      0.2385
    MIXING:  cpu time      0.0050: real time      0.0052
    --------------------------------------------
      LOOP:  cpu time      1.2536: real time      1.2592

 eigenvalue-minimisations  :  2617
 total energy-change (2. order) :-0.2933556E-01  (-0.8275265E-01)
 number of electron     255.9999998 magnetization 
 augmentation part      -14.7833533 magnetization 

 Broyden mixing:
  rms(total) = 0.58237E-01    rms(broyden)= 0.58237E-01
  rms(prec ) = 0.62919E-01
  weight for this iteration     100.00

 eigenvalues of (default mixing * dielectric matrix)
  average eigenvalue GAMMA=   2.0731
  2.5667  1.8263  1.8263

 Free energy of the ion-electron system (eV)
  ---------------------------------------------------
  alpha Z        PSCENC =       118.08004641
  Ewald energy   TEWEN  =     -7542.88331894
  -Hartree energ DENC   =      -432.86496035
  -exchange      EXHF   =         0.00000000
  -V(xc)+E(xc)   XCENC  =      -526.45059140
  PAW double counting   =     33979.32403726   -32882.11638955
  entropy T*S    EENTRO =         0.02192387
  eigenvalues    EBANDS =       358.36229351
  atomic energy  EATOM  =      6564.79586099
  Solvation  Ediel_sol  =         0.00000000
  ---------------------------------------------------
  free energy    TOTEN  =      -363.73109819 eV

  energy without entropy =     -363.75302206  energy(sigma->0) =     -363.73840614


--------------------------------------------------------------------------------------------------------




--------------------------------------- Iteration      1(   9)  ---------------------------------------


    POTLOK:  cpu time      0.0722: real time      0.0888
    SETDIJ:  cpu time      0.0777: real time      0.0779
    EDDIAG:  cpu time      0.1324: real time      0.1327
  RMM-DIIS:  cpu time      0.7151: real time      0.7173
    ORTHCH:  cpu time      0.0191: real time      0.0191
       DOS:  cpu time      0.0016: real time      0.0016
    CHARGE:  cpu time      0.2345: real time      0.2350
    MIXING:  cpu time      0.0071: real time      0.0071
    --------------------------------------------
      LOOP:  cpu time      1.2597: real time      1.2797

 eigenvalue-minimisations  :  2674
 total energy-change (2. order) :-0.2499946E-01  (-0.2505019E-01)
 number of electron     255.9999998 magnetization 
 augmentation part      -14.7654552 magnetization 

 Broyden mixing:
  rms(total) = 0.63953E-01    rms(broyden)= 0.63953E-01
  rms(prec ) = 0.73263E-01
  weight for this iteration     100.00

 eigenvalues of (default mixing * dielectric matrix)
  average eigenvalue GAMMA=   1.7488
  2.5620  2.0756  2.0756  0.2822

 Free energy of the ion-electron system (eV)
  ---------------------------------------------------
  alpha Z        PSCENC =       118.08004641
  Ewald energy   TEWEN  =     -7542.88331894
  -Hartree energ DENC   =      -436.96044728
  -exchange      EXHF   =         0.00000000
  -V(xc)+E(xc)   XCENC  =      -525.91072801
  PAW double counting   =     34504.90775703   -33408.07007597
  entropy T*S    EENTRO =         0.02038204
  eigenvalues    EBANDS =       362.26442608
  atomic energy  EATOM  =      6564.79586099
  Solvation  Ediel_sol  =         0.00000000
  ---------------------------------------------------
  free energy    TOTEN  =      -363.75609764 eV

  energy without entropy =     -363.77647968  energy(sigma->0) =     -363.76289166


--------------------------------------------------------------------------------------------------------




--------------------------------------- Iteration      1(  10)  ---------------------------------------


    POTLOK:  cpu time      0.0843: real time      0.0939
    SETDIJ:  cpu time      0.0721: real time      0.0723
    EDDIAG:  cpu time      0.1297: real time      0.1300
  RMM-DIIS:  cpu time      0.7093: real time      0.7111
    ORTHCH:  cpu time      0.0190: real time      0.0191
       DOS:  cpu time      0.0018: real time      0.0018
    CHARGE:  cpu time      0.2346: real time      0.2352
    MIXING:  cpu time      0.0061: real time      0.0062
    --------------------------------------------
      LOOP:  cpu time      1.2571: real time      1.2695

 eigenvalue-minimisations  :  2701
 total energy-change (2. order) :-0.5695994E-02  (-0.4541627E-02)
 number of electron     255.9999998 magnetization 
 augmentation part      -14.7708712 magnetization 

 Broyden mixing:
  rms(total) = 0.97393E-01    rms(broyden)= 0.97392E-01
  rms(prec ) = 0.10612E+00
  weight for this iteration     100.00

 eigenvalues of (default mixing * dielectric matrix)
  average eigenvalue GAMMA=   1.6702
  2.6862  2.3388  1.8037  0.7611  0.7611

 Free energy of the ion-electron system (eV)
  ---------------------------------------------------
  alpha Z        PSCENC =       118.08004641
  Ewald energy   TEWEN  =     -7542.88331894
  -Hartree energ DENC   =      -437.30565930
  -exchange      EXHF   =         0.00000000
  -V(xc)+E(xc)   XCENC  =      -525.87422139
  PAW double counting   =     34588.85949307   -33492.03510509
  entropy T*S    EENTRO =         0.02018278
  eigenvalues    EBANDS =       362.58092782
  atomic energy  EATOM  =      6564.79586099
  Solvation  Ediel_sol  =         0.00000000
  ---------------------------------------------------
  free energy    TOTEN  =      -363.76179364 eV

  energy without entropy =     -363.78197642  energy(sigma->0) =     -363.76852123


--------------------------------------------------------------------------------------------------------




--------------------------------------- Iteration      1(  11)  ---------------------------------------


    POTLOK:  cpu time      0.0801: real time      0.0950
    SETDIJ:  cpu time      0.0752: real time      0.0753
    EDDIAG:  cpu time      0.1298: real time      0.1301
  RMM-DIIS:  cpu time      0.6928: real time      0.6945
    ORTHCH:  cpu time      0.0190: real time      0.0190
       DOS:  cpu time      0.0024: real time      0.0024
    CHARGE:  cpu time      0.2356: real time      0.2362
    MIXING:  cpu time      0.0064: real time      0.0064
    --------------------------------------------
      LOOP:  cpu time      1.2413: real time      1.2589

 eigenvalue-minimisations  :  2592
 total energy-change (2. order) : 0.6309720E-02  (-0.1741588E-02)
 number of electron     255.9999998 magnetization 
 augmentation part      -14.7872759 magnetization 

 Broyden mixing:
  rms(total) = 0.53612E-01    rms(broyden)= 0.53612E-01
  rms(prec ) = 0.54063E-01
  weight for this iteration     100.00

 eigenvalues of (default mixing * dielectric matrix)
  average eigenvalue GAMMA=   1.5180
  2.6009  2.6009  1.6372  1.1608  0.7929  0.3151

 Free energy of the ion-electron system (eV)
  ---------------------------------------------------
  alpha Z        PSCENC =       118.08004641
  Ewald energy   TEWEN  =     -7542.88331894
  -Hartree energ DENC   =      -434.11871203
  -exchange      EXHF   =         0.00000000
  -V(xc)+E(xc)   XCENC  =      -526.13462090
  PAW double counting   =     34423.16303980   -33326.05259957
  entropy T*S    EENTRO =         0.02192214
  eigenvalues    EBANDS =       359.37289818
  atomic energy  EATOM  =      6564.79586099
  Solvation  Ediel_sol  =         0.00000000
  ---------------------------------------------------
  free energy    TOTEN  =      -363.75548392 eV

  energy without entropy =     -363.77740606  energy(sigma->0) =     -363.76279130


--------------------------------------------------------------------------------------------------------




--------------------------------------- Iteration      1(  12)  ---------------------------------------


    POTLOK:  cpu time      0.0800: real time      0.0970
    SETDIJ:  cpu time      0.0720: real time      0.0722
    EDDIAG:  cpu time      0.1299: real time      0.1302
  RMM-DIIS:  cpu time      0.6954: real time      0.6971
    ORTHCH:  cpu time      0.0190: real time      0.0190
       DOS:  cpu time      0.0018: real time      0.0018
    CHARGE:  cpu time      0.2353: real time      0.2359
    MIXING:  cpu time      0.0062: real time      0.0062
    --------------------------------------------
      LOOP:  cpu time      1.2396: real time      1.2596

 eigenvalue-minimisations  :  2624
 total energy-change (2. order) :-0.2164130E-03  (-0.1961312E-03)
 number of electron     255.9999998 magnetization 
 augmentation part      -14.7899785 magnetization 

 Broyden mixing:
  rms(total) = 0.50347E-01    rms(broyden)= 0.50347E-01
  rms(prec ) = 0.50613E-01
  weight for this iteration     100.00

 eigenvalues of (default mixing * dielectric matrix)
  average eigenvalue GAMMA=   1.4634
  2.6044  2.6044  1.9650  1.0428  0.8904  0.4645  0.6721

 Free energy of the ion-electron system (eV)
  ---------------------------------------------------
  alpha Z        PSCENC =       118.08004641
  Ewald energy   TEWEN  =     -7542.88331894
  -Hartree energ DENC   =      -434.04164121
  -exchange      EXHF   =         0.00000000
  -V(xc)+E(xc)   XCENC  =      -526.15201557
  PAW double counting   =     34344.37204178   -33247.27290414
  entropy T*S    EENTRO =         0.02194600
  eigenvalues    EBANDS =       359.32428433
  atomic energy  EATOM  =      6564.79586099
  Solvation  Ediel_sol  =         0.00000000
  ---------------------------------------------------
  free energy    TOTEN  =      -363.75570033 eV

  energy without entropy =     -363.77764633  energy(sigma->0) =     -363.76301567


--------------------------------------------------------------------------------------------------------




--------------------------------------- Iteration      1(  13)  ---------------------------------------


    POTLOK:  cpu time      0.0783: real time      0.0952
    SETDIJ:  cpu time      0.0711: real time      0.0713
    EDDIAG:  cpu time      0.1295: real time      0.1298
  RMM-DIIS:  cpu time      0.7087: real time      0.7109
    ORTHCH:  cpu time      0.0191: real time      0.0192
       DOS:  cpu time      0.0018: real time      0.0018
    CHARGE:  cpu time      0.2363: real time      0.2369
    MIXING:  cpu time      0.0061: real time      0.0061
    --------------------------------------------
      LOOP:  cpu time      1.2511: real time      1.2712

 eigenvalue-minimisations  :  2683
 total energy-change (2. order) :-0.6935774E-04  (-0.3477730E-04)
 number of electron     255.9999998 magnetization 
 augmentation part      -14.7906496 magnetization 

 Broyden mixing:
  rms(total) = 0.57053E-01    rms(broyden)= 0.57053E-01
  rms(prec ) = 0.57283E-01
  weight for this iteration     100.00

 eigenvalues of (default mixing * dielectric matrix)
  average eigenvalue GAMMA=   1.6930
  2.7334  2.7334  2.3401  2.3401  0.9559  0.9629  0.9629  0.5153

 Free energy of the ion-electron system (eV)
  ---------------------------------------------------
  alpha Z        PSCENC =       118.08004641
  Ewald energy   TEWEN  =     -7542.88331894
  -Hartree energ DENC   =      -434.08875851
  -exchange      EXHF   =         0.00000000
  -V(xc)+E(xc)   XCENC  =      -526.13796363
  PAW double counting   =     34408.54181835   -33311.44681312
  entropy T*S    EENTRO =         0.02195005
  eigenvalues    EBANDS =       359.36140870
  atomic energy  EATOM  =      6564.79586099
  Solvation  Ediel_sol  =         0.00000000
  ---------------------------------------------------
  free energy    TOTEN  =      -363.75576969 eV

  energy without entropy =     -363.77771973  energy(sigma->0) =     -363.76308637


--------------------------------------------------------------------------------------------------------




--------------------------------------- Iteration      1(  14)  ---------------------------------------


    POTLOK:  cpu time      0.0811: real time      0.0982
    SETDIJ:  cpu time      0.0750: real time      0.0752
    EDDIAG:  cpu time      0.1301: real time      0.1304
  RMM-DIIS:  cpu time      0.6988: real time      0.7005
    ORTHCH:  cpu time      0.0191: real time      0.0191
       DOS:  cpu time      0.0023: real time      0.0023
    CHARGE:  cpu time      0.2353: real time      0.2359
    MIXING:  cpu time      0.0061: real time      0.0061
    --------------------------------------------
      LOOP:  cpu time      1.2477: real time      1.2677

 eigenvalue-minimisations  :  2628
 total energy-change (2. order) : 0.1420803E-04  (-0.1025423E-04)
 number of electron     255.9999998 magnetization 
 augmentation part      -14.7905665 magnetization 

 Broyden mixing:
  rms(total) = 0.22234E-01    rms(broyden)= 0.22234E-01
  rms(prec ) = 0.22505E-01
  weight for this iteration     100.00

 eigenvalues of (default mixing * dielectric matrix)
  average eigenvalue GAMMA=   1.5563
  2.7028  2.7028  2.4965  2.1453  0.9707  0.9289  0.9289  0.5654  0.5654

 Free energy of the ion-electron system (eV)
  ---------------------------------------------------
  alpha Z        PSCENC =       118.08004641
  Ewald energy   TEWEN  =     -7542.88331894
  -Hartree energ DENC   =      -433.94975180
  -exchange      EXHF   =         0.00000000
  -V(xc)+E(xc)   XCENC  =      -526.18140923
  PAW double counting   =     34076.54471773   -32979.46640774
  entropy T*S    EENTRO =         0.02195406
  eigenvalues    EBANDS =       359.28255303
  atomic energy  EATOM  =      6564.79586099
  Solvation  Ediel_sol  =         0.00000000
  ---------------------------------------------------
  free energy    TOTEN  =      -363.75575548 eV

  energy without entropy =     -363.77770954  energy(sigma->0) =     -363.76307350


--------------------------------------------------------------------------------------------------------




--------------------------------------- Iteration      1(  15)  ---------------------------------------


    POTLOK:  cpu time      0.0841: real time      0.0951
    SETDIJ:  cpu time      0.0714: real time      0.0716
    EDDIAG:  cpu time      0.1307: real time      0.1310
  RMM-DIIS:  cpu time      0.7011: real time      0.7028
    ORTHCH:  cpu time      0.0187: real time      0.0188
       DOS:  cpu time      0.0021: real time      0.0021
    CHARGE:  cpu time      0.2353: real time      0.2358
    MIXING:  cpu time      0.0069: real time      0.0069
    --------------------------------------------
      LOOP:  cpu time      1.2502: real time      1.2640

 eigenvalue-minimisations  :  2627
 total energy-change (2. order) :-0.3919323E-04  (-0.4388025E-05)
 number of electron     255.9999998 magnetization 
 augmentation part      -14.7908826 magnetization 

 Broyden mixing:
  rms(total) = 0.10941E-01    rms(broyden)= 0.10941E-01
  rms(prec ) = 0.11144E-01
  weight for this iteration     100.00

 eigenvalues of (default mixing * dielectric matrix)
  average eigenvalue GAMMA=   1.5052
  2.7507  2.7507  2.1875  2.1875  0.8677  0.8677  1.0253  1.0253  0.8664  0.5227

 Free energy of the ion-electron system (eV)
  ---------------------------------------------------
  alpha Z        PSCENC =       118.08004641
  Ewald energy   TEWEN  =     -7542.88331894
  -Hartree energ DENC   =      -433.89807611
  -exchange      EXHF   =         0.00000000
  -V(xc)+E(xc)   XCENC  =      -526.18555085
  PAW double counting   =     34015.43194628   -32918.35406411
  entropy T*S    EENTRO =         0.02200457
  eigenvalues    EBANDS =       359.23535708
  atomic energy  EATOM  =      6564.79586099
  Solvation  Ediel_sol  =         0.00000000
  ---------------------------------------------------
  free energy    TOTEN  =      -363.75579467 eV

  energy without entropy =     -363.77779925  energy(sigma->0) =     -363.76312953


--------------------------------------------------------------------------------------------------------




--------------------------------------- Iteration      1(  16)  ---------------------------------------


    POTLOK:  cpu time      0.0785: real time      0.0949
    SETDIJ:  cpu time      0.0737: real time      0.0739
    EDDIAG:  cpu time      0.1373: real time      0.1376
  RMM-DIIS:  cpu time      0.6788: real time      0.6805
    ORTHCH:  cpu time      0.0190: real time      0.0191
       DOS:  cpu time      0.0021: real time      0.0024
    CHARGE:  cpu time      0.2372: real time      0.2378
    MIXING:  cpu time      0.0066: real time      0.0067
    --------------------------------------------
      LOOP:  cpu time      1.2332: real time      1.2528

 eigenvalue-minimisations  :  2531
 total energy-change (2. order) :-0.1942503E-04  (-0.1456928E-05)
 number of electron     255.9999998 magnetization 
 augmentation part      -14.7908605 magnetization 

 Broyden mixing:
  rms(total) = 0.81295E-02    rms(broyden)= 0.81295E-02
  rms(prec ) = 0.82386E-02
  weight for this iteration     100.00

 eigenvalues of (default mixing * dielectric matrix)
  average eigenvalue GAMMA=   1.4184
  2.7378  2.7378  2.2587  2.0370  0.9104  0.9104  1.0481  1.0481  0.8693  0.5259
  0.5183

 Free energy of the ion-electron system (eV)
  ---------------------------------------------------
  alpha Z        PSCENC =       118.08004641
  Ewald energy   TEWEN  =     -7542.88331894
  -Hartree energ DENC   =      -433.93721253
  -exchange      EXHF   =         0.00000000
  -V(xc)+E(xc)   XCENC  =      -526.17929806
  PAW double counting   =     34025.60239073   -32928.52387992
  entropy T*S    EENTRO =         0.02201781
  eigenvalues    EBANDS =       359.26757940
  atomic energy  EATOM  =      6564.79586099
  Solvation  Ediel_sol  =         0.00000000
  ---------------------------------------------------
  free energy    TOTEN  =      -363.75581410 eV

  energy without entropy =     -363.77783191  energy(sigma->0) =     -363.76315337


--------------------------------------------------------------------------------------------------------




--------------------------------------- Iteration      1(  17)  ---------------------------------------


    POTLOK:  cpu time      0.0732: real time      0.0900
    SETDIJ:  cpu time      0.0783: real time      0.0785
    EDDIAG:  cpu time      0.1329: real time      0.1332
  RMM-DIIS:  cpu time      0.6934: real time      0.6956
    ORTHCH:  cpu time      0.0194: real time      0.0194
       DOS:  cpu time      0.0042: real time      0.0042
    CHARGE:  cpu time      0.2383: real time      0.2388
    MIXING:  cpu time      0.0053: real time      0.0053
    --------------------------------------------
      LOOP:  cpu time      1.2449: real time      1.2651

 eigenvalue-minimisations  :  2573
 total energy-change (2. order) :-0.1030111E-04  (-0.9019330E-06)
 number of electron     255.9999998 magnetization 
 augmentation part      -14.7906670 magnetization 

 Broyden mixing:
  rms(total) = 0.24757E-02    rms(broyden)= 0.24757E-02
  rms(prec ) = 0.25043E-02
  weight for this iteration     100.00

 eigenvalues of (default mixing * dielectric matrix)
  average eigenvalue GAMMA=   1.6889
  3.5892  2.9460  2.3669  2.3669  1.8541  1.8541  1.0047  1.0047  0.9528  0.9528
  0.8448  0.5302

 Free energy of the ion-electron system (eV)
  ---------------------------------------------------
  alpha Z        PSCENC =       118.08004641
  Ewald energy   TEWEN  =     -7542.88331894
  -Hartree energ DENC   =      -434.00289815
  -exchange      EXHF   =         0.00000000
  -V(xc)+E(xc)   XCENC  =      -526.17282069
  PAW double counting   =     34017.27740482   -32920.19815610
  entropy T*S    EENTRO =         0.02202575
  eigenvalues    EBANDS =       359.32603150
  atomic energy  EATOM  =      6564.79586099
  Solvation  Ediel_sol  =         0.00000000
  ---------------------------------------------------
  free energy    TOTEN  =      -363.75582440 eV

  energy without entropy =     -363.77785015  energy(sigma->0) =     -363.76316632


--------------------------------------------------------------------------------------------------------




--------------------------------------- Iteration      1(  18)  ---------------------------------------


    POTLOK:  cpu time      0.0731: real time      0.0894
    SETDIJ:  cpu time      0.0732: real time      0.0734
    EDDIAG:  cpu time      0.1313: real time      0.1317
  RMM-DIIS:  cpu time      0.4601: real time      0.4612
    ORTHCH:  cpu time      0.0190: real time      0.0190
       DOS:  cpu time      0.0022: real time      0.0022
    CHARGE:  cpu time      0.2361: real time      0.2367
    MIXING:  cpu time      0.0054: real time      0.0054
    --------------------------------------------
      LOOP:  cpu time      1.0004: real time      1.0190

 eigenvalue-minimisations  :  1630
 total energy-change (2. order) : 0.1235903E-05  (-0.2077075E-06)
 number of electron     255.9999998 magnetization 
 augmentation part      -14.7906553 magnetization 

 Broyden mixing:
  rms(total) = 0.50601E-03    rms(broyden)= 0.50588E-03
  rms(prec ) = 0.51058E-03
  weight for this iteration     100.00

 eigenvalues of (default mixing * dielectric matrix)
  average eigenvalue GAMMA=   1.6513
  3.0986  3.0986  2.2687  2.2687  2.4061  2.0224  1.0593  1.0593  1.0553  1.0553
  0.9102  0.5309  0.6340

 Free energy of the ion-electron system (eV)
  ---------------------------------------------------
  alpha Z        PSCENC =       118.08004641
  Ewald energy   TEWEN  =     -7542.88331894
  -Hartree energ DENC   =      -433.99871991
  -exchange      EXHF   =         0.00000000
  -V(xc)+E(xc)   XCENC  =      -526.17510291
  PAW double counting   =     34000.75946226   -32903.67904782
  entropy T*S    EENTRO =         0.02203311
  eigenvalues    EBANDS =       359.32296364
  atomic energy  EATOM  =      6564.79586099
  Solvation  Ediel_sol  =         0.00000000
  ---------------------------------------------------
  free energy    TOTEN  =      -363.75582316 eV

  energy without entropy =     -363.77785627  energy(sigma->0) =     -363.76316753


--------------------------------------------------------------------------------------------------------




--------------------------------------- Iteration      1(  19)  ---------------------------------------


    POTLOK:  cpu time      0.0973: real time      0.1088
    SETDIJ:  cpu time      0.0861: real time      0.0863
    EDDIAG:  cpu time      0.1325: real time      0.1329
  RMM-DIIS:  cpu time      0.4454: real time      0.4465
    ORTHCH:  cpu time      0.0195: real time      0.0195
       DOS:  cpu time      0.0014: real time      0.0014
    --------------------------------------------
      LOOP:  cpu time      0.7821: real time      0.7952

 eigenvalue-minimisations  :  1549
 total energy-change (2. order) :-0.2648085E-07  (-0.3926801E-07)
 number of electron     255.9999998 magnetization 
 augmentation part      -14.7906553 magnetization 

 Free energy of the ion-electron system (eV)
  ---------------------------------------------------
  alpha Z        PSCENC =       118.08004641
  Ewald energy   TEWEN  =     -7542.88331894
  -Hartree energ DENC   =      -433.99677670
  -exchange      EXHF   =         0.00000000
  -V(xc)+E(xc)   XCENC  =      -526.17542151
  PAW double counting   =     34001.69700710   -32904.61663599
  entropy T*S    EENTRO =         0.02203326
  eigenvalues    EBANDS =       359.32138217
  atomic energy  EATOM  =      6564.79586099
  Solvation  Ediel_sol  =         0.00000000
  ---------------------------------------------------
  free energy    TOTEN  =      -363.75582319 eV

  energy without entropy =     -363.77785646  energy(sigma->0) =     -363.76316761


--------------------------------------------------------------------------------------------------------




 average (electrostatic) potential at core
  the test charge radii are     0.9892
  (the norm of the test charge is              1.0000)
       1 -81.9634       2 -81.9634       3 -81.9634       4 -81.9634       5 -81.9634
       6 -81.9634       7 -81.9634       8 -81.9634       9 -81.9634      10 -81.9634
      11 -81.9634      12 -81.9634      13 -81.9634      14 -81.9634      15 -81.9634
      16 -81.9634      17 -81.9634      18 -81.9634      19 -81.9634      20 -81.9634
      21 -81.9634      22 -81.9634      23 -81.9634      24 -81.9634      25 -81.9634
      26 -81.9634      27 -81.9634      28 -81.9634      29 -81.9634      30 -81.9634
      31 -81.9634      32 -81.9634      33 -81.9634      34 -81.9634      35 -81.9634
      36 -81.9634      37 -81.9634      38 -81.9634      39 -81.9634      40 -81.9634
      41 -81.9634      42 -81.9634      43 -81.9634      44 -81.9634      45 -81.9634
      46 -81.9634      47 -81.9634      48 -81.9634      49 -81.9634      50 -81.9634
      51 -81.9634      52 -81.9634      53 -81.9634      54 -81.9634      55 -81.9634
      56 -81.9634      57 -81.9634      58 -81.9634      59 -81.9634      60 -81.9634
      61 -81.9634      62 -81.9634      63 -81.9634      64 -81.9634
 
 
 
 E-fermi :   6.9271     XC(G=0):  -9.9131     alpha+bet :-13.1454

 val. band max:        6.8541074897   @ k =   0.0000   0.0000   0.0000
 cond. band min:       7.0186157321   @ k =   0.5000  -0.0000   0.0000
 fundamental gap:      0.1645082424
 Fermi energy:         6.9270682027

 k-point     1 :       0.0000    0.0000    0.0000
  band No.  band energies     occupation 
      1      -5.8854      2.00000
      2      -4.7206      2.00000
      3      -4.7206      2.00000
      4      -4.7201      2.00000
      5      -4.7201      2.00000
      6      -4.6890      2.00000
      7      -4.6890      2.00000
      8      -3.6875      2.00000
      9      -3.6875      2.00000
     10      -3.6638      2.00000
     11      -3.6638      2.00000
     12      -3.6638      2.00000
     13      -3.6638      2.00000
     14      -3.6408      2.00000
     15      -3.6408      2.00000
     16      -3.6408      2.00000
     17      -3.6408      2.00000
     18      -3.5930      2.00000
     19      -3.5930      2.00000
     20      -3.3425      2.00000
     21      -3.3425      2.00000
     22      -3.2331      2.00000
     23      -3.2331      2.00000
     24      -1.4706      2.00000
     25      -1.4091      2.00000
     26      -1.4091      2.00000
     27      -1.3499      2.00000
     28      -1.3068      2.00000
     29      -1.3068      2.00000
     30      -1.2522      2.00000
     31      -1.2522      2.00000
     32      -1.2183      2.00000
     33      -1.2183      2.00000
     34      -1.1466      2.00000
     35      -1.1466      2.00000
     36      -1.1466      2.00000
     37      -1.1466      2.00000
     38      -1.1072      2.00000
     39      -1.1071      2.00000
     40      -1.0749      2.00000
     41      -1.0749      2.00000
     42      -0.7189      2.00000
     43      -0.7189      2.00000
     44      -0.7027      2.00000
     45      -0.7027      2.00000
     46       1.0468      2.00000
     47       1.0468      2.00000
     48       1.0725      2.00000
     49       1.0725      2.00000
     50       1.0725      2.00000
     51       1.0725      2.00000
     52       1.0967      2.00000
     53       1.0967      2.00000
     54       1.1352      2.00000
     55       1.1352      2.00000
     56       1.1352      2.00000
     57       1.1352      2.00000
     58       2.4416      2.00000
     59       2.4416      2.00000
     60       2.4454      2.00000
     61       2.4454      2.00000
     62       2.4531      2.00000
     63       2.4531      2.00000
     64       2.4564      2.00000
     65       2.4564      2.00000
     66       2.4564      2.00000
     67       2.4564      2.00000
     68       2.4583      2.00000
     69       2.4583      2.00000
     70       2.5475      2.00000
     71       2.5475      2.00000
     72       2.5676      2.00000
     73       2.5676      2.00000
     74       2.5676      2.00000
     75       2.5676      2.00000
     76       2.5858      2.00000
     77       2.5858      2.00000
     78       2.6595      2.00000
     79       2.6595      2.00000
     80       2.6595      2.00000
     81       2.6595      2.00000
     82       3.2195      2.00000
     83       3.2195      2.00000
     84       3.2233      2.00000
     85       3.2233      2.00000
     86       3.3418      2.00000
     87       3.3418      2.00000
     88       3.5636      2.00000
     89       3.5636      2.00000
     90       3.5984      2.00000
     91       3.6901      2.00000
     92       3.6901      2.00000
     93       3.7829      2.00000
     94       4.6195      2.00000
     95       4.6195      2.00000
     96       4.6196      2.00000
     97       4.6196      2.00000
     98       4.6354      2.00000
     99       4.6354      2.00000
    100       4.7006      2.00000
    101       4.7006      2.00000
    102       4.7340      2.00000
    103       4.7340      2.00000
    104       4.8021      2.00000
    105       4.8021      2.00000
    106       5.2423      2.00000
    107       5.2423      2.00000
    108       5.2423      2.00000
    109       5.2423      2.00000
    110       5.3281      2.00000
    111       5.3281      2.00000
    112       5.3694      2.00000
    113       5.3694      2.00000
    114       5.3722      2.00000
    115       5.3722      2.00000
    116       5.3722      2.00000
    117       5.3722      2.00000
    118       5.4190      2.00000
    119       5.4190      2.00000
    120       5.4519      2.00000
    121       5.4519      2.00000
    122       5.5283      2.00000
    123       5.5283      2.00000
    124       5.6071      2.00000
    125       5.6071      2.00000
    126       6.7324      2.04424
    127       6.7362      2.03945
    128       6.8541      1.57425
    129       7.0783      0.04403
    130       7.0783      0.04403
    131       7.1116     -0.03022
    132       7.2060     -0.06392
    133       7.2060     -0.06392
    134       7.3027     -0.02323
    135       7.6292     -0.00001
    136       7.6292     -0.00001
    137       7.7534     -0.00000
    138       7.7534     -0.00000
    139       7.7541     -0.00000
    140       7.7541     -0.00000
    141       8.4838     -0.00000
    142       8.4838     -0.00000
    143       8.6267     -0.00000
    144       8.6267     -0.00000
    145       9.0664     -0.00000
    146       9.0666     -0.00000
    147       9.0670     -0.00000
    148       9.0676     -0.00000
    149       9.1652     -0.00000
    150       9.1662     -0.00000
    151       9.1894     -0.00000
    152       9.2150     -0.00000
    153       9.2155     -0.00000
    154       9.2194     -0.00000
    155       9.2216     -0.00000
    156       9.2709     -0.00000
    157       9.2749     -0.00000
    158       9.3297     -0.00000
    159       9.4528     -0.00000
    160       9.7384     -0.00000
    161       9.7779     -0.00000
    162       9.8452     -0.00000

 k-point     2 :       0.5000   -0.0000    0.0000
  band No.  band energies     occupation 
      1      -5.5836      2.00000
      2      -5.5836      2.00000
      3      -4.4662      2.00000
      4      -4.4662      2.00000
      5      -4.4431      2.00000
      6      -4.4431      2.00000
      7      -4.4431      2.00000
      8      -4.4431      2.00000
      9      -4.4190      2.00000
     10      -4.4190      2.00000
     11      -3.5310      2.00000
     12      -3.5310      2.00000
     13      -3.5310      2.00000
     14      -3.5310      2.00000
     15      -3.4665      2.00000
     16      -3.4665      2.00000
     17      -3.4665      2.00000
     18      -3.4665      2.00000
     19      -3.2378      2.00000
     20      -3.2378      2.00000
     21      -2.5057      2.00000
     22      -2.5057      2.00000
     23      -2.4380      2.00000
     24      -2.4380      2.00000
     25      -2.4380      2.00000
     26      -2.4380      2.00000
     27      -2.3689      2.00000
     28      -2.3689      2.00000
     29      -1.3692      2.00000
     30      -1.3692      2.00000
     31      -1.3479      2.00000
     32      -1.3479      2.00000
     33      -1.2556      2.00000
     34      -1.2556      2.00000
     35      -1.2364      2.00000
     36      -1.2364      2.00000
     37      -0.0965      2.00000
     38      -0.0965      2.00000
     39      -0.0474      2.00000
     40      -0.0474      2.00000
     41      -0.0473      2.00000
     42      -0.0473      2.00000
     43      -0.0063      2.00000
     44      -0.0063      2.00000
     45      -0.0063      2.00000
     46      -0.0063      2.00000
     47      -0.0017      2.00000
     48      -0.0017      2.00000
     49       0.0145      2.00000
     50       0.0145      2.00000
     51       0.0145      2.00000
     52       0.0145      2.00000
     53       0.9597      2.00000
     54       0.9597      2.00000
     55       2.0171      2.00000
     56       2.0171      2.00000
     57       2.0195      2.00000
     58       2.0195      2.00000
     59       2.0195      2.00000
     60       2.0195      2.00000
     61       2.0220      2.00000
     62       2.0220      2.00000
     63       2.3397      2.00000
     64       2.3397      2.00000
     65       2.3531      2.00000
     66       2.3531      2.00000
     67       2.3531      2.00000
     68       2.3531      2.00000
     69       2.3720      2.00000
     70       2.3720      2.00000
     71       2.9278      2.00000
     72       2.9278      2.00000
     73       2.9662      2.00000
     74       2.9662      2.00000
     75       2.9938      2.00000
     76       2.9938      2.00000
     77       3.0335      2.00000
     78       3.0335      2.00000
     79       3.7133      2.00000
     80       3.7133      2.00000
     81       3.7489      2.00000
     82       3.7489      2.00000
     83       3.7489      2.00000
     84       3.7489      2.00000
     85       3.7776      2.00000
     86       3.7776      2.00000
     87       3.8324      2.00000
     88       3.8324      2.00000
     89       3.8329      2.00000
     90       3.8329      2.00000
     91       3.9259      2.00000
     92       3.9259      2.00000
     93       3.9578      2.00000
     94       3.9578      2.00000
     95       3.9578      2.00000
     96       3.9578      2.00000
     97       3.9889      2.00000
     98       3.9889      2.00000
     99       4.1465      2.00000
    100       4.1465      2.00000
    101       4.1465      2.00000
    102       4.1465      2.00000
    103       4.2329      2.00000
    104       4.2329      2.00000
[...]
  0.000   0.000   4.166   0.000   0.000   7.760   0.000   0.000
 -0.001  -0.001   0.000   4.166   0.000   0.000   7.760   0.000
  0.000   0.000   0.000   0.000   4.166   0.000   0.000   7.760
  0.000   0.000   7.760   0.000   0.000  14.465   0.000   0.000
 -0.002  -0.002   0.000   7.760   0.000   0.000  14.465   0.000
  0.000   0.000   0.000   0.000   7.760   0.000   0.000  14.465
 total augmentation occupancy for first ion, spin component:           1
  6.756  -2.741   0.000   0.039   0.000  -0.000  -0.015   0.000
 -2.741   1.219  -0.000  -0.020   0.000   0.000   0.007   0.000
  0.000  -0.000   3.304   0.000  -0.002  -0.768   0.000   0.003
  0.039  -0.020   0.000   3.305   0.000   0.000  -0.768  -0.000
  0.000   0.000  -0.002   0.000   3.271   0.003  -0.000  -0.755
 -0.000   0.000  -0.768   0.000   0.003   0.188   0.000  -0.001
 -0.015   0.007   0.000  -0.768  -0.000   0.000   0.188   0.000
  0.000   0.000   0.003  -0.000  -0.755  -0.001   0.000   0.184


------------------------ aborting loop because EDIFF is reached ----------------------------------------


    CHARGE:  cpu time      0.2462: real time      0.2472
    FORLOC:  cpu time      0.0214: real time      0.0215
    FORNL :  cpu time      0.6795: real time      0.7294
    STRESS:  cpu time      2.1677: real time      2.1780
    FORCOR:  cpu time      0.0853: real time      0.0855
    FORHAR:  cpu time      0.0347: real time      0.0348
    MIXING:  cpu time      0.0557: real time      0.0558
    OFIELD:  cpu time      0.0000: real time      0.0000

  FORCE on cell =-STRESS in cart. coord.  units (eV):
  Direction    XX          YY          ZZ          XY          YZ          ZX
  --------------------------------------------------------------------------------------
  Alpha Z   118.08005   118.08005   118.08005
  Ewald   -2549.32564 -2497.06274 -2497.03044     4.71379     0.00000     0.00000
  Hartree   139.33973   147.19784   147.06631     5.95729    -0.00000    -0.00000
  E(xc)    -836.02811  -836.53714  -836.56011     0.04693    -0.00000    -0.00000
  Local    -849.50187  -911.08171  -911.24643   -11.84756    -0.00000     0.00000
  n-local  2542.61211  2550.89790  2551.29302    -1.33857     0.00000    -0.00000
  augment  -370.65267  -370.68692  -370.72381    -0.42031     0.00000     0.00000
  Kinetic  1890.68433  1876.29423  1876.04081    10.80669     0.00000     0.00000
  Fock        0.00000     0.00000     0.00000     0.00000     0.00000     0.00000
  -------------------------------------------------------------------------------------
  Total      85.20794    77.10151    76.91940     7.91827     0.00000     0.00000
  in kB     116.91028   105.78778   105.53792    10.86432     0.00000     0.00000
  external pressure =      109.41 kB  Pullay stress =        0.00 kB


 VOLUME and BASIS-vectors are now :
 -----------------------------------------------------------------------------
  energy-cutoff  :      400.00
  volume of cell :     1167.72
      direct lattice vectors                 reciprocal lattice vectors
    10.425055540 -0.079379012  0.000000000     0.095928229  0.000719465  0.000000000
    -0.079379012 10.583813563  0.000000000     0.000719465  0.094489298  0.000000000
     0.000000000  0.000000000 10.583813563     0.000000000  0.000000000  0.094483902

  length of vectors
    10.425357741 10.584111232 10.583813563     0.095930927  0.094492037  0.094483902


 FORCES acting on ions
    electron-ion (+dipol)            ewald-force                    non-local-force                 convergence-correction
 -----------------------------------------------------------------------------------------------
   -.296E-08 -.251E-08 0.124E+01   0.377E-14 0.178E-14 -.878E+00   0.162E-19 -.632E-21 -.361E+00   0.538E-13 0.479E-13 -.230E-04
   -.296E-08 -.251E-08 0.124E+01   0.311E-14 -.311E-14 -.878E+00   0.426E-20 -.818E-21 -.361E+00   -.547E-13 0.494E-13 -.230E-04
   -.297E-08 -.251E-08 0.124E+01   0.155E-13 -.888E-14 -.878E+00   -.217E-20 0.311E-21 -.361E+00   0.383E-13 -.593E-13 -.230E-04
   -.297E-08 -.251E-08 0.124E+01   0.204E-13 0.888E-15 -.878E+00   -.571E-20 -.802E-21 -.361E+00   -.338E-13 -.431E-13 -.230E-04
   -.297E-08 -.251E-08 0.124E+01   0.191E-13 0.133E-14 -.878E+00   -.551E-20 0.496E-21 -.361E+00   -.562E-13 -.522E-13 -.230E-04
   -.297E-08 -.251E-08 0.124E+01   -.933E-14 -.178E-14 -.878E+00   -.530E-20 -.309E-21 -.361E+00   0.526E-13 0.470E-13 -.230E-04
   -.297E-08 -.250E-08 0.124E+01   0.311E-14 -.933E-14 -.878E+00   0.946E-20 0.328E-21 -.361E+00   -.394E-13 0.461E-13 -.230E-04
   -.297E-08 -.251E-08 0.124E+01   -.107E-13 0.000E+00 -.878E+00   0.481E-20 -.448E-21 -.361E+00   0.346E-13 -.412E-13 -.230E-04
   0.473E-08 0.396E-08 -.124E+01   -.444E-15 0.755E-14 0.878E+00   -.776E-20 0.218E-21 0.361E+00   -.185E-13 0.189E-13 0.230E-04
   0.473E-08 0.396E-08 -.124E+01   -.178E-14 0.888E-14 0.878E+00   -.426E-20 -.218E-22 0.361E+00   -.228E-13 -.236E-13 0.230E-04
   0.473E-08 0.396E-08 -.124E+01   0.111E-13 0.107E-13 0.878E+00   0.471E-21 0.109E-21 0.361E+00   0.373E-13 -.324E-13 0.230E-04
   0.473E-08 0.396E-08 -.124E+01   -.124E-13 0.107E-13 0.878E+00   0.631E-21 -.903E-21 0.361E+00   -.120E-13 0.107E-13 0.230E-04
   0.473E-08 0.396E-08 -.124E+01   0.222E-14 0.666E-14 0.878E+00   0.551E-20 -.605E-22 0.361E+00   0.169E-13 -.116E-13 0.230E-04
   0.473E-08 0.396E-08 -.124E+01   -.355E-14 0.107E-13 0.878E+00   0.226E-21 -.509E-21 0.361E+00   0.235E-13 -.234E-13 0.230E-04
   0.473E-08 0.396E-08 -.124E+01   -.178E-14 0.488E-14 0.878E+00   -.945E-20 0.951E-21 0.361E+00   -.385E-13 -.121E-13 0.230E-04
   0.473E-08 0.396E-08 -.124E+01   -.533E-14 0.142E-13 0.878E+00   -.143E-20 0.441E-21 0.361E+00   0.695E-14 0.158E-13 0.230E-04
   -.296E-08 -.251E-08 0.124E+01   0.200E-13 -.164E-13 -.878E+00   0.716E-21 -.118E-20 -.361E+00   0.952E-14 0.196E-13 -.230E-04
   -.296E-08 -.251E-08 0.124E+01   0.204E-13 -.200E-13 -.878E+00   0.113E-20 0.191E-20 -.361E+00   0.260E-14 0.163E-13 -.230E-04
   -.296E-08 -.251E-08 0.124E+01   0.102E-13 -.211E-13 -.878E+00   -.379E-20 0.126E-20 -.361E+00   -.225E-13 -.177E-13 -.230E-04
   -.297E-08 -.251E-08 0.124E+01   0.160E-13 -.173E-13 -.878E+00   0.526E-20 -.198E-21 -.361E+00   0.395E-14 -.590E-14 -.230E-04
   -.297E-08 -.251E-08 0.124E+01   0.133E-13 -.195E-13 -.878E+00   -.199E-20 0.498E-21 -.361E+00   -.987E-14 0.167E-14 -.230E-04
   -.297E-08 -.250E-08 0.124E+01   0.124E-13 -.160E-13 -.878E+00   0.712E-20 -.203E-21 -.361E+00   -.116E-13 0.165E-13 -.230E-04
   -.297E-08 -.251E-08 0.124E+01   0.293E-13 -.253E-13 -.878E+00   0.989E-21 -.119E-20 -.361E+00   0.218E-13 0.737E-14 -.230E-04
   -.297E-08 -.251E-08 0.124E+01   0.142E-13 -.213E-13 -.878E+00   -.108E-21 0.165E-20 -.361E+00   -.117E-13 -.177E-13 -.230E-04
   0.473E-08 0.396E-08 -.124E+01   0.311E-14 -.511E-14 0.878E+00   0.395E-20 -.106E-20 0.361E+00   0.406E-14 0.302E-13 0.230E-04
   0.473E-08 0.396E-08 -.124E+01   0.311E-14 -.511E-14 0.878E+00   -.737E-21 0.739E-21 0.361E+00   -.341E-13 -.482E-14 0.230E-04
   0.473E-08 0.396E-08 -.124E+01   0.000E+00 0.672E-14 0.878E+00   -.357E-20 0.145E-20 0.361E+00   0.733E-14 -.311E-13 0.230E-04
   0.473E-08 0.396E-08 -.124E+01   0.355E-14 -.661E-14 0.878E+00   -.129E-20 -.171E-20 0.361E+00   0.156E-13 0.366E-14 0.230E-04
   0.473E-08 0.396E-08 -.124E+01   0.147E-13 -.822E-14 0.878E+00   -.375E-20 0.587E-21 0.361E+00   -.244E-14 0.183E-13 0.230E-04
   0.473E-08 0.396E-08 -.124E+01   -.311E-14 -.466E-14 0.878E+00   -.139E-20 -.136E-20 0.361E+00   0.302E-13 0.437E-13 0.230E-04
   0.473E-08 0.396E-08 -.124E+01   0.124E-13 0.361E-14 0.878E+00   0.179E-20 -.829E-21 0.361E+00   -.120E-13 -.253E-13 0.230E-04
   0.473E-08 0.396E-08 -.124E+01   0.888E-14 0.405E-14 0.878E+00   -.994E-21 0.771E-21 0.361E+00   -.225E-13 -.446E-13 0.230E-04
   -.297E-08 -.251E-08 0.124E+01   -.711E-14 0.600E-14 -.878E+00   0.163E-20 0.754E-21 -.361E+00   0.178E-13 0.323E-13 -.230E-04
   -.297E-08 -.251E-08 0.124E+01   -.533E-14 0.977E-14 -.878E+00   -.614E-20 -.123E-20 -.361E+00   -.192E-13 0.252E-13 -.230E-04
   -.297E-08 -.251E-08 0.124E+01   -.444E-14 0.622E-14 -.878E+00   -.897E-22 -.117E-20 -.361E+00   -.409E-14 -.366E-13 -.230E-04
   -.297E-08 -.251E-08 0.124E+01   -.977E-14 -.444E-14 -.878E+00   -.290E-20 0.107E-20 -.361E+00   -.153E-13 -.278E-13 -.230E-04
   -.297E-08 -.251E-08 0.124E+01   0.444E-15 0.711E-14 -.878E+00   0.201E-20 -.883E-21 -.361E+00   -.249E-13 0.396E-14 -.230E-04
   -.297E-08 -.251E-08 0.124E+01   -.488E-14 0.107E-13 -.878E+00   -.526E-20 0.123E-20 -.361E+00   0.223E-13 0.296E-13 -.230E-04
   -.297E-08 -.251E-08 0.124E+01   -.133E-14 0.755E-14 -.878E+00   0.147E-20 0.759E-21 -.361E+00   -.323E-14 -.993E-15 -.230E-04
   -.297E-08 -.251E-08 0.124E+01   -.711E-14 0.355E-14 -.878E+00   -.585E-20 -.146E-20 -.361E+00   0.152E-13 -.253E-13 -.230E-04
   0.473E-08 0.396E-08 -.124E+01   -.917E-14 0.200E-13 0.878E+00   0.109E-20 0.170E-20 0.361E+00   -.421E-13 -.295E-13 0.230E-04
   0.473E-08 0.396E-08 -.124E+01   -.940E-14 0.200E-13 0.878E+00   0.177E-20 -.345E-21 0.361E+00   0.166E-13 -.249E-13 0.230E-04
   0.473E-08 0.396E-08 -.124E+01   -.234E-13 0.124E-13 0.878E+00   0.292E-20 -.639E-21 0.361E+00   -.509E-13 0.182E-13 0.230E-04
   0.473E-08 0.396E-08 -.124E+01   -.114E-13 0.195E-13 0.878E+00   0.177E-20 0.160E-20 0.361E+00   0.676E-13 0.136E-13 0.230E-04
   0.473E-08 0.396E-08 -.124E+01   -.228E-13 0.124E-13 0.878E+00   0.173E-21 -.389E-21 0.361E+00   0.429E-13 -.217E-13 0.230E-04
   0.473E-08 0.396E-08 -.124E+01   -.148E-13 0.195E-13 0.878E+00   0.307E-20 0.132E-20 0.361E+00   -.146E-13 0.231E-13 0.230E-04
   0.473E-08 0.396E-08 -.124E+01   -.286E-13 0.195E-13 0.878E+00   0.764E-21 0.186E-20 0.361E+00   0.527E-13 0.136E-13 0.230E-04
   0.473E-08 0.396E-08 -.124E+01   -.135E-13 0.195E-13 0.878E+00   0.191E-20 0.103E-21 0.361E+00   -.616E-13 -.389E-13 0.230E-04
   -.297E-08 -.251E-08 0.124E+01   -.127E-13 -.122E-13 -.878E+00   -.116E-19 -.635E-21 -.361E+00   -.458E-14 0.167E-13 -.230E-04
   -.297E-08 -.251E-08 0.124E+01   0.178E-14 -.933E-14 -.878E+00   -.653E-20 0.158E-20 -.361E+00   -.524E-13 0.105E-13 -.230E-04
   -.297E-08 -.251E-08 0.124E+01   0.488E-14 -.102E-13 -.878E+00   -.101E-20 0.739E-21 -.361E+00   0.994E-13 -.272E-14 -.230E-04
   -.297E-08 -.251E-08 0.124E+01   0.124E-13 -.138E-13 -.878E+00   0.714E-20 0.300E-21 -.361E+00   -.522E-13 -.123E-13 -.230E-04
   -.297E-08 -.250E-08 0.124E+01   0.444E-15 -.577E-14 -.878E+00   -.624E-21 0.957E-21 -.361E+00   -.106E-14 0.304E-13 -.230E-04
   -.297E-08 -.251E-08 0.124E+01   0.444E-15 -.622E-14 -.878E+00   0.712E-20 0.424E-21 -.361E+00   0.486E-13 -.902E-14 -.230E-04
   -.297E-08 -.251E-08 0.124E+01   -.666E-14 -.187E-13 -.878E+00   -.639E-20 -.201E-21 -.361E+00   -.105E-12 -.206E-13 -.230E-04
   -.297E-08 -.251E-08 0.124E+01   0.000E+00 -.107E-13 -.878E+00   -.485E-20 0.147E-20 -.361E+00   0.443E-13 0.663E-14 -.230E-04
   0.473E-08 0.396E-08 -.124E+01   -.582E-14 0.139E-14 0.878E+00   0.116E-19 -.656E-21 0.361E+00   0.363E-13 0.478E-13 0.230E-04
   0.473E-08 0.396E-08 -.124E+01   -.202E-13 0.161E-14 0.878E+00   0.991E-20 -.743E-21 0.361E+00   -.508E-13 0.420E-13 0.230E-04
   0.473E-08 0.396E-08 -.124E+01   -.234E-13 0.724E-14 0.878E+00   -.238E-20 -.118E-20 0.361E+00   0.650E-13 -.440E-13 0.230E-04
   0.473E-08 0.396E-08 -.124E+01   -.167E-13 0.281E-14 0.878E+00   -.545E-20 0.541E-21 0.361E+00   -.467E-13 -.503E-13 0.230E-04
   0.473E-08 0.396E-08 -.124E+01   0.157E-15 0.605E-14 0.878E+00   -.615E-20 -.958E-21 0.361E+00   -.370E-13 -.645E-14 0.230E-04
   0.473E-08 0.396E-08 -.124E+01   0.201E-15 0.650E-14 0.878E+00   -.375E-20 0.384E-21 0.361E+00   0.525E-13 0.322E-13 0.230E-04
   0.473E-08 0.396E-08 -.124E+01   -.690E-14 0.113E-13 0.878E+00   0.808E-20 -.211E-21 0.361E+00   -.600E-13 0.102E-13 0.230E-04
   0.473E-08 0.396E-08 -.124E+01   0.694E-15 0.175E-13 0.878E+00   0.116E-19 -.647E-21 0.361E+00   0.506E-13 -.324E-13 0.230E-04
 -----------------------------------------------------------------------------------------------
   0.563E-07 0.466E-07 0.169E-04   -.323E-13 0.397E-13 -.149E-13   0.842E-20 0.494E-20 -.511E-14   -.570E-13 -.804E-13 0.296E-09
 
 
 POSITION                                       TOTAL-FORCE (eV/Angst)
 -----------------------------------------------------------------------------------
      0.00000      0.00000     10.57669        -0.000000     -0.000000      0.000311
      0.00000      0.00000      5.28478        -0.000000     -0.000000      0.000311
     -0.03969      5.29191     10.57669        -0.000000     -0.000000      0.000311
     -0.03969      5.29191      5.28478        -0.000000     -0.000000      0.000311
      5.21253     -0.03969     10.57669         0.000000     -0.000000      0.000311
      5.21253     -0.03969      5.28478         0.000000     -0.000000      0.000311
      5.17284      5.25222     10.57669        -0.000000      0.000000      0.000311
      5.17284      5.25222      5.28478         0.000000     -0.000000      0.000311
      3.87963      3.93916      1.33010         0.000000      0.000000     -0.000311
      3.87963      3.93916      6.62201        -0.000000      0.000000     -0.000311
      3.83994      9.23107      1.33010        -0.000000     -0.000000     -0.000311
      3.83994      9.23107      6.62201         0.000000      0.000000     -0.000311
      9.09216      3.89947      1.33010         0.000000      0.000000     -0.000311
      9.09216      3.89947      6.62201        -0.000000     -0.000000     -0.000311
      9.05247      9.19138      1.33010        -0.000000      0.000000     -0.000311
      9.05247      9.19138      6.62201        -0.000000      0.000000     -0.000311
     -0.01984      2.64595      2.63883        -0.000000      0.000000      0.000311
     -0.01984      2.64595      7.93074        -0.000000     -0.000000      0.000311
     -0.05953      7.93786      2.63883        -0.000000      0.000000      0.000311
     -0.05953      7.93786      7.93074         0.000000      0.000000      0.000311
      5.19268      2.60626      2.63883         0.000000      0.000000      0.000311
      5.19268      2.60626      7.93074        -0.000000     -0.000000      0.000311
      5.15299      7.89817      2.63883        -0.000000     -0.000000      0.000311
      5.15299      7.89817      7.93074         0.000000      0.000000      0.000311
      3.89947      1.29321      3.97605         0.000000     -0.000000     -0.000311
      3.89947      1.29321      9.26796         0.000000      0.000000     -0.000311
      3.85978      6.58512      3.97605         0.000000     -0.000000     -0.000311
      3.85978      6.58512      9.26796         0.000000     -0.000000     -0.000311
      9.11200      1.25352      3.97605        -0.000000     -0.000000     -0.000311
      9.11200      1.25352      9.26796        -0.000000      0.000000     -0.000311
      9.07231      6.54543      3.97605         0.000000     -0.000000     -0.000311
      9.07231      6.54543      9.26796         0.000000     -0.000000     -0.000311
      2.60626     -0.01984      2.63883         0.000000     -0.000000      0.000311
      2.60626     -0.01984      7.93074         0.000000      0.000000      0.000311
      2.56657      5.27206      2.63883        -0.000000      0.000000      0.000311
      2.56657      5.27206      7.93074        -0.000000      0.000000      0.000311
      7.81879     -0.05953      2.63883         0.000000     -0.000000      0.000311
      7.81879     -0.05953      7.93074         0.000000     -0.000000      0.000311
      7.77910      5.23237      2.63883         0.000000      0.000000      0.000311
      7.77910      5.23237      7.93074         0.000000     -0.000000      0.000311
      1.27336      3.95901      3.97605        -0.000000     -0.000000     -0.000311
      1.27336      3.95901      9.26796        -0.000000     -0.000000     -0.000311
      1.23368      9.25091      3.97605         0.000000      0.000000     -0.000311
      1.23368      9.25091      9.26796         0.000000      0.000000     -0.000311
      6.48589      3.91932      3.97605         0.000000      0.000000     -0.000311
      6.48589      3.91932      9.26796        -0.000000     -0.000000     -0.000311
      6.44620      9.21122      3.97605        -0.000000      0.000000     -0.000311
      6.44620      9.21122      9.26796        -0.000000      0.000000     -0.000311
      2.58642      2.62611     10.57669        -0.000000      0.000000      0.000311
      2.58642      2.62611      5.28478         0.000000      0.000000      0.000311
      2.54673      7.91802     10.57669        -0.000000      0.000000      0.000311
      2.54673      7.91802      5.28478        -0.000000      0.000000      0.000311
      7.79895      2.58642     10.57669         0.000000     -0.000000      0.000311
      7.79895      2.58642      5.28478        -0.000000     -0.000000      0.000311
      7.75926      7.87833     10.57669         0.000000      0.000000      0.000311
      7.75926      7.87833      5.28478         0.000000     -0.000000      0.000311
      1.29321      1.31305      1.33010         0.000000     -0.000000     -0.000311
      1.29321      1.31305      6.62201        -0.000000      0.000000     -0.000311
      1.25352      6.60496      1.33010         0.000000      0.000000     -0.000311
      1.25352      6.60496      6.62201         0.000000     -0.000000     -0.000311
      6.50574      1.27336      1.33010        -0.000000     -0.000000     -0.000311
      6.50574      1.27336      6.62201        -0.000000     -0.000000     -0.000311
      6.46605      6.56527      1.33010         0.000000      0.000000     -0.000311
      6.46605      6.56527      6.62201         0.000000     -0.000000     -0.000311
 -----------------------------------------------------------------------------------
    total drift:                                0.000000      0.000000      0.000017


--------------------------------------------------------------------------------------------------------



  FREE ENERGIE OF THE ION-ELECTRON SYSTEM (eV)
  ---------------------------------------------------
  free  energy   TOTEN  =      -363.80633914 eV

  energy  without entropy=     -363.82323402  energy(sigma->0) =     -363.81197077
 
 d Force = 0.1271983E-01[ 0.711E-04, 0.254E-01]  d Energy = 0.1270128E-01 0.185E-04
 d Force =-0.1785277E+00[-0.201E+00,-0.157E+00]  d Ewald  =-0.1785262E+00-0.152E-05


--------------------------------------------------------------------------------------------------------


    POTLOK:  cpu time      0.1474: real time      0.1479


--------------------------------------------------------------------------------------------------------




--------------------------------------------------------------------------------------------------------


  
 reached required accuracy - stopping structural energy minimisation
     LOOP+:  cpu time     13.0743: real time     13.2719
    4ORBIT:  cpu time      0.0000: real time      0.0000

 total amount of memory used by VASP MPI-rank0    78704. kBytes
=======================================================================

   base      :      30000. kBytes
   nonlr-proj:       4862. kBytes
   fftplans  :      17991. kBytes
   grid      :       6881. kBytes
   one-center:         18. kBytes
   wavefun   :      18952. kBytes
 
  
  
 General timing and accounting informations for this job:
 ========================================================
  
                  Total CPU time used (sec):       59.873
                            User time (sec):       56.472
                          System time (sec):        3.401
                         Elapsed time (sec):       63.312
  
                   Maximum memory used (kb):      408524.
                   Average memory used (kb):          N/A
  
                          Minor page faults:        90934
                          Major page faults:            0
                 Voluntary context switches:         9174
