   8   8   0   0
  0.5585138E+01  0.3501300E-09  0.3572749E-09  0.3572570E-09  0.5000000E-15
  1.000000000000000E-004
  CAR 
 C8                                      
     24.14684322    -13.73243637  301     10.26566556      1.00000000
    -13.732  0.0000E+00  0.0000E+00
    -13.606  0.0000E+00  0.0000E+00
    -13.480  0.0000E+00  0.0000E+00
    -13.354  0.0000E+00  0.0000E+00
    -13.227  0.0000E+00  0.0000E+00
    -13.101  0.0000E+00  0.0000E+00
    -12.975  0.0000E+00  0.0000E+00
    -12.849  0.0000E+00  0.0000E+00
    -12.722  0.0000E+00  0.0000E+00
    -12.596  0.0000E+00  0.0000E+00
    -12.470  0.0000E+00  0.0000E+00
    -12.344  0.0000E+00  0.0000E+00
    -12.217  0.0000E+00  0.0000E+00
    -12.091  0.0000E+00  0.0000E+00
    -11.965  0.0000E+00  0.0000E+00
    -11.838  0.0000E+00  0.0000E+00
    -11.712  0.1993E-01  0.1344E-03
    -11.586  0.1872E+00  0.1387E-01
    -11.460  0.2308E+00  0.3815E-01
    -11.333  0.2719E+00  0.6982E-01
    -11.207  0.3205E+00  0.1071E+00
    -11.081  0.3516E+00  0.1495E+00
    -10.955  0.3897E+00  0.1962E+00
    -10.828  0.4195E+00  0.2475E+00
    -10.702  0.4481E+00  0.3022E+00
    -10.576  0.4798E+00  0.3607E+00
    -10.450  0.5036E+00  0.4229E+00
    -10.323  0.5284E+00  0.4880E+00
    -10.197  0.5555E+00  0.5564E+00
    -10.071  0.5785E+00  0.6281E+00
     -9.945  0.6000E+00  0.7024E+00
     -9.818  0.6229E+00  0.7796E+00
     -9.692  0.7043E+00  0.8603E+00
     -9.566  0.7578E+00  0.9528E+00
     -9.439  0.7108E+00  0.1044E+01
     -9.313  0.6632E+00  0.1130E+01
     -9.187  0.6305E+00  0.1212E+01
     -9.061  0.7759E+00  0.1300E+01
     -8.934  0.7901E+00  0.1396E+01
     -8.808  0.7858E+00  0.1494E+01
     -8.682  0.8090E+00  0.1595E+01
     -8.556  0.8275E+00  0.1698E+01
     -8.429  0.8464E+00  0.1804E+01
     -8.303  0.8643E+00  0.1912E+01
     -8.177  0.8841E+00  0.2022E+01
     -8.051  0.9034E+00  0.2135E+01
     -7.924  0.9231E+00  0.2250E+01
     -7.798  0.9443E+00  0.2368E+01
     -7.672  0.1014E+01  0.2490E+01
     -7.545  0.9947E+00  0.2616E+01
     -7.419  0.1027E+01  0.2744E+01
     -7.293  0.1040E+01  0.2875E+01
     -7.167  0.1108E+01  0.3009E+01
     -7.040  0.1088E+01  0.3146E+01
     -6.914  0.1042E+01  0.3279E+01
     -6.788  0.1046E+01  0.3410E+01
     -6.662  0.1191E+01  0.3550E+01
     -6.535  0.1184E+01  0.3698E+01
     -6.409  0.1185E+01  0.3846E+01
     -6.283  0.1228E+01  0.3998E+01
     -6.157  0.1293E+01  0.4157E+01
     -6.030  0.1360E+01  0.4325E+01
     -5.904  0.1494E+01  0.4508E+01
     -5.778  0.1500E+01  0.4693E+01
     -5.652  0.1495E+01  0.4883E+01
     -5.525  0.1491E+01  0.5068E+01
     -5.399  0.1416E+01  0.5252E+01
     -5.273  0.1375E+01  0.5427E+01
     -5.146  0.1380E+01  0.5600E+01
     -5.020  0.1295E+01  0.5768E+01
     -4.894  0.1261E+01  0.5928E+01
     -4.768  0.1242E+01  0.6086E+01
     -4.641  0.1198E+01  0.6240E+01
     -4.515  0.1179E+01  0.6390E+01
     -4.389  0.1123E+01  0.6535E+01
     -4.263  0.1079E+01  0.6674E+01
     -4.136  0.1042E+01  0.6808E+01
     -4.010  0.1001E+01  0.6936E+01
     -3.884  0.1004E+01  0.7062E+01
     -3.758  0.9472E+00  0.7184E+01
     -3.631  0.9028E+00  0.7301E+01
     -3.505  0.9979E+00  0.7417E+01
     -3.379  0.1039E+01  0.7544E+01
     -3.253  0.1117E+01  0.7682E+01
     -3.126  0.1112E+01  0.7822E+01
     -3.000  0.1124E+01  0.7963E+01
     -2.874  0.1031E+01  0.8100E+01
     -2.747  0.1021E+01  0.8230E+01
     -2.621  0.1000E+01  0.8356E+01
     -2.495  0.9833E+00  0.8481E+01
     -2.369  0.1046E+01  0.8608E+01
     -2.242  0.1171E+01  0.8747E+01
     -2.116  0.1324E+01  0.8904E+01
     -1.990  0.1578E+01  0.9085E+01
     -1.864  0.1957E+01  0.9306E+01
     -1.737  0.2369E+01  0.9579E+01
     -1.611  0.2594E+01  0.9895E+01
     -1.485  0.2380E+01  0.1020E+02
     -1.359  0.2083E+01  0.1049E+02
     -1.232  0.1843E+01  0.1073E+02
     -1.106  0.1712E+01  0.1095E+02
     -0.980  0.1643E+01  0.1117E+02
     -0.853  0.1503E+01  0.1136E+02
     -0.727  0.1409E+01  0.1155E+02
     -0.601  0.1335E+01  0.1172E+02
     -0.475  0.1290E+01  0.1188E+02
     -0.348  0.1245E+01  0.1204E+02
     -0.222  0.1194E+01  0.1220E+02
     -0.096  0.1154E+01  0.1235E+02
      0.030  0.1113E+01  0.1249E+02
      0.157  0.1078E+01  0.1263E+02
      0.283  0.1072E+01  0.1276E+02
      0.409  0.1103E+01  0.1290E+02
      0.535  0.1176E+01  0.1304E+02
      0.662  0.1555E+01  0.1321E+02
      0.788  0.1676E+01  0.1342E+02
      0.914  0.1720E+01  0.1363E+02
      1.040  0.1894E+01  0.1386E+02
      1.167  0.2115E+01  0.1411E+02
      1.293  0.2178E+01  0.1438E+02
      1.419  0.2137E+01  0.1465E+02
      1.546  0.2253E+01  0.1493E+02
      1.672  0.2203E+01  0.1521E+02
      1.798  0.1913E+01  0.1547E+02
      1.924  0.1519E+01  0.1568E+02
      2.051  0.1606E+01  0.1588E+02
      2.177  0.2028E+01  0.1610E+02
      2.303  0.2246E+01  0.1638E+02
      2.429  0.2285E+01  0.1667E+02
      2.556  0.2252E+01  0.1695E+02
      2.682  0.2284E+01  0.1724E+02
      2.808  0.2284E+01  0.1753E+02
      2.934  0.2339E+01  0.1782E+02
      3.061  0.2505E+01  0.1812E+02
      3.187  0.2687E+01  0.1845E+02
      3.313  0.2786E+01  0.1879E+02
      3.440  0.2840E+01  0.1914E+02
      3.566  0.2897E+01  0.1950E+02
      3.692  0.2889E+01  0.1987E+02
      3.818  0.3020E+01  0.2023E+02
      3.945  0.3257E+01  0.2063E+02
      4.071  0.3151E+01  0.2103E+02
      4.197  0.3095E+01  0.2142E+02
      4.323  0.3083E+01  0.2181E+02
      4.450  0.2934E+01  0.2219E+02
      4.576  0.3029E+01  0.2256E+02
      4.702  0.2941E+01  0.2294E+02
      4.828  0.2753E+01  0.2330E+02
      4.955  0.2713E+01  0.2365E+02
      5.081  0.2780E+01  0.2399E+02
      5.207  0.2946E+01  0.2435E+02
      5.333  0.2939E+01  0.2473E+02
      5.460  0.2875E+01  0.2509E+02
      5.586  0.2812E+01  0.2545E+02
      5.712  0.2624E+01  0.2579E+02
      5.839  0.2660E+01  0.2613E+02
      5.965  0.2585E+01  0.2646E+02
      6.091  0.2666E+01  0.2679E+02
      6.217  0.2635E+01  0.2712E+02
      6.344  0.2694E+01  0.2745E+02
      6.470  0.2651E+01  0.2779E+02
      6.596  0.2555E+01  0.2812E+02
      6.722  0.2813E+01  0.2845E+02
      6.849  0.2325E+01  0.2876E+02
      6.975  0.2454E+01  0.2905E+02
      7.101  0.2151E+01  0.2935E+02
      7.227  0.1674E+01  0.2957E+02
      7.354  0.2103E+01  0.2980E+02
      7.480  0.1888E+01  0.3005E+02
      7.606  0.1703E+01  0.3027E+02
      7.732  0.1395E+01  0.3046E+02
      7.859  0.1266E+01  0.3063E+02
      7.985  0.1175E+01  0.3079E+02
      8.111  0.1090E+01  0.3093E+02
      8.238  0.1011E+01  0.3106E+02
      8.364  0.9292E+00  0.3118E+02
      8.490  0.8565E+00  0.3130E+02
      8.616  0.7914E+00  0.3140E+02
      8.743  0.7283E+00  0.3150E+02
      8.869  0.6582E+00  0.3158E+02
      8.995  0.5996E+00  0.3166E+02
      9.121  0.5368E+00  0.3173E+02
      9.248  0.4743E+00  0.3180E+02
      9.374  0.4217E+00  0.3185E+02
      9.500  0.3487E+00  0.3190E+02
      9.626  0.2823E+00  0.3194E+02
      9.753  0.1886E+00  0.3197E+02
      9.879  0.9910E-01  0.3199E+02
     10.005  0.4199E-01  0.3200E+02
     10.132  0.3373E-02  0.3200E+02
     10.258  0.0000E+00  0.3200E+02
     10.384  0.0000E+00  0.3200E+02
     10.510  0.0000E+00  0.3200E+02
     10.637  0.0000E+00  0.3200E+02
     10.763  0.0000E+00  0.3200E+02
     10.889  0.0000E+00  0.3200E+02
     11.015  0.0000E+00  0.3200E+02
     11.142  0.0000E+00  0.3200E+02
     11.268  0.0000E+00  0.3200E+02
     11.394  0.0000E+00  0.3200E+02
     11.520  0.0000E+00  0.3200E+02
     11.647  0.0000E+00  0.3200E+02
     11.773  0.0000E+00  0.3200E+02
     11.899  0.0000E+00  0.3200E+02
     12.025  0.0000E+00  0.3200E+02
     12.152  0.0000E+00  0.3200E+02
     12.278  0.0000E+00  0.3200E+02
     12.404  0.0000E+00  0.3200E+02
     12.531  0.0000E+00  0.3200E+02
     12.657  0.0000E+00  0.3200E+02
     12.783  0.0000E+00  0.3200E+02
     12.909  0.0000E+00  0.3200E+02
     13.036  0.0000E+00  0.3200E+02
     13.162  0.0000E+00  0.3200E+02
     13.288  0.0000E+00  0.3200E+02
     13.414  0.0000E+00  0.3200E+02
     13.541  0.0000E+00  0.3200E+02
     13.667  0.0000E+00  0.3200E+02
     13.793  0.0000E+00  0.3200E+02
     13.919  0.5970E-01  0.3200E+02
     14.046  0.1118E+00  0.3201E+02
     14.172  0.1446E+00  0.3203E+02
     14.298  0.2101E+00  0.3205E+02
     14.424  0.4543E+00  0.3209E+02
     14.551  0.5643E+00  0.3216E+02
     14.677  0.6408E+00  0.3224E+02
     14.803  0.8028E+00  0.3233E+02
     14.930  0.9317E+00  0.3243E+02
     15.056  0.1037E+01  0.3256E+02
     15.182  0.1148E+01  0.3270E+02
     15.308  0.1278E+01  0.3285E+02
     15.435  0.1478E+01  0.3302E+02
     15.561  0.1558E+01  0.3321E+02
     15.687  0.1651E+01  0.3342E+02
     15.813  0.1702E+01  0.3363E+02
     15.940  0.1755E+01  0.3384E+02
     16.066  0.1842E+01  0.3407E+02
     16.192  0.1974E+01  0.3431E+02
     16.318  0.2028E+01  0.3456E+02
     16.445  0.2082E+01  0.3482E+02
     16.571  0.2165E+01  0.3509E+02
     16.697  0.2194E+01  0.3537E+02
     16.824  0.2283E+01  0.3565E+02
     16.950  0.2399E+01  0.3594E+02
     17.076  0.2519E+01  0.3625E+02
     17.202  0.2756E+01  0.3658E+02
     17.329  0.2705E+01  0.3693E+02
     17.455  0.2783E+01  0.3727E+02
     17.581  0.2903E+01  0.3763E+02
     17.707  0.3112E+01  0.3801E+02
     17.834  0.3570E+01  0.3843E+02
     17.960  0.3830E+01  0.3890E+02
     18.086  0.4442E+01  0.3941E+02
     18.212  0.4903E+01  0.3999E+02
     18.339  0.3432E+01  0.4048E+02
     18.465  0.3206E+01  0.4088E+02
     18.591  0.3593E+01  0.4129E+02
     18.717  0.3512E+01  0.4172E+02
     18.844  0.3455E+01  0.4216E+02
     18.970  0.3490E+01  0.4259E+02
     19.096  0.3451E+01  0.4303E+02
     19.223  0.3308E+01  0.4346E+02
     19.349  0.3204E+01  0.4386E+02
     19.475  0.3097E+01  0.4426E+02
     19.601  0.2911E+01  0.4464E+02
     19.728  0.2816E+01  0.4500E+02
     19.854  0.2683E+01  0.4534E+02
     19.980  0.2673E+01  0.4568E+02
     20.106  0.2635E+01  0.4601E+02
     20.233  0.2593E+01  0.4634E+02
     20.359  0.2304E+01  0.4665E+02
     20.485  0.2111E+01  0.4693E+02
     20.611  0.1915E+01  0.4718E+02
     20.738  0.1681E+01  0.4741E+02
     20.864  0.1361E+01  0.4760E+02
     20.990  0.9158E+00  0.4774E+02
     21.117  0.6753E+00  0.4784E+02
     21.243  0.4581E+00  0.4791E+02
     21.369  0.2292E+00  0.4795E+02
     21.495  0.1413E+00  0.4797E+02
     21.622  0.8925E-01  0.4798E+02
     21.748  0.4390E-01  0.4799E+02
     21.874  0.2302E-01  0.4800E+02
     22.000  0.1076E-01  0.4800E+02
     22.127  0.1679E-02  0.4800E+02
     22.253  0.0000E+00  0.4800E+02
     22.379  0.0000E+00  0.4800E+02
     22.505  0.0000E+00  0.4800E+02
     22.632  0.0000E+00  0.4800E+02
     22.758  0.0000E+00  0.4800E+02
     22.884  0.0000E+00  0.4800E+02
     23.010  0.0000E+00  0.4800E+02
     23.137  0.0000E+00  0.4800E+02
     23.263  0.0000E+00  0.4800E+02
     23.389  0.0000E+00  0.4800E+02
     23.516  0.0000E+00  0.4800E+02
     23.642  0.0000E+00  0.4800E+02
     23.768  0.0000E+00  0.4800E+02
     23.894  0.0000E+00  0.4800E+02
     24.021  0.0000E+00  0.4800E+02
     24.147  0.0000E+00  0.4800E+02
