       N       E                     dE             d eps       ncg     rms          rms(c)
DAV:   1     0.671268089595E+02    0.67127E+02   -0.17933E+04 62640   0.131E+03
DAV:   2    -0.724643231881E+02   -0.13959E+03   -0.13688E+03 83304   0.231E+02
DAV:   3    -0.753131505301E+02   -0.28488E+01   -0.28453E+01 88272   0.360E+01
DAV:   4    -0.753306995278E+02   -0.17549E-01   -0.17543E-01 81360   0.288E+00
DAV:   5    -0.753309491249E+02   -0.24960E-03   -0.24955E-03 87312   0.317E-01    0.113E+01
RMM:   6    -0.733117997145E+02    0.20191E+01   -0.12500E+00 62763   0.651E+00    0.673E+00
RMM:   7    -0.726352379545E+02    0.67656E+00   -0.19804E+00 68894   0.870E+00    0.148E+00
RMM:   8    -0.726500273334E+02   -0.14789E-01   -0.11251E-01 67466   0.252E+00    0.249E-01
RMM:   9    -0.726511392353E+02   -0.11119E-02   -0.21031E-02 73457   0.976E-01    0.128E-01
RMM:  10    -0.726512937317E+02   -0.15450E-03   -0.30330E-03 72916   0.368E-01    0.424E-02
RMM:  11    -0.726513547469E+02   -0.61015E-04   -0.68294E-04 76954   0.155E-01    0.928E-03
RMM:  12    -0.726513663396E+02   -0.11593E-04   -0.10676E-04 78286   0.641E-02    0.142E-02
RMM:  13    -0.726513712872E+02   -0.49476E-05   -0.25414E-05 75995   0.251E-02    0.407E-03
RMM:  14    -0.726513708004E+02    0.48684E-06   -0.37764E-06 62474   0.108E-02
   1 F= -.72651371E+02 E0= -.72651371E+02  d E =0.000000E+00
