       N       E                     dE             d eps       ncg     rms          rms(c)
DAV:   1     0.573447973344E+03    0.57345E+03   -0.85019E+04  2592   0.107E+03
DAV:   2    -0.309500496728E+03   -0.88295E+03   -0.83685E+03  3096   0.175E+02
DAV:   3    -0.372566999209E+03   -0.63067E+02   -0.61756E+02  3128   0.414E+01
DAV:   4    -0.374154299862E+03   -0.15873E+01   -0.15758E+01  3120   0.799E+00
DAV:   5    -0.374205996317E+03   -0.51696E-01   -0.51585E-01  3102   0.133E+00    0.307E+01
RMM:   6    -0.368144636614E+03    0.60614E+01   -0.31821E+00  2592   0.281E+00    0.185E+01
RMM:   7    -0.365513084810E+03    0.26316E+01   -0.80371E+00  2653   0.445E+00    0.118E+00
RMM:   8    -0.365547142409E+03   -0.34058E-01   -0.74020E-01  2614   0.169E+00    0.540E-01
RMM:   9    -0.365570434383E+03   -0.23292E-01   -0.22382E-01  2669   0.825E-01    0.611E-01
RMM:  10    -0.365574788574E+03   -0.43542E-02   -0.39514E-02  2730   0.388E-01    0.818E-01
RMM:  11    -0.365570236678E+03    0.45519E-02   -0.13837E-02  2592   0.235E-01    0.656E-01
RMM:  12    -0.365570401325E+03   -0.16465E-03   -0.19233E-03  2617   0.103E-01    0.651E-01
RMM:  13    -0.365570471605E+03   -0.70280E-04   -0.37071E-04  2738   0.424E-02    0.726E-01
RMM:  14    -0.365570444366E+03    0.27239E-04   -0.10523E-04  2603   0.254E-02    0.299E-01
RMM:  15    -0.365570543175E+03   -0.98810E-04   -0.46620E-05  2635   0.142E-02    0.288E-01
RMM:  16    -0.365570609061E+03   -0.65885E-04   -0.29926E-05  2592   0.124E-02    0.230E-01
RMM:  17    -0.365570620807E+03   -0.11746E-04   -0.91664E-06  2592   0.776E-03    0.751E-02
RMM:  18    -0.365570628336E+03   -0.75292E-05   -0.47998E-06  2232   0.523E-03    0.174E-02
RMM:  19    -0.365570629867E+03   -0.15310E-05   -0.14625E-06  1570   0.280E-03    0.613E-03
RMM:  20    -0.365570630161E+03   -0.29461E-06   -0.32252E-07  1556   0.115E-03
   1 F= -.36557063E+03 E0= -.36558096E+03  d E =-.365571E+03
       N       E                     dE             d eps       ncg     rms          rms(c)
DAV:   1    -0.365581258273E+03   -0.10628E-01   -0.72577E-01  2944   0.164E+00    0.393E-01
RMM:   2    -0.365584743726E+03   -0.34855E-02   -0.36132E-02  2592   0.405E-01    0.158E-01
RMM:   3    -0.365585181138E+03   -0.43741E-03   -0.56161E-03  2636   0.179E-01    0.661E-02
RMM:   4    -0.365585165985E+03    0.15154E-04   -0.75808E-04  2633   0.741E-02    0.244E-02
RMM:   5    -0.365585172328E+03   -0.63430E-05   -0.14185E-04  2677   0.295E-02    0.512E-03
RMM:   6    -0.365585175570E+03   -0.32423E-05   -0.32473E-05  2724   0.129E-02    0.971E-04
RMM:   7    -0.365585175984E+03   -0.41432E-06   -0.44318E-06  1901   0.468E-03    0.116E-03
RMM:   8    -0.365585176032E+03   -0.47688E-07   -0.81960E-07  1533   0.198E-03
   2 F= -.36558518E+03 E0= -.36559374E+03  d E =-.145459E-01
       N       E                     dE             d eps       ncg     rms          rms(c)
DAV:   1    -0.365588823615E+03   -0.36476E-02   -0.73682E-02  2920   0.523E-01    0.125E-01
RMM:   2    -0.365589169727E+03   -0.34611E-03   -0.35758E-03  2592   0.128E-01    0.507E-02
RMM:   3    -0.365589210966E+03   -0.41239E-04   -0.54032E-04  2637   0.565E-02    0.207E-02
RMM:   4    -0.365589209528E+03    0.14380E-05   -0.72447E-05  2627   0.233E-02    0.768E-03
RMM:   5    -0.365589210146E+03   -0.61704E-06   -0.13767E-05  2559   0.924E-03    0.163E-03
RMM:   6    -0.365589210393E+03   -0.24734E-06   -0.28944E-06  1784   0.404E-03    0.322E-04
RMM:   7    -0.365589210447E+03   -0.53838E-07   -0.51442E-07  1490   0.163E-03    0.302E-04
RMM:   8    -0.365589210470E+03   -0.23384E-07   -0.12742E-07  1072   0.827E-04
   3 F= -.36558921E+03 E0= -.36559853E+03  d E =-.185803E-01
