 vasp.6.4.3 19Mar24 (build Oct 21 2024 22:36:34) complex                        
  
 executed on             LinuxIFC date 2024.11.01  22:57:41
 running   96 mpi-ranks, on    1 nodes
 distrk:  each k-point on   24 cores,    4 groups
 distr:  one band on NCORE=  12 cores,    2 groups


--------------------------------------------------------------------------------------------------------


 INCAR:
   SYSTEM = Si64
   ISTART = 0
   ICHARG = 2
   LREAL = Auto
   PREC = Accurate
   LWAVE = .False.
   LCHARG = .False.
   ADDGRID = .True.
   ENCUT = 400
   GGA = PS
   GGA_COMPAT = .FALSE.
   ISMEAR = 1
   SIGMA = 0.2
   NELM = 60
   NELMIN = 8
   EDIFF = 1e-06
   EDIFFG = -0.01
   NSW = 60
   IBRION = 2
   ISIF = 2
   KPAR = 4
   NPAR = 2
   ALGO = Fast

 POTCAR:    PAW_PBE Si 05Jan2001                  
 POTCAR:    PAW_PBE Si 05Jan2001                  
   VRHFIN =Si: s2p2                                                                                 
   LEXCH  = PE                                                                                      
   EATOM  =   103.0669 eV,    7.5752 Ry                                                             
                                                                                                    
   TITEL  = PAW_PBE Si 05Jan2001                                                                    
   LULTRA =        F    use ultrasoft PP ?                                                          
   IUNSCR =        1    unscreen: 0-lin 1-nonlin 2-no                                               
   RPACOR =    1.500    partial core radius                                                         
   POMASS =   28.085; ZVAL   =    4.000    mass and valenz                                          
   RCORE  =    1.900    outmost cutoff radius                                                       
   RWIGS  =    2.480; RWIGS  =    1.312    wigner-seitz radius (au A)                               
   ENMAX  =  245.345; ENMIN  =  184.009 eV                                                          
   ICORE  =        2    local potential                                                             
   LCOR   =        T    correct aug charges                                                         
   LPAW   =        T    paw PP                                                                      
   EAUG   =  322.069                                                                                
   DEXC   =    0.000                                                                                
   RMAX   =    1.950    core radius for proj-oper                                                   
   RAUG   =    1.300    factor for augmentation sphere                                              
   RDEP   =    1.993    radius for radial grids                                                     
   RDEPT  =    1.837    core radius for aug-charge                                                  
                                                                                                    
   Atomic configuration                                                                             
    6 entries                                                                                       
     n  l   j            E        occ.                                                              
     1  0  0.50     -1785.8828   2.0000                                                             
     2  0  0.50      -139.4969   2.0000                                                             
     2  1  1.50       -95.5546   6.0000                                                             
     3  0  0.50       -10.8127   2.0000                                                             
     3  1  0.50        -4.0811   2.0000                                                             
     3  2  1.50        -4.0817   0.0000                                                             
   Description                                                                                      
     l       E           TYP  RCUT    TYP  RCUT                                                     
     0    -10.8127223     23  1.900                                                                 
     0     -7.6451159     23  1.900                                                                 
     1     -4.0811372     23  1.900                                                                 
     1      2.4879257     23  1.900                                                                 
     2     -4.0817478      7  1.900                                                                 
  local pseudopotential read in
  partial core-charges read in
  partial kinetic energy density read in
  atomic valenz-charges read in
  non local Contribution for L=           0  read in
    real space projection operators read in
  non local Contribution for L=           0  read in
    real space projection operators read in
  non local Contribution for L=           1  read in
    real space projection operators read in
  non local Contribution for L=           1  read in
    real space projection operators read in
    PAW grid and wavefunctions read in
 
   number of l-projection  operators is LMAX  =           4
   number of lm-projection operators is LMMAX =           8
 
 Optimization of the real space projectors (new method)

 maximal supplied QI-value         = 19.84
 optimisation between [QCUT,QGAM] = [ 10.12, 20.44] = [ 28.68,116.96] Ry 
 Optimized for a Real-space Cutoff    1.38 Angstroem

   l    n(q)    QCUT    max X(q) W(low)/X(q) W(high)/X(q)  e(spline) 
   0      8    10.119   159.560    0.58E-04    0.11E-03    0.54E-07
   0      8    10.119   115.863    0.56E-04    0.11E-03    0.54E-07
   1      8    10.119    88.339    0.22E-03    0.17E-03    0.19E-06
   1      8    10.119    48.592    0.22E-03    0.17E-03    0.18E-06
 -----------------------------------------------------------------------------
|                                                                             |
|               ----> ADVICE to this user running VASP <----                  |
|                                                                             |
|     You enforced a specific xc type in the INCAR file but a different       |
|     type was found in the POTCAR file.                                      |
|     I HOPE YOU KNOW WHAT YOU ARE DOING!                                     |
|                                                                             |
 -----------------------------------------------------------------------------

  PAW_PBE Si 05Jan2001                  :
 energy of atom  1       EATOM= -103.0669
 kinetic energy error for atom=    0.0012 (will be added to EATOM!!)
 
 
 POSCAR: Si8
  positions in direct lattice
  velocities in cartesian coordinates


 exchange-correlation table for PS
   RHO(1)=    0.500       N(1)  =     2000
   RHO(2)=  100.500       N(2)  =     4000
 


--------------------------------------------------------------------------------------------------------


 ion  position               nearest neighbor table
   1  0.000  0.000  0.000-  30 2.29  44 2.29  15 2.31  57 2.31
   2  0.000  0.000  0.500-  29 2.29  43 2.29  16 2.31  58 2.31
   3  0.000  0.500  0.000-  32 2.29  42 2.29  13 2.31  59 2.31
   4  0.000  0.500  0.500-  31 2.29  41 2.29  14 2.31  60 2.31
   5  0.500  0.000  0.000-  26 2.29  48 2.29  11 2.31  61 2.31
   6  0.500  0.000  0.500-  25 2.29  47 2.29  12 2.31  62 2.31
   7  0.500  0.500  0.000-  28 2.29  46 2.29   9 2.31  63 2.31
   8  0.500  0.500  0.500-  27 2.29  45 2.29  10 2.31  64 2.31
   9  0.375  0.375  0.125-  21 2.29  35 2.29   7 2.31  49 2.31
  10  0.375  0.375  0.625-  22 2.29  36 2.29   8 2.31  50 2.31
  11  0.375  0.875  0.125-  23 2.29  33 2.29   5 2.31  51 2.31
  12  0.375  0.875  0.625-  24 2.29  34 2.29   6 2.31  52 2.31
  13  0.875  0.375  0.125-  17 2.29  39 2.29   3 2.31  53 2.31
  14  0.875  0.375  0.625-  18 2.29  40 2.29   4 2.31  54 2.31
  15  0.875  0.875  0.125-  19 2.29  37 2.29   1 2.31  55 2.31
  16  0.875  0.875  0.625-  20 2.29  38 2.29   2 2.31  56 2.31
  17  0.000  0.250  0.250-  13 2.29  57 2.29  41 2.31  29 2.31
  18  0.000  0.250  0.750-  14 2.29  58 2.29  42 2.31  30 2.31
  19  0.000  0.750  0.250-  15 2.29  59 2.29  43 2.31  31 2.31
  20  0.000  0.750  0.750-  16 2.29  60 2.29  44 2.31  32 2.31
  21  0.500  0.250  0.250-   9 2.29  61 2.29  45 2.31  25 2.31
  22  0.500  0.250  0.750-  10 2.29  62 2.29  46 2.31  26 2.31
  23  0.500  0.750  0.250-  11 2.29  63 2.29  47 2.31  27 2.31
  24  0.500  0.750  0.750-  12 2.29  64 2.29  48 2.31  28 2.31
  25  0.375  0.125  0.375-   6 2.29  50 2.29  33 2.31  21 2.31
  26  0.375  0.125  0.875-   5 2.29  49 2.29  34 2.31  22 2.31
  27  0.375  0.625  0.375-   8 2.29  52 2.29  35 2.31  23 2.31
  28  0.375  0.625  0.875-   7 2.29  51 2.29  36 2.31  24 2.31
  29  0.875  0.125  0.375-   2 2.29  54 2.29  37 2.31  17 2.31
  30  0.875  0.125  0.875-   1 2.29  53 2.29  38 2.31  18 2.31
  31  0.875  0.625  0.375-   4 2.29  56 2.29  39 2.31  19 2.31
  32  0.875  0.625  0.875-   3 2.29  55 2.29  40 2.31  20 2.31
  33  0.250  0.000  0.250-  11 2.29  57 2.29  43 2.31  25 2.31
  34  0.250  0.000  0.750-  12 2.29  58 2.29  44 2.31  26 2.31
  35  0.250  0.500  0.250-   9 2.29  59 2.29  41 2.31  27 2.31
  36  0.250  0.500  0.750-  10 2.29  60 2.29  42 2.31  28 2.31
  37  0.750  0.000  0.250-  15 2.29  61 2.29  47 2.31  29 2.31
  38  0.750  0.000  0.750-  16 2.29  62 2.29  48 2.31  30 2.31
  39  0.750  0.500  0.250-  13 2.29  63 2.29  45 2.31  31 2.31
  40  0.750  0.500  0.750-  14 2.29  64 2.29  46 2.31  32 2.31
  41  0.125  0.375  0.375-   4 2.29  50 2.29  35 2.31  17 2.31
  42  0.125  0.375  0.875-   3 2.29  49 2.29  36 2.31  18 2.31
  43  0.125  0.875  0.375-   2 2.29  52 2.29  33 2.31  19 2.31
  44  0.125  0.875  0.875-   1 2.29  51 2.29  34 2.31  20 2.31
  45  0.625  0.375  0.375-   8 2.29  54 2.29  39 2.31  21 2.31
  46  0.625  0.375  0.875-   7 2.29  53 2.29  40 2.31  22 2.31
  47  0.625  0.875  0.375-   6 2.29  56 2.29  37 2.31  23 2.31
  48  0.625  0.875  0.875-   5 2.29  55 2.29  38 2.31  24 2.31
  49  0.250  0.250  0.000-  26 2.29  42 2.29   9 2.31  57 2.31
  50  0.250  0.250  0.500-  25 2.29  41 2.29  10 2.31  58 2.31
  51  0.250  0.750  0.000-  28 2.29  44 2.29  11 2.31  59 2.31
  52  0.250  0.750  0.500-  27 2.29  43 2.29  12 2.31  60 2.31
  53  0.750  0.250  0.000-  30 2.29  46 2.29  13 2.31  61 2.31
  54  0.750  0.250  0.500-  29 2.29  45 2.29  14 2.31  62 2.31
  55  0.750  0.750  0.000-  32 2.29  48 2.29  15 2.31  63 2.31
  56  0.750  0.750  0.500-  31 2.29  47 2.29  16 2.31  64 2.31
  57  0.125  0.125  0.125-  17 2.29  33 2.29   1 2.31  49 2.31
  58  0.125  0.125  0.625-  18 2.29  34 2.29   2 2.31  50 2.31
  59  0.125  0.625  0.125-  19 2.29  35 2.29   3 2.31  51 2.31
  60  0.125  0.625  0.625-  20 2.29  36 2.29   4 2.31  52 2.31
  61  0.625  0.125  0.125-  21 2.29  37 2.29   5 2.31  53 2.31
  62  0.625  0.125  0.625-  22 2.29  38 2.29   6 2.31  54 2.31
  63  0.625  0.625  0.125-  23 2.29  39 2.29   7 2.31  55 2.31
  64  0.625  0.625  0.625-  24 2.29  40 2.29   8 2.31  56 2.31
 
  LATTYP: Found a simple monoclinic cell.
 ALAT       =    10.5839458596
 B/A-ratio  =     0.9999875003
 C/A-ratio  =     1.0099997399
 COS(beta)  =    -0.0099502375
  
  Lattice vectors:
  
 A1 = (   0.0529190078,  10.5838135630,   0.0000000000)
 A2 = (   0.0000000000,   0.0000000000, -10.5838135630)
 A3 = ( -10.6896515787,  -0.0529190078,   0.0000000000)


Analysis of symmetry for initial positions (statically):
=====================================================================
 Subroutine PRICEL returns following result:
 
  LATTYP: Found a base centered monoclinic cell.
 ALAT       =     5.2919729298
 B/A-ratio  =     0.9999875003
 C/A-ratio  =     0.7071067812
 COS(beta)  =    -0.7000005438
  
  Lattice vectors:
  
 A1 = (   0.0132297520,   2.6459533908,  -2.6459533908)
 A2 = (   0.0132297520,   2.6459533908,   2.6459533908)
 A3 = (   2.6591831427,  -2.6327236388,   0.0000000000)
 
  32 primitive cells build up your supercell.
 

 Routine SETGRP: Setting up the symmetry group for a 
 simple monoclinic supercell.


 Subroutine GETGRP returns: Found  4 space group operations
 (whereof  2 operations were pure point group operations)
 out of a pool of  4 trial point group operations.


The static configuration has the point symmetry C_2 .
 The point group associated with its full space group is C_2h.


Analysis of symmetry for dynamics (positions and initial velocities):
=====================================================================
 Subroutine PRICEL returns following result:
 
  LATTYP: Found a base centered monoclinic cell.
 ALAT       =     5.2919729298
 B/A-ratio  =     0.9999875003
 C/A-ratio  =     0.7071067812
 COS(beta)  =    -0.7000005438
  
  Lattice vectors:
  
 A1 = (   0.0132297520,   2.6459533908,  -2.6459533908)
 A2 = (   0.0132297520,   2.6459533908,   2.6459533908)
 A3 = (   2.6591831427,  -2.6327236388,   0.0000000000)
 
  32 primitive cells build up your supercell.
 

 Routine SETGRP: Setting up the symmetry group for a 
 simple monoclinic supercell.


 Subroutine GETGRP returns: Found  4 space group operations
 (whereof  2 operations were pure point group operations)
 out of a pool of  4 trial point group operations.


The dynamic configuration has the point symmetry C_2 .
 The point group associated with its full space group is C_2h.


 Subroutine INISYM returns: Found  4 space group operations
 (whereof  2 operations are pure point group operations),
 and found    32 'primitive' translations


----------------------------------------------------------------------------------------

                                     Primitive cell                                     

  volume of cell :      37.4186

  direct lattice vectors                    reciprocal lattice vectors
     0.013229752  2.645953391 -2.645953391     0.186165962  0.188036975 -0.188967803
     0.013229752  2.645953391  2.645953391     0.186165962  0.188036975  0.188967803
     2.659183143 -2.632723639  0.000000000     0.374202937 -0.001871013 -0.000000000

  length of vectors
     3.741966558  3.741966558  3.741989945     0.325153041  0.325153041  0.374207614

  position of ions in fractional coordinates (direct lattice)
     0.000000000  0.000000000  0.000000000
     0.250000000  0.750000000  0.500000000

  ion indices of the primitive-cell ions
   primitive index   ion index
                 1           1
                 2          15

----------------------------------------------------------------------------------------

 
 
 KPOINTS: Automatic mesh                          

Automatic generation of k-mesh.
 Grid dimensions read from file:
 generate k-points for:    2    2    2

 Generating k-lattice:

  Cartesian coordinates                     Fractional coordinates (reciprocal lattice)
     0.046775367 -0.000233877  0.000000000     0.500000000  0.000000000  0.000000000
    -0.000233877  0.047243120  0.000000000    -0.000000000  0.500000000  0.000000000
     0.000000000  0.000000000  0.047241951     0.000000000  0.000000000  0.500000000

  Length of vectors
     0.046775952  0.047243699  0.047241951

  Shift w.r.t. Gamma in fractional coordinates (k-lattice)
     0.000000000  0.000000000  0.000000000

 
 Subroutine IBZKPT returns following result:
 ===========================================
 
 Found      8 irreducible k-points:
 
 Following reciprocal coordinates:
            Coordinates               Weight
  0.000000  0.000000  0.000000      1.000000
  0.500000 -0.000000  0.000000      1.000000
  0.000000  0.500000  0.000000      1.000000
  0.500000  0.500000  0.000000      1.000000
  0.000000  0.000000  0.500000      1.000000
  0.500000 -0.000000  0.500000      1.000000
  0.000000  0.500000  0.500000      1.000000
  0.500000  0.500000  0.500000      1.000000
 
 Following cartesian coordinates:
            Coordinates               Weight
  0.000000  0.000000  0.000000      1.000000
  0.046775 -0.000234  0.000000      1.000000
 -0.000234  0.047243  0.000000      1.000000
  0.046541  0.047009  0.000000      1.000000
  0.000000  0.000000  0.047242      1.000000
  0.046775 -0.000234  0.047242      1.000000
 -0.000234  0.047243  0.047242      1.000000
  0.046541  0.047009  0.047242      1.000000
 


--------------------------------------------------------------------------------------------------------




 Dimension of arrays:
   k-points           NKPTS =      8   k-points in BZ     NKDIM =      8   number of bands    NBANDS=    162
   number of dos      NEDOS =    301   number of ions     NIONS =     64
   non local maximal  LDIM  =      4   non local SUM 2l+1 LMDIM =      8
   total plane-waves  NPLWV = 343000
   max r-space proj   IRMAX =   3207   max aug-charges    IRDMAX=  76811
   dimension x,y,z NGX =    70 NGY =   70 NGZ =   70
   dimension x,y,z NGXF=   140 NGYF=  140 NGZF=  140
   support grid    NGXF=   280 NGYF=  280 NGZF=  280
   ions per type =              64
   NGX,Y,Z   is equivalent  to a cutoff of  10.89, 11.00, 11.00 a.u.
   NGXF,Y,Z  is equivalent  to a cutoff of  21.77, 21.99, 21.99 a.u.

 SYSTEM =  Si64                                    
 POSCAR =  Si8                                     

 Startparameter for this run:
   NWRITE =      2    write-flag & timer
   PREC   = accura    normal or accurate (medium, high low for compatibility)
   ISTART =      0    job   : 0-new  1-cont  2-samecut
   ICHARG =      2    charge: 1-file 2-atom 10-const
   ISPIN  =      1    spin polarized calculation?
   LNONCOLLINEAR =      F non collinear calculations
   LSORBIT =      F    spin-orbit coupling
   INIWAV =      1    electr: 0-lowe 1-rand  2-diag
   LASPH  =      F    aspherical Exc in radial PAW
 Electronic Relaxation 1
   ENCUT  =  400.0 eV  29.40 Ry    5.42 a.u.  17.43 17.26 17.26*2*pi/ulx,y,z
   ENINI  =  400.0     initial cutoff
   ENAUG  =  322.1 eV  augmentation charge cutoff
   NELM   =     60;   NELMIN=  8; NELMDL= -5     # of ELM steps 
   EDIFF  = 0.1E-05   stopping-criterion for ELM
   LREAL  =      T    real-space projection
   NLSPLINE    = F    spline interpolate recip. space projectors
   LCOMPAT=      F    compatible to vasp.4.4
   GGA_COMPAT  = F    GGA compatible to vasp.4.4-vasp.4.6
   LMAXPAW     = -100 max onsite density
   LMAXMIX     =    2 max onsite mixed and CHGCAR
   VOSKOWN=      0    Vosko Wilk Nusair interpolation
   ROPT   =   -0.00025
 Ionic relaxation
   EDIFFG = -.1E-01   stopping-criterion for IOM
   NSW    =     60    number of steps for IOM
   NBLOCK =      1;   KBLOCK =     60    inner block; outer block 
   IBRION =      2    ionic relax: 0-MD 1-quasi-New 2-CG
   NFREE  =      1    steps in history (QN), initial steepest desc. (CG)
   ISIF   =      2    stress and relaxation
   IWAVPR =     11    prediction:  0-non 1-charg 2-wave 3-comb
   ISYM   =      2    0-nonsym 1-usesym 2-fastsym
   LCORR  =      T    Harris-Foulkes like correction to forces

   POTIM  = 0.5000    time-step for ionic-motion
   TEIN   =    0.0    initial temperature
   TEBEG  =    0.0;   TEEND  =   0.0 temperature during run
   SMASS  =  -3.00    Nose mass-parameter (am)
   estimated Nose-frequenzy (Omega)   =  0.10E-29 period in steps = 0.13E+47 mass=  -0.261E-26a.u.
   SCALEE = 1.0000    scale energy and forces
   NPACO  =    256;   APACO  = 10.0  distance and # of slots for P.C.
   PSTRESS=    0.0 pullay stress

  Mass of Ions in am
   POMASS =  28.09
  Ionic Valenz
   ZVAL   =   4.00
  Atomic Wigner-Seitz radii
   RWIGS  =  -1.00
  virtual crystal weights 
   VCA    =   1.00
   NELECT =     256.0000    total number of electrons
   NUPDOWN=      -1.0000    fix difference up-down

 DOS related values:
   EMIN   =  10.00;   EMAX   =-10.00  energy-range for DOS
   EFERMI =   0.00;   METHOD = LEGACY      
   ISMEAR =     1;   SIGMA  =   0.20  broadening in eV -4-tet -1-fermi 0-gaus

 Electronic relaxation 2 (details)
   IALGO  =     68    algorithm
   LDIAG  =      T    sub-space diagonalisation (order eigenvalues)
   LSUBROT=      F    optimize rotation matrix (better conditioning)
   TURBO    =      0    0=normal 1=particle mesh
   IRESTART =      0    0=no restart 2=restart with 2 vectors
   NREBOOT  =      0    no. of reboots
   NMIN     =      0    reboot dimension
   EREF     =   0.00    reference energy to select bands
   IMIX   =      4    mixing-type and parameters
     AMIX     =   0.40;   BMIX     =  1.00
     AMIX_MAG =   1.60;   BMIX_MAG =  1.00
     AMIN     =   0.10
     WC   =   100.;   INIMIX=   1;  MIXPRE=   1;  MAXMIX= -45

 Intra band minimization:
   WEIMIN = 0.0010     energy-eigenvalue tresh-hold
   EBREAK =  0.15E-08  absolut break condition
   DEPER  =   0.30     relativ break condition  

   TIME   =   0.40     timestep for ELM

  volume/ion in A,a.u.               =      18.71       126.26
  Fermi-wavevector in a.u.,A,eV,Ry     =   0.978909  1.849870 13.037964  0.958263
  Thomas-Fermi vector in A             =   2.109721
 
 Write flags
   LWAVE        =      F    write WAVECAR
   LDOWNSAMPLE  =      F    k-point downsampling of WAVECAR
   LCHARG       =      F    write CHGCAR
   LVTOT        =      F    write LOCPOT, total local potential
   LVHAR        =      F    write LOCPOT, Hartree potential only
   WRT_POTENTIAL= false  ! write potential to hdf5 file
   LELF         =      F    write electronic localiz. function (ELF)
   LORBIT       =      0    0 simple, 1 ext, 2 COOP (PROOUT), +10 PAW based schemes


 Dipole corrections
   LMONO      =      F    monopole corrections only (constant potential shift)
   LDIPOL     =      F    correct potential (dipole corrections)
   IDIPOL     =      0    1-x, 2-y, 3-z, 4-all directions 
   EPSILON    =  1.0000000 bulk dielectric constant
   LVACPOTAV  =      F  vacuum potentials using an averaging scheme for the charge density
   VACPOTFLAT =  0.1000000 required flatness to determine vacuum potential
 Exchange correlation treatment:
   GGA     = PS    functional components
   XC_C    = 1    coefficients multiplying the functional components
   LIBXC   =     F    Libxc                    
   VOSKOWN =     0    Vosko Wilk Nusair interpolation
   LHFCALC =     F    Hartree Fock is set to
   LHFONE  =     F    Hartree Fock one center treatment
   AEXX    =    0.0000 exact exchange contribution

 Parameters of functionals:
   PS:
     No parameter
 
 Van der Waals corrections
   IVDW    =     0    specifies the selected vdW correction

 Linear response parameters
   LEPSILON=     F    determine dielectric tensor
   LRPA    =     F    only Hartree local field effects (RPA)
   LNABLA  =     F    use nabla operator in PAW spheres
   LVEL    =     F    velocity operator in full k-point grid
   CSHIFT  =0.1000    complex shift for real part using Kramers Kronig
   OMEGAMAX=  -1.0    maximum frequency
   DEG_THRESHOLD= 0.2000000E-02 threshold for treating states as degnerate
   RTIME   =   -0.100 relaxation time in fs
  (WPLASMAI=    0.000 imaginary part of plasma frequency in eV, 0.658/RTIME)
   DFIELD  = 0.0000000 0.0000000 0.0000000 field for delta impulse in time
 
  Optional k-point grid parameters
   LKPOINTS_OPT  =     F    use optional k-point grid
   KPOINTS_OPT_MODE=     1    mode for optional k-point grid
 
 Orbital magnetization related:
   ORBITALMAG=     F  switch on orbital magnetization
   LCHIMAG   =     F  perturbation theory with respect to B field
   DQ        =  0.001000  dq finite difference perturbation B field
   LLRAUG    =     F  two centre corrections for induced B field
   LBONE     =     F  B-component reconstruction in AE one-centre
   LVGVCALC  =     T  calculate vGv susceptibility
   LVGVAPPL  =     F  apply vGv susceptibility instead of pGv for G=0

 Random number generation:
   RANDOM_GENERATOR = DEFAULT
   PCG_SEED         = not used


--------------------------------------------------------------------------------------------------------


 conjugate gradient relaxation of ions
 charge density and potential will be updated during run
 non-spin polarized calculation
 RMM-DIIS sequential band-by-band and
  variant of blocked Davidson during initial phase
 perform sub-space diagonalisation
    before iterative eigenvector-optimisation
 modified Broyden-mixing scheme, WC =      100.0
 initial mixing is a Kerker type mixing with AMIX =  0.4000 and BMIX =      1.0000
 Hartree-type preconditioning will be used
 using additional bands           34
 real space projection scheme for non local part
 use partial core corrections
 calculate Harris-corrections to forces 
   (improved forces if not selfconsistent)
 use gradient corrections 
 use of overlap-Matrix (Vanderbilt PP)
 Methfessel and Paxton  Order N= 1 SIGMA  =   0.20


--------------------------------------------------------------------------------------------------------


  energy-cutoff  :      400.00
  volume of cell :     1197.39
      direct lattice vectors                 reciprocal lattice vectors
    10.689651579  0.052919008  0.000000000     0.093550734 -0.000467753  0.000000000
     0.052919008 10.583813563  0.000000000    -0.000467753  0.094486240  0.000000000
     0.000000000  0.000000000 10.583813563     0.000000000  0.000000000  0.094483902

  length of vectors
    10.689782565 10.583945860 10.583813563     0.093551904  0.094487398  0.094483902


 
 k-points in units of 2pi/SCALE and weight: Automatic mesh                          
   0.00000000  0.00000000  0.00000000       0.125
   0.04677537 -0.00023388  0.00000000       0.125
  -0.00023388  0.04724313  0.00000000       0.125
   0.04654150  0.04700925  0.00000000       0.125
   0.00000000  0.00000000  0.04724196       0.125
   0.04677537 -0.00023388  0.04724196       0.125
  -0.00023388  0.04724313  0.04724196       0.125
   0.04654150  0.04700925  0.04724196       0.125
 
 k-points in reciprocal lattice and weights: Automatic mesh                          
   0.00000000  0.00000000  0.00000000       0.125
   0.50000000 -0.00000000  0.00000000       0.125
   0.00000000  0.50000000  0.00000000       0.125
   0.50000000  0.50000000  0.00000000       0.125
   0.00000000  0.00000000  0.50000000       0.125
   0.50000000 -0.00000000  0.50000000       0.125
   0.00000000  0.50000000  0.50000000       0.125
   0.50000000  0.50000000  0.50000000       0.125
 
 position of ions in fractional coordinates (direct lattice) 
   0.00000000  0.00000000  0.00000000
   0.00000000  0.00000000  0.50000000
   0.00000000  0.50000000  0.00000000
   0.00000000  0.50000000  0.50000000
   0.50000000  0.00000000  0.00000000
   0.50000000  0.00000000  0.50000000
   0.50000000  0.50000000  0.00000000
   0.50000000  0.50000000  0.50000000
   0.37500000  0.37500000  0.12500000
   0.37500000  0.37500000  0.62500000
   0.37500000  0.87500000  0.12500000
   0.37500000  0.87500000  0.62500000
   0.87500000  0.37500000  0.12500000
   0.87500000  0.37500000  0.62500000
   0.87500000  0.87500000  0.12500000
   0.87500000  0.87500000  0.62500000
   0.00000000  0.25000000  0.25000000
   0.00000000  0.25000000  0.75000000
   0.00000000  0.75000000  0.25000000
   0.00000000  0.75000000  0.75000000
   0.50000000  0.25000000  0.25000000
   0.50000000  0.25000000  0.75000000
   0.50000000  0.75000000  0.25000000
   0.50000000  0.75000000  0.75000000
   0.37500000  0.12500000  0.37500000
   0.37500000  0.12500000  0.87500000
   0.37500000  0.62500000  0.37500000
   0.37500000  0.62500000  0.87500000
   0.87500000  0.12500000  0.37500000
   0.87500000  0.12500000  0.87500000
   0.87500000  0.62500000  0.37500000
   0.87500000  0.62500000  0.87500000
   0.25000000  0.00000000  0.25000000
   0.25000000  0.00000000  0.75000000
   0.25000000  0.50000000  0.25000000
   0.25000000  0.50000000  0.75000000
   0.75000000  0.00000000  0.25000000
   0.75000000  0.00000000  0.75000000
   0.75000000  0.50000000  0.25000000
   0.75000000  0.50000000  0.75000000
   0.12500000  0.37500000  0.37500000
   0.12500000  0.37500000  0.87500000
   0.12500000  0.87500000  0.37500000
   0.12500000  0.87500000  0.87500000
   0.62500000  0.37500000  0.37500000
   0.62500000  0.37500000  0.87500000
   0.62500000  0.87500000  0.37500000
   0.62500000  0.87500000  0.87500000
   0.25000000  0.25000000  0.00000000
   0.25000000  0.25000000  0.50000000
   0.25000000  0.75000000  0.00000000
   0.25000000  0.75000000  0.50000000
   0.75000000  0.25000000  0.00000000
   0.75000000  0.25000000  0.50000000
   0.75000000  0.75000000  0.00000000
   0.75000000  0.75000000  0.50000000
   0.12500000  0.12500000  0.12500000
   0.12500000  0.12500000  0.62500000
   0.12500000  0.62500000  0.12500000
   0.12500000  0.62500000  0.62500000
   0.62500000  0.12500000  0.12500000
   0.62500000  0.12500000  0.62500000
   0.62500000  0.62500000  0.12500000
   0.62500000  0.62500000  0.62500000
 
 position of ions in cartesian coordinates  (Angst):
   0.00000000  0.00000000  0.00000000
   0.00000000  0.00000000  5.29190678
   0.02645950  5.29190678  0.00000000
   0.02645950  5.29190678  5.29190678
   5.34482579  0.02645950  0.00000000
   5.34482579  0.02645950  5.29190678
   5.37128529  5.31836629  0.00000000
   5.37128529  5.31836629  5.29190678
   4.02846397  3.98877471  1.32297670
   4.02846397  3.98877471  6.61488348
   4.05492347  9.28068150  1.32297670
   4.05492347  9.28068150  6.61488348
   9.37328976  4.01523422  1.32297670
   9.37328976  4.01523422  6.61488348
   9.39974926  9.30714100  1.32297670
   9.39974926  9.30714100  6.61488348
   0.01322975  2.64595339  2.64595339
   0.01322975  2.64595339  7.93786017
   0.03968926  7.93786017  2.64595339
   0.03968926  7.93786017  7.93786017
   5.35805554  2.67241289  2.64595339
   5.35805554  2.67241289  7.93786017
   5.38451505  7.96431968  2.64595339
   5.38451505  7.96431968  7.93786017
   4.01523422  1.34282132  3.96893009
   4.01523422  1.34282132  9.26083687
   4.04169372  6.63472810  3.96893009
   4.04169372  6.63472810  9.26083687
   9.36006001  1.36928083  3.96893009
   9.36006001  1.36928083  9.26083687
   9.38651951  6.66118761  3.96893009
   9.38651951  6.66118761  9.26083687
   2.67241289  0.01322975  2.64595339
   2.67241289  0.01322975  7.93786017
   2.69887240  5.30513653  2.64595339
   2.69887240  5.30513653  7.93786017
   8.01723868  0.03968926  2.64595339
   8.01723868  0.03968926  7.93786017
   8.04369819  5.33159604  2.64595339
   8.04369819  5.33159604  7.93786017
   1.35605108  3.97554496  3.96893009
   1.35605108  3.97554496  9.26083687
   1.38251058  9.26745174  3.96893009
   1.38251058  9.26745174  9.26083687
   6.70087686  4.00200447  3.96893009
   6.70087686  4.00200447  9.26083687
   6.72733637  9.29391125  3.96893009
   6.72733637  9.29391125  9.26083687
   2.68564265  2.65918314  0.00000000
   2.68564265  2.65918314  5.29190678
   2.71210215  7.95108992  0.00000000
   2.71210215  7.95108992  5.29190678
   8.03046844  2.68564265  0.00000000
   8.03046844  2.68564265  5.29190678
   8.05692794  7.97754943  0.00000000
   8.05692794  7.97754943  5.29190678
   1.34282132  1.32959157  1.32297670
   1.34282132  1.32959157  6.61488348
   1.36928083  6.62149835  1.32297670
   1.36928083  6.62149835  6.61488348
   6.68764711  1.35605108  1.32297670
   6.68764711  1.35605108  6.61488348
   6.71410662  6.64795786  1.32297670
   6.71410662  6.64795786  6.61488348
 


--------------------------------------------------------------------------------------------------------


 k-point     1 :   0.0000 0.0000 0.0000  plane waves:   21795
 k-point     2 :   0.5000-0.0000 0.0000  plane waves:   21730
 k-point     3 :   0.0000 0.5000 0.0000  plane waves:   21748
 k-point     4 :   0.5000 0.5000 0.0000  plane waves:   21742
 k-point     5 :   0.0000 0.0000 0.5000  plane waves:   21750
 k-point     6 :   0.5000-0.0000 0.5000  plane waves:   21724
 k-point     7 :   0.0000 0.5000 0.5000  plane waves:   21764
 k-point     8 :   0.5000 0.5000 0.5000  plane waves:   21792

 maximum and minimum number of plane-waves per node :      1846     1786

 maximum number of plane-waves:     21795
 maximum index in each direction: 
   IXMAX=   17   IYMAX=   17   IZMAX=   17
   IXMIN=  -17   IYMIN=  -17   IZMIN=  -17


 real space projection operators:
  total allocation   :      12277.50 KBytes
  max/ min on nodes  :       1068.75        885.25


 parallel 3D FFT for wavefunctions:
    minimum data exchange during FFTs selected (reduces bandwidth)
 parallel 3D FFT for charge:
    minimum data exchange during FFTs selected (reduces bandwidth)


 total amount of memory used by VASP MPI-rank0    79086. kBytes
=======================================================================

   base      :      30000. kBytes
   nonlr-proj:       4746. kBytes
   fftplans  :      17991. kBytes
   grid      :       6881. kBytes
   one-center:         18. kBytes
   wavefun   :      19450. kBytes
 
     INWAV:  cpu time      0.0001: real time      0.0002
 Broyden mixing: mesh for mixing (old mesh)
   NGX = 35   NGY = 35   NGZ = 35
  (NGX  =140   NGY  =140   NGZ  =140)
  gives a total of  42875 points

 initial charge density was supplied:
 charge density of overlapping atoms calculated
 number of electron     256.0000000 magnetization 
 keeping initial charge density in first step


--------------------------------------------------------------------------------------------------------


 Maximum index for non-local projection operator          286
 Maximum index for augmentation-charges         3784 (set IRDMAX)


--------------------------------------------------------------------------------------------------------


 First call to EWALD:  gamma=   0.167
 Maximum number of real-space cells 3x 3x 3
 Maximum number of reciprocal cells 3x 3x 3

    FEWALD:  cpu time      0.0045: real time      0.0045


--------------------------------------- Ionic step        1  -------------------------------------------




--------------------------------------- Iteration      1(   1)  ---------------------------------------


    POTLOK:  cpu time      0.0908: real time      0.0995
    SETDIJ:  cpu time      0.0865: real time      0.0871
     EDDAV:  cpu time      1.2717: real time      1.3296
       DOS:  cpu time      0.0108: real time      0.0133
    --------------------------------------------
      LOOP:  cpu time      1.4598: real time      1.5296

 eigenvalue-minimisations  :  2592
 total energy-change (2. order) : 0.5734480E+03  (-0.8501940E+04)
 number of electron     256.0000000 magnetization 
 augmentation part      256.0000000 magnetization 

 Free energy of the ion-electron system (eV)
  ---------------------------------------------------
  alpha Z        PSCENC =       115.15353924
  Ewald energy   TEWEN  =     -7480.08011421
  -Hartree energ DENC   =      -320.45411206
  -exchange      EXHF   =         0.00000000
  -V(xc)+E(xc)   XCENC  =      -550.52696897
  PAW double counting   =      5598.62625415    -4492.17844134
  entropy T*S    EENTRO =        -0.00250739
  eigenvalues    EBANDS =      1138.11446292
  atomic energy  EATOM  =      6564.79586099
  Solvation  Ediel_sol  =         0.00000000
  ---------------------------------------------------
  free energy    TOTEN  =       573.44797334 eV

  energy without entropy =      573.45048073  energy(sigma->0) =      573.44880914


--------------------------------------------------------------------------------------------------------




--------------------------------------- Iteration      1(   2)  ---------------------------------------


     EDDAV:  cpu time      1.3229: real time      1.3294
       DOS:  cpu time      0.0012: real time      0.0012
    --------------------------------------------
      LOOP:  cpu time      1.3241: real time      1.3306

 eigenvalue-minimisations  :  3096
 total energy-change (2. order) :-0.8829485E+03  (-0.8368492E+03)
 number of electron     256.0000000 magnetization 
 augmentation part      256.0000000 magnetization 

 Free energy of the ion-electron system (eV)
  ---------------------------------------------------
  alpha Z        PSCENC =       115.15353924
  Ewald energy   TEWEN  =     -7480.08011421
  -Hartree energ DENC   =      -320.45411206
  -exchange      EXHF   =         0.00000000
  -V(xc)+E(xc)   XCENC  =      -550.52696897
  PAW double counting   =      5598.62625415    -4492.17844134
  entropy T*S    EENTRO =        -0.00658995
  eigenvalues    EBANDS =       255.17007541
  atomic energy  EATOM  =      6564.79586099
  Solvation  Ediel_sol  =         0.00000000
  ---------------------------------------------------
  free energy    TOTEN  =      -309.50049673 eV

  energy without entropy =     -309.49390678  energy(sigma->0) =     -309.49830008


--------------------------------------------------------------------------------------------------------




--------------------------------------- Iteration      1(   3)  ---------------------------------------


     EDDAV:  cpu time      1.3305: real time      1.3446
       DOS:  cpu time      0.0015: real time      0.0015
    --------------------------------------------
      LOOP:  cpu time      1.3319: real time      1.3461

 eigenvalue-minimisations  :  3128
 total energy-change (2. order) :-0.6306650E+02  (-0.6175627E+02)
 number of electron     256.0000000 magnetization 
 augmentation part      256.0000000 magnetization 

 Free energy of the ion-electron system (eV)
  ---------------------------------------------------
  alpha Z        PSCENC =       115.15353924
  Ewald energy   TEWEN  =     -7480.08011421
  -Hartree energ DENC   =      -320.45411206
  -exchange      EXHF   =         0.00000000
  -V(xc)+E(xc)   XCENC  =      -550.52696897
  PAW double counting   =      5598.62625415    -4492.17844134
  entropy T*S    EENTRO =         0.00740021
  eigenvalues    EBANDS =       192.08958277
  atomic energy  EATOM  =      6564.79586099
  Solvation  Ediel_sol  =         0.00000000
  ---------------------------------------------------
  free energy    TOTEN  =      -372.56699921 eV

  energy without entropy =     -372.57439942  energy(sigma->0) =     -372.56946595


--------------------------------------------------------------------------------------------------------




--------------------------------------- Iteration      1(   4)  ---------------------------------------


     EDDAV:  cpu time      1.2949: real time      1.3132
       DOS:  cpu time      0.0014: real time      0.0014
    --------------------------------------------
      LOOP:  cpu time      1.2963: real time      1.3146

 eigenvalue-minimisations  :  3120
 total energy-change (2. order) :-0.1587301E+01  (-0.1575806E+01)
 number of electron     256.0000000 magnetization 
 augmentation part      256.0000000 magnetization 

 Free energy of the ion-electron system (eV)
  ---------------------------------------------------
  alpha Z        PSCENC =       115.15353924
  Ewald energy   TEWEN  =     -7480.08011421
  -Hartree energ DENC   =      -320.45411206
  -exchange      EXHF   =         0.00000000
  -V(xc)+E(xc)   XCENC  =      -550.52696897
  PAW double counting   =      5598.62625415    -4492.17844134
  entropy T*S    EENTRO =         0.00802134
  eigenvalues    EBANDS =       190.50166099
  atomic energy  EATOM  =      6564.79586099
  Solvation  Ediel_sol  =         0.00000000
  ---------------------------------------------------
  free energy    TOTEN  =      -374.15429986 eV

  energy without entropy =     -374.16232120  energy(sigma->0) =     -374.15697364


--------------------------------------------------------------------------------------------------------




--------------------------------------- Iteration      1(   5)  ---------------------------------------


     EDDAV:  cpu time      1.2979: real time      1.3193
       DOS:  cpu time      0.0012: real time      0.0012
    CHARGE:  cpu time      0.2480: real time      0.2518
    MIXING:  cpu time      0.0089: real time      0.0109
    --------------------------------------------
      LOOP:  cpu time      1.5560: real time      1.5832

 eigenvalue-minimisations  :  3102
 total energy-change (2. order) :-0.5169646E-01  (-0.5158522E-01)
 number of electron     255.9999998 magnetization 
 augmentation part      -15.1267068 magnetization 

 Broyden mixing:
  rms(total) = 0.30709E+01    rms(broyden)= 0.30709E+01
  rms(prec ) = 0.33787E+01
  weight for this iteration     100.00

 Free energy of the ion-electron system (eV)
  ---------------------------------------------------
  alpha Z        PSCENC =       115.15353924
  Ewald energy   TEWEN  =     -7480.08011421
  -Hartree energ DENC   =      -320.45411206
  -exchange      EXHF   =         0.00000000
  -V(xc)+E(xc)   XCENC  =      -550.52696897
  PAW double counting   =      5598.62625415    -4492.17844134
  entropy T*S    EENTRO =         0.00801552
  eigenvalues    EBANDS =       190.44997035
  atomic energy  EATOM  =      6564.79586099
  Solvation  Ediel_sol  =         0.00000000
  ---------------------------------------------------
  free energy    TOTEN  =      -374.20599632 eV

  energy without entropy =     -374.21401184  energy(sigma->0) =     -374.20866816


--------------------------------------------------------------------------------------------------------




--------------------------------------- Iteration      1(   6)  ---------------------------------------


    POTLOK:  cpu time      0.0764: real time      0.0883
    SETDIJ:  cpu time      0.0704: real time      0.0706
    EDDIAG:  cpu time      0.1372: real time      0.1395
  RMM-DIIS:  cpu time      0.6782: real time      0.7056
    ORTHCH:  cpu time      0.0204: real time      0.0211
       DOS:  cpu time      0.0015: real time      0.0015
    CHARGE:  cpu time      0.2302: real time      0.2335
    MIXING:  cpu time      0.0050: real time      0.0086
    --------------------------------------------
      LOOP:  cpu time      1.2193: real time      1.2687

 eigenvalue-minimisations  :  2592
 total energy-change (2. order) : 0.6061360E+01  (-0.3182074E+00)
 number of electron     255.9999998 magnetization 
 augmentation part      -14.9393440 magnetization 

 Broyden mixing:
  rms(total) = 0.18534E+01    rms(broyden)= 0.18534E+01
  rms(prec ) = 0.20256E+01
  weight for this iteration     100.00

 eigenvalues of (default mixing * dielectric matrix)
  average eigenvalue GAMMA=   2.5158
  2.5158

 Free energy of the ion-electron system (eV)
  ---------------------------------------------------
  alpha Z        PSCENC =       115.15353924
  Ewald energy   TEWEN  =     -7480.08011421
  -Hartree energ DENC   =      -370.06925410
  -exchange      EXHF   =         0.00000000
  -V(xc)+E(xc)   XCENC  =      -542.66272878
  PAW double counting   =     13320.63432274   -12218.20870597
  entropy T*S    EENTRO =         0.02159099
  eigenvalues    EBANDS =       242.27085248
  atomic energy  EATOM  =      6564.79586099
  Solvation  Ediel_sol  =         0.00000000
  ---------------------------------------------------
  free energy    TOTEN  =      -368.14463661 eV

  energy without entropy =     -368.16622760  energy(sigma->0) =     -368.15183361


--------------------------------------------------------------------------------------------------------




--------------------------------------- Iteration      1(   7)  ---------------------------------------


    POTLOK:  cpu time      0.0737: real time      0.0878
    SETDIJ:  cpu time      0.0706: real time      0.0707
    EDDIAG:  cpu time      0.1322: real time      0.1325
  RMM-DIIS:  cpu time      0.7105: real time      0.7127
    ORTHCH:  cpu time      0.0209: real time      0.0209
       DOS:  cpu time      0.0014: real time      0.0014
    CHARGE:  cpu time      0.2336: real time      0.2342
    MIXING:  cpu time      0.0062: real time      0.0073
    --------------------------------------------
      LOOP:  cpu time      1.2491: real time      1.2675

 eigenvalue-minimisations  :  2653
 total energy-change (2. order) : 0.2631552E+01  (-0.8037102E+00)
 number of electron     255.9999998 magnetization 
 augmentation part      -14.6746047 magnetization 

 Broyden mixing:
  rms(total) = 0.11768E+00    rms(broyden)= 0.11768E+00
  rms(prec ) = 0.14737E+00
  weight for this iteration     100.00

 eigenvalues of (default mixing * dielectric matrix)
  average eigenvalue GAMMA=   2.3010
  2.3010  2.3010

 Free energy of the ion-electron system (eV)
  ---------------------------------------------------
  alpha Z        PSCENC =       115.15353924
  Ewald energy   TEWEN  =     -7480.08011421
  -Hartree energ DENC   =      -451.72306976
  -exchange      EXHF   =         0.00000000
  -V(xc)+E(xc)   XCENC  =      -529.13208056
  PAW double counting   =     32474.57762187   -31377.80467950
  entropy T*S    EENTRO =         0.02639002
  eigenvalues    EBANDS =       318.67344709
  atomic energy  EATOM  =      6564.79586099
  Solvation  Ediel_sol  =         0.00000000
  ---------------------------------------------------
  free energy    TOTEN  =      -365.51308481 eV

  energy without entropy =     -365.53947483  energy(sigma->0) =     -365.52188149


--------------------------------------------------------------------------------------------------------




--------------------------------------- Iteration      1(   8)  ---------------------------------------


    POTLOK:  cpu time      0.0734: real time      0.0891
    SETDIJ:  cpu time      0.0709: real time      0.0710
    EDDIAG:  cpu time      0.1345: real time      0.1355
  RMM-DIIS:  cpu time      0.6959: real time      0.6979
    ORTHCH:  cpu time      0.0211: real time      0.0212
       DOS:  cpu time      0.0013: real time      0.0014
    CHARGE:  cpu time      0.2335: real time      0.2341
    MIXING:  cpu time      0.0098: real time      0.0103
    --------------------------------------------
      LOOP:  cpu time      1.2404: real time      1.2604

 eigenvalue-minimisations  :  2614
 total energy-change (2. order) :-0.3405760E-01  (-0.7401977E-01)
 number of electron     255.9999998 magnetization 
 augmentation part      -14.7335007 magnetization 

 Broyden mixing:
  rms(total) = 0.54010E-01    rms(broyden)= 0.54010E-01
  rms(prec ) = 0.57836E-01
  weight for this iteration     100.00

 eigenvalues of (default mixing * dielectric matrix)
  average eigenvalue GAMMA=   2.1019
  2.5578  1.8739  1.8739

 Free energy of the ion-electron system (eV)
  ---------------------------------------------------
  alpha Z        PSCENC =       115.15353924
  Ewald energy   TEWEN  =     -7480.08011421
  -Hartree energ DENC   =      -442.50042130
  -exchange      EXHF   =         0.00000000
  -V(xc)+E(xc)   XCENC  =      -529.90532911
  PAW double counting   =     32261.90784341   -31164.04212112
  entropy T*S    EENTRO =         0.03080245
  eigenvalues    EBANDS =       309.09279723
  atomic energy  EATOM  =      6564.79586099
  Solvation  Ediel_sol  =         0.00000000
  ---------------------------------------------------
  free energy    TOTEN  =      -365.54714241 eV

  energy without entropy =     -365.57794486  energy(sigma->0) =     -365.55740989


--------------------------------------------------------------------------------------------------------




--------------------------------------- Iteration      1(   9)  ---------------------------------------


    POTLOK:  cpu time      0.0712: real time      0.0877
    SETDIJ:  cpu time      0.0709: real time      0.0726
    EDDIAG:  cpu time      0.1327: real time      0.1353
  RMM-DIIS:  cpu time      0.7199: real time      0.7220
    ORTHCH:  cpu time      0.0200: real time      0.0200
       DOS:  cpu time      0.0015: real time      0.0017
    CHARGE:  cpu time      0.2329: real time      0.2335
    MIXING:  cpu time      0.0077: real time      0.0078
    --------------------------------------------
      LOOP:  cpu time      1.2569: real time      1.2806

 eigenvalue-minimisations  :  2669
 total energy-change (2. order) :-0.2329197E-01  (-0.2238183E-01)
 number of electron     255.9999998 magnetization 
 augmentation part      -14.7182664 magnetization 

 Broyden mixing:
  rms(total) = 0.61111E-01    rms(broyden)= 0.61111E-01
  rms(prec ) = 0.69642E-01
  weight for this iteration     100.00

 eigenvalues of (default mixing * dielectric matrix)
  average eigenvalue GAMMA=   1.9480
  2.5466  2.4053  2.4053  0.4347

 Free energy of the ion-electron system (eV)
  ---------------------------------------------------
  alpha Z        PSCENC =       115.15353924
  Ewald energy   TEWEN  =     -7480.08011421
  -Hartree energ DENC   =      -446.00258379
  -exchange      EXHF   =         0.00000000
  -V(xc)+E(xc)   XCENC  =      -529.44038483
  PAW double counting   =     32695.08045920   -31597.52267466
  entropy T*S    EENTRO =         0.02987532
  eigenvalues    EBANDS =       312.41558835
  atomic energy  EATOM  =      6564.79586099
  Solvation  Ediel_sol  =         0.00000000
  ---------------------------------------------------
  free energy    TOTEN  =      -365.57043438 eV

  energy without entropy =     -365.60030970  energy(sigma->0) =     -365.58039282


--------------------------------------------------------------------------------------------------------




--------------------------------------- Iteration      1(  10)  ---------------------------------------


    POTLOK:  cpu time      0.0734: real time      0.0891
    SETDIJ:  cpu time      0.0710: real time      0.0711
    EDDIAG:  cpu time      0.1328: real time      0.1332
  RMM-DIIS:  cpu time      0.7208: real time      0.7227
    ORTHCH:  cpu time      0.0204: real time      0.0204
       DOS:  cpu time      0.0014: real time      0.0014
    CHARGE:  cpu time      0.2346: real time      0.2352
    MIXING:  cpu time      0.0068: real time      0.0068
    --------------------------------------------
      LOOP:  cpu time      1.2611: real time      1.2799

 eigenvalue-minimisations  :  2730
 total energy-change (2. order) :-0.4354191E-02  (-0.3951433E-02)
 number of electron     255.9999998 magnetization 
 augmentation part      -14.7245090 magnetization 

 Broyden mixing:
  rms(total) = 0.81758E-01    rms(broyden)= 0.81758E-01
  rms(prec ) = 0.89437E-01
  weight for this iteration     100.00

 eigenvalues of (default mixing * dielectric matrix)
  average eigenvalue GAMMA=   1.5734
  2.6468  2.0438  2.0438  0.5661  0.5661

 Free energy of the ion-electron system (eV)
  ---------------------------------------------------
  alpha Z        PSCENC =       115.15353924
  Ewald energy   TEWEN  =     -7480.08011421
  -Hartree energ DENC   =      -446.13604941
  -exchange      EXHF   =         0.00000000
  -V(xc)+E(xc)   XCENC  =      -529.42586424
  PAW double counting   =     32727.34281686   -31629.79078778
  entropy T*S    EENTRO =         0.02981329
  eigenvalues    EBANDS =       312.53599668
  atomic energy  EATOM  =      6564.79586099
  Solvation  Ediel_sol  =         0.00000000
  ---------------------------------------------------
  free energy    TOTEN  =      -365.57478857 eV

  energy without entropy =     -365.60460187  energy(sigma->0) =     -365.58472634


--------------------------------------------------------------------------------------------------------




--------------------------------------- Iteration      1(  11)  ---------------------------------------


    POTLOK:  cpu time      0.0788: real time      0.0882
    SETDIJ:  cpu time      0.0712: real time      0.0713
    EDDIAG:  cpu time      0.1316: real time      0.1319
  RMM-DIIS:  cpu time      0.6898: real time      0.6920
    ORTHCH:  cpu time      0.0203: real time      0.0203
       DOS:  cpu time      0.0012: real time      0.0012
    CHARGE:  cpu time      0.2332: real time      0.2337
    MIXING:  cpu time      0.0066: real time      0.0066
    --------------------------------------------
      LOOP:  cpu time      1.2326: real time      1.2453

 eigenvalue-minimisations  :  2592
 total energy-change (2. order) : 0.4551896E-02  (-0.1383703E-02)
 number of electron     255.9999998 magnetization 
 augmentation part      -14.7393954 magnetization 

 Broyden mixing:
  rms(total) = 0.65565E-01    rms(broyden)= 0.65565E-01
  rms(prec ) = 0.66182E-01
  weight for this iteration     100.00

 eigenvalues of (default mixing * dielectric matrix)
  average eigenvalue GAMMA=   1.4282
  2.5456  2.5456  1.4235  0.8856  0.8856  0.2832

 Free energy of the ion-electron system (eV)
  ---------------------------------------------------
  alpha Z        PSCENC =       115.15353924
  Ewald energy   TEWEN  =     -7480.08011421
  -Hartree energ DENC   =      -443.39339679
  -exchange      EXHF   =         0.00000000
  -V(xc)+E(xc)   XCENC  =      -529.63441744
  PAW double counting   =     32663.17561230   -31565.34934819
  entropy T*S    EENTRO =         0.03089950
  eigenvalues    EBANDS =       309.73112792
  atomic energy  EATOM  =      6564.79586099
  Solvation  Ediel_sol  =         0.00000000
  ---------------------------------------------------
  free energy    TOTEN  =      -365.57023668 eV

  energy without entropy =     -365.60113618  energy(sigma->0) =     -365.58053651


--------------------------------------------------------------------------------------------------------




--------------------------------------- Iteration      1(  12)  ---------------------------------------


    POTLOK:  cpu time      0.0749: real time      0.0876
    SETDIJ:  cpu time      0.0709: real time      0.0711
    EDDIAG:  cpu time      0.1328: real time      0.1331
  RMM-DIIS:  cpu time      0.6973: real time      0.6993
    ORTHCH:  cpu time      0.0203: real time      0.0203
       DOS:  cpu time      0.0016: real time      0.0016
    CHARGE:  cpu time      0.2330: real time      0.2336
    MIXING:  cpu time      0.0071: real time      0.0071
    --------------------------------------------
      LOOP:  cpu time      1.2378: real time      1.2537

 eigenvalue-minimisations  :  2617
 total energy-change (2. order) :-0.1646465E-03  (-0.1923341E-03)
 number of electron     255.9999998 magnetization 
 augmentation part      -14.7425433 magnetization 

 Broyden mixing:
  rms(total) = 0.65100E-01    rms(broyden)= 0.65100E-01
  rms(prec ) = 0.65517E-01
  weight for this iteration     100.00

 eigenvalues of (default mixing * dielectric matrix)
  average eigenvalue GAMMA=   1.3853
  2.5571  2.5571  1.5996  0.9577  0.9577  0.7056  0.3622

 Free energy of the ion-electron system (eV)
  ---------------------------------------------------
  alpha Z        PSCENC =       115.15353924
  Ewald energy   TEWEN  =     -7480.08011421
  -Hartree energ DENC   =      -443.24574684
  -exchange      EXHF   =         0.00000000
  -V(xc)+E(xc)   XCENC  =      -529.66030492
  PAW double counting   =     32583.47772565   -31485.66073837
  entropy T*S    EENTRO =         0.03092457
  eigenvalues    EBANDS =       309.61845256
  atomic energy  EATOM  =      6564.79586099
  Solvation  Ediel_sol  =         0.00000000
  ---------------------------------------------------
  free energy    TOTEN  =      -365.57040132 eV

  energy without entropy =     -365.60132589  energy(sigma->0) =     -365.58070951


--------------------------------------------------------------------------------------------------------




--------------------------------------- Iteration      1(  13)  ---------------------------------------


    POTLOK:  cpu time      0.0738: real time      0.0892
    SETDIJ:  cpu time      0.0714: real time      0.0716
    EDDIAG:  cpu time      0.1319: real time      0.1323
  RMM-DIIS:  cpu time      0.7130: real time      0.7422
    ORTHCH:  cpu time      0.0194: real time      0.0208
       DOS:  cpu time      0.0028: real time      0.0030
    CHARGE:  cpu time      0.2375: real time      0.2389
    MIXING:  cpu time      0.0082: real time      0.0082
    --------------------------------------------
      LOOP:  cpu time      1.2580: real time      1.3061

 eigenvalue-minimisations  :  2738
 total energy-change (2. order) :-0.7027977E-04  (-0.3707075E-04)
 number of electron     255.9999998 magnetization 
 augmentation part      -14.7431092 magnetization 

 Broyden mixing:
  rms(total) = 0.72632E-01    rms(broyden)= 0.72632E-01
  rms(prec ) = 0.73010E-01
  weight for this iteration     100.00

 eigenvalues of (default mixing * dielectric matrix)
  average eigenvalue GAMMA=   1.7209
  3.0514  3.0514  2.4507  2.0867  0.9888  0.8760  0.8760  0.3862

 Free energy of the ion-electron system (eV)
  ---------------------------------------------------
  alpha Z        PSCENC =       115.15353924
  Ewald energy   TEWEN  =     -7480.08011421
  -Hartree energ DENC   =      -443.28113555
  -exchange      EXHF   =         0.00000000
  -V(xc)+E(xc)   XCENC  =      -529.65000804
  PAW double counting   =     32643.60771295   -31545.79189196
  entropy T*S    EENTRO =         0.03092601
  eigenvalues    EBANDS =       309.64463896
  atomic energy  EATOM  =      6564.79586099
  Solvation  Ediel_sol  =         0.00000000
  ---------------------------------------------------
  free energy    TOTEN  =      -365.57047160 eV

  energy without entropy =     -365.60139762  energy(sigma->0) =     -365.58078028


--------------------------------------------------------------------------------------------------------




--------------------------------------- Iteration      1(  14)  ---------------------------------------


    POTLOK:  cpu time      0.0702: real time      0.0885
    SETDIJ:  cpu time      0.0699: real time      0.0703
    EDDIAG:  cpu time      0.1308: real time      0.1313
  RMM-DIIS:  cpu time      0.6901: real time      0.6937
    ORTHCH:  cpu time      0.0209: real time      0.0210
       DOS:  cpu time      0.0014: real time      0.0015
    CHARGE:  cpu time      0.2322: real time      0.2334
    MIXING:  cpu time      0.0067: real time      0.0067
    --------------------------------------------
      LOOP:  cpu time      1.2221: real time      1.2463

 eigenvalue-minimisations  :  2603
 total energy-change (2. order) : 0.2723900E-04  (-0.1052329E-04)
 number of electron     255.9999998 magnetization 
 augmentation part      -14.7434221 magnetization 

 Broyden mixing:
  rms(total) = 0.29876E-01    rms(broyden)= 0.29876E-01
  rms(prec ) = 0.30330E-01
  weight for this iteration     100.00

 eigenvalues of (default mixing * dielectric matrix)
  average eigenvalue GAMMA=   1.4886
  2.5454  2.5454  2.5255  1.9384  0.9526  0.9526  0.9144  0.3944  0.6288

 Free energy of the ion-electron system (eV)
  ---------------------------------------------------
  alpha Z        PSCENC =       115.15353924
  Ewald energy   TEWEN  =     -7480.08011421
  -Hartree energ DENC   =      -443.03378812
  -exchange      EXHF   =         0.00000000
  -V(xc)+E(xc)   XCENC  =      -529.70373212
  PAW double counting   =     32260.24271745   -31162.45529473
  entropy T*S    EENTRO =         0.03095107
  eigenvalues    EBANDS =       309.47941607
  atomic energy  EATOM  =      6564.79586099
  Solvation  Ediel_sol  =         0.00000000
  ---------------------------------------------------
  free energy    TOTEN  =      -365.57044437 eV

  energy without entropy =     -365.60139543  energy(sigma->0) =     -365.58076139


--------------------------------------------------------------------------------------------------------




--------------------------------------- Iteration      1(  15)  ---------------------------------------


    POTLOK:  cpu time      0.0712: real time      0.0885
    SETDIJ:  cpu time      0.0696: real time      0.0713
    EDDIAG:  cpu time      0.1314: real time      0.1364
  RMM-DIIS:  cpu time      0.6878: real time      0.7149
    ORTHCH:  cpu time      0.0201: real time      0.0207
       DOS:  cpu time      0.0014: real time      0.0014
    CHARGE:  cpu time      0.2307: real time      0.2343
    MIXING:  cpu time      0.0066: real time      0.0067
    --------------------------------------------
      LOOP:  cpu time      1.2189: real time      1.2744

 eigenvalue-minimisations  :  2635
 total energy-change (2. order) :-0.9880986E-04  (-0.4661996E-05)
 number of electron     255.9999998 magnetization 
 augmentation part      -14.7437413 magnetization 

 Broyden mixing:
  rms(total) = 0.28844E-01    rms(broyden)= 0.28844E-01
  rms(prec ) = 0.29130E-01
  weight for this iteration     100.00

 eigenvalues of (default mixing * dielectric matrix)
  average eigenvalue GAMMA=   1.4440
  2.6342  2.6342  2.3520  1.7121  0.9251  0.9251  0.9986  0.9986  0.8726  0.3877

 Free energy of the ion-electron system (eV)
  ---------------------------------------------------
  alpha Z        PSCENC =       115.15353924
  Ewald energy   TEWEN  =     -7480.08011421
  -Hartree energ DENC   =      -443.04462202
  -exchange      EXHF   =         0.00000000
  -V(xc)+E(xc)   XCENC  =      -529.69152430
  PAW double counting   =     32310.02596509   -31212.23256782
  entropy T*S    EENTRO =         0.03098468
  eigenvalues    EBANDS =       309.47193517
  atomic energy  EATOM  =      6564.79586099
  Solvation  Ediel_sol  =         0.00000000
  ---------------------------------------------------
  free energy    TOTEN  =      -365.57054318 eV

  energy without entropy =     -365.60152785  energy(sigma->0) =     -365.58087140


--------------------------------------------------------------------------------------------------------




--------------------------------------- Iteration      1(  16)  ---------------------------------------


    POTLOK:  cpu time      0.0814: real time      0.0886
    SETDIJ:  cpu time      0.0738: real time      0.0740
    EDDIAG:  cpu time      0.1320: real time      0.1323
  RMM-DIIS:  cpu time      0.6990: real time      0.7009
    ORTHCH:  cpu time      0.0267: real time      0.0268
       DOS:  cpu time      0.0012: real time      0.0012
    CHARGE:  cpu time      0.2346: real time      0.2352
    MIXING:  cpu time      0.0099: real time      0.0099
    --------------------------------------------
      LOOP:  cpu time      1.2587: real time      1.2689

 eigenvalue-minimisations  :  2592
 total energy-change (2. order) :-0.6588543E-04  (-0.2992581E-05)
 number of electron     255.9999998 magnetization 
 augmentation part      -14.7432876 magnetization 

 Broyden mixing:
  rms(total) = 0.22981E-01    rms(broyden)= 0.22981E-01
  rms(prec ) = 0.23115E-01
  weight for this iteration     100.00

 eigenvalues of (default mixing * dielectric matrix)
  average eigenvalue GAMMA=   1.4848
  2.6915  2.6915  2.2420  2.2420  1.2293  1.2293  0.9627  0.9627  0.8463  0.8463
  0.3890

 Free energy of the ion-electron system (eV)
  ---------------------------------------------------
  alpha Z        PSCENC =       115.15353924
  Ewald energy   TEWEN  =     -7480.08011421
  -Hartree energ DENC   =      -443.20169312
  -exchange      EXHF   =         0.00000000
  -V(xc)+E(xc)   XCENC  =      -529.67407776
  PAW double counting   =     32327.79361955   -31230.00222407
  entropy T*S    EENTRO =         0.03098328
  eigenvalues    EBANDS =       309.61349704
  atomic energy  EATOM  =      6564.79586099
  Solvation  Ediel_sol  =         0.00000000
  ---------------------------------------------------
  free energy    TOTEN  =      -365.57060906 eV

  energy without entropy =     -365.60159235  energy(sigma->0) =     -365.58093682


--------------------------------------------------------------------------------------------------------




--------------------------------------- Iteration      1(  17)  ---------------------------------------


    POTLOK:  cpu time      0.0724: real time      0.0901
    SETDIJ:  cpu time      0.0720: real time      0.0736
    EDDIAG:  cpu time      0.1333: real time      0.1337
  RMM-DIIS:  cpu time      0.6901: real time      0.6920
    ORTHCH:  cpu time      0.0201: real time      0.0202
       DOS:  cpu time      0.0018: real time      0.0018
    CHARGE:  cpu time      0.2331: real time      0.2336
    MIXING:  cpu time      0.0090: real time      0.0090
    --------------------------------------------
      LOOP:  cpu time      1.2317: real time      1.2541

 eigenvalue-minimisations  :  2592
 total energy-change (2. order) :-0.1174563E-04  (-0.9166352E-06)
 number of electron     255.9999998 magnetization 
 augmentation part      -14.7432027 magnetization 

 Broyden mixing:
  rms(total) = 0.75131E-02    rms(broyden)= 0.75130E-02
  rms(prec ) = 0.76058E-02
  weight for this iteration     100.00

 eigenvalues of (default mixing * dielectric matrix)
  average eigenvalue GAMMA=   1.6696
  2.9251  2.9251  2.1098  2.1098  2.4986  2.0616  1.0687  1.0687  0.9883  0.9883
  0.9025  0.3888

 Free energy of the ion-electron system (eV)
  ---------------------------------------------------
  alpha Z        PSCENC =       115.15353924
  Ewald energy   TEWEN  =     -7480.08011421
  -Hartree energ DENC   =      -443.18119867
  -exchange      EXHF   =         0.00000000
  -V(xc)+E(xc)   XCENC  =      -529.68602877
  PAW double counting   =     32219.05535834   -31121.26508826
  entropy T*S    EENTRO =         0.03099710
  eigenvalues    EBANDS =       309.60605341
  atomic energy  EATOM  =      6564.79586099
  Solvation  Ediel_sol  =         0.00000000
  ---------------------------------------------------
  free energy    TOTEN  =      -365.57062081 eV

  energy without entropy =     -365.60161791  energy(sigma->0) =     -365.58095317


--------------------------------------------------------------------------------------------------------




--------------------------------------- Iteration      1(  18)  ---------------------------------------


    POTLOK:  cpu time      0.0708: real time      0.0884
    SETDIJ:  cpu time      0.0724: real time      0.0740
    EDDIAG:  cpu time      0.1298: real time      0.1326
  RMM-DIIS:  cpu time      0.5830: real time      0.6020
    ORTHCH:  cpu time      0.0206: real time      0.0212
       DOS:  cpu time      0.0015: real time      0.0015
    CHARGE:  cpu time      0.2318: real time      0.2350
    MIXING:  cpu time      0.0069: real time      0.0070
    --------------------------------------------
      LOOP:  cpu time      1.1167: real time      1.1617

 eigenvalue-minimisations  :  2232
 total energy-change (2. order) :-0.7529190E-05  (-0.4799771E-06)
 number of electron     255.9999998 magnetization 
 augmentation part      -14.7430187 magnetization 

 Broyden mixing:
  rms(total) = 0.17382E-02    rms(broyden)= 0.17382E-02
  rms(prec ) = 0.17839E-02
  weight for this iteration     100.00

 eigenvalues of (default mixing * dielectric matrix)
  average eigenvalue GAMMA=   1.5435
  2.9130  2.9130  2.0622  2.0622  2.4990  2.0747  0.9862  0.9862  1.0606  1.0606
  0.9019  0.3888  0.1566

 Free energy of the ion-electron system (eV)
  ---------------------------------------------------
  alpha Z        PSCENC =       115.15353924
  Ewald energy   TEWEN  =     -7480.08011421
  -Hartree energ DENC   =      -443.20953304
  -exchange      EXHF   =         0.00000000
  -V(xc)+E(xc)   XCENC  =      -529.68516147
  PAW double counting   =     32195.12040162   -31097.33032073
  entropy T*S    EENTRO =         0.03100269
  eigenvalues    EBANDS =       309.63369655
  atomic energy  EATOM  =      6564.79586099
  Solvation  Ediel_sol  =         0.00000000
  ---------------------------------------------------
  free energy    TOTEN  =      -365.57062834 eV

  energy without entropy =     -365.60163103  energy(sigma->0) =     -365.58096257


--------------------------------------------------------------------------------------------------------




--------------------------------------- Iteration      1(  19)  ---------------------------------------


    POTLOK:  cpu time      0.0728: real time      0.0907
    SETDIJ:  cpu time      0.0739: real time      0.0741
    EDDIAG:  cpu time      0.1318: real time      0.1322
  RMM-DIIS:  cpu time      0.4450: real time      0.4466
    ORTHCH:  cpu time      0.0203: real time      0.0204
       DOS:  cpu time      0.0013: real time      0.0013
    CHARGE:  cpu time      0.2341: real time      0.2348
    MIXING:  cpu time      0.0065: real time      0.0065
    --------------------------------------------
      LOOP:  cpu time      0.9858: real time      1.0066

 eigenvalue-minimisations  :  1570
 total energy-change (2. order) :-0.1531042E-05  (-0.1462462E-06)
 number of electron     255.9999998 magnetization 
 augmentation part      -14.7429020 magnetization 

 Broyden mixing:
  rms(total) = 0.61322E-03    rms(broyden)= 0.61312E-03
  rms(prec ) = 0.61721E-03
  weight for this iteration     100.00

 eigenvalues of (default mixing * dielectric matrix)
  average eigenvalue GAMMA=   1.9562
  7.2534  2.8771  2.5137  2.5137  2.3088  1.7038  1.7038  0.3888  1.1863  1.1863
  0.9425  0.9425  0.9781  0.8881

 Free energy of the ion-electron system (eV)
  ---------------------------------------------------
  alpha Z        PSCENC =       115.15353924
  Ewald energy   TEWEN  =     -7480.08011421
  -Hartree energ DENC   =      -443.22911277
  -exchange      EXHF   =         0.00000000
  -V(xc)+E(xc)   XCENC  =      -529.68369656
  PAW double counting   =     32193.10899311   -31095.31897486
  entropy T*S    EENTRO =         0.03100366
  eigenvalues    EBANDS =       309.65187152
  atomic energy  EATOM  =      6564.79586099
  Solvation  Ediel_sol  =         0.00000000
  ---------------------------------------------------
  free energy    TOTEN  =      -365.57062987 eV

  energy without entropy =     -365.60163353  energy(sigma->0) =     -365.58096442


--------------------------------------------------------------------------------------------------------




--------------------------------------- Iteration      1(  20)  ---------------------------------------


    POTLOK:  cpu time      0.0709: real time      0.0896
    SETDIJ:  cpu time      0.0729: real time      0.0747
    EDDIAG:  cpu time      0.1307: real time      0.1336
  RMM-DIIS:  cpu time      0.4347: real time      0.4475
    ORTHCH:  cpu time      0.0196: real time      0.0203
       DOS:  cpu time      0.0018: real time      0.0018
    --------------------------------------------
      LOOP:  cpu time      0.7305: real time      0.7675

 eigenvalue-minimisations  :  1556
 total energy-change (2. order) :-0.2946117E-06  (-0.3225183E-07)
 number of electron     255.9999998 magnetization 
 augmentation part      -14.7429020 magnetization 

 Free energy of the ion-electron system (eV)
  ---------------------------------------------------
  alpha Z        PSCENC =       115.15353924
  Ewald energy   TEWEN  =     -7480.08011421
  -Hartree energ DENC   =      -443.23859202
  -exchange      EXHF   =         0.00000000
  -V(xc)+E(xc)   XCENC  =      -529.68240636
  PAW double counting   =     32200.43499650   -31102.64481770
  entropy T*S    EENTRO =         0.03100330
  eigenvalues    EBANDS =       309.65990009
  atomic energy  EATOM  =      6564.79586099
  Solvation  Ediel_sol  =         0.00000000
  ---------------------------------------------------
  free energy    TOTEN  =      -365.57063016 eV

  energy without entropy =     -365.60163346  energy(sigma->0) =     -365.58096459


--------------------------------------------------------------------------------------------------------




 average (electrostatic) potential at core
  the test charge radii are     0.9892
  (the norm of the test charge is              1.0000)
       1 -82.2568       2 -82.2568       3 -82.2568       4 -82.2568       5 -82.2568
       6 -82.2568       7 -82.2568       8 -82.2568       9 -82.2568      10 -82.2568
      11 -82.2568      12 -82.2568      13 -82.2568      14 -82.2568      15 -82.2568
      16 -82.2568      17 -82.2568      18 -82.2568      19 -82.2568      20 -82.2568
      21 -82.2568      22 -82.2568      23 -82.2568      24 -82.2568      25 -82.2568
      26 -82.2568      27 -82.2568      28 -82.2568      29 -82.2568      30 -82.2568
      31 -82.2568      32 -82.2568      33 -82.2568      34 -82.2568      35 -82.2568
      36 -82.2568      37 -82.2568      38 -82.2568      39 -82.2568      40 -82.2568
      41 -82.2568      42 -82.2568      43 -82.2568      44 -82.2568      45 -82.2568
      46 -82.2568      47 -82.2568      48 -82.2568      49 -82.2568      50 -82.2568
      51 -82.2568      52 -82.2568      53 -82.2568      54 -82.2568      55 -82.2568
      56 -82.2568      57 -82.2568      58 -82.2568      59 -82.2568      60 -82.2568
      61 -82.2568      62 -82.2568      63 -82.2568      64 -82.2568
 
 
 
 E-fermi :   6.7091     XC(G=0):  -9.8145     alpha+bet :-12.8196

 val. band max:        6.5288639212   @ k =   0.0000   0.0000   0.0000
 cond. band min:       6.8534494021   @ k =   0.0000   0.0000   0.5000
 fundamental gap:      0.3245854809
 Fermi energy:         6.7090678426

 k-point     1 :       0.0000    0.0000    0.0000
  band No.  band energies     occupation 
      1      -5.9724      2.00000
      2      -4.8347      2.00000
      3      -4.8347      2.00000
      4      -4.8151      2.00000
      5      -4.8151      2.00000
      6      -4.8149      2.00000
      7      -4.8149      2.00000
      8      -3.8207      2.00000
      9      -3.8207      2.00000
     10      -3.7907      2.00000
     11      -3.7907      2.00000
     12      -3.7907      2.00000
     13      -3.7907      2.00000
     14      -3.7764      2.00000
     15      -3.7764      2.00000
     16      -3.7764      2.00000
     17      -3.7764      2.00000
     18      -3.7601      2.00000
     19      -3.7601      2.00000
     20      -3.4791      2.00000
     21      -3.4791      2.00000
     22      -3.4090      2.00000
     23      -3.4090      2.00000
     24      -1.6021      2.00000
     25      -1.6021      2.00000
     26      -1.5783      2.00000
     27      -1.5369      2.00000
     28      -1.5369      2.00000
     29      -1.4964      2.00000
     30      -1.4095      2.00000
     31      -1.4095      2.00000
     32      -1.3867      2.00000
     33      -1.3867      2.00000
     34      -1.3622      2.00000
     35      -1.3622      2.00000
     36      -1.3622      2.00000
     37      -1.3622      2.00000
     38      -1.3150      2.00000
     39      -1.3150      2.00000
     40      -1.2927      2.00000
     41      -1.2927      2.00000
     42      -0.8580      2.00000
     43      -0.8580      2.00000
     44      -0.8453      2.00000
     45      -0.8453      2.00000
     46       0.8480      2.00000
     47       0.8480      2.00000
     48       0.8480      2.00000
     49       0.8480      2.00000
     50       0.8686      2.00000
     51       0.8686      2.00000
     52       0.8871      2.00000
     53       0.8871      2.00000
     54       0.8871      2.00000
     55       0.8872      2.00000
     56       0.9049      2.00000
     57       0.9049      2.00000
     58       2.2906      2.00000
     59       2.2906      2.00000
     60       2.2918      2.00000
     61       2.2918      2.00000
     62       2.2918      2.00000
     63       2.2918      2.00000
     64       2.2923      2.00000
     65       2.2923      2.00000
     66       2.2961      2.00000
     67       2.2961      2.00000
     68       2.2984      2.00000
     69       2.2984      2.00000
     70       2.3878      2.00000
     71       2.3878      2.00000
     72       2.3878      2.00000
     73       2.3878      2.00000
     74       2.4340      2.00000
     75       2.4340      2.00000
     76       2.4465      2.00000
     77       2.4465      2.00000
     78       2.4465      2.00000
     79       2.4465      2.00000
     80       2.4585      2.00000
     81       2.4585      2.00000
     82       2.9372      2.00000
     83       2.9372      2.00000
     84       3.0135      2.00000
     85       3.0135      2.00000
     86       3.0151      2.00000
     87       3.0151      2.00000
     88       3.3592      2.00000
     89       3.4167      2.00000
     90       3.4167      2.00000
     91       3.4747      2.00000
     92       3.4979      2.00000
     93       3.4979      2.00000
     94       4.3893      2.00000
     95       4.3893      2.00000
     96       4.4294      2.00000
     97       4.4294      2.00000
     98       4.4519      2.00000
     99       4.4519      2.00000
    100       4.4931      2.00000
    101       4.4931      2.00000
    102       4.5037      2.00000
    103       4.5037      2.00000
    104       4.5037      2.00000
    105       4.5037      2.00000
    106       5.0300      2.00000
    107       5.0300      2.00000
    108       5.0573      2.00000
    109       5.0573      2.00000
    110       5.0573      2.00000
    111       5.0573      2.00000
    112       5.0855      2.00000
    113       5.0855      2.00000
    114       5.1429      2.00000
    115       5.1429      2.00000
    116       5.1429      2.00000
    117       5.1429      2.00000
    118       5.1612      2.00000
    119       5.1612      2.00000
    120       5.2127      2.00000
    121       5.2127      2.00000
    122       5.2628      2.00000
    123       5.2628      2.00000
    124       5.3152      2.00000
    125       5.3152      2.00000
    126       6.4502      2.06956
    127       6.5248      2.02990
    128       6.5289      2.02315
    129       6.8595      0.04657
    130       6.9193     -0.05932
    131       6.9193     -0.05932
    132       6.9802     -0.06653
    133       7.0019     -0.05842
    134       7.0019     -0.05842
    135       7.4388     -0.00000
    136       7.4388     -0.00000
    137       7.4389     -0.00000
    138       7.4389     -0.00000
    139       7.5197     -0.00000
    140       7.5197     -0.00000
    141       8.1497     -0.00000
    142       8.1497     -0.00000
    143       8.2524     -0.00000
    144       8.2524     -0.00000
    145       8.8245     -0.00000
    146       8.8247     -0.00000
    147       8.8574     -0.00000
    148       8.8575     -0.00000
    149       8.8578     -0.00000
    150       8.8584     -0.00000
    151       8.8929     -0.00000
    152       8.8935     -0.00000
    153       8.9541     -0.00000
    154       8.9549     -0.00000
    155       8.9552     -0.00000
    156       8.9559     -0.00000
    157       8.9667     -0.00000
    158       9.0260     -0.00000
    159       9.1338     -0.00000
    160       9.4843     -0.00000
    161       9.4996     -0.00000
    162       9.5740     -0.00000

 k-point     2 :       0.5000   -0.0000    0.0000
  band No.  band energies     occupation 
      1      -5.6857      2.00000
      2      -5.6857      2.00000
      3      -4.5672      2.00000
      4      -4.5672      2.00000
      5      -4.5522      2.00000
      6      -4.5522      2.00000
      7      -4.5522      2.00000
      8      -4.5522      2.00000
      9      -4.5368      2.00000
     10      -4.5368      2.00000
     11      -3.6498      2.00000
     12      -3.6498      2.00000
     13      -3.6497      2.00000
     14      -3.6497      2.00000
     15      -3.6078      2.00000
     16      -3.6078      2.00000
     17      -3.6078      2.00000
     18      -3.6078      2.00000
     19      -3.4515      2.00000
     20      -3.4515      2.00000
     21      -2.6824      2.00000
     22      -2.6824      2.00000
     23      -2.6389      2.00000
     24      -2.6389      2.00000
     25      -2.6389      2.00000
     26      -2.6389      2.00000
     27      -2.5947      2.00000
     28      -2.5947      2.00000
     29      -1.4888      2.00000
     30      -1.4888      2.00000
     31      -1.4736      2.00000
     32      -1.4736      2.00000
     33      -1.4142      2.00000
     34      -1.4142      2.00000
     35      -1.3999      2.00000
     36      -1.3999      2.00000
     37      -0.2677      2.00000
     38      -0.2677      2.00000
     39      -0.2338      2.00000
     40      -0.2338      2.00000
     41      -0.2338      2.00000
     42      -0.2338      2.00000
[...]
 -0.000  -0.000   4.169   0.000   0.000   7.765   0.000   0.000
  0.001   0.001   0.000   4.169   0.000   0.000   7.765   0.000
 -0.000  -0.000   0.000   0.000   4.169   0.000   0.000   7.765
 -0.000  -0.000   7.765   0.000   0.000  14.476   0.000   0.000
  0.001   0.002   0.000   7.765   0.000   0.000  14.476   0.000
 -0.000  -0.000   0.000   0.000   7.765   0.000   0.000  14.476
 total augmentation occupancy for first ion, spin component:           1
  6.521  -2.609   0.000  -0.027   0.000   0.000   0.010  -0.000
 -2.609   1.151   0.000   0.014   0.000   0.000  -0.005   0.000
  0.000   0.000   3.188  -0.000  -0.002  -0.731   0.000  -0.001
 -0.027   0.014  -0.000   3.188   0.000   0.000  -0.731   0.000
  0.000   0.000  -0.002   0.000   3.208  -0.001   0.000  -0.739
  0.000   0.000  -0.731   0.000  -0.001   0.177  -0.000   0.000
  0.010  -0.005  -0.000  -0.731   0.000  -0.000   0.177   0.000
 -0.000   0.000  -0.001   0.000  -0.739   0.000   0.000   0.180


------------------------ aborting loop because EDIFF is reached ----------------------------------------


    CHARGE:  cpu time      0.2436: real time      0.2463
    FORLOC:  cpu time      0.0211: real time      0.0211
    FORNL :  cpu time      0.6791: real time      0.6814
    STRESS:  cpu time      2.1029: real time      2.1083
    FORCOR:  cpu time      0.0848: real time      0.0850
    FORHAR:  cpu time      0.0342: real time      0.0343
    MIXING:  cpu time      0.0171: real time      0.0171
    OFIELD:  cpu time      0.0001: real time      0.0000

  FORCE on cell =-STRESS in cart. coord.  units (eV):
  Direction    XX          YY          ZZ          XY          YZ          ZX
  --------------------------------------------------------------------------------------
  Alpha Z   115.15354   115.15354   115.15354
  Ewald   -2470.71448 -2504.82664 -2504.78134    -4.88408    -0.00000    -0.00000
  Hartree   151.22852   145.95767   145.89959    -4.02424    -0.00000    -0.00000
  E(xc)    -831.44318  -831.11452  -831.12875     0.02513    -0.00000    -0.00000
  Local    -928.13830  -887.49132  -887.68012     9.97724    -0.00000    -0.00000
  n-local  2532.90920  2527.43079  2527.67349    -0.02139    -0.00000    -0.00000
  augment  -369.80448  -369.82169  -369.83651     0.34316     0.00000     0.00000
  Kinetic  1853.90404  1864.48019  1864.22443    -6.83779     0.00000     0.00000
  Fock        0.00000     0.00000     0.00000     0.00000     0.00000     0.00000
  -------------------------------------------------------------------------------------
  Total      53.09486    59.76801    59.52432    -5.42197     0.00000     0.00000
  in kB      71.04376    79.97279    79.64672    -7.25489     0.00000     0.00000
  external pressure =       76.89 kB  Pullay stress =        0.00 kB


 VOLUME and BASIS-vectors are now :
 -----------------------------------------------------------------------------
  energy-cutoff  :      400.00
  volume of cell :     1197.39
      direct lattice vectors                 reciprocal lattice vectors
    10.689651579  0.052919008  0.000000000     0.093550734 -0.000467753  0.000000000
     0.052919008 10.583813563  0.000000000    -0.000467753  0.094486240  0.000000000
     0.000000000  0.000000000 10.583813563     0.000000000  0.000000000  0.094483902

  length of vectors
    10.689782565 10.583945860 10.583813563     0.093551904  0.094487398  0.094483902


 FORCES acting on ions
    electron-ion (+dipol)            ewald-force                    non-local-force                 convergence-correction
 -----------------------------------------------------------------------------------------------
   -.900E-09 -.320E-09 -.840E+00   -.133E-14 0.178E-14 0.595E+00   -.301E-20 -.967E-20 0.245E+00   0.930E-13 0.136E-13 0.143E-04
   -.900E-09 -.320E-09 -.840E+00   -.178E-14 -.178E-14 0.595E+00   0.235E-21 -.707E-20 0.245E+00   -.970E-13 0.380E-13 0.143E-04
   -.900E-09 -.320E-09 -.840E+00   -.444E-15 -.122E-13 0.595E+00   -.288E-20 -.130E-19 0.245E+00   0.192E-13 -.231E-13 0.143E-04
   -.900E-09 -.320E-09 -.840E+00   -.444E-14 -.488E-14 0.595E+00   -.347E-20 -.935E-20 0.245E+00   -.291E-13 -.365E-13 0.143E-04
   -.900E-09 -.320E-09 -.840E+00   -.178E-13 0.311E-14 0.595E+00   -.308E-20 -.137E-19 0.245E+00   -.946E-13 -.966E-15 0.143E-04
   -.900E-09 -.320E-09 -.840E+00   -.977E-14 -.711E-14 0.595E+00   -.240E-20 -.630E-20 0.245E+00   0.936E-13 -.324E-14 0.143E-04
   -.900E-09 -.320E-09 -.840E+00   -.115E-13 -.355E-14 0.595E+00   0.743E-21 -.426E-20 0.245E+00   -.219E-13 -.257E-15 0.143E-04
   -.900E-09 -.320E-09 -.840E+00   -.355E-14 0.355E-14 0.595E+00   0.611E-21 0.321E-20 0.245E+00   0.247E-13 -.501E-15 0.143E-04
   0.215E-08 0.174E-08 0.840E+00   -.226E-13 -.178E-14 -.595E+00   0.723E-20 -.897E-20 -.245E+00   0.139E-13 -.731E-13 -.143E-04
   0.215E-08 0.174E-08 0.840E+00   -.195E-13 -.178E-14 -.595E+00   0.654E-20 0.189E-19 -.245E+00   -.236E-13 0.376E-13 -.143E-04
   0.215E-08 0.174E-08 0.840E+00   -.844E-14 0.102E-13 -.595E+00   -.498E-21 0.114E-20 -.245E+00   0.228E-13 0.631E-13 -.143E-04
   0.215E-08 0.174E-08 0.840E+00   0.000E+00 0.888E-14 -.595E+00   -.760E-21 0.212E-19 -.245E+00   -.199E-13 -.466E-13 -.143E-04
   0.215E-08 0.174E-08 0.840E+00   -.933E-14 -.444E-15 -.595E+00   -.370E-20 0.103E-19 -.245E+00   -.662E-14 0.172E-13 -.143E-04
   0.215E-08 0.174E-08 0.840E+00   -.107E-13 0.178E-14 -.595E+00   -.436E-20 0.266E-19 -.245E+00   0.338E-13 -.914E-13 -.143E-04
   0.215E-08 0.174E-08 0.840E+00   -.977E-14 0.120E-13 -.595E+00   0.604E-20 -.252E-20 -.245E+00   -.101E-13 -.210E-13 -.143E-04
   0.215E-08 0.174E-08 0.840E+00   -.231E-13 0.178E-14 -.595E+00   0.618E-20 0.137E-19 -.245E+00   0.243E-13 0.843E-13 -.143E-04
   -.900E-09 -.320E-09 -.840E+00   0.688E-14 0.140E-13 0.595E+00   0.390E-20 -.115E-20 0.245E+00   0.586E-13 -.924E-13 0.143E-04
   -.900E-09 -.320E-09 -.840E+00   0.151E-13 0.142E-13 0.595E+00   0.416E-20 -.212E-19 0.245E+00   -.536E-13 0.334E-13 0.143E-04
   -.900E-09 -.320E-09 -.840E+00   0.355E-14 0.144E-13 0.595E+00   -.723E-20 0.219E-20 0.245E+00   -.126E-13 0.938E-13 0.143E-04
   -.900E-09 -.320E-09 -.840E+00   0.000E+00 0.142E-13 0.595E+00   -.654E-20 -.121E-19 0.245E+00   0.649E-14 -.301E-13 0.143E-04
   -.900E-09 -.320E-09 -.840E+00   0.266E-14 0.142E-13 0.595E+00   -.942E-20 0.929E-20 0.245E+00   -.544E-13 -.101E-12 0.143E-04
   -.900E-09 -.320E-09 -.840E+00   0.266E-14 0.711E-14 0.595E+00   -.278E-20 -.137E-19 0.245E+00   0.463E-13 0.750E-13 0.143E-04
   -.900E-09 -.320E-09 -.840E+00   -.311E-14 0.711E-14 0.595E+00   0.322E-21 -.103E-19 0.245E+00   0.125E-13 0.103E-12 0.143E-04
   -.900E-09 -.320E-09 -.840E+00   -.355E-14 0.107E-13 0.595E+00   0.976E-21 -.131E-19 0.245E+00   -.107E-13 -.765E-13 0.143E-04
   0.215E-08 0.174E-08 0.840E+00   0.178E-14 0.278E-13 -.595E+00   0.348E-20 0.935E-20 -.245E+00   0.140E-13 -.543E-13 -.143E-04
   0.215E-08 0.174E-08 0.840E+00   0.178E-14 0.200E-13 -.595E+00   0.290E-20 0.198E-19 -.245E+00   -.381E-13 0.368E-13 -.143E-04
   0.215E-08 0.174E-08 0.840E+00   0.711E-14 0.187E-13 -.595E+00   0.316E-20 0.289E-21 -.245E+00   0.288E-13 0.517E-13 -.143E-04
   0.215E-08 0.174E-08 0.840E+00   0.107E-13 0.265E-14 -.595E+00   -.369E-21 0.291E-20 -.245E+00   -.623E-14 -.352E-13 -.143E-04
   0.215E-08 0.174E-08 0.840E+00   -.977E-14 0.162E-13 -.595E+00   -.607E-21 -.323E-20 -.245E+00   -.197E-14 -.101E-12 -.143E-04
   0.215E-08 0.174E-08 0.840E+00   -.169E-13 0.158E-13 -.595E+00   0.265E-20 0.426E-20 -.245E+00   0.425E-13 0.103E-12 -.143E-04
   0.215E-08 0.174E-08 0.840E+00   -.178E-14 0.147E-13 -.595E+00   0.241E-20 0.131E-19 -.245E+00   -.214E-13 0.101E-12 -.143E-04
   0.215E-08 0.174E-08 0.840E+00   0.178E-14 0.129E-13 -.595E+00   0.308E-20 0.688E-20 -.245E+00   0.146E-13 -.971E-13 -.143E-04
   -.900E-09 -.320E-09 -.840E+00   0.111E-14 -.124E-13 0.595E+00   -.194E-21 0.990E-22 0.245E+00   0.630E-13 0.159E-13 0.143E-04
   -.900E-09 -.320E-09 -.840E+00   0.533E-14 -.120E-13 0.595E+00   -.333E-20 0.179E-19 0.245E+00   -.843E-13 0.109E-13 0.143E-04
   -.900E-09 -.319E-09 -.840E+00   0.799E-14 -.195E-13 0.595E+00   0.638E-20 -.110E-19 0.245E+00   0.518E-13 -.185E-13 0.143E-04
   -.900E-09 -.320E-09 -.840E+00   0.444E-14 -.107E-13 0.595E+00   0.651E-20 0.140E-19 0.245E+00   -.389E-13 -.153E-13 0.143E-04
   -.900E-09 -.320E-09 -.840E+00   -.444E-14 -.129E-13 0.595E+00   0.532E-20 -.576E-20 0.245E+00   -.652E-13 -.540E-13 0.143E-04
   -.900E-09 -.320E-09 -.840E+00   -.124E-13 -.124E-13 0.595E+00   0.550E-20 0.795E-20 0.245E+00   0.862E-13 0.739E-13 0.143E-04
   -.900E-09 -.320E-09 -.840E+00   0.888E-15 -.178E-14 0.595E+00   -.256E-20 0.104E-20 0.245E+00   -.582E-13 0.511E-13 0.143E-04
   -.900E-09 -.320E-09 -.840E+00   -.711E-14 -.213E-13 0.595E+00   -.293E-20 0.235E-19 0.245E+00   0.453E-13 -.701E-13 0.143E-04
   0.215E-08 0.174E-08 0.840E+00   -.269E-14 -.755E-14 -.595E+00   -.345E-20 -.607E-20 -.245E+00   0.110E-13 -.812E-13 -.143E-04
   0.215E-08 0.174E-08 0.840E+00   -.145E-13 -.147E-13 -.595E+00   -.321E-20 -.103E-19 -.245E+00   -.954E-14 0.103E-14 -.143E-04
   0.215E-08 0.174E-08 0.840E+00   -.756E-14 -.711E-14 -.595E+00   0.241E-21 -.383E-20 -.245E+00   -.356E-13 0.756E-13 -.143E-04
   0.215E-08 0.174E-08 0.840E+00   -.401E-14 -.711E-14 -.595E+00   0.393E-21 -.767E-20 -.245E+00   0.518E-13 -.130E-13 -.143E-04
   0.215E-08 0.174E-08 0.840E+00   -.781E-14 -.195E-13 -.595E+00   -.426E-21 0.559E-20 -.245E+00   -.678E-14 -.643E-13 -.143E-04
   0.215E-08 0.174E-08 0.840E+00   -.781E-14 -.160E-13 -.595E+00   0.595E-21 -.610E-20 -.245E+00   0.183E-13 0.312E-13 -.143E-04
   0.215E-08 0.174E-08 0.840E+00   -.736E-14 -.160E-13 -.595E+00   -.299E-20 -.116E-19 -.245E+00   0.417E-13 0.572E-13 -.143E-04
   0.215E-08 0.174E-08 0.840E+00   -.692E-14 -.888E-14 -.595E+00   -.253E-20 -.146E-19 -.245E+00   -.464E-13 -.426E-13 -.143E-04
   -.900E-09 -.320E-09 -.840E+00   0.955E-14 -.131E-13 0.595E+00   0.320E-20 0.170E-19 0.245E+00   0.450E-13 -.134E-13 0.143E-04
   -.900E-09 -.320E-09 -.840E+00   0.533E-14 -.622E-14 0.595E+00   0.344E-20 0.129E-19 0.245E+00   -.817E-13 -.251E-13 0.143E-04
   -.900E-09 -.320E-09 -.840E+00   0.133E-13 -.266E-14 0.595E+00   -.399E-21 0.902E-21 0.245E+00   0.597E-13 0.186E-13 0.143E-04
   -.900E-09 -.319E-09 -.840E+00   0.799E-14 0.355E-14 0.595E+00   0.313E-20 -.294E-20 0.245E+00   -.400E-13 0.308E-13 0.143E-04
   -.900E-09 -.319E-09 -.840E+00   0.933E-14 -.977E-14 0.595E+00   -.596E-21 0.610E-20 0.245E+00   -.415E-13 0.598E-13 0.143E-04
   -.900E-09 -.321E-09 -.840E+00   0.164E-13 -.266E-14 0.595E+00   0.436E-21 -.560E-20 0.245E+00   0.805E-13 -.994E-13 0.143E-04
   -.900E-09 -.320E-09 -.840E+00   0.138E-13 -.102E-13 0.595E+00   0.252E-20 0.781E-20 0.245E+00   -.633E-13 -.557E-13 0.143E-04
   -.900E-09 -.320E-09 -.840E+00   0.107E-13 -.107E-13 0.595E+00   -.392E-21 0.116E-19 0.245E+00   0.449E-13 0.948E-13 0.143E-04
   0.215E-08 0.174E-08 0.840E+00   -.620E-14 -.958E-15 -.595E+00   0.358E-20 -.998E-22 -.245E+00   0.145E-12 -.379E-13 -.143E-04
   0.215E-08 0.174E-08 0.840E+00   0.560E-14 -.786E-14 -.595E+00   0.333E-20 -.179E-19 -.245E+00   -.161E-12 0.303E-13 -.143E-04
   0.215E-08 0.174E-08 0.840E+00   0.293E-14 0.260E-14 -.595E+00   -.639E-20 0.418E-20 -.245E+00   0.607E-13 0.374E-13 -.143E-04
   0.215E-08 0.174E-08 0.840E+00   0.136E-13 0.346E-14 -.595E+00   -.651E-20 -.722E-20 -.245E+00   -.321E-13 -.303E-13 -.143E-04
   0.215E-08 0.174E-08 0.840E+00   0.457E-14 0.133E-13 -.595E+00   -.871E-20 0.125E-19 -.245E+00   -.143E-12 -.445E-13 -.143E-04
   0.215E-08 0.174E-08 0.840E+00   0.117E-13 0.978E-14 -.595E+00   -.550E-20 -.147E-19 -.245E+00   0.168E-12 0.239E-13 -.143E-04
   0.215E-08 0.174E-08 0.840E+00   0.144E-13 0.296E-14 -.595E+00   0.256E-20 -.104E-20 -.245E+00   -.550E-13 0.431E-13 -.143E-04
   0.215E-08 0.174E-08 0.840E+00   0.104E-13 0.338E-14 -.595E+00   0.293E-20 -.167E-19 -.245E+00   0.400E-13 -.227E-13 -.143E-04
 -----------------------------------------------------------------------------------------------
   0.398E-07 0.455E-07 0.202E-04   -.546E-13 0.917E-14 0.357E-13   0.344E-20 0.136E-19 0.561E-14   0.990E-13 -.654E-13 0.170E-09
 
 
 POSITION                                       TOTAL-FORCE (eV/Angst)
 -----------------------------------------------------------------------------------
      0.00000      0.00000      0.00437        -0.000000      0.000000      0.000063
      0.00000      0.00000      5.29628        -0.000000      0.000000      0.000063
      0.02646      5.29191      0.00437        -0.000000      0.000000      0.000063
      0.02646      5.29191      5.29628        -0.000000      0.000000      0.000063
      5.34483      0.02646      0.00437         0.000000     -0.000000      0.000063
      5.34483      0.02646      5.29628         0.000000     -0.000000      0.000063
      5.37129      5.31837      0.00437         0.000000     -0.000000      0.000063
      5.37129      5.31837      5.29628         0.000000     -0.000000      0.000063
      4.02846      3.98877      1.31860         0.000000      0.000000     -0.000063
      4.02846      3.98877      6.61051        -0.000000      0.000000     -0.000063
      4.05492      9.28068      1.31860         0.000000     -0.000000     -0.000063
      4.05492      9.28068      6.61051        -0.000000      0.000000     -0.000063
      9.37329      4.01523      1.31860        -0.000000     -0.000000     -0.000063
      9.37329      4.01523      6.61051        -0.000000     -0.000000     -0.000063
      9.39975      9.30714      1.31860        -0.000000     -0.000000     -0.000063
      9.39975      9.30714      6.61051        -0.000000     -0.000000     -0.000063
      0.01323      2.64595      2.65033         0.000000      0.000000      0.000063
      0.01323      2.64595      7.94223        -0.000000      0.000000      0.000063
      0.03969      7.93786      2.65033        -0.000000      0.000000      0.000063
      0.03969      7.93786      7.94223        -0.000000      0.000000      0.000063
      5.35806      2.67241      2.65033         0.000000     -0.000000      0.000063
      5.35806      2.67241      7.94223         0.000000     -0.000000      0.000063
      5.38452      7.96432      2.65033         0.000000     -0.000000      0.000063
      5.38452      7.96432      7.94223         0.000000     -0.000000      0.000063
      4.01523      1.34282      3.96456         0.000000      0.000000     -0.000063
      4.01523      1.34282      9.25646        -0.000000     -0.000000     -0.000063
      4.04169      6.63473      3.96456         0.000000      0.000000     -0.000063
      4.04169      6.63473      9.25646        -0.000000      0.000000     -0.000063
      9.36006      1.36928      3.96456        -0.000000     -0.000000     -0.000063
      9.36006      1.36928      9.25646        -0.000000      0.000000     -0.000063
      9.38652      6.66119      3.96456         0.000000      0.000000     -0.000063
      9.38652      6.66119      9.25646        -0.000000     -0.000000     -0.000063
      2.67241      0.01323      2.65033        -0.000000     -0.000000      0.000063
      2.67241      0.01323      7.94223         0.000000     -0.000000      0.000063
      2.69887      5.30514      2.65033        -0.000000     -0.000000      0.000063
      2.69887      5.30514      7.94223         0.000000     -0.000000      0.000063
      8.01724      0.03969      2.65033        -0.000000     -0.000000      0.000063
      8.01724      0.03969      7.94223         0.000000     -0.000000      0.000063
      8.04370      5.33160      2.65033        -0.000000      0.000000      0.000063
      8.04370      5.33160      7.94223         0.000000      0.000000      0.000063
      1.35605      3.97554      3.96456        -0.000000     -0.000000     -0.000063
      1.35605      3.97554      9.25646        -0.000000      0.000000     -0.000063
      1.38251      9.26745      3.96456        -0.000000      0.000000     -0.000063
      1.38251      9.26745      9.25646        -0.000000      0.000000     -0.000063
      6.70088      4.00200      3.96456         0.000000      0.000000     -0.000063
      6.70088      4.00200      9.25646         0.000000      0.000000     -0.000063
      6.72734      9.29391      3.96456         0.000000      0.000000     -0.000063
      6.72734      9.29391      9.25646         0.000000     -0.000000     -0.000063
      2.68564      2.65918      0.00437        -0.000000     -0.000000      0.000063
      2.68564      2.65918      5.29628         0.000000      0.000000      0.000063
      2.71210      7.95109      0.00437        -0.000000     -0.000000      0.000063
      2.71210      7.95109      5.29628         0.000000      0.000000      0.000063
      8.03047      2.68564      0.00437        -0.000000      0.000000      0.000063
      8.03047      2.68564      5.29628        -0.000000     -0.000000      0.000063
      8.05693      7.97755      0.00437        -0.000000     -0.000000      0.000063
      8.05693      7.97755      5.29628        -0.000000      0.000000      0.000063
      1.34282      1.32959      1.31860        -0.000000      0.000000     -0.000063
      1.34282      1.32959      6.61051        -0.000000      0.000000     -0.000063
      1.36928      6.62150      1.31860        -0.000000     -0.000000     -0.000063
      1.36928      6.62150      6.61051        -0.000000     -0.000000     -0.000063
      6.68765      1.35605      1.31860         0.000000     -0.000000     -0.000063
      6.68765      1.35605      6.61051         0.000000      0.000000     -0.000063
      6.71411      6.64796      1.31860        -0.000000      0.000000     -0.000063
      6.71411      6.64796      6.61051         0.000000      0.000000     -0.000063
 -----------------------------------------------------------------------------------
    total drift:                                0.000000      0.000000      0.000020


--------------------------------------------------------------------------------------------------------



  FREE ENERGIE OF THE ION-ELECTRON SYSTEM (eV)
  ---------------------------------------------------
  free  energy   TOTEN  =      -365.58921047 eV

  energy  without entropy=     -365.61715690  energy(sigma->0) =     -365.59852595
 
 d Force = 0.4019196E-02[-0.822E-05, 0.805E-02]  d Energy = 0.4034438E-02-0.152E-04
 d Force =-0.7106393E-01[-0.779E-01,-0.643E-01]  d Ewald  =-0.7106378E-01-0.144E-06


--------------------------------------------------------------------------------------------------------


    POTLOK:  cpu time      0.1431: real time      0.1439


--------------------------------------------------------------------------------------------------------




--------------------------------------------------------------------------------------------------------


  
 reached required accuracy - stopping structural energy minimisation
     LOOP+:  cpu time     12.6909: real time     12.8438
    4ORBIT:  cpu time      0.0000: real time      0.0000

 total amount of memory used by VASP MPI-rank0    79086. kBytes
=======================================================================

   base      :      30000. kBytes
   nonlr-proj:       4746. kBytes
   fftplans  :      17991. kBytes
   grid      :       6881. kBytes
   one-center:         18. kBytes
   wavefun   :      19450. kBytes
 
  
  
 General timing and accounting informations for this job:
 ========================================================
  
                  Total CPU time used (sec):       59.776
                            User time (sec):       56.385
                          System time (sec):        3.391
                         Elapsed time (sec):       63.532
  
                   Maximum memory used (kb):      404716.
                   Average memory used (kb):          N/A
  
                          Minor page faults:        92853
                          Major page faults:            0
                 Voluntary context switches:         9339
