Si64                                    
           1
    10.689652    0.052919    0.000000
     0.052919   10.583814    0.000000
     0.000000    0.000000   10.583814
   Si
    64
Direct configuration=     1
   0.00000000  0.00000000  0.00000000
   0.00000000  0.00000000  0.50000000
   0.00000000  0.50000000  0.00000000
   0.00000000  0.50000000  0.50000000
   0.50000000  0.00000000  0.00000000
   0.50000000  0.00000000  0.50000000
   0.50000000  0.50000000  0.00000000
   0.50000000  0.50000000  0.50000000
   0.37500000  0.37500000  0.12500000
   0.37500000  0.37500000  0.62500000
   0.37500000  0.87500000  0.12500000
   0.37500000  0.87500000  0.62500000
   0.87500000  0.37500000  0.12500000
   0.87500000  0.37500000  0.62500000
   0.87500000  0.87500000  0.12500000
   0.87500000  0.87500000  0.62500000
   0.00000000  0.25000000  0.25000000
   0.00000000  0.25000000  0.75000000
   0.00000000  0.75000000  0.25000000
   0.00000000  0.75000000  0.75000000
   0.50000000  0.25000000  0.25000000
   0.50000000  0.25000000  0.75000000
   0.50000000  0.75000000  0.25000000
   0.50000000  0.75000000  0.75000000
   0.37500000  0.12500000  0.37500000
   0.37500000  0.12500000  0.87500000
   0.37500000  0.62500000  0.37500000
   0.37500000  0.62500000  0.87500000
   0.87500000  0.12500000  0.37500000
   0.87500000  0.12500000  0.87500000
   0.87500000  0.62500000  0.37500000
   0.87500000  0.62500000  0.87500000
   0.25000000  0.00000000  0.25000000
   0.25000000  0.00000000  0.75000000
   0.25000000  0.50000000  0.25000000
   0.25000000  0.50000000  0.75000000
   0.75000000  0.00000000  0.25000000
   0.75000000  0.00000000  0.75000000
   0.75000000  0.50000000  0.25000000
   0.75000000  0.50000000  0.75000000
   0.12500000  0.37500000  0.37500000
   0.12500000  0.37500000  0.87500000
   0.12500000  0.87500000  0.37500000
   0.12500000  0.87500000  0.87500000
   0.62500000  0.37500000  0.37500000
   0.62500000  0.37500000  0.87500000
   0.62500000  0.87500000  0.37500000
   0.62500000  0.87500000  0.87500000
   0.25000000  0.25000000  0.00000000
   0.25000000  0.25000000  0.50000000
   0.25000000  0.75000000  0.00000000
   0.25000000  0.75000000  0.50000000
   0.75000000  0.25000000  0.00000000
   0.75000000  0.25000000  0.50000000
   0.75000000  0.75000000  0.00000000
   0.75000000  0.75000000  0.50000000
   0.12500000  0.12500000  0.12500000
   0.12500000  0.12500000  0.62500000
   0.12500000  0.62500000  0.12500000
   0.12500000  0.62500000  0.62500000
   0.62500000  0.12500000  0.12500000
   0.62500000  0.12500000  0.62500000
   0.62500000  0.62500000  0.12500000
   0.62500000  0.62500000  0.62500000
Direct configuration=     2
   1.00000000  0.00000000  0.00060633
   1.00000000  1.00000000  0.50060633
   0.00000000  0.50000000  0.00060633
   0.00000000  0.50000000  0.50060633
   0.50000000  1.00000000  0.00060633
   0.50000000  0.00000000  0.50060633
   0.50000000  0.50000000  0.00060633
   0.50000000  0.50000000  0.50060633
   0.37500000  0.37500000  0.12439367
   0.37500000  0.37500000  0.62439367
   0.37500000  0.87500000  0.12439367
   0.37500000  0.87500000  0.62439367
   0.87500000  0.37500000  0.12439367
   0.87500000  0.37500000  0.62439367
   0.87500000  0.87500000  0.12439367
   0.87500000  0.87500000  0.62439367
   0.00000000  0.25000000  0.25060633
   0.00000000  0.25000000  0.75060633
   0.00000000  0.75000000  0.25060633
   1.00000000  0.75000000  0.75060633
   0.50000000  0.25000000  0.25060633
   0.50000000  0.25000000  0.75060633
   0.50000000  0.75000000  0.25060633
   0.50000000  0.75000000  0.75060633
   0.37500000  0.12500000  0.37439367
   0.37500000  0.12500000  0.87439367
   0.37500000  0.62500000  0.37439367
   0.37500000  0.62500000  0.87439367
   0.87500000  0.12500000  0.37439367
   0.87500000  0.12500000  0.87439367
   0.87500000  0.62500000  0.37439367
   0.87500000  0.62500000  0.87439367
   0.25000000  1.00000000  0.25060633
   0.25000000  0.00000000  0.75060633
   0.25000000  0.50000000  0.25060633
   0.25000000  0.50000000  0.75060633
   0.75000000  1.00000000  0.25060633
   0.75000000  0.00000000  0.75060633
   0.75000000  0.50000000  0.25060633
   0.75000000  0.50000000  0.75060633
   0.12500000  0.37500000  0.37439367
   0.12500000  0.37500000  0.87439367
   0.12500000  0.87500000  0.37439367
   0.12500000  0.87500000  0.87439367
   0.62500000  0.37500000  0.37439367
   0.62500000  0.37500000  0.87439367
   0.62500000  0.87500000  0.37439367
   0.62500000  0.87500000  0.87439367
   0.25000000  0.25000000  0.00060633
   0.25000000  0.25000000  0.50060633
   0.25000000  0.75000000  0.00060633
   0.25000000  0.75000000  0.50060633
   0.75000000  0.25000000  0.00060633
   0.75000000  0.25000000  0.50060633
   0.75000000  0.75000000  0.00060633
   0.75000000  0.75000000  0.50060633
   0.12500000  0.12500000  0.12439367
   0.12500000  0.12500000  0.62439367
   0.12500000  0.62500000  0.12439367
   0.12500000  0.62500000  0.62439367
   0.62500000  0.12500000  0.12439367
   0.62500000  0.12500000  0.62439367
   0.62500000  0.62500000  0.12439367
   0.62500000  0.62500000  0.62439367
Direct configuration=     3
   0.00000000  0.00000000  0.00041323
   0.00000000  0.00000000  0.50041323
   0.00000000  0.50000000  0.00041323
   0.00000000  0.50000000  0.50041323
   0.50000000  0.00000000  0.00041323
   0.50000000  0.00000000  0.50041323
   0.50000000  0.50000000  0.00041323
   0.50000000  0.50000000  0.50041323
   0.37500000  0.37500000  0.12458677
   0.37500000  0.37500000  0.62458677
   0.37500000  0.87500000  0.12458677
   0.37500000  0.87500000  0.62458677
   0.87500000  0.37500000  0.12458677
   0.87500000  0.37500000  0.62458677
   0.87500000  0.87500000  0.12458677
   0.87500000  0.87500000  0.62458677
   0.00000000  0.25000000  0.25041323
   0.00000000  0.25000000  0.75041323
   0.00000000  0.75000000  0.25041323
   0.00000000  0.75000000  0.75041323
   0.50000000  0.25000000  0.25041323
   0.50000000  0.25000000  0.75041323
   0.50000000  0.75000000  0.25041323
   0.50000000  0.75000000  0.75041323
   0.37500000  0.12500000  0.37458677
   0.37500000  0.12500000  0.87458677
   0.37500000  0.62500000  0.37458677
   0.37500000  0.62500000  0.87458677
   0.87500000  0.12500000  0.37458677
   0.87500000  0.12500000  0.87458677
   0.87500000  0.62500000  0.37458677
   0.87500000  0.62500000  0.87458677
   0.25000000  0.00000000  0.25041323
   0.25000000  0.00000000  0.75041323
   0.25000000  0.50000000  0.25041323
   0.25000000  0.50000000  0.75041323
   0.75000000  0.00000000  0.25041323
   0.75000000  0.00000000  0.75041323
   0.75000000  0.50000000  0.25041323
   0.75000000  0.50000000  0.75041323
   0.12500000  0.37500000  0.37458677
   0.12500000  0.37500000  0.87458677
   0.12500000  0.87500000  0.37458677
   0.12500000  0.87500000  0.87458677
   0.62500000  0.37500000  0.37458677
   0.62500000  0.37500000  0.87458677
   0.62500000  0.87500000  0.37458677
   0.62500000  0.87500000  0.87458677
   0.25000000  0.25000000  0.00041323
   0.25000000  0.25000000  0.50041323
   0.25000000  0.75000000  0.00041323
   0.25000000  0.75000000  0.50041323
   0.75000000  0.25000000  0.00041323
   0.75000000  0.25000000  0.50041323
   0.75000000  0.75000000  0.00041323
   0.75000000  0.75000000  0.50041323
   0.12500000  0.12500000  0.12458677
   0.12500000  0.12500000  0.62458677
   0.12500000  0.62500000  0.12458677
   0.12500000  0.62500000  0.62458677
   0.62500000  0.12500000  0.12458677
   0.62500000  0.12500000  0.62458677
   0.62500000  0.62500000  0.12458677
   0.62500000  0.62500000  0.62458677
