  64  64   0   0
  0.2027660E+02  0.1098032E-08  0.1087160E-08  0.1087147E-08  0.5000000E-15
  1.000000000000000E-004
  CAR 
 Si64                                    
     11.08920571     -8.23914737  301      6.01514877      1.00000000
     -8.239  0.0000E+00  0.0000E+00
     -8.175  0.0000E+00  0.0000E+00
     -8.110  0.0000E+00  0.0000E+00
     -8.046  0.0000E+00  0.0000E+00
     -7.981  0.0000E+00  0.0000E+00
     -7.917  0.0000E+00  0.0000E+00
     -7.853 -0.8023E-29 -0.5169E-30
     -7.788 -0.1247E-26 -0.8089E-28
     -7.724 -0.1581E-24 -0.1027E-25
     -7.659 -0.1625E-22 -0.1057E-23
     -7.595 -0.1353E-20 -0.8825E-22
     -7.530 -0.9134E-19 -0.5973E-20
     -7.466 -0.4993E-17 -0.3277E-18
     -7.402 -0.2138E-15 -0.1410E-16
     -7.337 -0.7658E-14 -0.5075E-15
     -7.273 -0.2208E-12 -0.1474E-13
     -7.208 -0.5142E-11 -0.3461E-12
     -7.144 -0.9655E-10 -0.6567E-11
     -7.079 -0.1459E-08 -0.1006E-09
     -7.015 -0.1772E-07 -0.1242E-08
     -6.951 -0.1723E-06 -0.1234E-07
     -6.886 -0.1337E-05 -0.9846E-07
     -6.822 -0.8223E-05 -0.6283E-06
     -6.757 -0.3976E-04 -0.3190E-05
     -6.693 -0.1488E-03 -0.1278E-04
     -6.628 -0.4199E-03 -0.3983E-04
     -6.564 -0.8414E-03 -0.9405E-04
     -6.500 -0.9961E-03 -0.1582E-03
     -6.435  0.6217E-04 -0.1542E-03
     -6.371  0.3011E-02  0.3975E-04
     -6.306  0.7022E-02  0.4922E-03
     -6.242  0.1085E-01  0.1191E-02
     -6.177  0.1696E-01  0.2284E-02
     -6.113  0.3205E-01  0.4349E-02
     -6.049  0.5800E-01  0.8086E-02
     -5.984  0.8454E-01  0.1353E-01
     -5.920  0.1013E+00  0.2006E-01
     -5.855  0.1164E+00  0.2756E-01
     -5.791  0.1467E+00  0.3701E-01
     -5.726  0.1858E+00  0.4897E-01
     -5.662  0.2037E+00  0.6210E-01
     -5.598  0.1876E+00  0.7419E-01
     -5.533  0.1594E+00  0.8446E-01
     -5.469  0.1413E+00  0.9356E-01
     -5.404  0.1276E+00  0.1018E+00
     -5.340  0.1053E+00  0.1086E+00
     -5.275  0.8140E-01  0.1138E+00
     -5.211  0.7246E-01  0.1185E+00
     -5.147  0.8833E-01  0.1242E+00
     -5.082  0.1391E+00  0.1331E+00
     -5.018  0.2328E+00  0.1481E+00
     -4.953  0.3478E+00  0.1705E+00
     -4.889  0.4352E+00  0.1986E+00
     -4.824  0.4721E+00  0.2290E+00
     -4.760  0.4784E+00  0.2598E+00
     -4.696  0.4619E+00  0.2896E+00
     -4.631  0.3919E+00  0.3148E+00
     -4.567  0.2560E+00  0.3313E+00
     -4.502  0.1024E+00  0.3379E+00
     -4.438  0.8398E-03  0.3380E+00
     -4.373 -0.1111E-01  0.3373E+00
     -4.309  0.6769E-01  0.3416E+00
     -4.245  0.2157E+00  0.3555E+00
     -4.180  0.3866E+00  0.3804E+00
     -4.116  0.5117E+00  0.4134E+00
     -4.051  0.5332E+00  0.4477E+00
     -3.987  0.4490E+00  0.4767E+00
     -3.922  0.3204E+00  0.4973E+00
     -3.858  0.2309E+00  0.5122E+00
     -3.794  0.2395E+00  0.5276E+00
     -3.729  0.3541E+00  0.5504E+00
     -3.665  0.5272E+00  0.5844E+00
     -3.600  0.6793E+00  0.6282E+00
     -3.536  0.7500E+00  0.6765E+00
     -3.471  0.7291E+00  0.7235E+00
     -3.407  0.6420E+00  0.7648E+00
     -3.343  0.5289E+00  0.7989E+00
     -3.278  0.4401E+00  0.8273E+00
     -3.214  0.4105E+00  0.8537E+00
     -3.149  0.4146E+00  0.8804E+00
     -3.085  0.3802E+00  0.9049E+00
     -3.020  0.2711E+00  0.9224E+00
     -2.956  0.1288E+00  0.9307E+00
     -2.892  0.2001E-01  0.9320E+00
     -2.827 -0.2754E-01  0.9302E+00
     -2.763 -0.2354E-01  0.9287E+00
     -2.698  0.1931E-01  0.9299E+00
     -2.634  0.9143E-01  0.9358E+00
     -2.569  0.1658E+00  0.9465E+00
     -2.505  0.1978E+00  0.9592E+00
     -2.441  0.1618E+00  0.9697E+00
     -2.376  0.8234E-01  0.9750E+00
     -2.312  0.2221E-01  0.9764E+00
     -2.247  0.4441E-01  0.9793E+00
     -2.183  0.1770E+00  0.9907E+00
     -2.119  0.3863E+00  0.1016E+01
     -2.054  0.5749E+00  0.1053E+01
     -1.990  0.6335E+00  0.1093E+01
     -1.925  0.5251E+00  0.1127E+01
     -1.861  0.3169E+00  0.1148E+01
     -1.796  0.1245E+00  0.1156E+01
     -1.732  0.2861E-01  0.1158E+01
     -1.668  0.3948E-01  0.1160E+01
     -1.603  0.1108E+00  0.1167E+01
     -1.539  0.1745E+00  0.1178E+01
     -1.474  0.1831E+00  0.1190E+01
     -1.410  0.1414E+00  0.1199E+01
     -1.345  0.1005E+00  0.1206E+01
     -1.281  0.1159E+00  0.1213E+01
     -1.217  0.2048E+00  0.1226E+01
     -1.152  0.3281E+00  0.1248E+01
     -1.088  0.4188E+00  0.1275E+01
     -1.023  0.4469E+00  0.1303E+01
     -0.959  0.4558E+00  0.1333E+01
     -0.894  0.5189E+00  0.1366E+01
     -0.830  0.6655E+00  0.1409E+01
     -0.766  0.8403E+00  0.1463E+01
     -0.701  0.9206E+00  0.1523E+01
     -0.637  0.8041E+00  0.1574E+01
     -0.572  0.5201E+00  0.1608E+01
     -0.508  0.2320E+00  0.1623E+01
     -0.443  0.1025E+00  0.1629E+01
     -0.379  0.1630E+00  0.1640E+01
     -0.315  0.3083E+00  0.1660E+01
     -0.250  0.3983E+00  0.1685E+01
     -0.186  0.3687E+00  0.1709E+01
     -0.121  0.2590E+00  0.1726E+01
     -0.057  0.1499E+00  0.1736E+01
      0.008  0.9179E-01  0.1741E+01
      0.072  0.9406E-01  0.1747E+01
      0.136  0.1467E+00  0.1757E+01
      0.201  0.2338E+00  0.1772E+01
      0.265  0.3361E+00  0.1794E+01
      0.330  0.4248E+00  0.1821E+01
      0.394  0.4549E+00  0.1850E+01
      0.459  0.3908E+00  0.1876E+01
      0.523  0.2513E+00  0.1892E+01
      0.587  0.1053E+00  0.1898E+01
      0.652  0.1210E-01  0.1899E+01
      0.716 -0.2031E-01  0.1898E+01
      0.781 -0.1907E-01  0.1897E+01
      0.845 -0.1104E-01  0.1896E+01
      0.910 -0.9073E-02  0.1895E+01
      0.974 -0.1777E-01  0.1894E+01
      1.038 -0.3676E-01  0.1892E+01
      1.103 -0.4876E-01  0.1889E+01
      1.167 -0.1994E-02  0.1889E+01
      1.232  0.1741E+00  0.1900E+01
      1.296  0.4915E+00  0.1932E+01
      1.361  0.8281E+00  0.1985E+01
      1.425  0.9799E+00  0.2048E+01
      1.489  0.8432E+00  0.2102E+01
      1.554  0.5275E+00  0.2136E+01
      1.618  0.2567E+00  0.2153E+01
      1.683  0.1718E+00  0.2164E+01
      1.747  0.2446E+00  0.2180E+01
      1.812  0.3472E+00  0.2202E+01
      1.876  0.3801E+00  0.2227E+01
      1.940  0.3574E+00  0.2250E+01
      2.005  0.3973E+00  0.2275E+01
      2.069  0.6143E+00  0.2315E+01
      2.134  0.9895E+00  0.2379E+01
      2.198  0.1341E+01  0.2465E+01
      2.263  0.1447E+01  0.2558E+01
      2.327  0.1222E+01  0.2637E+01
      2.391  0.7797E+00  0.2687E+01
      2.456  0.3362E+00  0.2709E+01
      2.520  0.4122E-01  0.2711E+01
      2.585 -0.8691E-01  0.2706E+01
      2.649 -0.9711E-01  0.2700E+01
      2.714 -0.6747E-02  0.2699E+01
      2.778  0.2194E+00  0.2713E+01
      2.842  0.5924E+00  0.2751E+01
      2.907  0.1018E+01  0.2817E+01
      2.971  0.1332E+01  0.2903E+01
      3.036  0.1426E+01  0.2995E+01
      3.100  0.1323E+01  0.3080E+01
      3.165  0.1113E+01  0.3152E+01
      3.229  0.8773E+00  0.3208E+01
      3.293  0.6822E+00  0.3252E+01
      3.358  0.5987E+00  0.3291E+01
      3.422  0.6434E+00  0.3332E+01
      3.487  0.7239E+00  0.3379E+01
      3.551  0.7106E+00  0.3425E+01
      3.616  0.5851E+00  0.3462E+01
      3.680  0.4642E+00  0.3492E+01
      3.744  0.4513E+00  0.3521E+01
      3.809  0.5165E+00  0.3555E+01
      3.873  0.5625E+00  0.3591E+01
      3.938  0.5614E+00  0.3627E+01
      4.002  0.5673E+00  0.3663E+01
      4.067  0.6231E+00  0.3704E+01
      4.131  0.7161E+00  0.3750E+01
      4.195  0.8185E+00  0.3802E+01
      4.260  0.9118E+00  0.3861E+01
      4.324  0.9646E+00  0.3923E+01
      4.389  0.9264E+00  0.3983E+01
      4.453  0.7677E+00  0.4033E+01
      4.518  0.5187E+00  0.4066E+01
      4.582  0.2645E+00  0.4083E+01
      4.646  0.9845E-01  0.4089E+01
      4.711  0.7331E-01  0.4094E+01
      4.775  0.1752E+00  0.4105E+01
      4.840  0.3262E+00  0.4126E+01
      4.904  0.4217E+00  0.4154E+01
      4.969  0.3961E+00  0.4179E+01
      5.033  0.2684E+00  0.4196E+01
      5.097  0.1209E+00  0.4204E+01
      5.162  0.3299E-01  0.4206E+01
      5.226  0.3314E-01  0.4208E+01
      5.291  0.9614E-01  0.4215E+01
      5.355  0.1665E+00  0.4225E+01
      5.420  0.1934E+00  0.4238E+01
      5.484  0.1642E+00  0.4248E+01
      5.548  0.1085E+00  0.4255E+01
      5.613  0.6395E-01  0.4259E+01
      5.677  0.4300E-01  0.4262E+01
      5.742  0.3321E-01  0.4264E+01
      5.806  0.2083E-01  0.4266E+01
      5.871  0.5333E-02  0.4266E+01
      5.935 -0.3381E-02  0.4266E+01
      5.999  0.6739E-02  0.4266E+01
      6.064  0.4246E-01  0.4269E+01
      6.128  0.9745E-01  0.4275E+01
      6.193  0.1496E+00  0.4285E+01
      6.257  0.1719E+00  0.4296E+01
      6.322  0.1512E+00  0.4306E+01
      6.386  0.9842E-01  0.4312E+01
      6.450  0.4368E-01  0.4315E+01
      6.515  0.2097E-01  0.4316E+01
      6.579  0.5100E-01  0.4320E+01
      6.644  0.1260E+00  0.4328E+01
      6.708  0.2067E+00  0.4341E+01
      6.773  0.2472E+00  0.4357E+01
      6.837  0.2383E+00  0.4372E+01
      6.901  0.2285E+00  0.4387E+01
      6.966  0.2822E+00  0.4405E+01
      7.030  0.4021E+00  0.4431E+01
      7.095  0.5025E+00  0.4463E+01
      7.159  0.4841E+00  0.4495E+01
      7.224  0.3431E+00  0.4517E+01
      7.288  0.1940E+00  0.4529E+01
      7.352  0.1778E+00  0.4541E+01
      7.417  0.3461E+00  0.4563E+01
      7.481  0.6171E+00  0.4603E+01
      7.546  0.8335E+00  0.4656E+01
      7.610  0.8809E+00  0.4713E+01
      7.675  0.7800E+00  0.4763E+01
      7.739  0.6646E+00  0.4806E+01
      7.803  0.6588E+00  0.4849E+01
      7.868  0.7734E+00  0.4899E+01
      7.932  0.9179E+00  0.4958E+01
      7.997  0.9928E+00  0.5022E+01
      8.061  0.9626E+00  0.5084E+01
      8.126  0.8587E+00  0.5139E+01
      8.190  0.7298E+00  0.5186E+01
      8.254  0.6004E+00  0.5225E+01
      8.319  0.4787E+00  0.5256E+01
      8.383  0.3821E+00  0.5280E+01
      8.448  0.3310E+00  0.5301E+01
      8.512  0.3229E+00  0.5322E+01
      8.577  0.3270E+00  0.5343E+01
      8.641  0.3059E+00  0.5363E+01
      8.705  0.2428E+00  0.5379E+01
      8.770  0.1516E+00  0.5388E+01
      8.834  0.6596E-01  0.5393E+01
      8.899  0.1421E-01  0.5394E+01
      8.963  0.1824E-02  0.5394E+01
      9.028  0.1334E-01  0.5395E+01
      9.092  0.2720E-01  0.5396E+01
      9.156  0.2985E-01  0.5398E+01
      9.221  0.2110E-01  0.5400E+01
      9.285  0.9134E-02  0.5400E+01
      9.350  0.1076E-02  0.5400E+01
      9.414 -0.1710E-02  0.5400E+01
      9.479 -0.1558E-02  0.5400E+01
      9.543 -0.7766E-03  0.5400E+01
      9.607 -0.2717E-03  0.5400E+01
      9.672 -0.7145E-04  0.5400E+01
      9.736 -0.1455E-04  0.5400E+01
      9.801 -0.2330E-05  0.5400E+01
      9.865 -0.2960E-06  0.5400E+01
      9.930 -0.3002E-07  0.5400E+01
      9.994 -0.2439E-08  0.5400E+01
     10.058 -0.1593E-09  0.5400E+01
     10.123 -0.8374E-11  0.5400E+01
     10.187 -0.3552E-12  0.5400E+01
     10.252 -0.1216E-13  0.5400E+01
     10.316 -0.3446E-15  0.5400E+01
     10.380  0.0000E+00  0.5400E+01
     10.445  0.0000E+00  0.5400E+01
     10.509  0.0000E+00  0.5400E+01
     10.574  0.0000E+00  0.5400E+01
     10.638  0.0000E+00  0.5400E+01
     10.703  0.0000E+00  0.5400E+01
     10.767  0.0000E+00  0.5400E+01
     10.831  0.0000E+00  0.5400E+01
     10.896  0.0000E+00  0.5400E+01
     10.960  0.0000E+00  0.5400E+01
     11.025  0.0000E+00  0.5400E+01
     11.089  0.0000E+00  0.5400E+01
