       N       E                     dE             d eps       ncg     rms          rms(c)
DAV:   1     0.562339128873E+03    0.56234E+03   -0.83686E+04  2592   0.106E+03
DAV:   2    -0.309660001017E+03   -0.87200E+03   -0.82837E+03  3096   0.172E+02
DAV:   3    -0.372819880533E+03   -0.63160E+02   -0.62041E+02  3144   0.412E+01
DAV:   4    -0.374439207787E+03   -0.16193E+01   -0.16089E+01  3136   0.802E+00
DAV:   5    -0.374490142929E+03   -0.50935E-01   -0.50836E-01  3086   0.133E+00    0.277E+01
RMM:   6    -0.369691167333E+03    0.47990E+01   -0.23498E+00  2592   0.239E+00    0.166E+01
RMM:   7    -0.367464387111E+03    0.22268E+01   -0.60516E+00  2627   0.387E+00    0.893E-01
RMM:   8    -0.367511942435E+03   -0.47555E-01   -0.61419E-01  2634   0.149E+00    0.484E-01
RMM:   9    -0.367530354625E+03   -0.18412E-01   -0.16980E-01  2673   0.729E-01    0.563E-01
RMM:  10    -0.367533575950E+03   -0.32213E-02   -0.29360E-02  2736   0.339E-01    0.766E-01
RMM:  11    -0.367531919293E+03    0.16567E-02   -0.10308E-02  2592   0.205E-01    0.607E-01
RMM:  12    -0.367532055652E+03   -0.13636E-03   -0.16678E-03  2605   0.961E-02    0.588E-01
RMM:  13    -0.367532093543E+03   -0.37891E-04   -0.29352E-04  2790   0.384E-02    0.655E-01
RMM:  14    -0.367532136912E+03   -0.43369E-04   -0.75265E-05  2602   0.219E-02    0.337E-01
RMM:  15    -0.367532197362E+03   -0.60450E-04   -0.29408E-05  2617   0.117E-02    0.253E-01
RMM:  16    -0.367532228428E+03   -0.31066E-04   -0.15557E-05  2592   0.931E-03    0.142E-01
RMM:  17    -0.367532240942E+03   -0.12513E-04   -0.12411E-05  2592   0.808E-03    0.335E-02
RMM:  18    -0.367532242063E+03   -0.11212E-05   -0.40610E-06  1972   0.435E-03    0.774E-03
RMM:  19    -0.367532242393E+03   -0.32994E-06   -0.10392E-06  1556   0.194E-03
   1 F= -.36753224E+03 E0= -.36754088E+03  d E =-.367532E+03
       N       E                     dE             d eps       ncg     rms          rms(c)
DAV:   1    -0.367540040968E+03   -0.77989E-02   -0.34988E-01  2960   0.113E+00    0.248E-01
RMM:   2    -0.367541828413E+03   -0.17874E-02   -0.18869E-02  2593   0.284E-01    0.101E-01
RMM:   3    -0.367542145747E+03   -0.31733E-03   -0.31430E-03  2650   0.130E-01    0.433E-02
RMM:   4    -0.367542152689E+03   -0.69420E-05   -0.42609E-04  2684   0.542E-02    0.149E-02
RMM:   5    -0.367542155976E+03   -0.32867E-05   -0.72602E-05  2684   0.215E-02    0.366E-03
RMM:   6    -0.367542157548E+03   -0.15727E-05   -0.15652E-05  2488   0.912E-03    0.553E-04
RMM:   7    -0.367542157750E+03   -0.20196E-06   -0.21008E-06  1705   0.337E-03    0.533E-04
RMM:   8    -0.367542157801E+03   -0.50391E-07   -0.53115E-07  1439   0.160E-03
   2 F= -.36754216E+03 E0= -.36755090E+03  d E =-.991541E-02
       N       E                     dE             d eps       ncg     rms          rms(c)
DAV:   1    -0.367542870313E+03   -0.71256E-03   -0.16419E-02  3016   0.244E-01    0.532E-02
RMM:   2    -0.367542953161E+03   -0.82849E-04   -0.87056E-04  2592   0.613E-02    0.217E-02
RMM:   3    -0.367542967909E+03   -0.14748E-04   -0.14256E-04  2638   0.280E-02    0.932E-03
RMM:   4    -0.367542968460E+03   -0.55092E-06   -0.19746E-05  2657   0.117E-02    0.323E-03
RMM:   5    -0.367542968646E+03   -0.18618E-06   -0.32853E-06  1806   0.464E-03    0.740E-04
RMM:   6    -0.367542968705E+03   -0.58448E-07   -0.63480E-07  1528   0.195E-03    0.145E-04
RMM:   7    -0.367542968722E+03   -0.17407E-07   -0.15892E-07  1213   0.939E-04    0.997E-05
RMM:   8    -0.367542968725E+03   -0.29650E-08   -0.33255E-08   728   0.571E-04
   3 F= -.36754297E+03 E0= -.36755168E+03  d E =-.107263E-01
