 vasp.6.4.3 19Mar24 (build Oct 21 2024 22:36:34) complex                        
  
 executed on             LinuxIFC date 2024.11.01  22:45:05
 running   96 mpi-ranks, on    1 nodes
 distrk:  each k-point on   24 cores,    4 groups
 distr:  one band on NCORE=  12 cores,    2 groups


--------------------------------------------------------------------------------------------------------


 INCAR:
   SYSTEM = Si64
   ISTART = 0
   ICHARG = 2
   LREAL = Auto
   PREC = Accurate
   LWAVE = .False.
   LCHARG = .False.
   ADDGRID = .True.
   ENCUT = 400
   GGA = PS
   GGA_COMPAT = .FALSE.
   ISMEAR = 1
   SIGMA = 0.2
   NELM = 60
   NELMIN = 8
   EDIFF = 1e-06
   EDIFFG = -0.01
   NSW = 60
   IBRION = 2
   ISIF = 2
   KPAR = 4
   NPAR = 2
   ALGO = Fast

 POTCAR:    PAW_PBE Si 05Jan2001                  
 POTCAR:    PAW_PBE Si 05Jan2001                  
   VRHFIN =Si: s2p2                                                                                 
   LEXCH  = PE                                                                                      
   EATOM  =   103.0669 eV,    7.5752 Ry                                                             
                                                                                                    
   TITEL  = PAW_PBE Si 05Jan2001                                                                    
   LULTRA =        F    use ultrasoft PP ?                                                          
   IUNSCR =        1    unscreen: 0-lin 1-nonlin 2-no                                               
   RPACOR =    1.500    partial core radius                                                         
   POMASS =   28.085; ZVAL   =    4.000    mass and valenz                                          
   RCORE  =    1.900    outmost cutoff radius                                                       
   RWIGS  =    2.480; RWIGS  =    1.312    wigner-seitz radius (au A)                               
   ENMAX  =  245.345; ENMIN  =  184.009 eV                                                          
   ICORE  =        2    local potential                                                             
   LCOR   =        T    correct aug charges                                                         
   LPAW   =        T    paw PP                                                                      
   EAUG   =  322.069                                                                                
   DEXC   =    0.000                                                                                
   RMAX   =    1.950    core radius for proj-oper                                                   
   RAUG   =    1.300    factor for augmentation sphere                                              
   RDEP   =    1.993    radius for radial grids                                                     
   RDEPT  =    1.837    core radius for aug-charge                                                  
                                                                                                    
   Atomic configuration                                                                             
    6 entries                                                                                       
     n  l   j            E        occ.                                                              
     1  0  0.50     -1785.8828   2.0000                                                             
     2  0  0.50      -139.4969   2.0000                                                             
     2  1  1.50       -95.5546   6.0000                                                             
     3  0  0.50       -10.8127   2.0000                                                             
     3  1  0.50        -4.0811   2.0000                                                             
     3  2  1.50        -4.0817   0.0000                                                             
   Description                                                                                      
     l       E           TYP  RCUT    TYP  RCUT                                                     
     0    -10.8127223     23  1.900                                                                 
     0     -7.6451159     23  1.900                                                                 
     1     -4.0811372     23  1.900                                                                 
     1      2.4879257     23  1.900                                                                 
     2     -4.0817478      7  1.900                                                                 
  local pseudopotential read in
  partial core-charges read in
  partial kinetic energy density read in
  atomic valenz-charges read in
  non local Contribution for L=           0  read in
    real space projection operators read in
  non local Contribution for L=           0  read in
    real space projection operators read in
  non local Contribution for L=           1  read in
    real space projection operators read in
  non local Contribution for L=           1  read in
    real space projection operators read in
    PAW grid and wavefunctions read in
 
   number of l-projection  operators is LMAX  =           4
   number of lm-projection operators is LMMAX =           8
 
 Optimization of the real space projectors (new method)

 maximal supplied QI-value         = 19.84
 optimisation between [QCUT,QGAM] = [ 10.12, 20.44] = [ 28.68,116.96] Ry 
 Optimized for a Real-space Cutoff    1.38 Angstroem

   l    n(q)    QCUT    max X(q) W(low)/X(q) W(high)/X(q)  e(spline) 
   0      8    10.119   159.560    0.58E-04    0.11E-03    0.54E-07
   0      8    10.119   115.863    0.56E-04    0.11E-03    0.54E-07
   1      8    10.119    88.339    0.22E-03    0.17E-03    0.19E-06
   1      8    10.119    48.592    0.22E-03    0.17E-03    0.18E-06
 -----------------------------------------------------------------------------
|                                                                             |
|               ----> ADVICE to this user running VASP <----                  |
|                                                                             |
|     You enforced a specific xc type in the INCAR file but a different       |
|     type was found in the POTCAR file.                                      |
|     I HOPE YOU KNOW WHAT YOU ARE DOING!                                     |
|                                                                             |
 -----------------------------------------------------------------------------

  PAW_PBE Si 05Jan2001                  :
 energy of atom  1       EATOM= -103.0669
 kinetic energy error for atom=    0.0012 (will be added to EATOM!!)
 
 
 POSCAR: Si8
  positions in direct lattice
  velocities in cartesian coordinates


 exchange-correlation table for PS
   RHO(1)=    0.500       N(1)  =     2000
   RHO(2)=  100.500       N(2)  =     4000
 


--------------------------------------------------------------------------------------------------------


 ion  position               nearest neighbor table
   1  0.000  0.000  0.000-  30 2.35  44 2.35  15 2.37  57 2.37
   2  0.000  0.000  0.500-  29 2.35  43 2.35  16 2.37  58 2.37
   3  0.000  0.500  0.000-  32 2.35  42 2.35  13 2.37  59 2.37
   4  0.000  0.500  0.500-  31 2.35  41 2.35  14 2.37  60 2.37
   5  0.500  0.000  0.000-  26 2.35  48 2.35  11 2.37  61 2.37
   6  0.500  0.000  0.500-  25 2.35  47 2.35  12 2.37  62 2.37
   7  0.500  0.500  0.000-  28 2.35  46 2.35   9 2.37  63 2.37
   8  0.500  0.500  0.500-  27 2.35  45 2.35  10 2.37  64 2.37
   9  0.375  0.375  0.125-  21 2.35  35 2.35   7 2.37  49 2.37
  10  0.375  0.375  0.625-  22 2.35  36 2.35   8 2.37  50 2.37
  11  0.375  0.875  0.125-  23 2.35  33 2.35   5 2.37  51 2.37
  12  0.375  0.875  0.625-  24 2.35  34 2.35   6 2.37  52 2.37
  13  0.875  0.375  0.125-  17 2.35  39 2.35   3 2.37  53 2.37
  14  0.875  0.375  0.625-  18 2.35  40 2.35   4 2.37  54 2.37
  15  0.875  0.875  0.125-  19 2.35  37 2.35   1 2.37  55 2.37
  16  0.875  0.875  0.625-  20 2.35  38 2.35   2 2.37  56 2.37
  17  0.000  0.250  0.250-  13 2.35  57 2.35  41 2.37  29 2.37
  18  0.000  0.250  0.750-  14 2.35  58 2.35  42 2.37  30 2.37
  19  0.000  0.750  0.250-  15 2.35  59 2.35  43 2.37  31 2.37
  20  0.000  0.750  0.750-  16 2.35  60 2.35  44 2.37  32 2.37
  21  0.500  0.250  0.250-   9 2.35  61 2.35  45 2.37  25 2.37
  22  0.500  0.250  0.750-  10 2.35  62 2.35  46 2.37  26 2.37
  23  0.500  0.750  0.250-  11 2.35  63 2.35  47 2.37  27 2.37
  24  0.500  0.750  0.750-  12 2.35  64 2.35  48 2.37  28 2.37
  25  0.375  0.125  0.375-   6 2.35  50 2.35  33 2.37  21 2.37
  26  0.375  0.125  0.875-   5 2.35  49 2.35  34 2.37  22 2.37
  27  0.375  0.625  0.375-   8 2.35  52 2.35  35 2.37  23 2.37
  28  0.375  0.625  0.875-   7 2.35  51 2.35  36 2.37  24 2.37
  29  0.875  0.125  0.375-   2 2.35  54 2.35  37 2.37  17 2.37
  30  0.875  0.125  0.875-   1 2.35  53 2.35  38 2.37  18 2.37
  31  0.875  0.625  0.375-   4 2.35  56 2.35  39 2.37  19 2.37
  32  0.875  0.625  0.875-   3 2.35  55 2.35  40 2.37  20 2.37
  33  0.250  0.000  0.250-  11 2.35  57 2.35  43 2.37  25 2.37
  34  0.250  0.000  0.750-  12 2.35  58 2.35  44 2.37  26 2.37
  35  0.250  0.500  0.250-   9 2.35  59 2.35  41 2.37  27 2.37
  36  0.250  0.500  0.750-  10 2.35  60 2.35  42 2.37  28 2.37
  37  0.750  0.000  0.250-  15 2.35  61 2.35  47 2.37  29 2.37
  38  0.750  0.000  0.750-  16 2.35  62 2.35  48 2.37  30 2.37
  39  0.750  0.500  0.250-  13 2.35  63 2.35  45 2.37  31 2.37
  40  0.750  0.500  0.750-  14 2.35  64 2.35  46 2.37  32 2.37
  41  0.125  0.375  0.375-   4 2.35  50 2.35  35 2.37  17 2.37
  42  0.125  0.375  0.875-   3 2.35  49 2.35  36 2.37  18 2.37
  43  0.125  0.875  0.375-   2 2.35  52 2.35  33 2.37  19 2.37
  44  0.125  0.875  0.875-   1 2.35  51 2.35  34 2.37  20 2.37
  45  0.625  0.375  0.375-   8 2.35  54 2.35  39 2.37  21 2.37
  46  0.625  0.375  0.875-   7 2.35  53 2.35  40 2.37  22 2.37
  47  0.625  0.875  0.375-   6 2.35  56 2.35  37 2.37  23 2.37
  48  0.625  0.875  0.875-   5 2.35  55 2.35  38 2.37  24 2.37
  49  0.250  0.250  0.000-  26 2.35  42 2.35   9 2.37  57 2.37
  50  0.250  0.250  0.500-  25 2.35  41 2.35  10 2.37  58 2.37
  51  0.250  0.750  0.000-  28 2.35  44 2.35  11 2.37  59 2.37
  52  0.250  0.750  0.500-  27 2.35  43 2.35  12 2.37  60 2.37
  53  0.750  0.250  0.000-  30 2.35  46 2.35  13 2.37  61 2.37
  54  0.750  0.250  0.500-  29 2.35  45 2.35  14 2.37  62 2.37
  55  0.750  0.750  0.000-  32 2.35  48 2.35  15 2.37  63 2.37
  56  0.750  0.750  0.500-  31 2.35  47 2.35  16 2.37  64 2.37
  57  0.125  0.125  0.125-  17 2.35  33 2.35   1 2.37  49 2.37
  58  0.125  0.125  0.625-  18 2.35  34 2.35   2 2.37  50 2.37
  59  0.125  0.625  0.125-  19 2.35  35 2.35   3 2.37  51 2.37
  60  0.125  0.625  0.625-  20 2.35  36 2.35   4 2.37  52 2.37
  61  0.625  0.125  0.125-  21 2.35  37 2.35   5 2.37  53 2.37
  62  0.625  0.125  0.625-  22 2.35  38 2.35   6 2.37  54 2.37
  63  0.625  0.625  0.125-  23 2.35  39 2.35   7 2.37  55 2.37
  64  0.625  0.625  0.625-  24 2.35  40 2.35   8 2.37  56 2.37
 
  LATTYP: Found a simple monoclinic cell.
 ALAT       =    10.8716034964
 B/A-ratio  =     0.9999875004
 C/A-ratio  =     1.0099997825
 COS(beta)  =    -0.0099501882
  
  Lattice vectors:
  
 A1 = (   0.0543570080,  10.8714676055,   0.0000000000)
 A2 = (   0.0000000000,   0.0000000000, -10.8714676055)
 A3 = ( -10.9801826216,  -0.0543570080,   0.0000000000)


Analysis of symmetry for initial positions (statically):
=====================================================================
 Subroutine PRICEL returns following result:
 
  LATTYP: Found a base centered monoclinic cell.
 ALAT       =     5.4358017482
 B/A-ratio  =     0.9999875004
 C/A-ratio  =     0.7071068139
 COS(beta)  =    -0.7000005464
  
  Lattice vectors:
  
 A1 = (   0.0135892520,   2.7178669014,  -2.7178669014)
 A2 = (   0.0135892520,   2.7178669014,   2.7178669014)
 A3 = (   2.7314564034,  -2.7042776494,   0.0000000000)
 
  32 primitive cells build up your supercell.
 

 Routine SETGRP: Setting up the symmetry group for a 
 simple monoclinic supercell.


 Subroutine GETGRP returns: Found  4 space group operations
 (whereof  2 operations were pure point group operations)
 out of a pool of  4 trial point group operations.


The static configuration has the point symmetry C_2 .
 The point group associated with its full space group is C_2h.


Analysis of symmetry for dynamics (positions and initial velocities):
=====================================================================
 Subroutine PRICEL returns following result:
 
  LATTYP: Found a base centered monoclinic cell.
 ALAT       =     5.4358017482
 B/A-ratio  =     0.9999875004
 C/A-ratio  =     0.7071068139
 COS(beta)  =    -0.7000005464
  
  Lattice vectors:
  
 A1 = (   0.0135892520,   2.7178669014,  -2.7178669014)
 A2 = (   0.0135892520,   2.7178669014,   2.7178669014)
 A3 = (   2.7314564034,  -2.7042776494,   0.0000000000)
 
  32 primitive cells build up your supercell.
 

 Routine SETGRP: Setting up the symmetry group for a 
 simple monoclinic supercell.


 Subroutine GETGRP returns: Found  4 space group operations
 (whereof  2 operations were pure point group operations)
 out of a pool of  4 trial point group operations.


The dynamic configuration has the point symmetry C_2 .
 The point group associated with its full space group is C_2h.


 Subroutine INISYM returns: Found  4 space group operations
 (whereof  2 operations are pure point group operations),
 and found    32 'primitive' translations


----------------------------------------------------------------------------------------

                                     Primitive cell                                     

  volume of cell :      40.5532

  direct lattice vectors                    reciprocal lattice vectors
     0.013589252  2.717866901 -2.717866901     0.181240093  0.183061607 -0.183967802
     0.013589252  2.717866901  2.717866901     0.181240093  0.183061607  0.183967802
     2.731456403 -2.704277649  0.000000000     0.364301683 -0.001821497  0.000000000

  length of vectors
     3.843668255  3.843668255  3.843692455     0.316549641  0.316549641  0.364306237

  position of ions in fractional coordinates (direct lattice)
     0.000000000  0.000000000  0.000000000
     0.250000000  0.750000000  0.500000000

  ion indices of the primitive-cell ions
   primitive index   ion index
                 1           1
                 2          15

----------------------------------------------------------------------------------------

 
 
 KPOINTS: Automatic mesh                          

Automatic generation of k-mesh.
 Grid dimensions read from file:
 generate k-points for:    2    2    2

 Generating k-lattice:

  Cartesian coordinates                     Fractional coordinates (reciprocal lattice)
     0.045537710 -0.000227687  0.000000000     0.500000000  0.000000000  0.000000000
    -0.000227687  0.045993089  0.000000000     0.000000000  0.500000000  0.000000000
     0.000000000  0.000000000  0.045991951     0.000000000  0.000000000  0.500000000

  Length of vectors
     0.045538280  0.045993653  0.045991951

  Shift w.r.t. Gamma in fractional coordinates (k-lattice)
     0.000000000  0.000000000  0.000000000

 
 Subroutine IBZKPT returns following result:
 ===========================================
 
 Found      8 irreducible k-points:
 
 Following reciprocal coordinates:
            Coordinates               Weight
  0.000000  0.000000  0.000000      1.000000
  0.500000  0.000000  0.000000      1.000000
  0.000000  0.500000  0.000000      1.000000
  0.500000  0.500000  0.000000      1.000000
  0.000000  0.000000  0.500000      1.000000
  0.500000  0.000000  0.500000      1.000000
  0.000000  0.500000  0.500000      1.000000
  0.500000  0.500000  0.500000      1.000000
 
 Following cartesian coordinates:
            Coordinates               Weight
  0.000000  0.000000  0.000000      1.000000
  0.045538 -0.000228  0.000000      1.000000
 -0.000228  0.045993  0.000000      1.000000
  0.045310  0.045765  0.000000      1.000000
  0.000000  0.000000  0.045992      1.000000
  0.045538 -0.000228  0.045992      1.000000
 -0.000228  0.045993  0.045992      1.000000
  0.045310  0.045765  0.045992      1.000000
 


--------------------------------------------------------------------------------------------------------




 Dimension of arrays:
   k-points           NKPTS =      8   k-points in BZ     NKDIM =      8   number of bands    NBANDS=    162
   number of dos      NEDOS =    301   number of ions     NIONS =     64
   non local maximal  LDIM  =      4   non local SUM 2l+1 LMDIM =      8
   total plane-waves  NPLWV = 373248
   max r-space proj   IRMAX =   3219   max aug-charges    IRDMAX=  77124
   dimension x,y,z NGX =    72 NGY =   72 NGZ =   72
   dimension x,y,z NGXF=   144 NGYF=  144 NGZF=  144
   support grid    NGXF=   288 NGYF=  288 NGZF=  288
   ions per type =              64
   NGX,Y,Z   is equivalent  to a cutoff of  10.90, 11.01, 11.01 a.u.
   NGXF,Y,Z  is equivalent  to a cutoff of  21.80, 22.02, 22.02 a.u.

 SYSTEM =  Si64                                    
 POSCAR =  Si8                                     

 Startparameter for this run:
   NWRITE =      2    write-flag & timer
   PREC   = accura    normal or accurate (medium, high low for compatibility)
   ISTART =      0    job   : 0-new  1-cont  2-samecut
   ICHARG =      2    charge: 1-file 2-atom 10-const
   ISPIN  =      1    spin polarized calculation?
   LNONCOLLINEAR =      F non collinear calculations
   LSORBIT =      F    spin-orbit coupling
   INIWAV =      1    electr: 0-lowe 1-rand  2-diag
   LASPH  =      F    aspherical Exc in radial PAW
 Electronic Relaxation 1
   ENCUT  =  400.0 eV  29.40 Ry    5.42 a.u.  17.91 17.73 17.73*2*pi/ulx,y,z
   ENINI  =  400.0     initial cutoff
   ENAUG  =  322.1 eV  augmentation charge cutoff
   NELM   =     60;   NELMIN=  8; NELMDL= -5     # of ELM steps 
   EDIFF  = 0.1E-05   stopping-criterion for ELM
   LREAL  =      T    real-space projection
   NLSPLINE    = F    spline interpolate recip. space projectors
   LCOMPAT=      F    compatible to vasp.4.4
   GGA_COMPAT  = F    GGA compatible to vasp.4.4-vasp.4.6
   LMAXPAW     = -100 max onsite density
   LMAXMIX     =    2 max onsite mixed and CHGCAR
   VOSKOWN=      0    Vosko Wilk Nusair interpolation
   ROPT   =   -0.00025
 Ionic relaxation
   EDIFFG = -.1E-01   stopping-criterion for IOM
   NSW    =     60    number of steps for IOM
   NBLOCK =      1;   KBLOCK =     60    inner block; outer block 
   IBRION =      2    ionic relax: 0-MD 1-quasi-New 2-CG
   NFREE  =      1    steps in history (QN), initial steepest desc. (CG)
   ISIF   =      2    stress and relaxation
   IWAVPR =     11    prediction:  0-non 1-charg 2-wave 3-comb
   ISYM   =      2    0-nonsym 1-usesym 2-fastsym
   LCORR  =      T    Harris-Foulkes like correction to forces

   POTIM  = 0.5000    time-step for ionic-motion
   TEIN   =    0.0    initial temperature
   TEBEG  =    0.0;   TEEND  =   0.0 temperature during run
   SMASS  =  -3.00    Nose mass-parameter (am)
   estimated Nose-frequenzy (Omega)   =  0.10E-29 period in steps = 0.13E+47 mass=  -0.276E-26a.u.
   SCALEE = 1.0000    scale energy and forces
   NPACO  =    256;   APACO  = 10.0  distance and # of slots for P.C.
   PSTRESS=    0.0 pullay stress

  Mass of Ions in am
   POMASS =  28.09
  Ionic Valenz
   ZVAL   =   4.00
  Atomic Wigner-Seitz radii
   RWIGS  =  -1.00
  virtual crystal weights 
   VCA    =   1.00
   NELECT =     256.0000    total number of electrons
   NUPDOWN=      -1.0000    fix difference up-down

 DOS related values:
   EMIN   =  10.00;   EMAX   =-10.00  energy-range for DOS
   EFERMI =   0.00;   METHOD = LEGACY      
   ISMEAR =     1;   SIGMA  =   0.20  broadening in eV -4-tet -1-fermi 0-gaus

 Electronic relaxation 2 (details)
   IALGO  =     68    algorithm
   LDIAG  =      T    sub-space diagonalisation (order eigenvalues)
   LSUBROT=      F    optimize rotation matrix (better conditioning)
   TURBO    =      0    0=normal 1=particle mesh
   IRESTART =      0    0=no restart 2=restart with 2 vectors
   NREBOOT  =      0    no. of reboots
   NMIN     =      0    reboot dimension
   EREF     =   0.00    reference energy to select bands
   IMIX   =      4    mixing-type and parameters
     AMIX     =   0.40;   BMIX     =  1.00
     AMIX_MAG =   1.60;   BMIX_MAG =  1.00
     AMIN     =   0.10
     WC   =   100.;   INIMIX=   1;  MIXPRE=   1;  MAXMIX= -45

 Intra band minimization:
   WEIMIN = 0.0010     energy-eigenvalue tresh-hold
   EBREAK =  0.15E-08  absolut break condition
   DEPER  =   0.30     relativ break condition  

   TIME   =   0.40     timestep for ELM

  volume/ion in A,a.u.               =      20.28       136.83
  Fermi-wavevector in a.u.,A,eV,Ry     =   0.953008  1.800924 12.357135  0.908224
  Thomas-Fermi vector in A             =   2.081623
 
 Write flags
   LWAVE        =      F    write WAVECAR
   LDOWNSAMPLE  =      F    k-point downsampling of WAVECAR
   LCHARG       =      F    write CHGCAR
   LVTOT        =      F    write LOCPOT, total local potential
   LVHAR        =      F    write LOCPOT, Hartree potential only
   WRT_POTENTIAL= false  ! write potential to hdf5 file
   LELF         =      F    write electronic localiz. function (ELF)
   LORBIT       =      0    0 simple, 1 ext, 2 COOP (PROOUT), +10 PAW based schemes


 Dipole corrections
   LMONO      =      F    monopole corrections only (constant potential shift)
   LDIPOL     =      F    correct potential (dipole corrections)
   IDIPOL     =      0    1-x, 2-y, 3-z, 4-all directions 
   EPSILON    =  1.0000000 bulk dielectric constant
   LVACPOTAV  =      F  vacuum potentials using an averaging scheme for the charge density
   VACPOTFLAT =  0.1000000 required flatness to determine vacuum potential
 Exchange correlation treatment:
   GGA     = PS    functional components
   XC_C    = 1    coefficients multiplying the functional components
   LIBXC   =     F    Libxc                    
   VOSKOWN =     0    Vosko Wilk Nusair interpolation
   LHFCALC =     F    Hartree Fock is set to
   LHFONE  =     F    Hartree Fock one center treatment
   AEXX    =    0.0000 exact exchange contribution

 Parameters of functionals:
   PS:
     No parameter
 
 Van der Waals corrections
   IVDW    =     0    specifies the selected vdW correction

 Linear response parameters
   LEPSILON=     F    determine dielectric tensor
   LRPA    =     F    only Hartree local field effects (RPA)
   LNABLA  =     F    use nabla operator in PAW spheres
   LVEL    =     F    velocity operator in full k-point grid
   CSHIFT  =0.1000    complex shift for real part using Kramers Kronig
   OMEGAMAX=  -1.0    maximum frequency
   DEG_THRESHOLD= 0.2000000E-02 threshold for treating states as degnerate
   RTIME   =   -0.100 relaxation time in fs
  (WPLASMAI=    0.000 imaginary part of plasma frequency in eV, 0.658/RTIME)
   DFIELD  = 0.0000000 0.0000000 0.0000000 field for delta impulse in time
 
  Optional k-point grid parameters
   LKPOINTS_OPT  =     F    use optional k-point grid
   KPOINTS_OPT_MODE=     1    mode for optional k-point grid
 
 Orbital magnetization related:
   ORBITALMAG=     F  switch on orbital magnetization
   LCHIMAG   =     F  perturbation theory with respect to B field
   DQ        =  0.001000  dq finite difference perturbation B field
   LLRAUG    =     F  two centre corrections for induced B field
   LBONE     =     F  B-component reconstruction in AE one-centre
   LVGVCALC  =     T  calculate vGv susceptibility
   LVGVAPPL  =     F  apply vGv susceptibility instead of pGv for G=0

 Random number generation:
   RANDOM_GENERATOR = DEFAULT
   PCG_SEED         = not used


--------------------------------------------------------------------------------------------------------


 conjugate gradient relaxation of ions
 charge density and potential will be updated during run
 non-spin polarized calculation
 RMM-DIIS sequential band-by-band and
  variant of blocked Davidson during initial phase
 perform sub-space diagonalisation
    before iterative eigenvector-optimisation
 modified Broyden-mixing scheme, WC =      100.0
 initial mixing is a Kerker type mixing with AMIX =  0.4000 and BMIX =      1.0000
 Hartree-type preconditioning will be used
 using additional bands           34
 real space projection scheme for non local part
 use partial core corrections
 calculate Harris-corrections to forces 
   (improved forces if not selfconsistent)
 use gradient corrections 
 use of overlap-Matrix (Vanderbilt PP)
 Methfessel and Paxton  Order N= 1 SIGMA  =   0.20


--------------------------------------------------------------------------------------------------------


  energy-cutoff  :      400.00
  volume of cell :     1297.70
      direct lattice vectors                 reciprocal lattice vectors
    10.980182622  0.054357008  0.000000000     0.091075421 -0.000455374  0.000000000
     0.054357008 10.871467606  0.000000000    -0.000455374  0.091986178  0.000000000
     0.000000000  0.000000000 10.871467606     0.000000000  0.000000000  0.091983901

  length of vectors
    10.980317167 10.871603496 10.871467606     0.091076559  0.091987305  0.091983901


 
 k-points in units of 2pi/SCALE and weight: Automatic mesh                          
   0.00000000  0.00000000  0.00000000       0.125
   0.04553772 -0.00022769  0.00000000       0.125
  -0.00022769  0.04599310  0.00000000       0.125
   0.04531003  0.04576541  0.00000000       0.125
   0.00000000  0.00000000  0.04599196       0.125
   0.04553772 -0.00022769  0.04599196       0.125
  -0.00022769  0.04599310  0.04599196       0.125
   0.04531003  0.04576541  0.04599196       0.125
 
 k-points in reciprocal lattice and weights: Automatic mesh                          
   0.00000000  0.00000000  0.00000000       0.125
   0.50000000  0.00000000  0.00000000       0.125
   0.00000000  0.50000000  0.00000000       0.125
   0.50000000  0.50000000  0.00000000       0.125
   0.00000000  0.00000000  0.50000000       0.125
   0.50000000  0.00000000  0.50000000       0.125
   0.00000000  0.50000000  0.50000000       0.125
   0.50000000  0.50000000  0.50000000       0.125
 
 position of ions in fractional coordinates (direct lattice) 
   0.00000000  0.00000000  0.00000000
   0.00000000  0.00000000  0.50000000
   0.00000000  0.50000000  0.00000000
   0.00000000  0.50000000  0.50000000
   0.50000000  0.00000000  0.00000000
   0.50000000  0.00000000  0.50000000
   0.50000000  0.50000000  0.00000000
   0.50000000  0.50000000  0.50000000
   0.37500000  0.37500000  0.12500000
   0.37500000  0.37500000  0.62500000
   0.37500000  0.87500000  0.12500000
   0.37500000  0.87500000  0.62500000
   0.87500000  0.37500000  0.12500000
   0.87500000  0.37500000  0.62500000
   0.87500000  0.87500000  0.12500000
   0.87500000  0.87500000  0.62500000
   0.00000000  0.25000000  0.25000000
   0.00000000  0.25000000  0.75000000
   0.00000000  0.75000000  0.25000000
   0.00000000  0.75000000  0.75000000
   0.50000000  0.25000000  0.25000000
   0.50000000  0.25000000  0.75000000
   0.50000000  0.75000000  0.25000000
   0.50000000  0.75000000  0.75000000
   0.37500000  0.12500000  0.37500000
   0.37500000  0.12500000  0.87500000
   0.37500000  0.62500000  0.37500000
   0.37500000  0.62500000  0.87500000
   0.87500000  0.12500000  0.37500000
   0.87500000  0.12500000  0.87500000
   0.87500000  0.62500000  0.37500000
   0.87500000  0.62500000  0.87500000
   0.25000000  0.00000000  0.25000000
   0.25000000  0.00000000  0.75000000
   0.25000000  0.50000000  0.25000000
   0.25000000  0.50000000  0.75000000
   0.75000000  0.00000000  0.25000000
   0.75000000  0.00000000  0.75000000
   0.75000000  0.50000000  0.25000000
   0.75000000  0.50000000  0.75000000
   0.12500000  0.37500000  0.37500000
   0.12500000  0.37500000  0.87500000
   0.12500000  0.87500000  0.37500000
   0.12500000  0.87500000  0.87500000
   0.62500000  0.37500000  0.37500000
   0.62500000  0.37500000  0.87500000
   0.62500000  0.87500000  0.37500000
   0.62500000  0.87500000  0.87500000
   0.25000000  0.25000000  0.00000000
   0.25000000  0.25000000  0.50000000
   0.25000000  0.75000000  0.00000000
   0.25000000  0.75000000  0.50000000
   0.75000000  0.25000000  0.00000000
   0.75000000  0.25000000  0.50000000
   0.75000000  0.75000000  0.00000000
   0.75000000  0.75000000  0.50000000
   0.12500000  0.12500000  0.12500000
   0.12500000  0.12500000  0.62500000
   0.12500000  0.62500000  0.12500000
   0.12500000  0.62500000  0.62500000
   0.62500000  0.12500000  0.12500000
   0.62500000  0.12500000  0.62500000
   0.62500000  0.62500000  0.12500000
   0.62500000  0.62500000  0.62500000
 
 position of ions in cartesian coordinates  (Angst):
   0.00000000  0.00000000  0.00000000
   0.00000000  0.00000000  5.43573380
   0.02717850  5.43573380  0.00000000
   0.02717850  5.43573380  5.43573380
   5.49009131  0.02717850  0.00000000
   5.49009131  0.02717850  5.43573380
   5.51726981  5.46291231  0.00000000
   5.51726981  5.46291231  5.43573380
   4.13795236  4.09718423  1.35893345
   4.13795236  4.09718423  6.79466725
   4.16513087  9.53291803  1.35893345
   4.16513087  9.53291803  6.79466725
   9.62804367  4.12436273  1.35893345
   9.62804367  4.12436273  6.79466725
   9.65522218  9.56009654  1.35893345
   9.65522218  9.56009654  6.79466725
   0.01358925  2.71786690  2.71786690
   0.01358925  2.71786690  8.15360070
   0.04076776  8.15360070  2.71786690
   0.04076776  8.15360070  8.15360070
   5.50368056  2.74504541  2.71786690
   5.50368056  2.74504541  8.15360070
   5.53085907  8.18077921  2.71786690
   5.53085907  8.18077921  8.15360070
   4.12436311  1.37931733  4.07680035
   4.12436311  1.37931733  9.51253415
   4.15154161  6.81505113  4.07680035
   4.15154161  6.81505113  9.51253415
   9.61445442  1.40649583  4.07680035
   9.61445442  1.40649583  9.51253415
   9.64163292  6.84222964  4.07680035
   9.64163292  6.84222964  9.51253415
   2.74504566  0.01358925  2.71786690
   2.74504566  0.01358925  8.15360070
   2.77222416  5.44932305  2.71786690
   2.77222416  5.44932305  8.15360070
   8.23513697  0.04076776  2.71786690
   8.23513697  0.04076776  8.15360070
   8.26231547  5.47650156  2.71786690
   8.26231547  5.47650156  8.15360070
   1.39290671  4.08359498  4.07680035
   1.39290671  4.08359498  9.51253415
   1.42008521  9.51932878  4.07680035
   1.42008521  9.51932878  9.51253415
   6.88299802  4.11077348  4.07680035
   6.88299802  4.11077348  9.51253415
   6.91017652  9.54650728  4.07680035
   6.91017652  9.54650728  9.51253415
   2.75863491  2.73145615  0.00000000
   2.75863491  2.73145615  5.43573380
   2.78581341  8.16718996  0.00000000
   2.78581341  8.16718996  5.43573380
   8.24872622  2.75863466  0.00000000
   8.24872622  2.75863466  5.43573380
   8.27590472  8.19436846  0.00000000
   8.27590472  8.19436846  5.43573380
   1.37931745  1.36572808  1.35893345
   1.37931745  1.36572808  6.79466725
   1.40649596  6.80146188  1.35893345
   1.40649596  6.80146188  6.79466725
   6.86940876  1.39290658  1.35893345
   6.86940876  1.39290658  6.79466725
   6.89658727  6.82864038  1.35893345
   6.89658727  6.82864038  6.79466725
 


--------------------------------------------------------------------------------------------------------


 k-point     1 :   0.0000 0.0000 0.0000  plane waves:   23587
 k-point     2 :   0.5000 0.0000 0.0000  plane waves:   23578
 k-point     3 :   0.0000 0.5000 0.0000  plane waves:   23568
 k-point     4 :   0.5000 0.5000 0.0000  plane waves:   23574
 k-point     5 :   0.0000 0.0000 0.5000  plane waves:   23612
 k-point     6 :   0.5000 0.0000 0.5000  plane waves:   23600
 k-point     7 :   0.0000 0.5000 0.5000  plane waves:   23548
 k-point     8 :   0.5000 0.5000 0.5000  plane waves:   23592

 maximum and minimum number of plane-waves per node :      1989     1945

 maximum number of plane-waves:     23612
 maximum index in each direction: 
   IXMAX=   17   IYMAX=   17   IZMAX=   17
   IXMIN=  -18   IYMIN=  -18   IZMIN=  -18


 real space projection operators:
  total allocation   :      12188.00 KBytes
  max/ min on nodes  :       1029.00        989.00


 parallel 3D FFT for wavefunctions:
    minimum data exchange during FFTs selected (reduces bandwidth)
 parallel 3D FFT for charge:
    minimum data exchange during FFTs selected (reduces bandwidth)


 total amount of memory used by VASP MPI-rank0    82057. kBytes
=======================================================================

   base      :      30000. kBytes
   nonlr-proj:       4646. kBytes
   fftplans  :      19172. kBytes
   grid      :       7278. kBytes
   one-center:         18. kBytes
   wavefun   :      20943. kBytes
 
     INWAV:  cpu time      0.0000: real time      0.0000
 Broyden mixing: mesh for mixing (old mesh)
   NGX = 35   NGY = 35   NGZ = 35
  (NGX  =144   NGY  =144   NGZ  =144)
  gives a total of  42875 points

 initial charge density was supplied:
 charge density of overlapping atoms calculated
 number of electron     256.0000000 magnetization 
 keeping initial charge density in first step


--------------------------------------------------------------------------------------------------------


 Maximum index for non-local projection operator          282
 Maximum index for augmentation-charges         3398 (set IRDMAX)


--------------------------------------------------------------------------------------------------------


 First call to EWALD:  gamma=   0.162
 Maximum number of real-space cells 3x 3x 3
 Maximum number of reciprocal cells 3x 3x 3

    FEWALD:  cpu time      0.0082: real time      0.0082


--------------------------------------- Ionic step        1  -------------------------------------------




--------------------------------------- Iteration      1(   1)  ---------------------------------------


    POTLOK:  cpu time      0.0965: real time      0.1061
    SETDIJ:  cpu time      0.0885: real time      0.0890
     EDDAV:  cpu time      1.3253: real time      1.4140
       DOS:  cpu time      0.0108: real time      0.0128
    --------------------------------------------
      LOOP:  cpu time      1.5211: real time      1.6220

 eigenvalue-minimisations  :  2592
 total energy-change (2. order) : 0.5623391E+03  (-0.8368602E+04)
 number of electron     256.0000000 magnetization 
 augmentation part      256.0000000 magnetization 

 Free energy of the ion-electron system (eV)
  ---------------------------------------------------
  alpha Z        PSCENC =       106.25253170
  Ewald energy   TEWEN  =     -7282.16052725
  -Hartree energ DENC   =      -358.36372533
  -exchange      EXHF   =         0.00000000
  -V(xc)+E(xc)   XCENC  =      -560.08502309
  PAW double counting   =      5598.62625415    -4492.17844134
  entropy T*S    EENTRO =         0.01935285
  eigenvalues    EBANDS =       985.43284619
  atomic energy  EATOM  =      6564.79586099
  Solvation  Ediel_sol  =         0.00000000
  ---------------------------------------------------
  free energy    TOTEN  =       562.33912887 eV

  energy without entropy =      562.31977602  energy(sigma->0) =      562.33267792


--------------------------------------------------------------------------------------------------------




--------------------------------------- Iteration      1(   2)  ---------------------------------------


     EDDAV:  cpu time      1.3760: real time      1.3832
       DOS:  cpu time      0.0011: real time      0.0014
    --------------------------------------------
      LOOP:  cpu time      1.3771: real time      1.3846

 eigenvalue-minimisations  :  3096
 total energy-change (2. order) :-0.8719991E+03  (-0.8283662E+03)
 number of electron     256.0000000 magnetization 
 augmentation part      256.0000000 magnetization 

 Free energy of the ion-electron system (eV)
  ---------------------------------------------------
  alpha Z        PSCENC =       106.25253170
  Ewald energy   TEWEN  =     -7282.16052725
  -Hartree energ DENC   =      -358.36372533
  -exchange      EXHF   =         0.00000000
  -V(xc)+E(xc)   XCENC  =      -560.08502309
  PAW double counting   =      5598.62625415    -4492.17844134
  entropy T*S    EENTRO =         0.00332772
  eigenvalues    EBANDS =       113.44974144
  atomic energy  EATOM  =      6564.79586099
  Solvation  Ediel_sol  =         0.00000000
  ---------------------------------------------------
  free energy    TOTEN  =      -309.66000102 eV

  energy without entropy =     -309.66332874  energy(sigma->0) =     -309.66111026


--------------------------------------------------------------------------------------------------------




--------------------------------------- Iteration      1(   3)  ---------------------------------------


     EDDAV:  cpu time      1.4062: real time      1.4370
       DOS:  cpu time      0.0017: real time      0.0017
    --------------------------------------------
      LOOP:  cpu time      1.4079: real time      1.4387

 eigenvalue-minimisations  :  3144
 total energy-change (2. order) :-0.6315988E+02  (-0.6204118E+02)
 number of electron     256.0000000 magnetization 
 augmentation part      256.0000000 magnetization 

 Free energy of the ion-electron system (eV)
  ---------------------------------------------------
  alpha Z        PSCENC =       106.25253170
  Ewald energy   TEWEN  =     -7282.16052725
  -Hartree energ DENC   =      -358.36372533
  -exchange      EXHF   =         0.00000000
  -V(xc)+E(xc)   XCENC  =      -560.08502309
  PAW double counting   =      5598.62625415    -4492.17844134
  entropy T*S    EENTRO =         0.00802686
  eigenvalues    EBANDS =        50.28516278
  atomic energy  EATOM  =      6564.79586099
  Solvation  Ediel_sol  =         0.00000000
  ---------------------------------------------------
  free energy    TOTEN  =      -372.81988053 eV

  energy without entropy =     -372.82790739  energy(sigma->0) =     -372.82255615


--------------------------------------------------------------------------------------------------------




--------------------------------------- Iteration      1(   4)  ---------------------------------------


     EDDAV:  cpu time      1.3605: real time      1.3791
       DOS:  cpu time      0.0012: real time      0.0012
    --------------------------------------------
      LOOP:  cpu time      1.3617: real time      1.3803

 eigenvalue-minimisations  :  3136
 total energy-change (2. order) :-0.1619327E+01  (-0.1608917E+01)
 number of electron     256.0000000 magnetization 
 augmentation part      256.0000000 magnetization 

 Free energy of the ion-electron system (eV)
  ---------------------------------------------------
  alpha Z        PSCENC =       106.25253170
  Ewald energy   TEWEN  =     -7282.16052725
  -Hartree energ DENC   =      -358.36372533
  -exchange      EXHF   =         0.00000000
  -V(xc)+E(xc)   XCENC  =      -560.08502309
  PAW double counting   =      5598.62625415    -4492.17844134
  entropy T*S    EENTRO =         0.00852698
  eigenvalues    EBANDS =        48.66533541
  atomic energy  EATOM  =      6564.79586099
  Solvation  Ediel_sol  =         0.00000000
  ---------------------------------------------------
  free energy    TOTEN  =      -374.43920779 eV

  energy without entropy =     -374.44773476  energy(sigma->0) =     -374.44205011


--------------------------------------------------------------------------------------------------------




--------------------------------------- Iteration      1(   5)  ---------------------------------------


     EDDAV:  cpu time      1.3601: real time      1.3635
       DOS:  cpu time      0.0012: real time      0.0012
    CHARGE:  cpu time      0.3078: real time      0.3104
    MIXING:  cpu time      0.0096: real time      0.0123
    --------------------------------------------
      LOOP:  cpu time      1.6788: real time      1.6875

 eigenvalue-minimisations  :  3086
 total energy-change (2. order) :-0.5093514E-01  (-0.5083573E-01)
 number of electron     255.9999998 magnetization 
 augmentation part      -14.9458699 magnetization 

 Broyden mixing:
  rms(total) = 0.27665E+01    rms(broyden)= 0.27665E+01
  rms(prec ) = 0.30497E+01
  weight for this iteration     100.00

 Free energy of the ion-electron system (eV)
  ---------------------------------------------------
  alpha Z        PSCENC =       106.25253170
  Ewald energy   TEWEN  =     -7282.16052725
  -Hartree energ DENC   =      -358.36372533
  -exchange      EXHF   =         0.00000000
  -V(xc)+E(xc)   XCENC  =      -560.08502309
  PAW double counting   =      5598.62625415    -4492.17844134
  entropy T*S    EENTRO =         0.00853844
  eigenvalues    EBANDS =        48.61438880
  atomic energy  EATOM  =      6564.79586099
  Solvation  Ediel_sol  =         0.00000000
  ---------------------------------------------------
  free energy    TOTEN  =      -374.49014293 eV

  energy without entropy =     -374.49868137  energy(sigma->0) =     -374.49298908


--------------------------------------------------------------------------------------------------------




--------------------------------------- Iteration      1(   6)  ---------------------------------------


    POTLOK:  cpu time      0.0811: real time      0.0976
    SETDIJ:  cpu time      0.0696: real time      0.0701
    EDDIAG:  cpu time      0.1463: real time      0.1529
  RMM-DIIS:  cpu time      0.7354: real time      0.7398
    ORTHCH:  cpu time      0.0210: real time      0.0211
       DOS:  cpu time      0.0028: real time      0.0028
    CHARGE:  cpu time      0.2998: real time      0.3004
    MIXING:  cpu time      0.0062: real time      0.0094
    --------------------------------------------
      LOOP:  cpu time      1.3622: real time      1.3940

 eigenvalue-minimisations  :  2592
 total energy-change (2. order) : 0.4798976E+01  (-0.2349801E+00)
 number of electron     255.9999998 magnetization 
 augmentation part      -14.7928951 magnetization 

 Broyden mixing:
  rms(total) = 0.16625E+01    rms(broyden)= 0.16625E+01
  rms(prec ) = 0.18259E+01
  weight for this iteration     100.00

 eigenvalues of (default mixing * dielectric matrix)
  average eigenvalue GAMMA=   2.5009
  2.5009

 Free energy of the ion-electron system (eV)
  ---------------------------------------------------
  alpha Z        PSCENC =       106.25253170
  Ewald energy   TEWEN  =     -7282.16052725
  -Hartree energ DENC   =      -403.80040238
  -exchange      EXHF   =         0.00000000
  -V(xc)+E(xc)   XCENC  =      -552.91136923
  PAW double counting   =     12148.52758033   -11045.19719873
  entropy T*S    EENTRO =         0.00885408
  eigenvalues    EBANDS =        94.79350315
  atomic energy  EATOM  =      6564.79586099
  Solvation  Ediel_sol  =         0.00000000
  ---------------------------------------------------
  free energy    TOTEN  =      -369.69116733 eV

  energy without entropy =     -369.70002141  energy(sigma->0) =     -369.69411869


--------------------------------------------------------------------------------------------------------




--------------------------------------- Iteration      1(   7)  ---------------------------------------


    POTLOK:  cpu time      0.0916: real time      0.0939
    SETDIJ:  cpu time      0.0726: real time      0.0728
    EDDIAG:  cpu time      0.1360: real time      0.1363
  RMM-DIIS:  cpu time      0.7264: real time      0.7277
    ORTHCH:  cpu time      0.0208: real time      0.0208
       DOS:  cpu time      0.0026: real time      0.0026
    CHARGE:  cpu time      0.2969: real time      0.2975
    MIXING:  cpu time      0.0064: real time      0.0076
    --------------------------------------------
      LOOP:  cpu time      1.3532: real time      1.3593

 eigenvalue-minimisations  :  2627
 total energy-change (2. order) : 0.2226780E+01  (-0.6051601E+00)
 number of electron     255.9999998 magnetization 
 augmentation part      -14.5791470 magnetization 

 Broyden mixing:
  rms(total) = 0.89303E-01    rms(broyden)= 0.89303E-01
  rms(prec ) = 0.11228E+00
  weight for this iteration     100.00

 eigenvalues of (default mixing * dielectric matrix)
  average eigenvalue GAMMA=   2.2691
  2.2691  2.2691

 Free energy of the ion-electron system (eV)
  ---------------------------------------------------
  alpha Z        PSCENC =       106.25253170
  Ewald energy   TEWEN  =     -7282.16052725
  -Hartree energ DENC   =      -479.09113951
  -exchange      EXHF   =         0.00000000
  -V(xc)+E(xc)   XCENC  =      -540.46559145
  PAW double counting   =     27631.21764398   -26532.16951730
  entropy T*S    EENTRO =         0.02886323
  eigenvalues    EBANDS =       164.12748850
  atomic energy  EATOM  =      6564.79586099
  Solvation  Ediel_sol  =         0.00000000
  ---------------------------------------------------
  free energy    TOTEN  =      -367.46438711 eV

  energy without entropy =     -367.49325034  energy(sigma->0) =     -367.47400819


--------------------------------------------------------------------------------------------------------




--------------------------------------- Iteration      1(   8)  ---------------------------------------


    POTLOK:  cpu time      0.0927: real time      0.0946
    SETDIJ:  cpu time      0.0714: real time      0.0715
    EDDIAG:  cpu time      0.1342: real time      0.1345
  RMM-DIIS:  cpu time      0.7396: real time      0.7410
    ORTHCH:  cpu time      0.0207: real time      0.0207
       DOS:  cpu time      0.0017: real time      0.0017
    CHARGE:  cpu time      0.2963: real time      0.2969
    MIXING:  cpu time      0.0084: real time      0.0089
    --------------------------------------------
      LOOP:  cpu time      1.3650: real time      1.3698

 eigenvalue-minimisations  :  2634
 total energy-change (2. order) :-0.4755532E-01  (-0.6141921E-01)
 number of electron     255.9999998 magnetization 
 augmentation part      -14.6280210 magnetization 

 Broyden mixing:
  rms(total) = 0.48415E-01    rms(broyden)= 0.48414E-01
  rms(prec ) = 0.51712E-01
  weight for this iteration     100.00

 eigenvalues of (default mixing * dielectric matrix)
  average eigenvalue GAMMA=   2.1753
  2.5538  1.9861  1.9861

 Free energy of the ion-electron system (eV)
  ---------------------------------------------------
  alpha Z        PSCENC =       106.25253170
  Ewald energy   TEWEN  =     -7282.16052725
  -Hartree energ DENC   =      -472.52992522
  -exchange      EXHF   =         0.00000000
  -V(xc)+E(xc)   XCENC  =      -540.99069205
  PAW double counting   =     27206.41369740   -26106.53898644
  entropy T*S    EENTRO =         0.02631480
  eigenvalues    EBANDS =       157.21978363
  atomic energy  EATOM  =      6564.79586099
  Solvation  Ediel_sol  =         0.00000000
  ---------------------------------------------------
  free energy    TOTEN  =      -367.51194244 eV

  energy without entropy =     -367.53825724  energy(sigma->0) =     -367.52071404


--------------------------------------------------------------------------------------------------------




--------------------------------------- Iteration      1(   9)  ---------------------------------------


    POTLOK:  cpu time      0.0815: real time      0.0987
    SETDIJ:  cpu time      0.0703: real time      0.0706
    EDDIAG:  cpu time      0.1321: real time      0.1324
  RMM-DIIS:  cpu time      0.7542: real time      0.7556
    ORTHCH:  cpu time      0.0207: real time      0.0208
       DOS:  cpu time      0.0024: real time      0.0024
    CHARGE:  cpu time      0.2957: real time      0.2962
    MIXING:  cpu time      0.0097: real time      0.0097
    --------------------------------------------
      LOOP:  cpu time      1.3665: real time      1.3863

 eigenvalue-minimisations  :  2673
 total energy-change (2. order) :-0.1841219E-01  (-0.1697980E-01)
 number of electron     255.9999998 magnetization 
 augmentation part      -14.6193488 magnetization 

 Broyden mixing:
  rms(total) = 0.56323E-01    rms(broyden)= 0.56323E-01
  rms(prec ) = 0.62252E-01
  weight for this iteration     100.00

 eigenvalues of (default mixing * dielectric matrix)
  average eigenvalue GAMMA=   1.7777
  2.5502  2.1817  2.1817  0.1971

 Free energy of the ion-electron system (eV)
  ---------------------------------------------------
  alpha Z        PSCENC =       106.25253170
  Ewald energy   TEWEN  =     -7282.16052725
  -Hartree energ DENC   =      -474.89711582
  -exchange      EXHF   =         0.00000000
  -V(xc)+E(xc)   XCENC  =      -540.65913092
  PAW double counting   =     27506.68051280   -26406.98814740
  entropy T*S    EENTRO =         0.02682559
  eigenvalues    EBANDS =       159.41883568
  atomic energy  EATOM  =      6564.79586099
  Solvation  Ediel_sol  =         0.00000000
  ---------------------------------------------------
  free energy    TOTEN  =      -367.53035463 eV

  energy without entropy =     -367.55718021  energy(sigma->0) =     -367.53929649


--------------------------------------------------------------------------------------------------------




--------------------------------------- Iteration      1(  10)  ---------------------------------------


    POTLOK:  cpu time      0.0846: real time      0.0983
    SETDIJ:  cpu time      0.0703: real time      0.0705
    EDDIAG:  cpu time      0.1323: real time      0.1326
  RMM-DIIS:  cpu time      0.7579: real time      0.7593
    ORTHCH:  cpu time      0.0206: real time      0.0207
       DOS:  cpu time      0.0015: real time      0.0015
    CHARGE:  cpu time      0.2945: real time      0.2951
    MIXING:  cpu time      0.0095: real time      0.0095
    --------------------------------------------
      LOOP:  cpu time      1.3713: real time      1.3874

 eigenvalue-minimisations  :  2736
 total energy-change (2. order) :-0.3221325E-02  (-0.2935968E-02)
 number of electron     255.9999998 magnetization 
 augmentation part      -14.6254890 magnetization 

 Broyden mixing:
  rms(total) = 0.76565E-01    rms(broyden)= 0.76565E-01
  rms(prec ) = 0.81922E-01
  weight for this iteration     100.00

 eigenvalues of (default mixing * dielectric matrix)
  average eigenvalue GAMMA=   1.6118
  2.6683  2.1237  2.1237  0.5717  0.5717

 Free energy of the ion-electron system (eV)
  ---------------------------------------------------
  alpha Z        PSCENC =       106.25253170
  Ewald energy   TEWEN  =     -7282.16052725
  -Hartree energ DENC   =      -475.05325144
  -exchange      EXHF   =         0.00000000
  -V(xc)+E(xc)   XCENC  =      -540.64054117
  PAW double counting   =     27543.96717505   -26444.28069976
  entropy T*S    EENTRO =         0.02688580
  eigenvalues    EBANDS =       159.55899013
  atomic energy  EATOM  =      6564.79586099
  Solvation  Ediel_sol  =         0.00000000
  ---------------------------------------------------
  free energy    TOTEN  =      -367.53357595 eV

  energy without entropy =     -367.56046175  energy(sigma->0) =     -367.54253788


--------------------------------------------------------------------------------------------------------




--------------------------------------- Iteration      1(  11)  ---------------------------------------


    POTLOK:  cpu time      0.0836: real time      0.1002
    SETDIJ:  cpu time      0.0691: real time      0.0692
    EDDIAG:  cpu time      0.1330: real time      0.1332
  RMM-DIIS:  cpu time      0.7271: real time      0.7286
    ORTHCH:  cpu time      0.0204: real time      0.0207
       DOS:  cpu time      0.0022: real time      0.0022
    CHARGE:  cpu time      0.2962: real time      0.2967
    MIXING:  cpu time      0.0080: real time      0.0080
    --------------------------------------------
      LOOP:  cpu time      1.3395: real time      1.3589

 eigenvalue-minimisations  :  2592
 total energy-change (2. order) : 0.1656657E-02  (-0.1030797E-02)
 number of electron     255.9999998 magnetization 
 augmentation part      -14.6380062 magnetization 

 Broyden mixing:
  rms(total) = 0.60711E-01    rms(broyden)= 0.60711E-01
  rms(prec ) = 0.61226E-01
  weight for this iteration     100.00

 eigenvalues of (default mixing * dielectric matrix)
  average eigenvalue GAMMA=   1.4556
  2.5640  2.5640  1.4618  0.9062  0.9062  0.3312

 Free energy of the ion-electron system (eV)
  ---------------------------------------------------
  alpha Z        PSCENC =       106.25253170
  Ewald energy   TEWEN  =     -7282.16052725
  -Hartree energ DENC   =      -472.99432247
  -exchange      EXHF   =         0.00000000
  -V(xc)+E(xc)   XCENC  =      -540.77266767
  PAW double counting   =     27446.75099018   -26346.84623074
  entropy T*S    EENTRO =         0.02601354
  eigenvalues    EBANDS =       157.41643243
  atomic energy  EATOM  =      6564.79586099
  Solvation  Ediel_sol  =         0.00000000
  ---------------------------------------------------
  free energy    TOTEN  =      -367.53191929 eV

  energy without entropy =     -367.55793284  energy(sigma->0) =     -367.54059047


--------------------------------------------------------------------------------------------------------




--------------------------------------- Iteration      1(  12)  ---------------------------------------


    POTLOK:  cpu time      0.0860: real time      0.1001
    SETDIJ:  cpu time      0.0703: real time      0.0705
    EDDIAG:  cpu time      0.1323: real time      0.1325
  RMM-DIIS:  cpu time      0.7158: real time      0.7172
    ORTHCH:  cpu time      0.0207: real time      0.0208
       DOS:  cpu time      0.0018: real time      0.0018
    CHARGE:  cpu time      0.2950: real time      0.2956
    MIXING:  cpu time      0.0087: real time      0.0087
    --------------------------------------------
      LOOP:  cpu time      1.3308: real time      1.3472

 eigenvalue-minimisations  :  2605
 total energy-change (2. order) :-0.1363595E-03  (-0.1667826E-03)
 number of electron     255.9999998 magnetization 
 augmentation part      -14.6416885 magnetization 

 Broyden mixing:
  rms(total) = 0.58793E-01    rms(broyden)= 0.58793E-01
  rms(prec ) = 0.59088E-01
  weight for this iteration     100.00

 eigenvalues of (default mixing * dielectric matrix)
  average eigenvalue GAMMA=   1.2955
  2.5653  2.5653  1.5027  0.9050  0.9050  0.3887  0.2364

 Free energy of the ion-electron system (eV)
  ---------------------------------------------------
  alpha Z        PSCENC =       106.25253170
  Ewald energy   TEWEN  =     -7282.16052725
  -Hartree energ DENC   =      -472.77146972
  -exchange      EXHF   =         0.00000000
  -V(xc)+E(xc)   XCENC  =      -540.80784197
  PAW double counting   =     27366.80362659   -26266.90665410
  entropy T*S    EENTRO =         0.02596342
  eigenvalues    EBANDS =       157.23645468
  atomic energy  EATOM  =      6564.79586099
  Solvation  Ediel_sol  =         0.00000000
  ---------------------------------------------------
  free energy    TOTEN  =      -367.53205565 eV

  energy without entropy =     -367.55801907  energy(sigma->0) =     -367.54071013


--------------------------------------------------------------------------------------------------------




--------------------------------------- Iteration      1(  13)  ---------------------------------------


    POTLOK:  cpu time      0.0821: real time      0.0980
    SETDIJ:  cpu time      0.0695: real time      0.0696
    EDDIAG:  cpu time      0.1303: real time      0.1306
  RMM-DIIS:  cpu time      0.7650: real time      0.7665
    ORTHCH:  cpu time      0.0206: real time      0.0207
       DOS:  cpu time      0.0018: real time      0.0018
    CHARGE:  cpu time      0.2962: real time      0.2968
    MIXING:  cpu time      0.0223: real time      0.0223
    --------------------------------------------
      LOOP:  cpu time      1.3879: real time      1.4063

 eigenvalue-minimisations  :  2790
 total energy-change (2. order) :-0.3789099E-04  (-0.2935193E-04)
 number of electron     255.9999998 magnetization 
 augmentation part      -14.6420832 magnetization 

 Broyden mixing:
  rms(total) = 0.65466E-01    rms(broyden)= 0.65466E-01
  rms(prec ) = 0.65762E-01
  weight for this iteration     100.00

 eigenvalues of (default mixing * dielectric matrix)
  average eigenvalue GAMMA=   1.5600
  2.7008  2.7008  2.3553  1.7785  0.8855  0.7842  0.7842  0.4909

 Free energy of the ion-electron system (eV)
  ---------------------------------------------------
  alpha Z        PSCENC =       106.25253170
  Ewald energy   TEWEN  =     -7282.16052725
  -Hartree energ DENC   =      -472.80678736
  -exchange      EXHF   =         0.00000000
  -V(xc)+E(xc)   XCENC  =      -540.80046474
  PAW double counting   =     27401.20317021   -26301.30560482
  entropy T*S    EENTRO =         0.02596952
  eigenvalues    EBANDS =       157.26375821
  atomic energy  EATOM  =      6564.79586099
  Solvation  Ediel_sol  =         0.00000000
  ---------------------------------------------------
  free energy    TOTEN  =      -367.53209354 eV

  energy without entropy =     -367.55806306  energy(sigma->0) =     -367.54075005


--------------------------------------------------------------------------------------------------------




--------------------------------------- Iteration      1(  14)  ---------------------------------------


    POTLOK:  cpu time      0.0809: real time      0.0941
    SETDIJ:  cpu time      0.0704: real time      0.0705
    EDDIAG:  cpu time      0.1346: real time      0.1349
  RMM-DIIS:  cpu time      0.7184: real time      0.7198
    ORTHCH:  cpu time      0.0208: real time      0.0209
       DOS:  cpu time      0.0016: real time      0.0016
    CHARGE:  cpu time      0.2980: real time      0.2986
    MIXING:  cpu time      0.0082: real time      0.0083
    --------------------------------------------
      LOOP:  cpu time      1.3330: real time      1.3486

 eigenvalue-minimisations  :  2602
 total energy-change (2. order) :-0.4336878E-04  (-0.7526525E-05)
 number of electron     255.9999998 magnetization 
 augmentation part      -14.6422549 magnetization 

 Broyden mixing:
  rms(total) = 0.33728E-01    rms(broyden)= 0.33728E-01
  rms(prec ) = 0.33941E-01
  weight for this iteration     100.00

 eigenvalues of (default mixing * dielectric matrix)
  average eigenvalue GAMMA=   1.4480
  2.6637  2.6637  2.3377  1.6649  0.9690  0.9690  0.7689  0.4978  0.4978

 Free energy of the ion-electron system (eV)
  ---------------------------------------------------
  alpha Z        PSCENC =       106.25253170
  Ewald energy   TEWEN  =     -7282.16052725
  -Hartree energ DENC   =      -472.66202838
  -exchange      EXHF   =         0.00000000
  -V(xc)+E(xc)   XCENC  =      -540.83310973
  PAW double counting   =     27189.31538211   -26089.44374285
  entropy T*S    EENTRO =         0.02593530
  eigenvalues    EBANDS =       157.17756119
  atomic energy  EATOM  =      6564.79586099
  Solvation  Ediel_sol  =         0.00000000
  ---------------------------------------------------
  free energy    TOTEN  =      -367.53213691 eV

  energy without entropy =     -367.55807222  energy(sigma->0) =     -367.54078201


--------------------------------------------------------------------------------------------------------




--------------------------------------- Iteration      1(  15)  ---------------------------------------


    POTLOK:  cpu time      0.0827: real time      0.0995
    SETDIJ:  cpu time      0.0748: real time      0.0750
    EDDIAG:  cpu time      0.1384: real time      0.1387
  RMM-DIIS:  cpu time      0.7386: real time      0.7400
    ORTHCH:  cpu time      0.0208: real time      0.0209
       DOS:  cpu time      0.0020: real time      0.0020
    CHARGE:  cpu time      0.2955: real time      0.2960
    MIXING:  cpu time      0.0092: real time      0.0092
    --------------------------------------------
      LOOP:  cpu time      1.3622: real time      1.3813

 eigenvalue-minimisations  :  2617
 total energy-change (2. order) :-0.6045024E-04  (-0.2940762E-05)
 number of electron     255.9999998 magnetization 
 augmentation part      -14.6425025 magnetization 

 Broyden mixing:
  rms(total) = 0.25323E-01    rms(broyden)= 0.25323E-01
  rms(prec ) = 0.25489E-01
  weight for this iteration     100.00

 eigenvalues of (default mixing * dielectric matrix)
  average eigenvalue GAMMA=   1.3836
  2.7097  2.7097  2.3050  1.6090  0.9865  0.9865  0.7718  0.6322  0.6322  0.4930

 Free energy of the ion-electron system (eV)
  ---------------------------------------------------
  alpha Z        PSCENC =       106.25253170
  Ewald energy   TEWEN  =     -7282.16052725
  -Hartree energ DENC   =      -472.63093597
  -exchange      EXHF   =         0.00000000
  -V(xc)+E(xc)   XCENC  =      -540.83468379
  PAW double counting   =     27147.92999555   -26048.05467545
  entropy T*S    EENTRO =         0.02590107
  eigenvalues    EBANDS =       157.14433579
  atomic energy  EATOM  =      6564.79586099
  Solvation  Ediel_sol  =         0.00000000
  ---------------------------------------------------
  free energy    TOTEN  =      -367.53219736 eV

  energy without entropy =     -367.55809844  energy(sigma->0) =     -367.54083105


--------------------------------------------------------------------------------------------------------




--------------------------------------- Iteration      1(  16)  ---------------------------------------


    POTLOK:  cpu time      0.0816: real time      0.0955
    SETDIJ:  cpu time      0.0705: real time      0.0707
    EDDIAG:  cpu time      0.1706: real time      0.1735
  RMM-DIIS:  cpu time      0.7252: real time      0.7265
    ORTHCH:  cpu time      0.0207: real time      0.0208
       DOS:  cpu time      0.0021: real time      0.0021
    CHARGE:  cpu time      0.2971: real time      0.2977
    MIXING:  cpu time      0.0080: real time      0.0081
    --------------------------------------------
      LOOP:  cpu time      1.3759: real time      1.3948

 eigenvalue-minimisations  :  2592
 total energy-change (2. order) :-0.3106597E-04  (-0.1555694E-05)
 number of electron     255.9999998 magnetization 
 augmentation part      -14.6422022 magnetization 

 Broyden mixing:
  rms(total) = 0.14191E-01    rms(broyden)= 0.14191E-01
  rms(prec ) = 0.14291E-01
  weight for this iteration     100.00

 eigenvalues of (default mixing * dielectric matrix)
  average eigenvalue GAMMA=   1.4079
  2.6921  2.6921  2.3627  1.2643  1.4898  1.1202  1.1202  0.8016  0.7126  0.7126
  0.5189

 Free energy of the ion-electron system (eV)
  ---------------------------------------------------
  alpha Z        PSCENC =       106.25253170
  Ewald energy   TEWEN  =     -7282.16052725
  -Hartree energ DENC   =      -472.70705177
  -exchange      EXHF   =         0.00000000
  -V(xc)+E(xc)   XCENC  =      -540.83142010
  PAW double counting   =     27092.05720068   -25992.18356051
  entropy T*S    EENTRO =         0.02589684
  eigenvalues    EBANDS =       157.21884101
  atomic energy  EATOM  =      6564.79586099
  Solvation  Ediel_sol  =         0.00000000
  ---------------------------------------------------
  free energy    TOTEN  =      -367.53222843 eV

  energy without entropy =     -367.55812526  energy(sigma->0) =     -367.54086071


--------------------------------------------------------------------------------------------------------




--------------------------------------- Iteration      1(  17)  ---------------------------------------


    POTLOK:  cpu time      0.0826: real time      0.0990
    SETDIJ:  cpu time      0.0697: real time      0.0699
    EDDIAG:  cpu time      0.1339: real time      0.1342
  RMM-DIIS:  cpu time      0.7262: real time      0.7279
    ORTHCH:  cpu time      0.0207: real time      0.0208
       DOS:  cpu time      0.0018: real time      0.0018
    CHARGE:  cpu time      0.2971: real time      0.2978
    MIXING:  cpu time      0.0073: real time      0.0073
    --------------------------------------------
      LOOP:  cpu time      1.3393: real time      1.3587

 eigenvalue-minimisations  :  2592
 total energy-change (2. order) :-0.1251342E-04  (-0.1241141E-05)
 number of electron     255.9999998 magnetization 
 augmentation part      -14.6417822 magnetization 

 Broyden mixing:
  rms(total) = 0.33483E-02    rms(broyden)= 0.33483E-02
  rms(prec ) = 0.33979E-02
  weight for this iteration     100.00

 eigenvalues of (default mixing * dielectric matrix)
  average eigenvalue GAMMA=   1.7393
  3.0743  3.0743  2.7028  2.7028  2.4115  2.0473  0.9732  0.9732  0.9065  0.7370
  0.7370  0.5318

 Free energy of the ion-electron system (eV)
  ---------------------------------------------------
  alpha Z        PSCENC =       106.25253170
  Ewald energy   TEWEN  =     -7282.16052725
  -Hartree energ DENC   =      -472.78907437
  -exchange      EXHF   =         0.00000000
  -V(xc)+E(xc)   XCENC  =      -540.82828597
  PAW double counting   =     27035.83330002   -25935.96101801
  entropy T*S    EENTRO =         0.02589601
  eigenvalues    EBANDS =       157.29907592
  atomic energy  EATOM  =      6564.79586099
  Solvation  Ediel_sol  =         0.00000000
  ---------------------------------------------------
  free energy    TOTEN  =      -367.53224094 eV

  energy without entropy =     -367.55813696  energy(sigma->0) =     -367.54087295


--------------------------------------------------------------------------------------------------------




--------------------------------------- Iteration      1(  18)  ---------------------------------------


    POTLOK:  cpu time      0.0904: real time      0.0993
    SETDIJ:  cpu time      0.0698: real time      0.0699
    EDDIAG:  cpu time      0.1323: real time      0.1326
  RMM-DIIS:  cpu time      0.5705: real time      0.5719
    ORTHCH:  cpu time      0.0207: real time      0.0207
       DOS:  cpu time      0.0019: real time      0.0019
    CHARGE:  cpu time      0.2969: real time      0.2977
    MIXING:  cpu time      0.0070: real time      0.0070
    --------------------------------------------
      LOOP:  cpu time      1.1895: real time      1.2010

 eigenvalue-minimisations  :  1972
 total energy-change (2. order) :-0.1121208E-05  (-0.4060995E-06)
 number of electron     255.9999998 magnetization 
 augmentation part      -14.6415060 magnetization 

 Broyden mixing:
  rms(total) = 0.77423E-03    rms(broyden)= 0.77423E-03
  rms(prec ) = 0.80087E-03
  weight for this iteration     100.00

 eigenvalues of (default mixing * dielectric matrix)
  average eigenvalue GAMMA=   1.6119
  3.0924  3.0924  2.7041  2.7041  2.4236  2.0222  0.9750  0.9750  0.9049  0.7363
  0.7363  0.5317  0.0570

 Free energy of the ion-electron system (eV)
  ---------------------------------------------------
  alpha Z        PSCENC =       106.25253170
  Ewald energy   TEWEN  =     -7282.16052725
  -Hartree energ DENC   =      -472.83090632
  -exchange      EXHF   =         0.00000000
  -V(xc)+E(xc)   XCENC  =      -540.82626659
  PAW double counting   =     27014.66778311   -25914.79621434
  entropy T*S    EENTRO =         0.02589859
  eigenvalues    EBANDS =       157.33959805
  atomic energy  EATOM  =      6564.79586099
  Solvation  Ediel_sol  =         0.00000000
  ---------------------------------------------------
  free energy    TOTEN  =      -367.53224206 eV

  energy without entropy =     -367.55814066  energy(sigma->0) =     -367.54087493


--------------------------------------------------------------------------------------------------------




--------------------------------------- Iteration      1(  19)  ---------------------------------------


    POTLOK:  cpu time      0.0815: real time      0.0988
    SETDIJ:  cpu time      0.0684: real time      0.0685
    EDDIAG:  cpu time      0.1320: real time      0.1324
  RMM-DIIS:  cpu time      0.4675: real time      0.4686
    ORTHCH:  cpu time      0.0210: real time      0.0210
       DOS:  cpu time      0.0022: real time      0.0022
    --------------------------------------------
      LOOP:  cpu time      0.7726: real time      0.7916

 eigenvalue-minimisations  :  1556
 total energy-change (2. order) :-0.3299410E-06  (-0.1039190E-06)
 number of electron     255.9999998 magnetization 
 augmentation part      -14.6415060 magnetization 

 Free energy of the ion-electron system (eV)
  ---------------------------------------------------
  alpha Z        PSCENC =       106.25253170
  Ewald energy   TEWEN  =     -7282.16052725
  -Hartree energ DENC   =      -472.85437251
  -exchange      EXHF   =         0.00000000
  -V(xc)+E(xc)   XCENC  =      -540.82422082
  PAW double counting   =     27013.58110174   -25913.71010880
  entropy T*S    EENTRO =         0.02590283
  eigenvalues    EBANDS =       157.36158973
  atomic energy  EATOM  =      6564.79586099
  Solvation  Ediel_sol  =         0.00000000
  ---------------------------------------------------
  free energy    TOTEN  =      -367.53224239 eV

  energy without entropy =     -367.55814522  energy(sigma->0) =     -367.54087667


--------------------------------------------------------------------------------------------------------




 average (electrostatic) potential at core
  the test charge radii are     0.9892
  (the norm of the test charge is              1.0000)
       1 -83.1738       2 -83.1738       3 -83.1738       4 -83.1738       5 -83.1738
       6 -83.1738       7 -83.1738       8 -83.1738       9 -83.1738      10 -83.1738
      11 -83.1738      12 -83.1738      13 -83.1738      14 -83.1738      15 -83.1738
      16 -83.1738      17 -83.1738      18 -83.1738      19 -83.1738      20 -83.1738
      21 -83.1738      22 -83.1738      23 -83.1738      24 -83.1738      25 -83.1738
      26 -83.1738      27 -83.1738      28 -83.1738      29 -83.1738      30 -83.1738
      31 -83.1738      32 -83.1738      33 -83.1738      34 -83.1738      35 -83.1738
      36 -83.1738      37 -83.1738      38 -83.1738      39 -83.1738      40 -83.1738
      41 -83.1738      42 -83.1738      43 -83.1738      44 -83.1738      45 -83.1738
      46 -83.1738      47 -83.1738      48 -83.1738      49 -83.1738      50 -83.1738
      51 -83.1738      52 -83.1738      53 -83.1738      54 -83.1738      55 -83.1738
      56 -83.1738      57 -83.1738      58 -83.1738      59 -83.1738      60 -83.1738
      61 -83.1738      62 -83.1738      63 -83.1738      64 -83.1738
 
 
 
 E-fermi :   6.0197     XC(G=0):  -9.5039     alpha+bet :-11.8287

 val. band max:        5.6904840016   @ k =   0.0000   0.0000   0.0000
 cond. band min:       6.1562319574   @ k =   0.0000   0.0000   0.5000
 fundamental gap:      0.4657479558
 Fermi energy:         6.0196956578

 k-point     1 :       0.0000    0.0000    0.0000
  band No.  band energies     occupation 
      1      -6.2395      2.00000
      2      -5.1770      2.00000
      3      -5.1770      2.00000
      4      -5.1591      2.00000
      5      -5.1591      2.00000
      6      -5.1589      2.00000
      7      -5.1589      2.00000
      8      -4.2421      2.00000
      9      -4.2421      2.00000
     10      -4.2134      2.00000
     11      -4.2134      2.00000
     12      -4.2134      2.00000
     13      -4.2134      2.00000
     14      -4.2009      2.00000
     15      -4.2009      2.00000
     16      -4.2009      2.00000
     17      -4.2009      2.00000
     18      -4.1841      2.00000
     19      -4.1841      2.00000
     20      -3.9543      2.00000
     21      -3.9543      2.00000
     22      -3.8882      2.00000
     23      -3.8882      2.00000
     24      -2.1629      2.00000
     25      -2.1629      2.00000
     26      -2.1467      2.00000
     27      -2.1046      2.00000
     28      -2.1046      2.00000
     29      -2.0633      2.00000
     30      -2.0119      2.00000
     31      -2.0119      2.00000
     32      -1.9910      2.00000
     33      -1.9910      2.00000
     34      -1.9667      2.00000
     35      -1.9667      2.00000
     36      -1.9667      2.00000
     37      -1.9667      2.00000
     38      -1.9215      2.00000
     39      -1.9215      2.00000
     40      -1.9011      2.00000
     41      -1.9011      2.00000
     42      -1.2998      2.00000
     43      -1.2998      2.00000
     44      -1.2832      2.00000
     45      -1.2832      2.00000
     46       0.1720      2.00000
     47       0.1720      2.00000
     48       0.1720      2.00000
     49       0.1720      2.00000
     50       0.1858      2.00000
     51       0.1858      2.00000
     52       0.2061      2.00000
     53       0.2061      2.00000
     54       0.2061      2.00000
     55       0.2061      2.00000
     56       0.2255      2.00000
     57       0.2255      2.00000
     58       1.8082      2.00000
     59       1.8082      2.00000
     60       1.8086      2.00000
     61       1.8086      2.00000
     62       1.8087      2.00000
     63       1.8087      2.00000
     64       1.8087      2.00000
     65       1.8087      2.00000
     66       1.8122      2.00000
     67       1.8122      2.00000
     68       1.8130      2.00000
     69       1.8130      2.00000
     70       1.8714      2.00000
     71       1.8714      2.00000
     72       1.8714      2.00000
     73       1.8714      2.00000
     74       1.9150      2.00000
     75       1.9150      2.00000
     76       1.9257      2.00000
     77       1.9257      2.00000
     78       1.9257      2.00000
     79       1.9257      2.00000
     80       1.9359      2.00000
     81       1.9359      2.00000
     82       2.0966      2.00000
     83       2.0966      2.00000
     84       2.1649      2.00000
     85       2.1649      2.00000
     86       2.1663      2.00000
     87       2.1663      2.00000
     88       2.7469      2.00000
     89       2.7986      2.00000
     90       2.7986      2.00000
     91       2.8508      2.00000
     92       2.8738      2.00000
     93       2.8738      2.00000
     94       3.7146      2.00000
     95       3.7146      2.00000
     96       3.7490      2.00000
     97       3.7490      2.00000
     98       3.7715      2.00000
     99       3.7715      2.00000
    100       3.8071      2.00000
    101       3.8071      2.00000
    102       3.8188      2.00000
    103       3.8188      2.00000
    104       3.8188      2.00000
    105       3.8188      2.00000
    106       4.2927      2.00000
    107       4.2927      2.00000
    108       4.3160      2.00000
    109       4.3160      2.00000
    110       4.3160      2.00000
    111       4.3160      2.00000
    112       4.3401      2.00000
    113       4.3401      2.00000
    114       4.3946      2.00000
    115       4.3946      2.00000
    116       4.3946      2.00000
    117       4.3946      2.00000
    118       4.4026      2.00000
    119       4.4026      2.00000
    120       4.4480      2.00000
    121       4.4480      2.00000
    122       4.4952      2.00000
    123       4.4952      2.00000
    124       4.5441      2.00000
    125       4.5441      2.00000
    126       5.6169      2.01528
    127       5.6877      2.04066
    128       5.6905      2.04190
    129       6.1964     -0.01690
    130       6.2517     -0.06950
    131       6.2517     -0.06950
    132       6.3079     -0.06037
    133       6.3300     -0.05060
    134       6.3300     -0.05060
    135       6.6838     -0.00003
    136       6.6838     -0.00003
    137       6.6839     -0.00003
    138       6.6839     -0.00003
    139       6.7626     -0.00000
    140       6.7626     -0.00000
    141       7.0336     -0.00000
    142       7.0336     -0.00000
    143       7.1288     -0.00000
    144       7.1288     -0.00000
    145       7.9570     -0.00000
    146       7.9573     -0.00000
    147       7.9905     -0.00000
    148       7.9906     -0.00000
    149       7.9908     -0.00000
    150       7.9915     -0.00000
    151       8.0263     -0.00000
    152       8.0272     -0.00000
    153       8.0825     -0.00000
    154       8.0826     -0.00000
    155       8.0832     -0.00000
    156       8.0851     -0.00000
    157       8.1078     -0.00000
    158       8.1537     -0.00000
    159       8.2628     -0.00000
    160       8.7052     -0.00000
    161       8.7478     -0.00000
    162       8.7728     -0.00000

 k-point     2 :       0.5000    0.0000    0.0000
  band No.  band energies     occupation 
      1      -5.9715      2.00000
      2      -5.9715      2.00000
      3      -4.9304      2.00000
      4      -4.9304      2.00000
      5      -4.9161      2.00000
      6      -4.9161      2.00000
      7      -4.9161      2.00000
      8      -4.9161      2.00000
      9      -4.9013      2.00000
     10      -4.9013      2.00000
     11      -4.0949      2.00000
     12      -4.0949      2.00000
     13      -4.0949      2.00000
     14      -4.0949      2.00000
     15      -4.0545      2.00000
     16      -4.0545      2.00000
     17      -4.0545      2.00000
     18      -4.0545      2.00000
     19      -3.8866      2.00000
     20      -3.8866      2.00000
     21      -3.1948      2.00000
     22      -3.1948      2.00000
     23      -3.1534      2.00000
     24      -3.1534      2.00000
     25      -3.1534      2.00000
     26      -3.1534      2.00000
     27      -3.1115      2.00000
     28      -3.1115      2.00000
     29      -2.0737      2.00000
     30      -2.0737      2.00000
     31      -2.0571      2.00000
     32      -2.0571      2.00000
     33      -2.0009      2.00000
     34      -2.0009      2.00000
     35      -1.9851      2.00000
     36      -1.9851      2.00000
     37      -0.9130      2.00000
     38      -0.9130      2.00000
     39      -0.8788      2.00000
     40      -0.8788      2.00000
     41      -0.8788      2.00000
     42      -0.8788      2.00000
     43      -0.8458      2.00000
     44      -0.8458      2.00000
     45      -0.7126      2.00000
     46      -0.7126      2.00000
     47      -0.7126      2.00000
     48      -0.7126      2.00000
     49      -0.7090      2.00000
     50      -0.7090      2.00000
     51      -0.7090      2.00000
     52      -0.7090      2.00000
     53      -0.1154      2.00000
     54      -0.1154      2.00000
     55       1.3771      2.00000
     56       1.3771      2.00000
     57       1.3887      2.00000
     58       1.3887      2.00000
     59       1.3887      2.00000
     60       1.3887      2.00000
     61       1.4018      2.00000
     62       1.4018      2.00000
     63       1.4522      2.00000
     64       1.4522      2.00000
     65       1.4531      2.00000
     66       1.4531      2.00000
     67       1.4531      2.00000
     68       1.4531      2.00000
     69       1.4542      2.00000
     70       1.4542      2.00000
     71       2.2121      2.00000
     72       2.2121      2.00000
     73       2.2321      2.00000
     74       2.2321      2.00000
     75       2.2500      2.00000
     76       2.2500      2.00000
     77       2.2704      2.00000
     78       2.2704      2.00000
     79       2.9347      2.00000
     80       2.9347      2.00000
     81       2.9536      2.00000
     82       2.9536      2.00000
     83       2.9536      2.00000
     84       2.9536      2.00000
     85       2.9705      2.00000
     86       2.9705      2.00000
     87       3.0337      2.00000
     88       3.0337      2.00000
     89       3.0490      2.00000
     90       3.0490      2.00000
     91       3.0490      2.00000
     92       3.0490      2.00000
     93       3.0638      2.00000
     94       3.0638      2.00000
     95       3.1148      2.00000
     96       3.1148      2.00000
     97       3.1150      2.00000
     98       3.1150      2.00000
     99       3.1300      2.00000
    100       3.1300      2.00000
    101       3.1300      2.00000
    102       3.1300      2.00000
    103       3.1775      2.00000
    104       3.1775      2.00000
[...]
 -0.000  -0.000   4.178   0.000  -0.000   7.784   0.000  -0.000
  0.001   0.001   0.000   4.178   0.000   0.000   7.784   0.000
 -0.000  -0.000  -0.000   0.000   4.178  -0.000   0.000   7.784
 -0.000  -0.000   7.784   0.000  -0.000  14.513   0.000  -0.000
  0.001   0.001   0.000   7.784   0.000   0.000  14.513   0.000
 -0.000  -0.000  -0.000   0.000   7.784  -0.000   0.000  14.513
 total augmentation occupancy for first ion, spin component:           1
  5.809  -2.213  -0.000  -0.027   0.000  -0.000   0.010   0.000
 -2.213   0.954  -0.000   0.014   0.000   0.000  -0.005   0.000
 -0.000  -0.000   2.881  -0.000  -0.007  -0.639   0.000   0.000
 -0.027   0.014  -0.000   2.881   0.000  -0.000  -0.639   0.000
  0.000   0.000  -0.007   0.000   2.899   0.000  -0.000  -0.646
 -0.000   0.000  -0.639  -0.000   0.000   0.150   0.000  -0.000
  0.010  -0.005   0.000  -0.639  -0.000   0.000   0.150  -0.000
  0.000   0.000   0.000   0.000  -0.646  -0.000  -0.000   0.152


------------------------ aborting loop because EDIFF is reached ----------------------------------------


    CHARGE:  cpu time      0.2516: real time      0.2526
    FORLOC:  cpu time      0.0233: real time      0.0234
    FORNL :  cpu time      0.6867: real time      0.6883
    STRESS:  cpu time      2.1195: real time      2.1246
    FORCOR:  cpu time      0.0912: real time      0.0914
    FORHAR:  cpu time      0.0361: real time      0.0362
    MIXING:  cpu time      0.0042: real time      0.0042
    OFIELD:  cpu time      0.0000: real time      0.0001

  FORCE on cell =-STRESS in cart. coord.  units (eV):
  Direction    XX          YY          ZZ          XY          YZ          ZX
  --------------------------------------------------------------------------------------
  Alpha Z   106.25253   106.25253   106.25253
  Ewald   -2405.33570 -2438.54682 -2438.47914    -9.38190    -0.00000    -0.00000
  Hartree   161.43134   155.69746   155.64166    -4.58545    -0.00000    -0.00000
  E(xc)    -815.39541  -815.12186  -815.13006     0.09990    -0.00000    -0.00000
  Local    -962.22091  -921.67834  -921.76104    15.01630     0.00000    -0.00000
  n-local  2478.98777  2474.35089  2474.51064    -1.22269    -0.00001    -0.00000
  augment  -368.21126  -368.23179  -368.23209     0.40187     0.00000     0.00000
  Kinetic  1792.14378  1802.46034  1802.21507    -6.20739     0.00000     0.00000
  Fock        0.00000     0.00000     0.00000     0.00000     0.00000     0.00000
  -------------------------------------------------------------------------------------
  Total     -12.34785    -4.81760    -4.98243    -5.87936     0.00000     0.00000
  in kB     -15.24498    -5.94793    -6.15143    -7.25881     0.00000     0.00000
  external pressure =       -9.11 kB  Pullay stress =        0.00 kB


 VOLUME and BASIS-vectors are now :
 -----------------------------------------------------------------------------
  energy-cutoff  :      400.00
  volume of cell :     1297.70
      direct lattice vectors                 reciprocal lattice vectors
    10.980182622  0.054357008  0.000000000     0.091075421 -0.000455374  0.000000000
     0.054357008 10.871467606  0.000000000    -0.000455374  0.091986178  0.000000000
     0.000000000  0.000000000 10.871467606     0.000000000  0.000000000  0.091983901

  length of vectors
    10.980317167 10.871603496 10.871467606     0.091076559  0.091987305  0.091983901


 FORCES acting on ions
    electron-ion (+dipol)            ewald-force                    non-local-force                 convergence-correction
 -----------------------------------------------------------------------------------------------
   -.170E-09 -.184E-09 -.846E+00   -.622E-14 -.888E-14 0.608E+00   -.232E-23 0.161E-23 0.238E+00   -.314E-13 0.136E-12 0.577E-05
   -.170E-09 -.184E-09 -.846E+00   -.102E-13 -.977E-14 0.608E+00   -.931E-24 0.548E-23 0.238E+00   0.513E-14 0.122E-12 0.577E-05
   -.170E-09 -.184E-09 -.846E+00   0.133E-14 -.153E-13 0.608E+00   -.149E-23 0.285E-23 0.238E+00   -.466E-13 -.137E-12 0.577E-05
   -.170E-09 -.184E-09 -.846E+00   -.266E-14 -.160E-13 0.608E+00   -.238E-23 0.609E-23 0.238E+00   0.355E-13 -.123E-12 0.577E-05
   -.170E-09 -.184E-09 -.846E+00   0.133E-14 -.187E-13 0.608E+00   0.698E-23 -.124E-22 0.238E+00   0.553E-13 -.212E-14 0.577E-05
   -.170E-09 -.184E-09 -.846E+00   -.222E-14 -.115E-13 0.608E+00   -.634E-23 -.351E-23 0.238E+00   -.353E-13 0.220E-12 0.577E-05
   -.170E-09 -.184E-09 -.846E+00   0.400E-14 -.133E-13 0.608E+00   0.646E-24 -.960E-23 0.238E+00   0.675E-13 -.198E-14 0.577E-05
   -.170E-09 -.184E-09 -.846E+00   0.142E-13 -.142E-13 0.608E+00   0.536E-24 -.749E-23 0.238E+00   -.510E-13 -.217E-12 0.577E-05
   0.170E-09 0.184E-09 0.846E+00   0.266E-14 -.102E-13 -.608E+00   -.137E-22 0.153E-23 -.238E+00   0.802E-13 0.953E-15 -.577E-05
   0.170E-09 0.184E-09 0.846E+00   0.355E-14 -.711E-14 -.608E+00   -.119E-22 -.199E-22 -.238E+00   -.627E-13 -.937E-13 -.577E-05
   0.170E-09 0.183E-09 0.846E+00   -.400E-14 -.444E-15 -.608E+00   -.161E-22 0.193E-23 -.238E+00   0.101E-12 0.213E-14 -.577E-05
   0.170E-09 0.183E-09 0.846E+00   0.000E+00 0.355E-14 -.608E+00   -.482E-23 0.450E-23 -.238E+00   -.763E-13 0.887E-13 -.577E-05
   0.170E-09 0.185E-09 0.846E+00   -.355E-14 -.266E-14 -.608E+00   0.159E-22 -.704E-23 -.238E+00   -.748E-13 -.114E-12 -.577E-05
   0.170E-09 0.183E-09 0.846E+00   0.107E-13 -.888E-14 -.608E+00   0.252E-24 -.407E-24 -.238E+00   0.663E-13 -.627E-14 -.577E-05
   0.170E-09 0.183E-09 0.846E+00   0.173E-13 -.222E-14 -.608E+00   0.268E-22 0.831E-23 -.238E+00   -.929E-13 0.117E-12 -.577E-05
   0.170E-09 0.184E-09 0.846E+00   -.355E-14 0.178E-14 -.608E+00   0.235E-22 0.303E-23 -.238E+00   0.668E-13 0.246E-14 -.577E-05
   -.170E-09 -.184E-09 -.846E+00   -.555E-14 -.755E-14 0.608E+00   0.157E-22 0.298E-23 0.238E+00   -.556E-13 -.648E-14 0.577E-05
   -.170E-09 -.184E-09 -.846E+00   -.266E-14 -.755E-14 0.608E+00   -.580E-23 0.633E-23 0.238E+00   -.789E-15 0.135E-12 0.577E-05
   -.170E-09 -.184E-09 -.846E+00   0.178E-14 -.777E-14 0.608E+00   0.117E-22 -.310E-23 0.238E+00   0.445E-13 0.633E-14 0.577E-05
   -.170E-09 -.184E-09 -.846E+00   0.124E-13 -.147E-13 0.608E+00   -.679E-24 0.616E-23 0.238E+00   -.134E-13 -.131E-12 0.577E-05
   -.170E-09 -.184E-09 -.846E+00   -.173E-13 -.138E-13 0.608E+00   -.317E-23 -.170E-23 0.238E+00   0.736E-13 -.262E-13 0.577E-05
   -.170E-09 -.184E-09 -.846E+00   -.844E-14 -.142E-13 0.608E+00   -.970E-23 -.191E-22 0.238E+00   -.149E-13 0.797E-13 0.577E-05
   -.170E-09 -.184E-09 -.846E+00   0.577E-14 -.799E-14 0.608E+00   -.121E-22 -.261E-23 0.238E+00   -.383E-13 0.175E-13 0.577E-05
   -.170E-09 -.183E-09 -.846E+00   0.142E-13 -.711E-14 0.608E+00   0.639E-24 -.338E-23 0.238E+00   0.126E-13 -.672E-13 0.577E-05
   0.170E-09 0.184E-09 0.846E+00   0.844E-14 -.781E-14 -.608E+00   -.202E-23 -.100E-22 -.238E+00   0.499E-13 0.114E-12 -.577E-05
   0.170E-09 0.183E-09 0.846E+00   0.133E-14 0.187E-15 -.608E+00   -.185E-22 0.118E-23 -.238E+00   -.330E-15 0.551E-13 -.577E-05
   0.170E-09 0.184E-09 0.846E+00   0.107E-13 -.909E-15 -.608E+00   -.450E-23 -.139E-23 -.238E+00   -.599E-13 -.110E-12 -.577E-05
   0.170E-09 0.183E-09 0.846E+00   0.711E-14 0.867E-15 -.608E+00   -.427E-23 -.454E-23 -.238E+00   0.519E-13 -.623E-13 -.577E-05
   0.170E-09 0.184E-09 0.846E+00   0.799E-14 -.382E-14 -.608E+00   0.351E-23 -.249E-23 -.238E+00   -.541E-13 0.101E-12 -.577E-05
   0.170E-09 0.182E-09 0.846E+00   0.888E-15 0.330E-14 -.608E+00   0.355E-23 0.491E-23 -.238E+00   -.517E-14 0.161E-12 -.577E-05
   0.170E-09 0.184E-09 0.846E+00   -.178E-14 -.357E-14 -.608E+00   0.728E-23 -.680E-23 -.238E+00   0.633E-13 -.104E-12 -.577E-05
   0.170E-09 0.184E-09 0.846E+00   -.160E-13 0.798E-14 -.608E+00   -.132E-22 0.916E-23 -.238E+00   -.502E-13 -.173E-12 -.577E-05
   -.170E-09 -.184E-09 -.846E+00   0.466E-14 -.533E-14 0.608E+00   -.656E-23 0.108E-22 0.238E+00   0.589E-13 0.120E-12 0.577E-05
   -.170E-09 -.184E-09 -.846E+00   -.102E-13 0.888E-15 0.608E+00   0.126E-22 -.113E-23 0.238E+00   -.209E-13 0.653E-13 0.577E-05
   -.170E-09 -.184E-09 -.846E+00   0.444E-15 -.688E-14 0.608E+00   0.322E-23 -.656E-23 0.238E+00   0.450E-13 -.121E-12 0.577E-05
   -.170E-09 -.184E-09 -.846E+00   -.711E-14 -.444E-15 0.608E+00   0.141E-22 -.840E-23 0.238E+00   -.819E-13 -.711E-13 0.577E-05
   -.170E-09 -.184E-09 -.846E+00   0.666E-15 0.133E-14 0.608E+00   0.310E-24 -.974E-23 0.238E+00   -.769E-13 0.230E-12 0.577E-05
   -.170E-09 -.184E-09 -.846E+00   -.888E-15 -.178E-14 0.608E+00   0.630E-23 0.306E-23 0.238E+00   0.262E-13 0.386E-13 0.577E-05
   -.170E-09 -.184E-09 -.846E+00   0.533E-14 -.266E-14 0.608E+00   0.107E-22 -.643E-23 0.238E+00   -.596E-13 -.227E-12 0.577E-05
   -.170E-09 -.182E-09 -.846E+00   -.355E-14 -.355E-14 0.608E+00   -.258E-22 -.901E-24 0.238E+00   0.853E-13 -.575E-13 0.577E-05
   0.170E-09 0.184E-09 0.846E+00   -.107E-13 0.107E-13 -.608E+00   0.120E-22 0.124E-22 -.238E+00   0.213E-13 -.107E-12 -.577E-05
   0.170E-09 0.184E-09 0.846E+00   -.338E-14 0.000E+00 -.608E+00   0.253E-22 0.988E-23 -.238E+00   -.801E-13 0.307E-13 -.577E-05
   0.170E-09 0.183E-09 0.846E+00   0.106E-13 0.120E-13 -.608E+00   -.270E-22 0.573E-23 -.238E+00   0.833E-14 0.106E-12 -.577E-05
   0.170E-09 0.184E-09 0.846E+00   0.396E-15 0.120E-13 -.608E+00   -.165E-23 -.172E-23 -.238E+00   0.347E-13 -.246E-13 -.577E-05
   0.170E-09 0.184E-09 0.846E+00   -.827E-14 0.355E-14 -.608E+00   -.135E-22 -.127E-23 -.238E+00   -.115E-13 -.225E-12 -.577E-05
   0.170E-09 0.185E-09 0.846E+00   -.672E-14 0.107E-13 -.608E+00   0.132E-22 0.783E-23 -.238E+00   0.790E-13 0.800E-13 -.577E-05
   0.170E-09 0.184E-09 0.846E+00   0.173E-15 0.160E-13 -.608E+00   -.206E-22 0.415E-23 -.238E+00   -.680E-14 0.217E-12 -.577E-05
   0.170E-09 0.184E-09 0.846E+00   0.239E-14 0.195E-13 -.608E+00   0.620E-23 0.149E-22 -.238E+00   -.184E-13 -.739E-13 -.577E-05
   -.170E-09 -.184E-09 -.846E+00   -.111E-14 0.644E-14 0.608E+00   0.660E-23 0.897E-23 0.238E+00   -.223E-13 0.813E-13 0.577E-05
   -.170E-09 -.183E-09 -.846E+00   -.400E-14 -.888E-15 0.608E+00   0.674E-23 -.207E-23 0.238E+00   0.365E-14 -.133E-14 0.577E-05
   -.170E-09 -.183E-09 -.846E+00   -.147E-13 0.244E-14 0.608E+00   0.178E-22 0.284E-23 0.238E+00   0.111E-12 -.825E-13 0.577E-05
   -.170E-09 -.184E-09 -.846E+00   -.124E-13 -.266E-14 0.608E+00   0.174E-22 -.296E-23 0.238E+00   -.912E-13 -.414E-14 0.577E-05
   -.170E-09 -.185E-09 -.846E+00   -.777E-14 0.577E-14 0.608E+00   0.201E-22 -.300E-23 0.238E+00   -.269E-14 0.964E-13 0.577E-05
   -.170E-09 -.183E-09 -.846E+00   0.311E-14 -.533E-14 0.608E+00   -.188E-23 -.130E-22 0.238E+00   0.136E-13 -.216E-13 0.577E-05
   -.170E-09 -.184E-09 -.846E+00   0.311E-14 0.488E-14 0.608E+00   0.340E-24 0.182E-24 0.238E+00   -.139E-12 -.938E-13 0.577E-05
   -.170E-09 -.183E-09 -.846E+00   0.000E+00 -.355E-14 0.608E+00   -.267E-23 0.109E-22 0.238E+00   0.110E-12 0.218E-13 0.577E-05
   0.170E-09 0.184E-09 0.846E+00   0.401E-14 0.109E-13 -.608E+00   0.989E-23 0.233E-23 -.238E+00   -.275E-13 0.120E-12 -.577E-05
   0.170E-09 0.184E-09 0.846E+00   0.375E-14 0.111E-13 -.608E+00   0.872E-23 0.120E-22 -.238E+00   0.467E-14 0.115E-12 -.577E-05
   0.170E-09 0.184E-09 0.846E+00   -.328E-14 0.193E-13 -.608E+00   -.171E-22 0.648E-23 -.238E+00   0.823E-13 -.127E-12 -.577E-05
   0.170E-09 0.184E-09 0.846E+00   0.512E-14 0.209E-13 -.608E+00   -.591E-24 -.491E-23 -.238E+00   -.758E-13 -.110E-12 -.577E-05
   0.170E-09 0.184E-09 0.846E+00   0.115E-13 0.798E-14 -.608E+00   -.709E-24 0.352E-23 -.238E+00   0.298E-13 0.100E-12 -.577E-05
   0.170E-09 0.184E-09 0.846E+00   0.772E-14 0.120E-13 -.608E+00   -.206E-22 -.802E-24 -.238E+00   -.333E-14 0.118E-12 -.577E-05
   0.170E-09 0.183E-09 0.846E+00   -.998E-14 0.978E-14 -.608E+00   -.267E-22 0.116E-22 -.238E+00   -.891E-13 -.106E-12 -.577E-05
   0.170E-09 0.185E-09 0.846E+00   0.254E-15 0.111E-13 -.608E+00   -.139E-22 0.154E-22 -.238E+00   0.872E-13 -.120E-12 -.577E-05
 -----------------------------------------------------------------------------------------------
   -.143E-11 0.207E-11 -.104E-10   0.689E-15 -.422E-13 -.671E-13   -.460E-23 0.304E-22 0.699E-14   0.329E-14 -.510E-13 -.173E-12
 
 
 POSITION                                       TOTAL-FORCE (eV/Angst)
 -----------------------------------------------------------------------------------
      0.00000      0.00000      0.00356         0.000000     -0.000000      0.000246
      0.00000      0.00000      5.43930         0.000000     -0.000000      0.000246
      0.02718      5.43573      0.00356         0.000000     -0.000000      0.000246
      0.02718      5.43573      5.43930         0.000000     -0.000000      0.000246
      5.49009      0.02718      0.00356        -0.000000      0.000000      0.000246
      5.49009      0.02718      5.43930        -0.000000      0.000000      0.000246
      5.51727      5.46291      0.00356        -0.000000      0.000000      0.000246
      5.51727      5.46291      5.43930        -0.000000      0.000000      0.000246
      4.13795      4.09718      1.35537         0.000000     -0.000000     -0.000246
      4.13795      4.09718      6.79110         0.000000     -0.000000     -0.000246
      4.16513      9.53292      1.35537        -0.000000     -0.000000     -0.000246
      4.16513      9.53292      6.79110         0.000000      0.000000     -0.000246
      9.62804      4.12436      1.35537         0.000000      0.000000     -0.000246
      9.62804      4.12436      6.79110         0.000000      0.000000     -0.000246
      9.65522      9.56010      1.35537         0.000000     -0.000000     -0.000246
      9.65522      9.56010      6.79110        -0.000000     -0.000000     -0.000246
      0.01359      2.71787      2.72143         0.000000     -0.000000      0.000246
      0.01359      2.71787      8.15716         0.000000     -0.000000      0.000246
      0.04077      8.15360      2.72143         0.000000     -0.000000      0.000246
      0.04077      8.15360      8.15716         0.000000      0.000000      0.000246
      5.50368      2.74505      2.72143        -0.000000      0.000000      0.000246
      5.50368      2.74505      8.15716        -0.000000      0.000000      0.000246
      5.53086      8.18078      2.72143        -0.000000      0.000000      0.000246
      5.53086      8.18078      8.15716        -0.000000      0.000000      0.000246
      4.12436      1.37932      4.07324        -0.000000     -0.000000     -0.000246
      4.12436      1.37932      9.50897        -0.000000     -0.000000     -0.000246
      4.15154      6.81505      4.07324         0.000000      0.000000     -0.000246
      4.15154      6.81505      9.50897         0.000000      0.000000     -0.000246
      9.61445      1.40650      4.07324         0.000000     -0.000000     -0.000246
      9.61445      1.40650      9.50897        -0.000000      0.000000     -0.000246
      9.64163      6.84223      4.07324         0.000000      0.000000     -0.000246
      9.64163      6.84223      9.50897         0.000000      0.000000     -0.000246
      2.74505      0.01359      2.72143         0.000000     -0.000000      0.000246
      2.74505      0.01359      8.15716         0.000000     -0.000000      0.000246
      2.77222      5.44932      2.72143         0.000000     -0.000000      0.000246
      2.77222      5.44932      8.15716        -0.000000     -0.000000      0.000246
      8.23514      0.04077      2.72143        -0.000000      0.000000      0.000246
      8.23514      0.04077      8.15716         0.000000      0.000000      0.000246
      8.26232      5.47650      2.72143        -0.000000      0.000000      0.000246
      8.26232      5.47650      8.15716        -0.000000      0.000000      0.000246
      1.39291      4.08359      4.07324        -0.000000      0.000000     -0.000246
      1.39291      4.08359      9.50897        -0.000000      0.000000     -0.000246
      1.42009      9.51933      4.07324        -0.000000     -0.000000     -0.000246
      1.42009      9.51933      9.50897        -0.000000     -0.000000     -0.000246
      6.88300      4.11077      4.07324         0.000000      0.000000     -0.000246
      6.88300      4.11077      9.50897        -0.000000      0.000000     -0.000246
      6.91018      9.54651      4.07324         0.000000     -0.000000     -0.000246
      6.91018      9.54651      9.50897         0.000000     -0.000000     -0.000246
      2.75863      2.73146      0.00356         0.000000     -0.000000      0.000246
      2.75863      2.73146      5.43930         0.000000     -0.000000      0.000246
      2.78581      8.16719      0.00356         0.000000     -0.000000      0.000246
      2.78581      8.16719      5.43930        -0.000000     -0.000000      0.000246
      8.24873      2.75863      0.00356        -0.000000      0.000000      0.000246
      8.24873      2.75863      5.43930        -0.000000      0.000000      0.000246
      8.27590      8.19437      0.00356         0.000000      0.000000      0.000246
      8.27590      8.19437      5.43930        -0.000000     -0.000000      0.000246
      1.37932      1.36573      1.35537        -0.000000     -0.000000     -0.000246
      1.37932      1.36573      6.79110        -0.000000      0.000000     -0.000246
      1.40650      6.80146      1.35537        -0.000000      0.000000     -0.000246
      1.40650      6.80146      6.79110         0.000000      0.000000     -0.000246
      6.86941      1.39291      1.35537         0.000000     -0.000000     -0.000246
      6.86941      1.39291      6.79110         0.000000     -0.000000     -0.000246
      6.89659      6.82864      1.35537         0.000000     -0.000000     -0.000246
      6.89659      6.82864      6.79110        -0.000000     -0.000000     -0.000246
 -----------------------------------------------------------------------------------
    total drift:                               -0.000000      0.000000     -0.000000


--------------------------------------------------------------------------------------------------------



  FREE ENERGIE OF THE ION-ELECTRON SYSTEM (eV)
  ---------------------------------------------------
  free  energy   TOTEN  =      -367.54296873 eV

  energy  without entropy=     -367.56910087  energy(sigma->0) =     -367.55167944
 
 d Force = 0.8066987E-03[-0.155E-04, 0.163E-02]  d Energy = 0.8109245E-03-0.423E-05
 d Force =-0.3686570E-01[-0.383E-01,-0.354E-01]  d Ewald  =-0.3686569E-01-0.776E-08


--------------------------------------------------------------------------------------------------------


    POTLOK:  cpu time      0.1478: real time      0.1482


--------------------------------------------------------------------------------------------------------




--------------------------------------------------------------------------------------------------------


  
 reached required accuracy - stopping structural energy minimisation
     LOOP+:  cpu time     13.2602: real time     13.4612
    4ORBIT:  cpu time      0.0000: real time      0.0000

 total amount of memory used by VASP MPI-rank0    82057. kBytes
=======================================================================

   base      :      30000. kBytes
   nonlr-proj:       4646. kBytes
   fftplans  :      19172. kBytes
   grid      :       7278. kBytes
   one-center:         18. kBytes
   wavefun   :      20943. kBytes
 
  
  
 General timing and accounting informations for this job:
 ========================================================
  
                  Total CPU time used (sec):       62.309
                            User time (sec):       59.037
                          System time (sec):        3.273
                         Elapsed time (sec):       65.797
  
                   Maximum memory used (kb):      409924.
                   Average memory used (kb):          N/A
  
                          Minor page faults:        95437
                          Major page faults:            0
                 Voluntary context switches:         8843
