Si64                                    
           1
    10.980183    0.054357    0.000000
     0.054357   10.871468    0.000000
     0.000000    0.000000   10.871468
   Si
    64
Direct configuration=     1
   0.00000000  0.00000000  0.00000000
   0.00000000  0.00000000  0.50000000
   0.00000000  0.50000000  0.00000000
   0.00000000  0.50000000  0.50000000
   0.50000000  0.00000000  0.00000000
   0.50000000  0.00000000  0.50000000
   0.50000000  0.50000000  0.00000000
   0.50000000  0.50000000  0.50000000
   0.37500000  0.37500000  0.12500000
   0.37500000  0.37500000  0.62500000
   0.37500000  0.87500000  0.12500000
   0.37500000  0.87500000  0.62500000
   0.87500000  0.37500000  0.12500000
   0.87500000  0.37500000  0.62500000
   0.87500000  0.87500000  0.12500000
   0.87500000  0.87500000  0.62500000
   0.00000000  0.25000000  0.25000000
   0.00000000  0.25000000  0.75000000
   0.00000000  0.75000000  0.25000000
   0.00000000  0.75000000  0.75000000
   0.50000000  0.25000000  0.25000000
   0.50000000  0.25000000  0.75000000
   0.50000000  0.75000000  0.25000000
   0.50000000  0.75000000  0.75000000
   0.37500000  0.12500000  0.37500000
   0.37500000  0.12500000  0.87500000
   0.37500000  0.62500000  0.37500000
   0.37500000  0.62500000  0.87500000
   0.87500000  0.12500000  0.37500000
   0.87500000  0.12500000  0.87500000
   0.87500000  0.62500000  0.37500000
   0.87500000  0.62500000  0.87500000
   0.25000000  0.00000000  0.25000000
   0.25000000  0.00000000  0.75000000
   0.25000000  0.50000000  0.25000000
   0.25000000  0.50000000  0.75000000
   0.75000000  0.00000000  0.25000000
   0.75000000  0.00000000  0.75000000
   0.75000000  0.50000000  0.25000000
   0.75000000  0.50000000  0.75000000
   0.12500000  0.37500000  0.37500000
   0.12500000  0.37500000  0.87500000
   0.12500000  0.87500000  0.37500000
   0.12500000  0.87500000  0.87500000
   0.62500000  0.37500000  0.37500000
   0.62500000  0.37500000  0.87500000
   0.62500000  0.87500000  0.37500000
   0.62500000  0.87500000  0.87500000
   0.25000000  0.25000000  0.00000000
   0.25000000  0.25000000  0.50000000
   0.25000000  0.75000000  0.00000000
   0.25000000  0.75000000  0.50000000
   0.75000000  0.25000000  0.00000000
   0.75000000  0.25000000  0.50000000
   0.75000000  0.75000000  0.00000000
   0.75000000  0.75000000  0.50000000
   0.12500000  0.12500000  0.12500000
   0.12500000  0.12500000  0.62500000
   0.12500000  0.62500000  0.12500000
   0.12500000  0.62500000  0.62500000
   0.62500000  0.12500000  0.12500000
   0.62500000  0.12500000  0.62500000
   0.62500000  0.62500000  0.12500000
   0.62500000  0.62500000  0.62500000
Direct configuration=     2
   1.00000000  0.00000000  0.00041847
   1.00000000  0.00000000  0.50041847
   1.00000000  0.50000000  0.00041847
   1.00000000  0.50000000  0.50041847
   0.50000000  1.00000000  0.00041847
   0.50000000  1.00000000  0.50041847
   0.50000000  0.50000000  0.00041847
   0.50000000  0.50000000  0.50041847
   0.37500000  0.37500000  0.12458153
   0.37500000  0.37500000  0.62458153
   0.37500000  0.87500000  0.12458153
   0.37500000  0.87500000  0.62458153
   0.87500000  0.37500000  0.12458153
   0.87500000  0.37500000  0.62458153
   0.87500000  0.87500000  0.12458153
   0.87500000  0.87500000  0.62458153
   1.00000000  0.25000000  0.25041847
   1.00000000  0.25000000  0.75041847
   1.00000000  0.75000000  0.25041847
   1.00000000  0.75000000  0.75041847
   0.50000000  0.25000000  0.25041847
   0.50000000  0.25000000  0.75041847
   0.50000000  0.75000000  0.25041847
   0.50000000  0.75000000  0.75041847
   0.37500000  0.12500000  0.37458153
   0.37500000  0.12500000  0.87458153
   0.37500000  0.62500000  0.37458153
   0.37500000  0.62500000  0.87458153
   0.87500000  0.12500000  0.37458153
   0.87500000  0.12500000  0.87458153
   0.87500000  0.62500000  0.37458153
   0.87500000  0.62500000  0.87458153
   0.25000000  1.00000000  0.25041847
   0.25000000  0.00000000  0.75041847
   0.25000000  0.50000000  0.25041847
   0.25000000  0.50000000  0.75041847
   0.75000000  1.00000000  0.25041847
   0.75000000  1.00000000  0.75041847
   0.75000000  0.50000000  0.25041847
   0.75000000  0.50000000  0.75041847
   0.12500000  0.37500000  0.37458153
   0.12500000  0.37500000  0.87458153
   0.12500000  0.87500000  0.37458153
   0.12500000  0.87500000  0.87458153
   0.62500000  0.37500000  0.37458153
   0.62500000  0.37500000  0.87458153
   0.62500000  0.87500000  0.37458153
   0.62500000  0.87500000  0.87458153
   0.25000000  0.25000000  0.00041847
   0.25000000  0.25000000  0.50041847
   0.25000000  0.75000000  0.00041847
   0.25000000  0.75000000  0.50041847
   0.75000000  0.25000000  0.00041847
   0.75000000  0.25000000  0.50041847
   0.75000000  0.75000000  0.00041847
   0.75000000  0.75000000  0.50041847
   0.12500000  0.12500000  0.12458153
   0.12500000  0.12500000  0.62458153
   0.12500000  0.62500000  0.12458153
   0.12500000  0.62500000  0.62458153
   0.62500000  0.12500000  0.12458153
   0.62500000  0.12500000  0.62458153
   0.62500000  0.62500000  0.12458153
   0.62500000  0.62500000  0.62458153
Direct configuration=     3
   0.00000000  0.00000000  0.00032785
   0.00000000  0.00000000  0.50032785
   0.00000000  0.50000000  0.00032785
   0.00000000  0.50000000  0.50032785
   0.50000000  0.00000000  0.00032785
   0.50000000  0.00000000  0.50032785
   0.50000000  0.50000000  0.00032785
   0.50000000  0.50000000  0.50032785
   0.37500000  0.37500000  0.12467215
   0.37500000  0.37500000  0.62467215
   0.37500000  0.87500000  0.12467215
   0.37500000  0.87500000  0.62467215
   0.87500000  0.37500000  0.12467215
   0.87500000  0.37500000  0.62467215
   0.87500000  0.87500000  0.12467215
   0.87500000  0.87500000  0.62467215
   0.00000000  0.25000000  0.25032785
   0.00000000  0.25000000  0.75032785
   0.00000000  0.75000000  0.25032785
   0.00000000  0.75000000  0.75032785
   0.50000000  0.25000000  0.25032785
   0.50000000  0.25000000  0.75032785
   0.50000000  0.75000000  0.25032785
   0.50000000  0.75000000  0.75032785
   0.37500000  0.12500000  0.37467215
   0.37500000  0.12500000  0.87467215
   0.37500000  0.62500000  0.37467215
   0.37500000  0.62500000  0.87467215
   0.87500000  0.12500000  0.37467215
   0.87500000  0.12500000  0.87467215
   0.87500000  0.62500000  0.37467215
   0.87500000  0.62500000  0.87467215
   0.25000000  0.00000000  0.25032785
   0.25000000  0.00000000  0.75032785
   0.25000000  0.50000000  0.25032785
   0.25000000  0.50000000  0.75032785
   0.75000000  0.00000000  0.25032785
   0.75000000  0.00000000  0.75032785
   0.75000000  0.50000000  0.25032785
   0.75000000  0.50000000  0.75032785
   0.12500000  0.37500000  0.37467215
   0.12500000  0.37500000  0.87467215
   0.12500000  0.87500000  0.37467215
   0.12500000  0.87500000  0.87467215
   0.62500000  0.37500000  0.37467215
   0.62500000  0.37500000  0.87467215
   0.62500000  0.87500000  0.37467215
   0.62500000  0.87500000  0.87467215
   0.25000000  0.25000000  0.00032785
   0.25000000  0.25000000  0.50032785
   0.25000000  0.75000000  0.00032785
   0.25000000  0.75000000  0.50032785
   0.75000000  0.25000000  0.00032785
   0.75000000  0.25000000  0.50032785
   0.75000000  0.75000000  0.00032785
   0.75000000  0.75000000  0.50032785
   0.12500000  0.12500000  0.12467215
   0.12500000  0.12500000  0.62467215
   0.12500000  0.62500000  0.12467215
   0.12500000  0.62500000  0.62467215
   0.62500000  0.12500000  0.12467215
   0.62500000  0.12500000  0.62467215
   0.62500000  0.62500000  0.12467215
   0.62500000  0.62500000  0.62467215
