<?xml version="1.0" encoding="ISO-8859-1"?>
<modeling>
 <generator>
  <i name="program" type="string">vasp </i>
  <i name="version" type="string">6.4.3  </i>
  <i name="subversion" type="string">19Mar24 (build Oct 21 2024 22:36:34) complex                          parallel </i>
  <i name="platform" type="string">LinuxIFC </i>
  <i name="date" type="string">2024 11 01 </i>
  <i name="time" type="string">22:50:57 </i>
 </generator>
 <incar>
  <i type="string" name="SYSTEM">Si64</i>
  <i type="int" name="ISTART">     0</i>
  <i type="string" name="PREC">Accurate</i>
  <i type="string" name="ALGO">Fast</i>
  <i type="logical" name="ADDGRID"> T  </i>
  <i type="int" name="ICHARG">     2</i>
  <i type="int" name="NELM">    60</i>
  <i type="int" name="NELMIN">     8</i>
  <i type="int" name="IBRION">     2</i>
  <i name="EDIFF">      0.00000100</i>
  <i name="EDIFFG">     -0.01000000</i>
  <i type="int" name="NSW">    60</i>
  <i type="int" name="ISIF">     2</i>
  <i name="ENCUT">    400.00000000</i>
  <i type="string" name="LREAL">Auto</i>
  <i type="int" name="ISMEAR">     1</i>
  <i name="SIGMA">      0.20000000</i>
  <i type="logical" name="LWAVE"> F  </i>
  <i type="logical" name="LCHARG"> F  </i>
  <i type="logical" name="GGA_COMPAT"> F  </i>
  <i type="string" name="GGA">PS</i>
 </incar>
 <primitive_cell>
  <structure name="primitive_cell" >
   <crystal>
    <varray name="basis" >
     <v>       0.00670700       2.68281140      -2.68281140 </v>
     <v>       0.00670700       2.68281140       2.68281140 </v>
     <v>       2.68951840      -2.67610440       0.00000000 </v>
    </varray>
    <i name="volume">     38.81179915 </i>
    <varray name="rec_basis" >
     <v>       0.18498198       0.18590920      -0.18637166 </v>
     <v>       0.18498198       0.18590920       0.18637166 </v>
     <v>       0.37089118      -0.00092722      -0.00000000 </v>
    </varray>
   </crystal>
   <varray name="positions" >
    <v>       0.00000000       0.00000000       0.00000000 </v>
    <v>       0.25000000       0.75000000       0.50000000 </v>
   </varray>
  </structure>
  <varray name="primitive_index" >
   <v type="int" >        1 </v>
   <v type="int" >       15 </v>
  </varray>
 </primitive_cell>
 <kpoints>
  <generation param="Gamma">
   <v type="int" name="divisions">       2        2        2 </v>
   <v name="usershift">      0.00000000       0.00000000       0.00000000 </v>
   <v name="genvec1">      0.50000000       0.00000000       0.00000000 </v>
   <v name="genvec2">      0.00000000       0.50000000       0.00000000 </v>
   <v name="genvec3">      0.00000000       0.00000000       0.50000000 </v>
   <v name="shift">      0.00000000       0.00000000       0.00000000 </v>
  </generation>
  <varray name="kpointlist" >
   <v>       0.00000000       0.00000000       0.00000000 </v>
   <v>       0.50000000      -0.00000000       0.00000000 </v>
   <v>      -0.00000000       0.50000000       0.00000000 </v>
   <v>       0.50000000       0.50000000       0.00000000 </v>
   <v>       0.00000000       0.00000000       0.50000000 </v>
   <v>       0.50000000      -0.00000000       0.50000000 </v>
   <v>      -0.00000000       0.50000000       0.50000000 </v>
   <v>       0.50000000       0.50000000       0.50000000 </v>
  </varray>
  <varray name="weights" >
   <v>       0.12500000 </v>
   <v>       0.12500000 </v>
   <v>       0.12500000 </v>
   <v>       0.12500000 </v>
   <v>       0.12500000 </v>
   <v>       0.12500000 </v>
   <v>       0.12500000 </v>
   <v>       0.12500000 </v>
  </varray>
 </kpoints>
 <parameters>
  <separator name="general" >
   <i type="string" name="SYSTEM">Si64</i>
   <i type="logical" name="LCOMPAT"> F  </i>
  </separator>
  <separator name="electronic" >
   <i type="string" name="PREC">accura</i>
   <i name="ENMAX">    400.00000000</i>
   <i name="ENAUG">    322.06900000</i>
   <i name="EDIFF">      0.00000100</i>
   <i type="int" name="IALGO">    68</i>
   <i type="int" name="IWAVPR">    11</i>
   <i type="int" name="NBANDS">   162</i>
   <i type="int" name="NBANDSLOW">    -1</i>
   <i type="int" name="NBANDSHIGH">    -1</i>
   <i name="NELECT">    256.00000000</i>
   <i type="int" name="TURBO">     0</i>
   <i type="int" name="IRESTART">     0</i>
   <i type="int" name="NREBOOT">     0</i>
   <i type="int" name="NMIN">     0</i>
   <i name="EREF">      0.00000000</i>
   <separator name="electronic smearing" >
    <i type="int" name="ISMEAR">     1</i>
    <i name="SIGMA">      0.20000000</i>
    <i name="KSPACING">      0.50000000</i>
    <i type="logical" name="KGAMMA"> T  </i>
    <i type="logical" name="KBLOWUP"> T  </i>
   </separator>
   <separator name="electronic projectors" >
    <i type="logical" name="LREAL"> T  </i>
    <v name="ROPT">     -0.00025000</v>
    <i type="int" name="LMAXPAW">  -100</i>
    <i type="int" name="LMAXMIX">     2</i>
    <i type="logical" name="NLSPLINE"> F  </i>
   </separator>
   <separator name="electronic startup" >
    <i type="int" name="ISTART">     0</i>
    <i type="int" name="ICHARG">     2</i>
    <i type="int" name="INIWAV">     1</i>
   </separator>
   <separator name="electronic spin" >
    <i type="int" name="ISPIN">     1</i>
    <i type="logical" name="LNONCOLLINEAR"> F  </i>
    <v name="MAGMOM">      1.00000000      1.00000000      1.00000000      1.00000000      1.00000000      1.00000000      1.00000000      1.00000000      1.00000000      1.00000000      1.00000000      1.00000000      1.00000000      1.00000000      1.00000000      1.00000000      1.00000000      1.00000000      1.00000000      1.00000000
      1.00000000      1.00000000      1.00000000      1.00000000      1.00000000      1.00000000      1.00000000      1.00000000      1.00000000      1.00000000      1.00000000      1.00000000      1.00000000      1.00000000      1.00000000      1.00000000      1.00000000      1.00000000      1.00000000      1.00000000
      1.00000000      1.00000000      1.00000000      1.00000000      1.00000000      1.00000000      1.00000000      1.00000000      1.00000000      1.00000000      1.00000000      1.00000000      1.00000000      1.00000000      1.00000000      1.00000000      1.00000000      1.00000000      1.00000000      1.00000000
      1.00000000      1.00000000      1.00000000      1.00000000</v>
    <i name="NUPDOWN">     -1.00000000</i>
    <i type="logical" name="LSORBIT"> F  </i>
    <v name="SAXIS">      0.00000000      0.00000000      1.00000000</v>
    <i type="logical" name="LSPIRAL"> F  </i>
    <v name="QSPIRAL">      0.00000000      0.00000000      0.00000000</v>
    <i type="logical" name="LZEROZ"> F  </i>
   </separator>
   <separator name="electronic exchange-correlation" >
    <i type="logical" name="LASPH"> F  </i>
   </separator>
   <separator name="electronic convergence" >
    <i type="int" name="NELM">    60</i>
    <i type="int" name="NELMDL">    -5</i>
    <i type="int" name="NELMIN">     8</i>
    <i name="ENINI">    400.00000000</i>
    <separator name="electronic convergence detail" >
     <i type="logical" name="LDIAG"> T  </i>
     <i type="logical" name="LSUBROT"> F  </i>
     <i name="WEIMIN">      0.00100000</i>
     <i name="EBREAK">      0.00000000</i>
     <i name="DEPER">      0.30000000</i>
     <i type="int" name="NRMM">     4</i>
     <i name="TIME">      0.40000000</i>
    </separator>
   </separator>
   <separator name="electronic mixer" >
    <i name="AMIX">      0.40000000</i>
    <i name="BMIX">      1.00000000</i>
    <i name="AMIN">      0.10000000</i>
    <i name="AMIX_MAG">      1.60000000</i>
    <i name="BMIX_MAG">      1.00000000</i>
    <separator name="electronic mixer details" >
     <i type="int" name="IMIX">     4</i>
     <i type="logical" name="MIXFIRST"> F  </i>
     <i type="int" name="MAXMIX">   -45</i>
     <i name="WC">    100.00000000</i>
     <i type="int" name="INIMIX">     1</i>
     <i type="int" name="MIXPRE">     1</i>
     <i type="int" name="MREMOVE">     5</i>
    </separator>
   </separator>
   <separator name="electronic dipolcorrection" >
    <i type="logical" name="LDIPOL"> F  </i>
    <i type="logical" name="LMONO"> F  </i>
    <i type="int" name="IDIPOL">     0</i>
    <i name="EPSILON">      1.00000000</i>
    <v name="DIPOL">   -100.00000000   -100.00000000   -100.00000000</v>
    <i name="EFIELD">      0.00000000</i>
    <i type="logical" name="LVACPOTAV"> F  </i>
   </separator>
  </separator>
  <separator name="grids" >
   <i type="int" name="NGX">    70</i>
   <i type="int" name="NGY">    70</i>
   <i type="int" name="NGZ">    70</i>
   <i type="int" name="NGXF">   140</i>
   <i type="int" name="NGYF">   140</i>
   <i type="int" name="NGZF">   140</i>
   <i type="logical" name="ADDGRID"> T  </i>
  </separator>
  <separator name="ionic" >
   <i type="int" name="NSW">    60</i>
   <i type="int" name="IBRION">     2</i>
   <i type="int" name="MDALGO">     0</i>
   <i type="int" name="ISIF">     2</i>
   <i name="PSTRESS">      0.00000000</i>
   <i name="EDIFFG">     -0.01000000</i>
   <i type="int" name="NFREE">     1</i>
   <i name="POTIM">      0.50000000</i>
   <i name="SMASS">     -3.00000000</i>
   <i name="SCALEE">      1.00000000</i>
  </separator>
  <separator name="ionic md" >
   <i name="TEBEG">      0.00010000</i>
   <i name="TEEND">      0.00010000</i>
   <i type="int" name="NBLOCK">     1</i>
   <i type="int" name="KBLOCK">    60</i>
   <i type="int" name="NPACO">   256</i>
   <i name="APACO">     10.00000000</i>
  </separator>
  <separator name="symmetry" >
   <i type="int" name="ISYM">     2</i>
   <i name="SYMPREC">      0.00001000</i>
  </separator>
  <separator name="dos" >
   <i type="int" name="LORBIT">     0</i>
   <v name="RWIGS">     -1.00000000</v>
   <i type="int" name="NEDOS">   301</i>
   <i name="EMIN">     10.00000000</i>
   <i name="EMAX">    -10.00000000</i>
   <i name="EFERMI">      0.00000000</i>
  </separator>
  <separator name="writing" >
   <i type="int" name="NWRITE">     2</i>
   <i type="logical" name="LWAVE"> F  </i>
   <i type="logical" name="LDOWNSAMPLE"> F  </i>
   <i type="logical" name="LCHARG"> F  </i>
   <i type="logical" name="LPARD"> F  </i>
   <i type="logical" name="LVTOT"> F  </i>
   <i type="logical" name="LVHAR"> F  </i>
   <i type="logical" name="LELF"> F  </i>
   <i type="logical" name="LOPTICS"> F  </i>
   <v name="STM">      0.00000000      0.00000000      0.00000000      0.00000000      0.00000000      0.00000000      0.00000000</v>
  </separator>
  <separator name="performance" >
   <i type="int" name="NPAR">     2</i>
   <i type="int" name="NSIM">     4</i>
   <i type="int" name="NBLK">    -1</i>
   <i type="logical" name="LPLANE"> T  </i>
   <i type="logical" name="LSCALAPACK"> T  </i>
   <i type="logical" name="LSCAAWARE"> F  </i>
   <i type="logical" name="LSCALU"> F  </i>
   <i type="logical" name="LASYNC"> F  </i>
   <i type="logical" name="LORBITALREAL"> F  </i>
  </separator>
  <separator name="miscellaneous" >
   <i type="int" name="IDIOT">     3</i>
   <i type="int" name="PHON_NSTRUCT">    -1</i>
   <i type="logical" name="LMUSIC"> F  </i>
   <v name="POMASS">     28.08500000</v>
   <v name="DARWINR">      0.00000000</v>
   <v name="DARWINV">      1.00000000</v>
   <i type="logical" name="LCORR"> T  </i>
  </separator>
  <i type="logical" name="GGA_COMPAT"> F  </i>
  <i type="logical" name="LBERRY"> F  </i>
  <i type="int" name="ICORELEVEL">     0</i>
  <i type="logical" name="LDAU"> F  </i>
  <i type="int" name="I_CONSTRAINED_M">     0</i>
  <separator name="electronic exchange-correlation" >
   <i type="string" name="GGA    ">PS</i>
   <i type="string" name="XC_C">1</i>
   <i type="int" name="VOSKOWN">     0</i>
   <i type="logical" name="LHFCALC"> F  </i>
   <i type="string" name="PRECFOCK"></i>
   <i type="logical" name="LSYMGRAD"> F  </i>
   <i type="logical" name="LHFONE"> F  </i>
   <i type="logical" name="LRHFCALC"> F  </i>
   <i type="logical" name="LTHOMAS"> F  </i>
   <i type="logical" name="LMODELHF"> F  </i>
   <i type="logical" name="LFOCKACE"> F  </i>
   <i name="ENCUT4O">     -1.00000000</i>
   <i type="int" name="EXXOEP">     0</i>
   <i type="int" name="FOURORBIT">     0</i>
   <i name="AEXX">      0.00000000</i>
   <i name="HFALPHA">      0.00000000</i>
   <i name="MCALPHA">      0.00000000</i>
   <i name="ALDAX">      1.00000000</i>
   <i name="AGGAX">      1.00000000</i>
   <i name="AMGGAX">      1.00000000</i>
   <i name="ALDAC">      1.00000000</i>
   <i name="AGGAC">      1.00000000</i>
   <i name="AMGGAC">      1.00000000</i>
   <i type="int" name="NKREDX">     1</i>
   <i type="int" name="NKREDY">     1</i>
   <i type="int" name="NKREDZ">     1</i>
   <i type="logical" name="SHIFTRED"> F  </i>
   <i type="logical" name="ODDONLY"> F  </i>
   <i type="logical" name="EVENONLY"> F  </i>
   <i type="int" name="LMAXFOCK">     0</i>
   <i type="int" name="NMAXFOCKAE">     0</i>
   <i type="logical" name="LFOCKAEDFT"> F  </i>
   <i name="HFSCREEN">      0.00000000</i>
   <i name="HFSCREENC">      0.00000000</i>
   <i type="int" name="NBANDSGWLOW">     0</i>
  </separator>
  <separator name="vdW DFT" >
   <i type="logical" name="LUSE_VDW"> F  </i>
   <i type="int" name="IVDW_NL">    -1</i>
   <i type="logical" name="LSPIN_VDW"> F  </i>
   <i name="ZAB_VDW">     -0.84910000</i>
   <i name="GAMMA_VDW">      1.39626340</i>
   <i name="ALPHA_VDW">      0.00000000</i>
   <i name="PARAM1">      0.12340000</i>
   <i name="PARAM2">      1.00000000</i>
   <i name="BPARAM">      6.30000000</i>
   <i name="CPARAM">      0.00930000</i>
  </separator>
  <separator name="model GW" >
   <i type="int" name="MODEL_GW">     0</i>
   <i name="MODEL_EPS0">     11.64353974</i>
   <i name="MODEL_ALPHA">      1.00000000</i>
  </separator>
  <separator name="linear response parameters" >
   <i type="logical" name="LEPSILON"> F  </i>
   <i type="logical" name="LRPA"> F  </i>
   <i type="logical" name="LNABLA"> F  </i>
   <i type="logical" name="LVEL"> F  </i>
   <i name="CSHIFT">      0.10000000</i>
   <i name="OMEGAMAX">     -1.00000000</i>
   <i name="DEG_THRESHOLD">      0.00200000</i>
   <i name="RTIME">     -0.10000000</i>
   <i name="WPLASMAI">      0.00000000</i>
   <v name="DFIELD">      0.00000000      0.00000000      0.00000000</v>
   <v name="WPLASMA">      0.00000000      0.00000000      0.00000000      0.00000000      0.00000000      0.00000000      0.00000000      0.00000000      0.00000000</v>
  </separator>
  <separator name="orbital magnetization" >
   <i type="logical" name="NUCIND"> F  </i>
   <v name="MAGPOS">      0.00000000      0.00000000      0.00000000</v>
   <i type="logical" name="LNICSALL"> T  </i>
   <i type="logical" name="ORBITALMAG"> F  </i>
   <i type="logical" name="LMAGBLOCH"> F  </i>
   <i type="logical" name="LCHIMAG"> F  </i>
   <i type="logical" name="LGAUGE"> T  </i>
   <i type="int" name="MAGATOM">     0</i>
   <v name="MAGDIPOL">      0.00000000      0.00000000      0.00000000</v>
   <v name="AVECCONST">      0.00000000      0.00000000      0.00000000</v>
  </separator>
  <separator name="response functions" >
   <i type="logical" name="LALL_IN_ONE"> F  </i>
   <i type="int" name="IALL_IN_ONE">    -1</i>
   <i type="int" name="NBANDS_WAVE">    -1</i>
   <i type="logical" name="LFINITE_TEMPERATURE"> F  </i>
   <i type="logical" name="LADDER"> F  </i>
   <i type="logical" name="LRPAFORCE"> F  </i>
   <i type="logical" name="LFXC"> F  </i>
   <i type="logical" name="LHARTREE"> T  </i>
   <i type="int" name="IBSE">     0</i>
   <v type="int" name="KPOINT">    -1     0     0     0</v>
   <i type="logical" name="LTCTC"> F  </i>
   <i type="logical" name="LTCTE"> F  </i>
   <i type="logical" name="LTETE"> F  </i>
   <i type="logical" name="LTRIPLET"> F  </i>
   <i type="logical" name="LFXCEPS"> F  </i>
   <i type="logical" name="LFXHEG"> F  </i>
   <i type="int" name="NATURALO">     2</i>
   <i type="logical" name="LHOLEGF"> F  </i>
   <i type="logical" name="L2ORDER"> F  </i>
   <i type="logical" name="LDMP1"> F  </i>
   <i type="logical" name="LMP2LT"> F  </i>
   <i type="logical" name="LSMP2LT"> F  </i>
   <i type="logical" name="LGWLF"> F  </i>
   <i name="ENCUTGW">     -1.60000002</i>
   <i name="ENCUTGWSOFT">     -1.60000002</i>
   <i name="ENCUTLF">     -1.00000000</i>
   <i type="logical" name="ESF_SPLINES"> F  </i>
   <i name="ESF_CONV">      0.01000000</i>
   <i type="int" name="ESF_NINTER">    15</i>
   <i type="int" name="LMAXMP2">    -1</i>
   <i name="SCISSOR">      0.00000000</i>
   <i type="int" name="NOMEGA">     0</i>
   <i type="int" name="NOMEGAR">     0</i>
   <i type="int" name="NBANDSGW">    -1</i>
   <i type="int" name="NBANDSO">    -1</i>
   <i type="int" name="NBANDSV">    -1</i>
   <i type="int" name="NELMGW">     1</i>
   <i type="int" name="NELMHF">     1</i>
   <i type="int" name="DIM">     3</i>
   <i type="int" name="IESPILON">     4</i>
   <i type="int" name="ANTIRES">     0</i>
   <i name="OMEGAMAX">    -30.00000000</i>
   <i name="OMEGAMIN">    -30.00000000</i>
   <i name="OMEGATL">   -200.00000000</i>
   <i type="int" name="OMEGAGRID">     0</i>
   <i name="CSHIFT">     -0.10000000</i>
   <i type="logical" name="LSELFENERGY"> F  </i>
   <i type="logical" name="LSPECTRAL"> F  </i>
   <i type="logical" name="LSPECTRALGW"> F  </i>
   <i type="logical" name="LSINGLES"> F  </i>
   <i type="logical" name="LFERMIGW"> F  </i>
   <i type="logical" name="ODDONLYGW"> F  </i>
   <i type="logical" name="EVENONLYGW"> F  </i>
   <i type="int" name="NKREDLFX">     1</i>
   <i type="int" name="NKREDLFY">     1</i>
   <i type="int" name="NKREDLFZ">     1</i>
   <i type="int" name="MAXMEM">  2800</i>
   <i type="int" name="TELESCOPE">     0</i>
   <i type="int" name="NTAUPAR">    -1</i>
   <i type="int" name="NOMEGAPAR">    -1</i>
   <i name="DAMP_NEWTON">      0.80000001</i>
   <i name="LAMBDA">      1.00000000</i>
  </separator>
  <separator name="External order field" >
   <i name="OFIELD_KAPPA">      0.00000000</i>
   <v name="OFIELD_K">      0.00000000      0.00000000      0.00000000</v>
   <i name="OFIELD_Q6_NEAR">      0.00000000</i>
   <i name="OFIELD_Q6_FAR">      0.00000000</i>
   <i name="OFIELD_A">      0.00000000</i>
  </separator>
  <separator name="optional k-points parameters" >
   <i type="int" name="KPOINTS_OPT_MODE">     1</i>
   <i type="logical" name="LKPOINTS_OPT"> F  </i>
  </separator>
 </parameters>
 <atominfo>
  <atoms>      64 </atoms>
  <types>       1 </types>
  <array name="atoms" >
   <dimension dim="1">ion</dimension>
   <field type="string">element</field>
   <field type="int">atomtype</field>
   <set>
    <rc><c>Si</c><c>   1</c></rc>
    <rc><c>Si</c><c>   1</c></rc>
    <rc><c>Si</c><c>   1</c></rc>
    <rc><c>Si</c><c>   1</c></rc>
    <rc><c>Si</c><c>   1</c></rc>
    <rc><c>Si</c><c>   1</c></rc>
    <rc><c>Si</c><c>   1</c></rc>
    <rc><c>Si</c><c>   1</c></rc>
    <rc><c>Si</c><c>   1</c></rc>
    <rc><c>Si</c><c>   1</c></rc>
    <rc><c>Si</c><c>   1</c></rc>
    <rc><c>Si</c><c>   1</c></rc>
    <rc><c>Si</c><c>   1</c></rc>
    <rc><c>Si</c><c>   1</c></rc>
    <rc><c>Si</c><c>   1</c></rc>
    <rc><c>Si</c><c>   1</c></rc>
    <rc><c>Si</c><c>   1</c></rc>
    <rc><c>Si</c><c>   1</c></rc>
    <rc><c>Si</c><c>   1</c></rc>
    <rc><c>Si</c><c>   1</c></rc>
    <rc><c>Si</c><c>   1</c></rc>
    <rc><c>Si</c><c>   1</c></rc>
    <rc><c>Si</c><c>   1</c></rc>
    <rc><c>Si</c><c>   1</c></rc>
    <rc><c>Si</c><c>   1</c></rc>
    <rc><c>Si</c><c>   1</c></rc>
    <rc><c>Si</c><c>   1</c></rc>
    <rc><c>Si</c><c>   1</c></rc>
    <rc><c>Si</c><c>   1</c></rc>
    <rc><c>Si</c><c>   1</c></rc>
    <rc><c>Si</c><c>   1</c></rc>
    <rc><c>Si</c><c>   1</c></rc>
    <rc><c>Si</c><c>   1</c></rc>
    <rc><c>Si</c><c>   1</c></rc>
    <rc><c>Si</c><c>   1</c></rc>
    <rc><c>Si</c><c>   1</c></rc>
    <rc><c>Si</c><c>   1</c></rc>
    <rc><c>Si</c><c>   1</c></rc>
    <rc><c>Si</c><c>   1</c></rc>
    <rc><c>Si</c><c>   1</c></rc>
    <rc><c>Si</c><c>   1</c></rc>
    <rc><c>Si</c><c>   1</c></rc>
    <rc><c>Si</c><c>   1</c></rc>
    <rc><c>Si</c><c>   1</c></rc>
    <rc><c>Si</c><c>   1</c></rc>
    <rc><c>Si</c><c>   1</c></rc>
    <rc><c>Si</c><c>   1</c></rc>
    <rc><c>Si</c><c>   1</c></rc>
    <rc><c>Si</c><c>   1</c></rc>
    <rc><c>Si</c><c>   1</c></rc>
    <rc><c>Si</c><c>   1</c></rc>
    <rc><c>Si</c><c>   1</c></rc>
    <rc><c>Si</c><c>   1</c></rc>
    <rc><c>Si</c><c>   1</c></rc>
    <rc><c>Si</c><c>   1</c></rc>
    <rc><c>Si</c><c>   1</c></rc>
    <rc><c>Si</c><c>   1</c></rc>
    <rc><c>Si</c><c>   1</c></rc>
    <rc><c>Si</c><c>   1</c></rc>
    <rc><c>Si</c><c>   1</c></rc>
    <rc><c>Si</c><c>   1</c></rc>
    <rc><c>Si</c><c>   1</c></rc>
    <rc><c>Si</c><c>   1</c></rc>
    <rc><c>Si</c><c>   1</c></rc>
   </set>
  </array>
  <array name="atomtypes" >
   <dimension dim="1">type</dimension>
   <field type="int">atomspertype</field>
   <field type="string">element</field>
   <field>mass</field>
   <field>valence</field>
   <field type="string">pseudopotential</field>
   <set>
    <rc><c>  64</c><c>Si</c><c>     28.08500000</c><c>      4.00000000</c><c>  PAW_PBE Si 05Jan2001                  </c></rc>
   </set>
  </array>
 </atominfo>
 <structure name="initialpos" >
  <crystal>
   <varray name="basis" >
    <v>      10.78490159       0.02682800       0.00000000 </v>
    <v>       0.02682800      10.73124558       0.00000000 </v>
    <v>       0.00000000       0.00000000      10.73124558 </v>
   </varray>
   <i name="volume">   1241.97757270 </i>
   <varray name="rec_basis" >
    <v>       0.09272279      -0.00023181       0.00000000 </v>
    <v>      -0.00023181       0.09318641       0.00000000 </v>
    <v>       0.00000000       0.00000000       0.09318583 </v>
   </varray>
  </crystal>
  <varray name="positions" >
   <v>       0.00000000       0.00000000       0.00000000 </v>
   <v>       0.00000000       0.00000000       0.50000000 </v>
   <v>       0.00000000       0.50000000       0.00000000 </v>
   <v>       0.00000000       0.50000000       0.50000000 </v>
   <v>       0.50000000       0.00000000       0.00000000 </v>
   <v>       0.50000000       0.00000000       0.50000000 </v>
   <v>       0.50000000       0.50000000       0.00000000 </v>
   <v>       0.50000000       0.50000000       0.50000000 </v>
   <v>       0.37500000       0.37500000       0.12500000 </v>
   <v>       0.37500000       0.37500000       0.62500000 </v>
   <v>       0.37500000       0.87500000       0.12500000 </v>
   <v>       0.37500000       0.87500000       0.62500000 </v>
   <v>       0.87500000       0.37500000       0.12500000 </v>
   <v>       0.87500000       0.37500000       0.62500000 </v>
   <v>       0.87500000       0.87500000       0.12500000 </v>
   <v>       0.87500000       0.87500000       0.62500000 </v>
   <v>       0.00000000       0.25000000       0.25000000 </v>
   <v>       0.00000000       0.25000000       0.75000000 </v>
   <v>       0.00000000       0.75000000       0.25000000 </v>
   <v>       0.00000000       0.75000000       0.75000000 </v>
   <v>       0.50000000       0.25000000       0.25000000 </v>
   <v>       0.50000000       0.25000000       0.75000000 </v>
   <v>       0.50000000       0.75000000       0.25000000 </v>
   <v>       0.50000000       0.75000000       0.75000000 </v>
   <v>       0.37500000       0.12500000       0.37500000 </v>
   <v>       0.37500000       0.12500000       0.87500000 </v>
   <v>       0.37500000       0.62500000       0.37500000 </v>
   <v>       0.37500000       0.62500000       0.87500000 </v>
   <v>       0.87500000       0.12500000       0.37500000 </v>
   <v>       0.87500000       0.12500000       0.87500000 </v>
   <v>       0.87500000       0.62500000       0.37500000 </v>
   <v>       0.87500000       0.62500000       0.87500000 </v>
   <v>       0.25000000       0.00000000       0.25000000 </v>
   <v>       0.25000000       0.00000000       0.75000000 </v>
   <v>       0.25000000       0.50000000       0.25000000 </v>
   <v>       0.25000000       0.50000000       0.75000000 </v>
   <v>       0.75000000       0.00000000       0.25000000 </v>
   <v>       0.75000000       0.00000000       0.75000000 </v>
   <v>       0.75000000       0.50000000       0.25000000 </v>
   <v>       0.75000000       0.50000000       0.75000000 </v>
   <v>       0.12500000       0.37500000       0.37500000 </v>
   <v>       0.12500000       0.37500000       0.87500000 </v>
   <v>       0.12500000       0.87500000       0.37500000 </v>
   <v>       0.12500000       0.87500000       0.87500000 </v>
   <v>       0.62500000       0.37500000       0.37500000 </v>
   <v>       0.62500000       0.37500000       0.87500000 </v>
   <v>       0.62500000       0.87500000       0.37500000 </v>
   <v>       0.62500000       0.87500000       0.87500000 </v>
   <v>       0.25000000       0.25000000       0.00000000 </v>
   <v>       0.25000000       0.25000000       0.50000000 </v>
   <v>       0.25000000       0.75000000       0.00000000 </v>
   <v>       0.25000000       0.75000000       0.50000000 </v>
   <v>       0.75000000       0.25000000       0.00000000 </v>
   <v>       0.75000000       0.25000000       0.50000000 </v>
   <v>       0.75000000       0.75000000       0.00000000 </v>
   <v>       0.75000000       0.75000000       0.50000000 </v>
   <v>       0.12500000       0.12500000       0.12500000 </v>
   <v>       0.12500000       0.12500000       0.62500000 </v>
   <v>       0.12500000       0.62500000       0.12500000 </v>
   <v>       0.12500000       0.62500000       0.62500000 </v>
   <v>       0.62500000       0.12500000       0.12500000 </v>
   <v>       0.62500000       0.12500000       0.62500000 </v>
   <v>       0.62500000       0.62500000       0.12500000 </v>
   <v>       0.62500000       0.62500000       0.62500000 </v>
  </varray>
 </structure>
 <calculation>
  <scstep>
   <time name="dav">    1.26    1.33</time>
   <time name="total">    1.42    1.50</time>
   <energy>
    <i name="alphaZ">    111.01986605 </i>
    <i name="ewald">  -7389.50206367 </i>
    <i name="hartreedc">   -337.40419438 </i>
    <i name="XCdc">   -554.92444958 </i>
    <i name="pawpsdc">   5598.62625415 </i>
    <i name="pawaedc">  -4492.17844134 </i>
    <i name="eentropy">      0.00078460 </i>
    <i name="bandstr">   1063.61550332 </i>
    <i name="atom">   6564.79586099 </i>
    <i name="e_fr_energy">    564.04912014 </i>
    <i name="e_wo_entrp">    564.04833553 </i>
    <i name="e_0_energy">    564.04885860 </i>
   </energy>
  </scstep>
  <scstep>
   <time name="dav">    1.32    1.33</time>
   <time name="total">    1.32    1.33</time>
   <energy>
    <i name="e_fr_energy">   -310.53311830 </i>
    <i name="e_wo_entrp">   -310.55959758 </i>
    <i name="e_0_energy">   -310.54194473 </i>
   </energy>
  </scstep>
  <scstep>
   <time name="dav">    1.34    1.35</time>
   <time name="total">    1.34    1.35</time>
   <energy>
    <i name="e_fr_energy">   -373.32472457 </i>
    <i name="e_wo_entrp">   -373.33263295 </i>
    <i name="e_0_energy">   -373.32736070 </i>
   </energy>
  </scstep>
  <scstep>
   <time name="dav">    1.34    1.35</time>
   <time name="total">    1.34    1.35</time>
   <energy>
    <i name="e_fr_energy">   -374.94342085 </i>
    <i name="e_wo_entrp">   -374.95168971 </i>
    <i name="e_0_energy">   -374.94617714 </i>
   </energy>
  </scstep>
  <scstep>
   <time name="dav">    1.32    1.34</time>
   <time name="total">    1.57    1.59</time>
   <energy>
    <i name="e_fr_energy">   -374.99317093 </i>
    <i name="e_wo_entrp">   -375.00141929 </i>
    <i name="e_0_energy">   -374.99592038 </i>
   </energy>
  </scstep>
  <scstep>
   <time name="diag">    0.13    0.13</time>
   <time name="diis">    0.69    0.69</time>
   <time name="orth">    0.02    0.02</time>
   <time name="total">    1.24    1.26</time>
   <energy>
    <i name="e_fr_energy">   -369.54276339 </i>
    <i name="e_wo_entrp">   -369.55232195 </i>
    <i name="e_0_energy">   -369.54594958 </i>
   </energy>
  </scstep>
  <scstep>
   <time name="diag">    0.14    0.14</time>
   <time name="diis">    0.70    0.71</time>
   <time name="orth">    0.02    0.02</time>
   <time name="total">    1.25    1.27</time>
   <energy>
    <i name="e_fr_energy">   -367.09987689 </i>
    <i name="e_wo_entrp">   -367.13322235 </i>
    <i name="e_0_energy">   -367.11099204 </i>
   </energy>
  </scstep>
  <scstep>
   <time name="diag">    0.14    0.14</time>
   <time name="diis">    0.69    0.69</time>
   <time name="orth">    0.02    0.02</time>
   <time name="total">    1.24    1.26</time>
   <energy>
    <i name="e_fr_energy">   -367.13849452 </i>
    <i name="e_wo_entrp">   -367.16993708 </i>
    <i name="e_0_energy">   -367.14897537 </i>
   </energy>
  </scstep>
  <scstep>
   <time name="diag">    0.13    0.13</time>
   <time name="diis">    0.71    0.71</time>
   <time name="orth">    0.02    0.02</time>
   <time name="total">    1.25    1.27</time>
   <energy>
    <i name="e_fr_energy">   -367.15954520 </i>
    <i name="e_wo_entrp">   -367.19160046 </i>
    <i name="e_0_energy">   -367.17023029 </i>
   </energy>
  </scstep>
  <scstep>
   <time name="diag">    0.13    0.13</time>
   <time name="diis">    0.71    0.71</time>
   <time name="orth">    0.02    0.02</time>
   <time name="total">    1.25    1.27</time>
   <energy>
    <i name="e_fr_energy">   -367.16307503 </i>
    <i name="e_wo_entrp">   -367.19514201 </i>
    <i name="e_0_energy">   -367.17376402 </i>
   </energy>
  </scstep>
  <scstep>
   <time name="diag">    0.13    0.13</time>
   <time name="diis">    0.69    0.69</time>
   <time name="orth">    0.02    0.02</time>
   <time name="total">    1.24    1.24</time>
   <energy>
    <i name="e_fr_energy">   -367.16008133 </i>
    <i name="e_wo_entrp">   -367.19132721 </i>
    <i name="e_0_energy">   -367.17049662 </i>
   </energy>
  </scstep>
  <scstep>
   <time name="diag">    0.13    0.13</time>
   <time name="diis">    0.69    0.69</time>
   <time name="orth">    0.02    0.02</time>
   <time name="total">    1.26    1.28</time>
   <energy>
    <i name="e_fr_energy">   -367.16011891 </i>
    <i name="e_wo_entrp">   -367.19132246 </i>
    <i name="e_0_energy">   -367.17052009 </i>
   </energy>
  </scstep>
  <scstep>
   <time name="diag">    0.13    0.13</time>
   <time name="diis">    0.72    0.72</time>
   <time name="orth">    0.02    0.02</time>
   <time name="total">    1.26    1.28</time>
   <energy>
    <i name="e_fr_energy">   -367.16018496 </i>
    <i name="e_wo_entrp">   -367.19139139 </i>
    <i name="e_0_energy">   -367.17058710 </i>
   </energy>
  </scstep>
  <scstep>
   <time name="diag">    0.13    0.13</time>
   <time name="diis">    0.70    0.70</time>
   <time name="orth">    0.02    0.02</time>
   <time name="total">    1.23    1.25</time>
   <energy>
    <i name="e_fr_energy">   -367.15991780 </i>
    <i name="e_wo_entrp">   -367.19109624 </i>
    <i name="e_0_energy">   -367.17031061 </i>
   </energy>
  </scstep>
  <scstep>
   <time name="diag">    0.13    0.13</time>
   <time name="diis">    0.69    0.69</time>
   <time name="orth">    0.02    0.02</time>
   <time name="total">    1.23    1.25</time>
   <energy>
    <i name="e_fr_energy">   -367.16012346 </i>
    <i name="e_wo_entrp">   -367.19124393 </i>
    <i name="e_0_energy">   -367.17049695 </i>
   </energy>
  </scstep>
  <scstep>
   <time name="diag">    0.13    0.13</time>
   <time name="diis">    0.70    0.70</time>
   <time name="orth">    0.02    0.02</time>
   <time name="total">    1.23    1.25</time>
   <energy>
    <i name="e_fr_energy">   -367.16035400 </i>
    <i name="e_wo_entrp">   -367.19148655 </i>
    <i name="e_0_energy">   -367.17073152 </i>
   </energy>
  </scstep>
  <scstep>
   <time name="diag">    0.13    0.13</time>
   <time name="diis">    0.69    0.69</time>
   <time name="orth">    0.02    0.02</time>
   <time name="total">    1.24    1.26</time>
   <energy>
    <i name="e_fr_energy">   -367.16045576 </i>
    <i name="e_wo_entrp">   -367.19159021 </i>
    <i name="e_0_energy">   -367.17083391 </i>
   </energy>
  </scstep>
  <scstep>
   <time name="diag">    0.13    0.13</time>
   <time name="diis">    0.69    0.69</time>
   <time name="orth">    0.02    0.02</time>
   <time name="total">    1.23    1.25</time>
   <energy>
    <i name="e_fr_energy">   -367.16049063 </i>
    <i name="e_wo_entrp">   -367.19161359 </i>
    <i name="e_0_energy">   -367.17086495 </i>
   </energy>
  </scstep>
  <scstep>
   <time name="diag">    0.13    0.13</time>
   <time name="diis">    0.66    0.66</time>
   <time name="orth">    0.02    0.02</time>
   <time name="total">    1.21    1.22</time>
   <energy>
    <i name="e_fr_energy">   -367.16050983 </i>
    <i name="e_wo_entrp">   -367.19162111 </i>
    <i name="e_0_energy">   -367.17088025 </i>
   </energy>
  </scstep>
  <scstep>
   <time name="diag">    0.13    0.13</time>
   <time name="diis">    0.57    0.57</time>
   <time name="orth">    0.02    0.02</time>
   <time name="total">    1.11    1.13</time>
   <energy>
    <i name="e_fr_energy">   -367.16051520 </i>
    <i name="e_wo_entrp">   -367.19161768 </i>
    <i name="e_0_energy">   -367.17088270 </i>
   </energy>
  </scstep>
  <scstep>
   <time name="diag">    0.13    0.13</time>
   <time name="diis">    0.44    0.44</time>
   <time name="orth">    0.02    0.02</time>
   <time name="total">    0.76    0.79</time>
   <energy>
    <i name="alphaZ">    111.01986605 </i>
    <i name="ewald">  -7389.50206367 </i>
    <i name="hartreedc">   -456.60567137 </i>
    <i name="XCdc">   -534.77688426 </i>
    <i name="pawpsdc">  29718.30364139 </i>
    <i name="pawaedc"> -28619.52905265 </i>
    <i name="eentropy">      0.03110095 </i>
    <i name="bandstr">    239.10268650 </i>
    <i name="atom">   6564.79586099 </i>
    <i name="e_fr_energy">   -367.16051607 </i>
    <i name="e_wo_entrp">   -367.19161702 </i>
    <i name="e_0_energy">   -367.17088305 </i>
   </energy>
  </scstep>
  <structure>
   <crystal>
    <varray name="basis" >
     <v>      10.78490159       0.02682800       0.00000000 </v>
     <v>       0.02682800      10.73124558       0.00000000 </v>
     <v>       0.00000000       0.00000000      10.73124558 </v>
    </varray>
    <i name="volume">   1241.97757270 </i>
    <varray name="rec_basis" >
     <v>       0.09272279      -0.00023181       0.00000000 </v>
     <v>      -0.00023181       0.09318641       0.00000000 </v>
     <v>       0.00000000       0.00000000       0.09318583 </v>
    </varray>
   </crystal>
   <varray name="positions" >
    <v>       0.00000000       0.00000000       0.00000000 </v>
    <v>       0.00000000       0.00000000       0.50000000 </v>
    <v>       0.00000000       0.50000000       0.00000000 </v>
    <v>       0.00000000       0.50000000       0.50000000 </v>
    <v>       0.50000000       0.00000000       0.00000000 </v>
    <v>       0.50000000       0.00000000       0.50000000 </v>
    <v>       0.50000000       0.50000000       0.00000000 </v>
    <v>       0.50000000       0.50000000       0.50000000 </v>
    <v>       0.37500000       0.37500000       0.12500000 </v>
    <v>       0.37500000       0.37500000       0.62500000 </v>
    <v>       0.37500000       0.87500000       0.12500000 </v>
    <v>       0.37500000       0.87500000       0.62500000 </v>
    <v>       0.87500000       0.37500000       0.12500000 </v>
    <v>       0.87500000       0.37500000       0.62500000 </v>
    <v>       0.87500000       0.87500000       0.12500000 </v>
    <v>       0.87500000       0.87500000       0.62500000 </v>
    <v>       0.00000000       0.25000000       0.25000000 </v>
    <v>       0.00000000       0.25000000       0.75000000 </v>
    <v>       0.00000000       0.75000000       0.25000000 </v>
    <v>       0.00000000       0.75000000       0.75000000 </v>
    <v>       0.50000000       0.25000000       0.25000000 </v>
    <v>       0.50000000       0.25000000       0.75000000 </v>
    <v>       0.50000000       0.75000000       0.25000000 </v>
    <v>       0.50000000       0.75000000       0.75000000 </v>
    <v>       0.37500000       0.12500000       0.37500000 </v>
    <v>       0.37500000       0.12500000       0.87500000 </v>
    <v>       0.37500000       0.62500000       0.37500000 </v>
    <v>       0.37500000       0.62500000       0.87500000 </v>
    <v>       0.87500000       0.12500000       0.37500000 </v>
    <v>       0.87500000       0.12500000       0.87500000 </v>
    <v>       0.87500000       0.62500000       0.37500000 </v>
    <v>       0.87500000       0.62500000       0.87500000 </v>
    <v>       0.25000000       0.00000000       0.25000000 </v>
    <v>       0.25000000       0.00000000       0.75000000 </v>
    <v>       0.25000000       0.50000000       0.25000000 </v>
    <v>       0.25000000       0.50000000       0.75000000 </v>
    <v>       0.75000000       0.00000000       0.25000000 </v>
    <v>       0.75000000       0.00000000       0.75000000 </v>
    <v>       0.75000000       0.50000000       0.25000000 </v>
    <v>       0.75000000       0.50000000       0.75000000 </v>
    <v>       0.12500000       0.37500000       0.37500000 </v>
    <v>       0.12500000       0.37500000       0.87500000 </v>
    <v>       0.12500000       0.87500000       0.37500000 </v>
    <v>       0.12500000       0.87500000       0.87500000 </v>
    <v>       0.62500000       0.37500000       0.37500000 </v>
    <v>       0.62500000       0.37500000       0.87500000 </v>
    <v>       0.62500000       0.87500000       0.37500000 </v>
    <v>       0.62500000       0.87500000       0.87500000 </v>
    <v>       0.25000000       0.25000000       0.00000000 </v>
    <v>       0.25000000       0.25000000       0.50000000 </v>
    <v>       0.25000000       0.75000000       0.00000000 </v>
    <v>       0.25000000       0.75000000       0.50000000 </v>
    <v>       0.75000000       0.25000000       0.00000000 </v>
    <v>       0.75000000       0.25000000       0.50000000 </v>
    <v>       0.75000000       0.75000000       0.00000000 </v>
    <v>       0.75000000       0.75000000       0.50000000 </v>
    <v>       0.12500000       0.12500000       0.12500000 </v>
    <v>       0.12500000       0.12500000       0.62500000 </v>
    <v>       0.12500000       0.62500000       0.12500000 </v>
    <v>       0.12500000       0.62500000       0.62500000 </v>
    <v>       0.62500000       0.12500000       0.12500000 </v>
    <v>       0.62500000       0.12500000       0.62500000 </v>
    <v>       0.62500000       0.62500000       0.12500000 </v>
    <v>       0.62500000       0.62500000       0.62500000 </v>
   </varray>
  </structure>
  <varray name="forces" >
   <v>       0.00000000      -0.00000000       0.05701216 </v>
   <v>       0.00000000       0.00000000       0.05701216 </v>
   <v>      -0.00000000      -0.00000000       0.05701216 </v>
   <v>       0.00000000       0.00000000       0.05701216 </v>
   <v>      -0.00000000      -0.00000000       0.05701216 </v>
   <v>      -0.00000000      -0.00000000       0.05701216 </v>
   <v>       0.00000000      -0.00000000       0.05701216 </v>
   <v>       0.00000000      -0.00000000       0.05701216 </v>
   <v>       0.00000000      -0.00000000      -0.05701216 </v>
   <v>       0.00000000      -0.00000000      -0.05701216 </v>
   <v>       0.00000000       0.00000000      -0.05701216 </v>
   <v>       0.00000000       0.00000000      -0.05701216 </v>
   <v>      -0.00000000      -0.00000000      -0.05701216 </v>
   <v>      -0.00000000       0.00000000      -0.05701216 </v>
   <v>       0.00000000       0.00000000      -0.05701216 </v>
   <v>      -0.00000000       0.00000000      -0.05701216 </v>
   <v>      -0.00000000       0.00000000       0.05701216 </v>
   <v>      -0.00000000       0.00000000       0.05701216 </v>
   <v>       0.00000000       0.00000000       0.05701216 </v>
   <v>       0.00000000      -0.00000000       0.05701216 </v>
   <v>      -0.00000000      -0.00000000       0.05701216 </v>
   <v>      -0.00000000       0.00000000       0.05701216 </v>
   <v>       0.00000000      -0.00000000       0.05701216 </v>
   <v>      -0.00000000      -0.00000000       0.05701216 </v>
   <v>       0.00000000      -0.00000000      -0.05701216 </v>
   <v>       0.00000000       0.00000000      -0.05701216 </v>
   <v>      -0.00000000      -0.00000000      -0.05701216 </v>
   <v>       0.00000000       0.00000000      -0.05701216 </v>
   <v>      -0.00000000      -0.00000000      -0.05701216 </v>
   <v>      -0.00000000       0.00000000      -0.05701216 </v>
   <v>      -0.00000000       0.00000000      -0.05701216 </v>
   <v>      -0.00000000       0.00000000      -0.05701216 </v>
   <v>       0.00000000      -0.00000000       0.05701216 </v>
   <v>       0.00000000      -0.00000000       0.05701216 </v>
   <v>      -0.00000000      -0.00000000       0.05701216 </v>
   <v>       0.00000000       0.00000000       0.05701216 </v>
   <v>       0.00000000      -0.00000000       0.05701216 </v>
   <v>       0.00000000      -0.00000000       0.05701216 </v>
   <v>      -0.00000000       0.00000000       0.05701216 </v>
   <v>       0.00000000       0.00000000       0.05701216 </v>
   <v>      -0.00000000       0.00000000      -0.05701216 </v>
   <v>      -0.00000000       0.00000000      -0.05701216 </v>
   <v>      -0.00000000      -0.00000000      -0.05701216 </v>
   <v>      -0.00000000      -0.00000000      -0.05701216 </v>
   <v>       0.00000000       0.00000000      -0.05701216 </v>
   <v>       0.00000000      -0.00000000      -0.05701216 </v>
   <v>       0.00000000      -0.00000000      -0.05701216 </v>
   <v>       0.00000000       0.00000000      -0.05701216 </v>
   <v>       0.00000000       0.00000000       0.05701216 </v>
   <v>       0.00000000       0.00000000       0.05701216 </v>
   <v>       0.00000000       0.00000000       0.05701216 </v>
   <v>       0.00000000      -0.00000000       0.05701216 </v>
   <v>      -0.00000000       0.00000000       0.05701216 </v>
   <v>      -0.00000000       0.00000000       0.05701216 </v>
   <v>      -0.00000000      -0.00000000       0.05701216 </v>
   <v>       0.00000000       0.00000000       0.05701216 </v>
   <v>      -0.00000000      -0.00000000      -0.05701216 </v>
   <v>      -0.00000000      -0.00000000      -0.05701216 </v>
   <v>      -0.00000000      -0.00000000      -0.05701216 </v>
   <v>      -0.00000000      -0.00000000      -0.05701216 </v>
   <v>       0.00000000       0.00000000      -0.05701216 </v>
   <v>       0.00000000      -0.00000000      -0.05701216 </v>
   <v>       0.00000000      -0.00000000      -0.05701216 </v>
   <v>       0.00000000       0.00000000      -0.05701216 </v>
  </varray>
  <varray name="stress" >
   <v>      31.60738098      -5.56878125       0.00000000 </v>
   <v>      -5.56878124      35.99054987       0.00000000 </v>
   <v>       0.00000000       0.00000000      35.93315376 </v>
  </varray>
  <energy>
   <i name="e_fr_energy">   -367.16051607 </i>
   <i name="e_wo_entrp">   -367.19161702 </i>
   <i name="e_0_energy">   -367.17088305 </i>
  </energy>
  <time name="totalsc">   29.80   30.27</time>
 </calculation>
 <calculation>
  <scstep>
   <time name="dav">    1.31    1.31</time>
   <time name="total">    1.69    1.70</time>
   <energy>
    <i name="alphaZ">    111.01986605 </i>
    <i name="ewald">  -7389.56053553 </i>
    <i name="hartreedc">   -456.57879545 </i>
    <i name="XCdc">   -534.77713280 </i>
    <i name="pawpsdc">  29725.54810447 </i>
    <i name="pawaedc"> -28626.77350742 </i>
    <i name="eentropy">      0.03087985 </i>
    <i name="bandstr">    239.13243045 </i>
    <i name="atom">   6564.79586099 </i>
    <i name="e_fr_energy">   -367.16282938 </i>
    <i name="e_wo_entrp">   -367.19370924 </i>
    <i name="e_0_energy">   -367.17312267 </i>
   </energy>
  </scstep>
  <scstep>
   <time name="diag">    0.13    0.13</time>
   <time name="diis">    0.69    0.69</time>
   <time name="orth">    0.02    0.02</time>
   <time name="total">    1.24    1.25</time>
   <energy>
    <i name="e_fr_energy">   -367.16348270 </i>
    <i name="e_wo_entrp">   -367.19435945 </i>
    <i name="e_0_energy">   -367.17377495 </i>
   </energy>
  </scstep>
  <scstep>
   <time name="diag">    0.13    0.13</time>
   <time name="diis">    0.70    0.70</time>
   <time name="orth">    0.02    0.02</time>
   <time name="total">    1.24    1.25</time>
   <energy>
    <i name="e_fr_energy">   -367.16358541 </i>
    <i name="e_wo_entrp">   -367.19447123 </i>
    <i name="e_0_energy">   -367.17388068 </i>
   </energy>
  </scstep>
  <scstep>
   <time name="diag">    0.13    0.13</time>
   <time name="diis">    0.69    0.69</time>
   <time name="orth">    0.02    0.02</time>
   <time name="total">    1.23    1.25</time>
   <energy>
    <i name="e_fr_energy">   -367.16358512 </i>
    <i name="e_wo_entrp">   -367.19448023 </i>
    <i name="e_0_energy">   -367.17388349 </i>
   </energy>
  </scstep>
  <scstep>
   <time name="diag">    0.13    0.13</time>
   <time name="diis">    0.70    0.70</time>
   <time name="orth">    0.02    0.02</time>
   <time name="total">    1.24    1.25</time>
   <energy>
    <i name="e_fr_energy">   -367.16358622 </i>
    <i name="e_wo_entrp">   -367.19448491 </i>
    <i name="e_0_energy">   -367.17388578 </i>
   </energy>
  </scstep>
  <scstep>
   <time name="diag">    0.13    0.13</time>
   <time name="diis">    0.58    0.58</time>
   <time name="orth">    0.02    0.02</time>
   <time name="total">    1.12    1.14</time>
   <energy>
    <i name="e_fr_energy">   -367.16358682 </i>
    <i name="e_wo_entrp">   -367.19448549 </i>
    <i name="e_0_energy">   -367.17388637 </i>
   </energy>
  </scstep>
  <scstep>
   <time name="diag">    0.13    0.13</time>
   <time name="diis">    0.44    0.44</time>
   <time name="orth">    0.02    0.02</time>
   <time name="total">    0.98    1.00</time>
   <energy>
    <i name="e_fr_energy">   -367.16358690 </i>
    <i name="e_wo_entrp">   -367.19448553 </i>
    <i name="e_0_energy">   -367.17388644 </i>
   </energy>
  </scstep>
  <scstep>
   <time name="diag">    0.13    0.13</time>
   <time name="diis">    0.42    0.42</time>
   <time name="orth">    0.02    0.02</time>
   <time name="total">    0.72    0.74</time>
   <energy>
    <i name="alphaZ">    111.01986605 </i>
    <i name="ewald">  -7389.56053553 </i>
    <i name="hartreedc">   -456.56170180 </i>
    <i name="XCdc">   -534.77940507 </i>
    <i name="pawpsdc">  29727.33024195 </i>
    <i name="pawaedc"> -28628.55422839 </i>
    <i name="eentropy">      0.03089863 </i>
    <i name="bandstr">    239.11541625 </i>
    <i name="atom">   6564.79586099 </i>
    <i name="e_fr_energy">   -367.16358692 </i>
    <i name="e_wo_entrp">   -367.19448555 </i>
    <i name="e_0_energy">   -367.17388647 </i>
   </energy>
  </scstep>
  <structure>
   <crystal>
    <varray name="basis" >
     <v>      10.78490159       0.02682800       0.00000000 </v>
     <v>       0.02682800      10.73124558       0.00000000 </v>
     <v>       0.00000000       0.00000000      10.73124558 </v>
    </varray>
    <i name="volume">   1241.97757270 </i>
    <varray name="rec_basis" >
     <v>       0.09272279      -0.00023181       0.00000000 </v>
     <v>      -0.00023181       0.09318641       0.00000000 </v>
     <v>       0.00000000       0.00000000       0.09318583 </v>
    </varray>
   </crystal>
   <varray name="positions" >
    <v>       0.00000000       1.00000000       0.00025630 </v>
    <v>       0.00000000       0.00000000       0.50025630 </v>
    <v>       1.00000000       0.50000000       0.00025630 </v>
    <v>       0.00000000       0.50000000       0.50025630 </v>
    <v>       0.50000000       1.00000000       0.00025630 </v>
    <v>       0.50000000       1.00000000       0.50025630 </v>
    <v>       0.50000000       0.50000000       0.00025630 </v>
    <v>       0.50000000       0.50000000       0.50025630 </v>
    <v>       0.37500000       0.37500000       0.12474370 </v>
    <v>       0.37500000       0.37500000       0.62474370 </v>
    <v>       0.37500000       0.87500000       0.12474370 </v>
    <v>       0.37500000       0.87500000       0.62474370 </v>
    <v>       0.87500000       0.37500000       0.12474370 </v>
    <v>       0.87500000       0.37500000       0.62474370 </v>
    <v>       0.87500000       0.87500000       0.12474370 </v>
    <v>       0.87500000       0.87500000       0.62474370 </v>
    <v>       1.00000000       0.25000000       0.25025630 </v>
    <v>       1.00000000       0.25000000       0.75025630 </v>
    <v>       0.00000000       0.75000000       0.25025630 </v>
    <v>       0.00000000       0.75000000       0.75025630 </v>
    <v>       0.50000000       0.25000000       0.25025630 </v>
    <v>       0.50000000       0.25000000       0.75025630 </v>
    <v>       0.50000000       0.75000000       0.25025630 </v>
    <v>       0.50000000       0.75000000       0.75025630 </v>
    <v>       0.37500000       0.12500000       0.37474370 </v>
    <v>       0.37500000       0.12500000       0.87474370 </v>
    <v>       0.37500000       0.62500000       0.37474370 </v>
    <v>       0.37500000       0.62500000       0.87474370 </v>
    <v>       0.87500000       0.12500000       0.37474370 </v>
    <v>       0.87500000       0.12500000       0.87474370 </v>
    <v>       0.87500000       0.62500000       0.37474370 </v>
    <v>       0.87500000       0.62500000       0.87474370 </v>
    <v>       0.25000000       1.00000000       0.25025630 </v>
    <v>       0.25000000       1.00000000       0.75025630 </v>
    <v>       0.25000000       0.50000000       0.25025630 </v>
    <v>       0.25000000       0.50000000       0.75025630 </v>
    <v>       0.75000000       1.00000000       0.25025630 </v>
    <v>       0.75000000       1.00000000       0.75025630 </v>
    <v>       0.75000000       0.50000000       0.25025630 </v>
    <v>       0.75000000       0.50000000       0.75025630 </v>
    <v>       0.12500000       0.37500000       0.37474370 </v>
    <v>       0.12500000       0.37500000       0.87474370 </v>
    <v>       0.12500000       0.87500000       0.37474370 </v>
    <v>       0.12500000       0.87500000       0.87474370 </v>
    <v>       0.62500000       0.37500000       0.37474370 </v>
    <v>       0.62500000       0.37500000       0.87474370 </v>
    <v>       0.62500000       0.87500000       0.37474370 </v>
    <v>       0.62500000       0.87500000       0.87474370 </v>
    <v>       0.25000000       0.25000000       0.00025630 </v>
    <v>       0.25000000       0.25000000       0.50025630 </v>
    <v>       0.25000000       0.75000000       0.00025630 </v>
    <v>       0.25000000       0.75000000       0.50025630 </v>
    <v>       0.75000000       0.25000000       0.00025630 </v>
    <v>       0.75000000       0.25000000       0.50025630 </v>
    <v>       0.75000000       0.75000000       0.00025630 </v>
    <v>       0.75000000       0.75000000       0.50025630 </v>
    <v>       0.12500000       0.12500000       0.12474370 </v>
    <v>       0.12500000       0.12500000       0.62474370 </v>
    <v>       0.12500000       0.62500000       0.12474370 </v>
    <v>       0.12500000       0.62500000       0.62474370 </v>
    <v>       0.62500000       0.12500000       0.12474370 </v>
    <v>       0.62500000       0.12500000       0.62474370 </v>
    <v>       0.62500000       0.62500000       0.12474370 </v>
    <v>       0.62500000       0.62500000       0.62474370 </v>
   </varray>
  </structure>
  <varray name="forces" >
   <v>       0.00000000      -0.00000000      -0.02189728 </v>
   <v>       0.00000000      -0.00000000      -0.02189728 </v>
   <v>      -0.00000000      -0.00000000      -0.02189728 </v>
   <v>       0.00000000       0.00000000      -0.02189728 </v>
   <v>      -0.00000000       0.00000000      -0.02189728 </v>
   <v>      -0.00000000       0.00000000      -0.02189728 </v>
   <v>      -0.00000000       0.00000000      -0.02189728 </v>
   <v>      -0.00000000       0.00000000      -0.02189728 </v>
   <v>      -0.00000000      -0.00000000       0.02189728 </v>
   <v>      -0.00000000      -0.00000000       0.02189728 </v>
   <v>       0.00000000       0.00000000       0.02189728 </v>
   <v>      -0.00000000      -0.00000000       0.02189728 </v>
   <v>       0.00000000       0.00000000       0.02189728 </v>
   <v>      -0.00000000       0.00000000       0.02189728 </v>
   <v>      -0.00000000      -0.00000000       0.02189728 </v>
   <v>      -0.00000000      -0.00000000       0.02189728 </v>
   <v>      -0.00000000      -0.00000000      -0.02189728 </v>
   <v>       0.00000000      -0.00000000      -0.02189728 </v>
   <v>       0.00000000      -0.00000000      -0.02189728 </v>
   <v>      -0.00000000      -0.00000000      -0.02189728 </v>
   <v>      -0.00000000       0.00000000      -0.02189728 </v>
   <v>      -0.00000000       0.00000000      -0.02189728 </v>
   <v>       0.00000000       0.00000000      -0.02189728 </v>
   <v>      -0.00000000       0.00000000      -0.02189728 </v>
   <v>       0.00000000      -0.00000000       0.02189728 </v>
   <v>       0.00000000      -0.00000000       0.02189728 </v>
   <v>       0.00000000      -0.00000000       0.02189728 </v>
   <v>       0.00000000      -0.00000000       0.02189728 </v>
   <v>      -0.00000000       0.00000000       0.02189728 </v>
   <v>      -0.00000000       0.00000000       0.02189728 </v>
   <v>      -0.00000000      -0.00000000       0.02189728 </v>
   <v>      -0.00000000       0.00000000       0.02189728 </v>
   <v>       0.00000000       0.00000000      -0.02189728 </v>
   <v>       0.00000000      -0.00000000      -0.02189728 </v>
   <v>       0.00000000      -0.00000000      -0.02189728 </v>
   <v>      -0.00000000      -0.00000000      -0.02189728 </v>
   <v>      -0.00000000       0.00000000      -0.02189728 </v>
   <v>      -0.00000000      -0.00000000      -0.02189728 </v>
   <v>      -0.00000000       0.00000000      -0.02189728 </v>
   <v>      -0.00000000       0.00000000      -0.02189728 </v>
   <v>      -0.00000000      -0.00000000       0.02189728 </v>
   <v>       0.00000000       0.00000000       0.02189728 </v>
   <v>       0.00000000       0.00000000       0.02189728 </v>
   <v>      -0.00000000       0.00000000       0.02189728 </v>
   <v>      -0.00000000      -0.00000000       0.02189728 </v>
   <v>      -0.00000000      -0.00000000       0.02189728 </v>
   <v>      -0.00000000      -0.00000000       0.02189728 </v>
   <v>      -0.00000000       0.00000000       0.02189728 </v>
   <v>       0.00000000      -0.00000000      -0.02189728 </v>
   <v>       0.00000000      -0.00000000      -0.02189728 </v>
   <v>       0.00000000      -0.00000000      -0.02189728 </v>
   <v>       0.00000000      -0.00000000      -0.02189728 </v>
   <v>      -0.00000000       0.00000000      -0.02189728 </v>
   <v>      -0.00000000       0.00000000      -0.02189728 </v>
   <v>      -0.00000000       0.00000000      -0.02189728 </v>
   <v>       0.00000000       0.00000000      -0.02189728 </v>
   <v>       0.00000000      -0.00000000       0.02189728 </v>
   <v>      -0.00000000      -0.00000000       0.02189728 </v>
   <v>       0.00000000       0.00000000       0.02189728 </v>
   <v>       0.00000000       0.00000000       0.02189728 </v>
   <v>      -0.00000000       0.00000000       0.02189728 </v>
   <v>      -0.00000000       0.00000000       0.02189728 </v>
   <v>       0.00000000      -0.00000000       0.02189728 </v>
   <v>      -0.00000000      -0.00000000       0.02189728 </v>
  </varray>
  <varray name="stress" >
   <v>      31.58299673      -2.97835378       0.00000000 </v>
   <v>      -2.97835378      35.97718269       0.00000000 </v>
   <v>       0.00000000       0.00000000      35.89165222 </v>
  </varray>
  <energy>
   <i name="e_fr_energy">   -367.16358692 </i>
   <i name="e_wo_entrp">   -367.19448555 </i>
   <i name="e_0_energy">   -367.17388647 </i>
  </energy>
  <time name="totalsc">   13.05   13.19</time>
 </calculation>
 <calculation>
  <scstep>
   <time name="dav">    1.26    1.27</time>
   <time name="total">    1.64    1.66</time>
   <energy>
    <i name="alphaZ">    111.01986605 </i>
    <i name="ewald">  -7389.54661539 </i>
    <i name="hartreedc">   -456.56992176 </i>
    <i name="XCdc">   -534.77903001 </i>
    <i name="pawpsdc">  29727.30212298 </i>
    <i name="pawaedc"> -28628.52610652 </i>
    <i name="eentropy">      0.03099353 </i>
    <i name="bandstr">    239.10876288 </i>
    <i name="atom">   6564.79586099 </i>
    <i name="e_fr_energy">   -367.16406725 </i>
    <i name="e_wo_entrp">   -367.19506078 </i>
    <i name="e_0_energy">   -367.17439842 </i>
   </energy>
  </scstep>
  <scstep>
   <time name="diag">    0.13    0.13</time>
   <time name="diis">    0.73    0.73</time>
   <time name="orth">    0.02    0.02</time>
   <time name="total">    1.26    1.28</time>
   <energy>
    <i name="e_fr_energy">   -367.16411753 </i>
    <i name="e_wo_entrp">   -367.19511135 </i>
    <i name="e_0_energy">   -367.17444880 </i>
   </energy>
  </scstep>
  <scstep>
   <time name="diag">    0.13    0.13</time>
   <time name="diis">    0.70    0.70</time>
   <time name="orth">    0.02    0.02</time>
   <time name="total">    1.24    1.25</time>
   <energy>
    <i name="e_fr_energy">   -367.16412528 </i>
    <i name="e_wo_entrp">   -367.19511727 </i>
    <i name="e_0_energy">   -367.17445594 </i>
   </energy>
  </scstep>
  <scstep>
   <time name="diag">    0.13    0.13</time>
   <time name="diis">    0.68    0.68</time>
   <time name="orth">    0.02    0.02</time>
   <time name="total">    1.22    1.24</time>
   <energy>
    <i name="e_fr_energy">   -367.16412531 </i>
    <i name="e_wo_entrp">   -367.19511553 </i>
    <i name="e_0_energy">   -367.17445538 </i>
   </energy>
  </scstep>
  <scstep>
   <time name="diag">    0.13    0.13</time>
   <time name="diis">    0.47    0.47</time>
   <time name="orth">    0.02    0.02</time>
   <time name="total">    1.01    1.03</time>
   <energy>
    <i name="e_fr_energy">   -367.16412540 </i>
    <i name="e_wo_entrp">   -367.19511493 </i>
    <i name="e_0_energy">   -367.17445525 </i>
   </energy>
  </scstep>
  <scstep>
   <time name="diag">    0.13    0.13</time>
   <time name="diis">    0.44    0.44</time>
   <time name="orth">    0.02    0.02</time>
   <time name="total">    0.98    0.99</time>
   <energy>
    <i name="e_fr_energy">   -367.16412544 </i>
    <i name="e_wo_entrp">   -367.19511498 </i>
    <i name="e_0_energy">   -367.17445529 </i>
   </energy>
  </scstep>
  <scstep>
   <time name="diag">    0.13    0.13</time>
   <time name="diis">    0.37    0.37</time>
   <time name="orth">    0.02    0.02</time>
   <time name="total">    0.91    0.92</time>
   <energy>
    <i name="e_fr_energy">   -367.16412545 </i>
    <i name="e_wo_entrp">   -367.19511499 </i>
    <i name="e_0_energy">   -367.17445530 </i>
   </energy>
  </scstep>
  <scstep>
   <time name="diag">    0.13    0.13</time>
   <time name="diis">    0.32    0.32</time>
   <time name="orth">    0.02    0.02</time>
   <time name="total">    0.62    0.64</time>
   <energy>
    <i name="alphaZ">    111.01986605 </i>
    <i name="ewald">  -7389.54661539 </i>
    <i name="hartreedc">   -456.57143795 </i>
    <i name="XCdc">   -534.77871194 </i>
    <i name="pawpsdc">  29727.86546385 </i>
    <i name="pawaedc"> -28629.08970594 </i>
    <i name="eentropy">      0.03098954 </i>
    <i name="bandstr">    239.11016533 </i>
    <i name="atom">   6564.79586099 </i>
    <i name="e_fr_energy">   -367.16412545 </i>
    <i name="e_wo_entrp">   -367.19511499 </i>
    <i name="e_0_energy">   -367.17445530 </i>
   </energy>
  </scstep>
  <structure>
   <crystal>
    <varray name="basis" >
     <v>      10.78490159       0.02682800       0.00000000 </v>
     <v>       0.02682800      10.73124558       0.00000000 </v>
     <v>       0.00000000       0.00000000      10.73124558 </v>
    </varray>
    <i name="volume">   1241.97757270 </i>
    <varray name="rec_basis" >
     <v>       0.09272279      -0.00023181       0.00000000 </v>
     <v>      -0.00023181       0.09318641       0.00000000 </v>
     <v>       0.00000000       0.00000000       0.09318583 </v>
    </varray>
   </crystal>
   <varray name="positions" >
    <v>       0.00000000       0.00000000       0.00018474 </v>
    <v>       0.00000000       0.00000000       0.50018474 </v>
    <v>       0.00000000       0.50000000       0.00018474 </v>
    <v>       0.00000000       0.50000000       0.50018474 </v>
    <v>       0.50000000       0.00000000       0.00018474 </v>
    <v>       0.50000000       0.00000000       0.50018474 </v>
    <v>       0.50000000       0.50000000       0.00018474 </v>
    <v>       0.50000000       0.50000000       0.50018474 </v>
    <v>       0.37500000       0.37500000       0.12481526 </v>
    <v>       0.37500000       0.37500000       0.62481526 </v>
    <v>       0.37500000       0.87500000       0.12481526 </v>
    <v>       0.37500000       0.87500000       0.62481526 </v>
    <v>       0.87500000       0.37500000       0.12481526 </v>
    <v>       0.87500000       0.37500000       0.62481526 </v>
    <v>       0.87500000       0.87500000       0.12481526 </v>
    <v>       0.87500000       0.87500000       0.62481526 </v>
    <v>       0.00000000       0.25000000       0.25018474 </v>
    <v>       0.00000000       0.25000000       0.75018474 </v>
    <v>       0.00000000       0.75000000       0.25018474 </v>
    <v>       0.00000000       0.75000000       0.75018474 </v>
    <v>       0.50000000       0.25000000       0.25018474 </v>
    <v>       0.50000000       0.25000000       0.75018474 </v>
    <v>       0.50000000       0.75000000       0.25018474 </v>
    <v>       0.50000000       0.75000000       0.75018474 </v>
    <v>       0.37500000       0.12500000       0.37481526 </v>
    <v>       0.37500000       0.12500000       0.87481526 </v>
    <v>       0.37500000       0.62500000       0.37481526 </v>
    <v>       0.37500000       0.62500000       0.87481526 </v>
    <v>       0.87500000       0.12500000       0.37481526 </v>
    <v>       0.87500000       0.12500000       0.87481526 </v>
    <v>       0.87500000       0.62500000       0.37481526 </v>
    <v>       0.87500000       0.62500000       0.87481526 </v>
    <v>       0.25000000       0.00000000       0.25018474 </v>
    <v>       0.25000000       0.00000000       0.75018474 </v>
    <v>       0.25000000       0.50000000       0.25018474 </v>
    <v>       0.25000000       0.50000000       0.75018474 </v>
    <v>       0.75000000       0.00000000       0.25018474 </v>
    <v>       0.75000000       0.00000000       0.75018474 </v>
    <v>       0.75000000       0.50000000       0.25018474 </v>
    <v>       0.75000000       0.50000000       0.75018474 </v>
    <v>       0.12500000       0.37500000       0.37481526 </v>
    <v>       0.12500000       0.37500000       0.87481526 </v>
    <v>       0.12500000       0.87500000       0.37481526 </v>
    <v>       0.12500000       0.87500000       0.87481526 </v>
    <v>       0.62500000       0.37500000       0.37481526 </v>
    <v>       0.62500000       0.37500000       0.87481526 </v>
    <v>       0.62500000       0.87500000       0.37481526 </v>
    <v>       0.62500000       0.87500000       0.87481526 </v>
    <v>       0.25000000       0.25000000       0.00018474 </v>
    <v>       0.25000000       0.25000000       0.50018474 </v>
    <v>       0.25000000       0.75000000       0.00018474 </v>
    <v>       0.25000000       0.75000000       0.50018474 </v>
    <v>       0.75000000       0.25000000       0.00018474 </v>
    <v>       0.75000000       0.25000000       0.50018474 </v>
    <v>       0.75000000       0.75000000       0.00018474 </v>
    <v>       0.75000000       0.75000000       0.50018474 </v>
    <v>       0.12500000       0.12500000       0.12481526 </v>
    <v>       0.12500000       0.12500000       0.62481526 </v>
    <v>       0.12500000       0.62500000       0.12481526 </v>
    <v>       0.12500000       0.62500000       0.62481526 </v>
    <v>       0.62500000       0.12500000       0.12481526 </v>
    <v>       0.62500000       0.12500000       0.62481526 </v>
    <v>       0.62500000       0.62500000       0.12481526 </v>
    <v>       0.62500000       0.62500000       0.62481526 </v>
   </varray>
  </structure>
  <varray name="forces" >
   <v>       0.00000000       0.00000000       0.00006318 </v>
   <v>      -0.00000000       0.00000000       0.00006318 </v>
   <v>      -0.00000000       0.00000000       0.00006318 </v>
   <v>       0.00000000       0.00000000       0.00006318 </v>
   <v>       0.00000000      -0.00000000       0.00006318 </v>
   <v>       0.00000000      -0.00000000       0.00006318 </v>
   <v>      -0.00000000      -0.00000000       0.00006318 </v>
   <v>      -0.00000000      -0.00000000       0.00006318 </v>
   <v>      -0.00000000       0.00000000      -0.00006318 </v>
   <v>       0.00000000       0.00000000      -0.00006318 </v>
   <v>      -0.00000000       0.00000000      -0.00006318 </v>
   <v>      -0.00000000       0.00000000      -0.00006318 </v>
   <v>      -0.00000000      -0.00000000      -0.00006318 </v>
   <v>       0.00000000      -0.00000000      -0.00006318 </v>
   <v>      -0.00000000      -0.00000000      -0.00006318 </v>
   <v>       0.00000000      -0.00000000      -0.00006318 </v>
   <v>      -0.00000000       0.00000000       0.00006318 </v>
   <v>       0.00000000       0.00000000       0.00006318 </v>
   <v>       0.00000000       0.00000000       0.00006318 </v>
   <v>      -0.00000000       0.00000000       0.00006318 </v>
   <v>      -0.00000000      -0.00000000       0.00006318 </v>
   <v>       0.00000000      -0.00000000       0.00006318 </v>
   <v>      -0.00000000      -0.00000000       0.00006318 </v>
   <v>       0.00000000      -0.00000000       0.00006318 </v>
   <v>      -0.00000000       0.00000000      -0.00006318 </v>
   <v>       0.00000000       0.00000000      -0.00006318 </v>
   <v>       0.00000000       0.00000000      -0.00006318 </v>
   <v>      -0.00000000       0.00000000      -0.00006318 </v>
   <v>       0.00000000      -0.00000000      -0.00006318 </v>
   <v>      -0.00000000       0.00000000      -0.00006318 </v>
   <v>      -0.00000000      -0.00000000      -0.00006318 </v>
   <v>      -0.00000000       0.00000000      -0.00006318 </v>
   <v>       0.00000000       0.00000000       0.00006318 </v>
   <v>      -0.00000000      -0.00000000       0.00006318 </v>
   <v>       0.00000000       0.00000000       0.00006318 </v>
   <v>      -0.00000000       0.00000000       0.00006318 </v>
   <v>      -0.00000000      -0.00000000       0.00006318 </v>
   <v>      -0.00000000      -0.00000000       0.00006318 </v>
   <v>      -0.00000000      -0.00000000       0.00006318 </v>
   <v>      -0.00000000      -0.00000000       0.00006318 </v>
   <v>       0.00000000      -0.00000000      -0.00006318 </v>
   <v>       0.00000000      -0.00000000      -0.00006318 </v>
   <v>      -0.00000000      -0.00000000      -0.00006318 </v>
   <v>       0.00000000      -0.00000000      -0.00006318 </v>
   <v>       0.00000000       0.00000000      -0.00006318 </v>
   <v>       0.00000000       0.00000000      -0.00006318 </v>
   <v>      -0.00000000       0.00000000      -0.00006318 </v>
   <v>       0.00000000       0.00000000      -0.00006318 </v>
   <v>       0.00000000       0.00000000       0.00006318 </v>
   <v>      -0.00000000       0.00000000       0.00006318 </v>
   <v>       0.00000000       0.00000000       0.00006318 </v>
   <v>       0.00000000       0.00000000       0.00006318 </v>
   <v>      -0.00000000      -0.00000000       0.00006318 </v>
   <v>      -0.00000000      -0.00000000       0.00006318 </v>
   <v>      -0.00000000      -0.00000000       0.00006318 </v>
   <v>      -0.00000000      -0.00000000       0.00006318 </v>
   <v>      -0.00000000      -0.00000000      -0.00006318 </v>
   <v>       0.00000000      -0.00000000      -0.00006318 </v>
   <v>       0.00000000      -0.00000000      -0.00006318 </v>
   <v>      -0.00000000      -0.00000000      -0.00006318 </v>
   <v>       0.00000000       0.00000000      -0.00006318 </v>
   <v>       0.00000000       0.00000000      -0.00006318 </v>
   <v>       0.00000000       0.00000000      -0.00006318 </v>
   <v>       0.00000000       0.00000000      -0.00006318 </v>
  </varray>
  <varray name="stress" >
   <v>      31.59118657      -3.70013197       0.00000000 </v>
   <v>      -3.70013193      35.97538636       0.00000000 </v>
   <v>       0.00000000       0.00000000      35.90216763 </v>
  </varray>
  <energy>
   <i name="e_fr_energy">   -367.16412545 </i>
   <i name="e_wo_entrp">   -367.19511499 </i>
   <i name="e_0_energy">   -367.17445530 </i>
  </energy>
  <time name="totalsc">   12.34   12.47</time>
  <eigenvalues>
   <array>
    <dimension dim="1">band</dimension>
    <dimension dim="2">kpoint</dimension>
    <dimension dim="3">spin</dimension>
    <field>eigene</field>
    <field>occ</field>
    <set>
     <set comment="spin 1">
      <set comment="kpoint 1">
       <r>   -6.0962    1.0000 </r>
       <r>   -4.9869    1.0000 </r>
       <r>   -4.9869    1.0000 </r>
       <r>   -4.9774    1.0000 </r>
       <r>   -4.9774    1.0000 </r>
       <r>   -4.9774    1.0000 </r>
       <r>   -4.9774    1.0000 </r>
       <r>   -3.9960    1.0000 </r>
       <r>   -3.9960    1.0000 </r>
       <r>   -3.9839    1.0000 </r>
       <r>   -3.9839    1.0000 </r>
       <r>   -3.9839    1.0000 </r>
       <r>   -3.9839    1.0000 </r>
       <r>   -3.9772    1.0000 </r>
       <r>   -3.9772    1.0000 </r>
       <r>   -3.9772    1.0000 </r>
       <r>   -3.9772    1.0000 </r>
       <r>   -3.9718    1.0000 </r>
       <r>   -3.9718    1.0000 </r>
       <r>   -3.6781    1.0000 </r>
       <r>   -3.6781    1.0000 </r>
       <r>   -3.6529    1.0000 </r>
       <r>   -3.6529    1.0000 </r>
       <r>   -1.8408    1.0000 </r>
       <r>   -1.8408    1.0000 </r>
       <r>   -1.8181    1.0000 </r>
       <r>   -1.8097    1.0000 </r>
       <r>   -1.8097    1.0000 </r>
       <r>   -1.8016    1.0000 </r>
       <r>   -1.6522    1.0000 </r>
       <r>   -1.6522    1.0000 </r>
       <r>   -1.6413    1.0000 </r>
       <r>   -1.6413    1.0000 </r>
       <r>   -1.6385    1.0000 </r>
       <r>   -1.6385    1.0000 </r>
       <r>   -1.6385    1.0000 </r>
       <r>   -1.6385    1.0000 </r>
       <r>   -1.6250    1.0000 </r>
       <r>   -1.6249    1.0000 </r>
       <r>   -1.6143    1.0000 </r>
       <r>   -1.6143    1.0000 </r>
       <r>   -1.0596    1.0000 </r>
       <r>   -1.0596    1.0000 </r>
       <r>   -1.0481    1.0000 </r>
       <r>   -1.0481    1.0000 </r>
       <r>    0.5482    1.0000 </r>
       <r>    0.5482    1.0000 </r>
       <r>    0.5482    1.0000 </r>
       <r>    0.5482    1.0000 </r>
       <r>    0.5634    1.0000 </r>
       <r>    0.5634    1.0000 </r>
       <r>    0.5667    1.0000 </r>
       <r>    0.5667    1.0000 </r>
       <r>    0.5667    1.0000 </r>
       <r>    0.5667    1.0000 </r>
       <r>    0.5700    1.0000 </r>
       <r>    0.5700    1.0000 </r>
       <r>    2.0623    1.0000 </r>
       <r>    2.0623    1.0000 </r>
       <r>    2.0648    1.0000 </r>
       <r>    2.0648    1.0000 </r>
       <r>    2.0682    1.0000 </r>
       <r>    2.0682    1.0000 </r>
       <r>    2.0682    1.0000 </r>
       <r>    2.0682    1.0000 </r>
       <r>    2.0742    1.0000 </r>
       <r>    2.0742    1.0000 </r>
       <r>    2.0770    1.0000 </r>
       <r>    2.0770    1.0000 </r>
       <r>    2.1665    1.0000 </r>
       <r>    2.1665    1.0000 </r>
       <r>    2.1665    1.0000 </r>
       <r>    2.1665    1.0000 </r>
       <r>    2.1901    1.0000 </r>
       <r>    2.1901    1.0000 </r>
       <r>    2.1950    1.0000 </r>
       <r>    2.1950    1.0000 </r>
       <r>    2.1950    1.0000 </r>
       <r>    2.1950    1.0000 </r>
       <r>    2.1993    1.0000 </r>
       <r>    2.1993    1.0000 </r>
       <r>    2.5739    1.0000 </r>
       <r>    2.5739    1.0000 </r>
       <r>    2.6105    1.0000 </r>
       <r>    2.6105    1.0000 </r>
       <r>    2.6108    1.0000 </r>
       <r>    2.6108    1.0000 </r>
       <r>    3.1080    1.0000 </r>
       <r>    3.1423    1.0000 </r>
       <r>    3.1423    1.0000 </r>
       <r>    3.1769    1.0000 </r>
       <r>    3.1816    1.0000 </r>
       <r>    3.1816    1.0000 </r>
       <r>    4.1022    1.0000 </r>
       <r>    4.1022    1.0000 </r>
       <r>    4.1296    1.0000 </r>
       <r>    4.1296    1.0000 </r>
       <r>    4.1408    1.0000 </r>
       <r>    4.1408    1.0000 </r>
       <r>    4.1657    1.0000 </r>
       <r>    4.1657    1.0000 </r>
       <r>    4.1658    1.0000 </r>
       <r>    4.1658    1.0000 </r>
       <r>    4.1684    1.0000 </r>
       <r>    4.1684    1.0000 </r>
       <r>    4.7030    1.0000 </r>
       <r>    4.7030    1.0000 </r>
       <r>    4.7271    1.0000 </r>
       <r>    4.7271    1.0000 </r>
       <r>    4.7271    1.0000 </r>
       <r>    4.7271    1.0000 </r>
       <r>    4.7516    1.0000 </r>
       <r>    4.7516    1.0000 </r>
       <r>    4.7682    1.0000 </r>
       <r>    4.7682    1.0000 </r>
       <r>    4.7682    1.0000 </r>
       <r>    4.7682    1.0000 </r>
       <r>    4.8373    1.0000 </r>
       <r>    4.8373    1.0000 </r>
       <r>    4.8757    1.0000 </r>
       <r>    4.8757    1.0000 </r>
       <r>    4.8981    1.0000 </r>
       <r>    4.8982    1.0000 </r>
       <r>    4.9186    1.0000 </r>
       <r>    4.9186    1.0000 </r>
       <r>    6.0762    1.0214 </r>
       <r>    6.1254    1.0321 </r>
       <r>    6.1394    1.0342 </r>
       <r>    6.5864   -0.0136 </r>
       <r>    6.6248   -0.0329 </r>
       <r>    6.6248   -0.0329 </r>
       <r>    6.6633   -0.0347 </r>
       <r>    6.6652   -0.0345 </r>
       <r>    6.6652   -0.0345 </r>
       <r>    7.1021   -0.0000 </r>
       <r>    7.1021   -0.0000 </r>
       <r>    7.1025   -0.0000 </r>
       <r>    7.1025   -0.0000 </r>
       <r>    7.1426   -0.0000 </r>
       <r>    7.1426   -0.0000 </r>
       <r>    7.6613   -0.0000 </r>
       <r>    7.6613   -0.0000 </r>
       <r>    7.7143   -0.0000 </r>
       <r>    7.7143   -0.0000 </r>
       <r>    8.4492   -0.0000 </r>
       <r>    8.4492   -0.0000 </r>
       <r>    8.4765   -0.0000 </r>
       <r>    8.4765   -0.0000 </r>
       <r>    8.4765   -0.0000 </r>
       <r>    8.4765   -0.0000 </r>
       <r>    8.5042   -0.0000 </r>
       <r>    8.5042   -0.0000 </r>
       <r>    8.5240   -0.0000 </r>
       <r>    8.5240   -0.0000 </r>
       <r>    8.5240   -0.0000 </r>
       <r>    8.5240   -0.0000 </r>
       <r>    8.6151   -0.0000 </r>
       <r>    8.6336   -0.0000 </r>
       <r>    8.6741   -0.0000 </r>
       <r>    9.1187   -0.0000 </r>
       <r>    9.1241   -0.0000 </r>
       <r>    9.1273   -0.0000 </r>
      </set>
      <set comment="kpoint 2">
       <r>   -5.8165    1.0000 </r>
       <r>   -5.8165    1.0000 </r>
       <r>   -4.7284    1.0000 </r>
       <r>   -4.7284    1.0000 </r>
       <r>   -4.7222    1.0000 </r>
       <r>   -4.7222    1.0000 </r>
       <r>   -4.7222    1.0000 </r>
       <r>   -4.7222    1.0000 </r>
       <r>   -4.7159    1.0000 </r>
       <r>   -4.7159    1.0000 </r>
       <r>   -3.8456    1.0000 </r>
       <r>   -3.8456    1.0000 </r>
       <r>   -3.8456    1.0000 </r>
       <r>   -3.8456    1.0000 </r>
       <r>   -3.8300    1.0000 </r>
       <r>   -3.8300    1.0000 </r>
       <r>   -3.8300    1.0000 </r>
       <r>   -3.8300    1.0000 </r>
       <r>   -3.6396    1.0000 </r>
       <r>   -3.6396    1.0000 </r>
       <r>   -2.8869    1.0000 </r>
       <r>   -2.8869    1.0000 </r>
       <r>   -2.8710    1.0000 </r>
       <r>   -2.8710    1.0000 </r>
       <r>   -2.8710    1.0000 </r>
       <r>   -2.8710    1.0000 </r>
       <r>   -2.8550    1.0000 </r>
       <r>   -2.8550    1.0000 </r>
       <r>   -1.7339    1.0000 </r>
       <r>   -1.7339    1.0000 </r>
       <r>   -1.7335    1.0000 </r>
       <r>   -1.7335    1.0000 </r>
       <r>   -1.7137    1.0000 </r>
       <r>   -1.7137    1.0000 </r>
       <r>   -1.7136    1.0000 </r>
       <r>   -1.7136    1.0000 </r>
       <r>   -0.5403    1.0000 </r>
       <r>   -0.5403    1.0000 </r>
       <r>   -0.5357    1.0000 </r>
       <r>   -0.5357    1.0000 </r>
       <r>   -0.5357    1.0000 </r>
       <r>   -0.5357    1.0000 </r>
       <r>   -0.5313    1.0000 </r>
       <r>   -0.5313    1.0000 </r>
       <r>   -0.4351    1.0000 </r>
       <r>   -0.4351    1.0000 </r>
       <r>   -0.4351    1.0000 </r>
       <r>   -0.4351    1.0000 </r>
       <r>   -0.4166    1.0000 </r>
       <r>   -0.4166    1.0000 </r>
       <r>   -0.4166    1.0000 </r>
       <r>   -0.4166    1.0000 </r>
       <r>    0.2902    1.0000 </r>
       <r>    0.2902    1.0000 </r>
       <r>    1.6915    1.0000 </r>
       <r>    1.6915    1.0000 </r>
       <r>    1.6937    1.0000 </r>
       <r>    1.6937    1.0000 </r>
       <r>    1.6937    1.0000 </r>
       <r>    1.6937    1.0000 </r>
       <r>    1.6959    1.0000 </r>
       <r>    1.6959    1.0000 </r>
       <r>    1.7841    1.0000 </r>
       <r>    1.7841    1.0000 </r>
       <r>    1.7902    1.0000 </r>
       <r>    1.7902    1.0000 </r>
       <r>    1.7902    1.0000 </r>
       <r>    1.7902    1.0000 </r>
       <r>    1.7970    1.0000 </r>
       <r>    1.7970    1.0000 </r>
       <r>    2.5123    1.0000 </r>
       <r>    2.5123    1.0000 </r>
       <r>    2.5327    1.0000 </r>
       <r>    2.5327    1.0000 </r>
       <r>    2.5374    1.0000 </r>
       <r>    2.5374    1.0000 </r>
       <r>    2.5580    1.0000 </r>
       <r>    2.5580    1.0000 </r>
       <r>    3.2673    1.0000 </r>
       <r>    3.2673    1.0000 </r>
       <r>    3.2752    1.0000 </r>
       <r>    3.2752    1.0000 </r>
       <r>    3.2752    1.0000 </r>
       <r>    3.2752    1.0000 </r>
       <r>    3.2823    1.0000 </r>
       <r>    3.2823    1.0000 </r>
       <r>    3.3749    1.0000 </r>
       <r>    3.3749    1.0000 </r>
       <r>    3.3921    1.0000 </r>
       <r>    3.3921    1.0000 </r>
       <r>    3.3921    1.0000 </r>
       <r>    3.3921    1.0000 </r>
       <r>    3.4096    1.0000 </r>
       <r>    3.4096    1.0000 </r>
       <r>    3.4325    1.0000 </r>
       <r>    3.4325    1.0000 </r>
       <r>    3.4325    1.0000 </r>
       <r>    3.4325    1.0000 </r>
       <r>    3.5245    1.0000 </r>
       <r>    3.5245    1.0000 </r>
       <r>    3.5245    1.0000 </r>
       <r>    3.5245    1.0000 </r>
       <r>    3.5621    1.0000 </r>
       <r>    3.5621    1.0000 </r>
       <r>    3.5621    1.0000 </r>
       <r>    3.5621    1.0000 </r>
       <r>    4.6146    1.0000 </r>
       <r>    4.6146    1.0000 </r>
       <r>    4.6277    1.0000 </r>
       <r>    4.6277    1.0000 </r>
       <r>    4.6277    1.0000 </r>
       <r>    4.6277    1.0000 </r>
       <r>    4.6411    1.0000 </r>
       <r>    4.6411    1.0000 </r>
       <r>    4.7817    1.0000 </r>
       <r>    4.7817    1.0000 </r>
       <r>    4.8282    1.0000 </r>
       <r>    4.8282    1.0000 </r>
       <r>    4.8282    1.0000 </r>
       <r>    4.8282    1.0000 </r>
       <r>    4.8416    1.0000 </r>
       <r>    4.8416    1.0000 </r>
       <r>    4.8416    1.0000 </r>
       <r>    4.8416    1.0000 </r>
       <r>    5.2802    1.0000 </r>
       <r>    5.2802    1.0000 </r>
       <r>    5.2814    1.0000 </r>
       <r>    5.2814    1.0000 </r>
       <r>    6.5941   -0.0194 </r>
       <r>    6.5941   -0.0194 </r>
       <r>    7.4871   -0.0000 </r>
       <r>    7.4871   -0.0000 </r>
       <r>    7.8872   -0.0000 </r>
       <r>    7.8872   -0.0000 </r>
[...]
      </set>
     </set>
    </set>
   </array>
  </eigenvalues>
  <separator name="orbital magnetization" >
   <v name="MAGDIPOLOUT">      0.00000000      0.00000000      0.00000000</v>
  </separator>
  <dos>
   <i name="efermi">      6.40369181 </i>
   <total>
    <array>
     <dimension dim="1">gridpoints</dimension>
     <dimension dim="2">spin</dimension>
     <field>energy</field>
     <field>total</field>
     <field>integrated</field>
     <set>
      <set comment="spin 1">
       <r>    -8.0962     0.0000     0.0000 </r>
       <r>    -8.0306     0.0000     0.0000 </r>
       <r>    -7.9650     0.0000     0.0000 </r>
       <r>    -7.8994     0.0000     0.0000 </r>
       <r>    -7.8337     0.0000     0.0000 </r>
       <r>    -7.7681     0.0000     0.0000 </r>
       <r>    -7.7025    -0.0000    -0.0000 </r>
       <r>    -7.6368    -0.0000    -0.0000 </r>
       <r>    -7.5712    -0.0000    -0.0000 </r>
       <r>    -7.5056    -0.0000    -0.0000 </r>
       <r>    -7.4399    -0.0000    -0.0000 </r>
       <r>    -7.3743    -0.0000    -0.0000 </r>
       <r>    -7.3087    -0.0000    -0.0000 </r>
       <r>    -7.2431    -0.0000    -0.0000 </r>
       <r>    -7.1774    -0.0000    -0.0000 </r>
       <r>    -7.1118    -0.0000    -0.0000 </r>
       <r>    -7.0462    -0.0000    -0.0000 </r>
       <r>    -6.9805    -0.0000    -0.0000 </r>
       <r>    -6.9149    -0.0000    -0.0000 </r>
       <r>    -6.8493    -0.0000    -0.0000 </r>
       <r>    -6.7836    -0.0000    -0.0000 </r>
       <r>    -6.7180    -0.0002    -0.0000 </r>
       <r>    -6.6524    -0.0010    -0.0001 </r>
       <r>    -6.5868    -0.0043    -0.0004 </r>
       <r>    -6.5211    -0.0146    -0.0013 </r>
       <r>    -6.4555    -0.0361    -0.0037 </r>
       <r>    -6.3899    -0.0587    -0.0075 </r>
       <r>    -6.3242    -0.0369    -0.0100 </r>
       <r>    -6.2586     0.0936    -0.0038 </r>
       <r>    -6.1930     0.3308     0.0179 </r>
       <r>    -6.1273     0.5645     0.0549 </r>
       <r>    -6.0617     0.7737     0.1057 </r>
       <r>    -5.9961     1.2910     0.1904 </r>
       <r>    -5.9305     2.5391     0.3571 </r>
       <r>    -5.8648     4.2662     0.6371 </r>
       <r>    -5.7992     5.5480     1.0012 </r>
       <r>    -5.7336     6.1338     1.4037 </r>
       <r>    -5.6679     7.1577     1.8735 </r>
       <r>    -5.6023     9.4339     2.4927 </r>
       <r>    -5.5367    11.6466     3.2570 </r>
       <r>    -5.4710    11.8023     4.0316 </r>
       <r>    -5.4054    10.1009     4.6945 </r>
       <r>    -5.3398     8.5482     5.2556 </r>
       <r>    -5.2742     7.9382     5.7765 </r>
       <r>    -5.2085     7.1948     6.2487 </r>
       <r>    -5.1429     5.7168     6.6239 </r>
       <r>    -5.0773     4.4210     6.9141 </r>
       <r>    -5.0116     4.2301     7.1917 </r>
       <r>    -4.9460     5.3943     7.5457 </r>
       <r>    -4.8804     8.5994     8.1101 </r>
       <r>    -4.8147    14.4911     9.0611 </r>
       <r>    -4.7491    21.3446    10.4620 </r>
       <r>    -4.6835    25.7957    12.1550 </r>
       <r>    -4.6179    27.0080    13.9275 </r>
       <r>    -4.5522    27.1527    15.7095 </r>
       <r>    -4.4866    26.7008    17.4619 </r>
       <r>    -4.4210    22.9763    18.9698 </r>
       <r>    -4.3553    14.8803    19.9464 </r>
       <r>    -4.2897     5.6593    20.3178 </r>
       <r>    -4.2241    -0.3583    20.2943 </r>
       <r>    -4.1584    -1.2652    20.2113 </r>
       <r>    -4.0928     2.7172    20.3896 </r>
       <r>    -4.0272    10.5818    21.0841 </r>
       <r>    -3.9616    20.3478    22.4195 </r>
       <r>    -3.8959    28.5670    24.2944 </r>
       <r>    -3.8303    31.5467    26.3648 </r>
       <r>    -3.7647    28.0603    28.2064 </r>
       <r>    -3.6990    20.7718    29.5696 </r>
       <r>    -3.6334    14.4673    30.5191 </r>
       <r>    -3.5678    13.0812    31.3776 </r>
       <r>    -3.5021    17.9743    32.5573 </r>
       <r>    -3.4365    27.2482    34.3456 </r>
       <r>    -3.3709    36.4168    36.7356 </r>
       <r>    -3.3053    41.4013    39.4528 </r>
       <r>    -3.2396    41.3478    42.1664 </r>
       <r>    -3.1740    37.9285    44.6557 </r>
       <r>    -3.1084    32.8408    46.8110 </r>
       <r>    -3.0427    27.5967    48.6222 </r>
       <r>    -2.9771    24.4910    50.2295 </r>
       <r>    -2.9115    24.5344    51.8397 </r>
       <r>    -2.8458    24.7229    53.4623 </r>
       <r>    -2.7802    20.7687    54.8253 </r>
       <r>    -2.7146    12.5857    55.6513 </r>
       <r>    -2.6490     4.3256    55.9352 </r>
       <r>    -2.5833    -0.5837    55.8969 </r>
       <r>    -2.5177    -2.0065    55.7652 </r>
       <r>    -2.4521    -1.1656    55.6887 </r>
       <r>    -2.3864     1.5399    55.7898 </r>
       <r>    -2.3208     5.9651    56.1813 </r>
       <r>    -2.2552    10.4384    56.8664 </r>
       <r>    -2.1895    12.0337    57.6561 </r>
       <r>    -2.1239     9.3099    58.2671 </r>
       <r>    -2.0583     4.2112    58.5435 </r>
       <r>    -1.9927     0.8656    58.6003 </r>
       <r>    -1.9270     2.9776    58.7958 </r>
       <r>    -1.8614    11.7975    59.5700 </r>
       <r>    -1.7958    24.6811    61.1898 </r>
       <r>    -1.7301    35.2904    63.5059 </r>
       <r>    -1.6645    37.3013    65.9540 </r>
       <r>    -1.5989    29.4560    67.8872 </r>
       <r>    -1.5332    16.6350    68.9790 </r>
       <r>    -1.4676     5.7629    69.3572 </r>
       <r>    -1.4020     1.1155    69.4304 </r>
       <r>    -1.3364     2.7944    69.6138 </r>
       <r>    -1.2707     7.7523    70.1226 </r>
       <r>    -1.2051    11.7967    70.8968 </r>
       <r>    -1.1395    12.2264    71.6992 </r>
       <r>    -1.0738     9.9022    72.3491 </r>
       <r>    -1.0082     8.6432    72.9164 </r>
       <r>    -0.9426    11.7033    73.6844 </r>
       <r>    -0.8769    17.9900    74.8651 </r>
       <r>    -0.8113    22.3239    76.3302 </r>
       <r>    -0.7457    21.2433    77.7244 </r>
       <r>    -0.6801    18.3336    78.9277 </r>
       <r>    -0.6144    21.4224    80.3336 </r>
       <r>    -0.5488    34.0079    82.5655 </r>
       <r>    -0.4832    50.6740    85.8913 </r>
       <r>    -0.4175    60.7424    89.8778 </r>
       <r>    -0.3519    56.3779    93.5779 </r>
       <r>    -0.2863    38.8561    96.1280 </r>
       <r>    -0.2206    17.6843    97.2886 </r>
       <r>    -0.1550     3.1734    97.4969 </r>
       <r>    -0.0894     0.0098    97.4975 </r>
       <r>    -0.0238     6.5453    97.9271 </r>
       <r>     0.0419    16.9578    99.0400 </r>
       <r>     0.1075    24.0606   100.6191 </r>
       <r>     0.1731    23.6086   102.1686 </r>
       <r>     0.2388    17.2576   103.3012 </r>
       <r>     0.3044    10.1210   103.9654 </r>
       <r>     0.3700     5.9942   104.3588 </r>
       <r>     0.4357     6.0107   104.7533 </r>
       <r>     0.5013    10.0907   105.4156 </r>
       <r>     0.5669    17.3594   106.5549 </r>
       <r>     0.6325    25.3043   108.2156 </r>
       <r>     0.6982    29.8722   110.1761 </r>
       <r>     0.7638    27.7254   111.9957 </r>
       <r>     0.8294    19.3177   113.2635 </r>
       <r>     0.8951     9.1209   113.8621 </r>
       <r>     0.9607     1.8413   113.9830 </r>
       <r>     1.0263    -1.1326   113.9086 </r>
       <r>     1.0920    -1.3749   113.8184 </r>
       <r>     1.1576    -0.9144   113.7584 </r>
       <r>     1.2232    -0.8347   113.7036 </r>
       <r>     1.2888    -1.3486   113.6151 </r>
       <r>     1.3545    -1.9194   113.4891 </r>
       <r>     1.4201    -0.8707   113.4320 </r>
       <r>     1.4857     4.5028   113.7275 </r>
       <r>     1.5514    16.0731   114.7824 </r>
       <r>     1.6170    32.0035   116.8828 </r>
       <r>     1.6826    45.9364   119.8976 </r>
       <r>     1.7483    50.4570   123.2091 </r>
       <r>     1.8139    42.9634   126.0288 </r>
       <r>     1.8795    28.8229   127.9204 </r>
       <r>     1.9451    17.8905   129.0946 </r>
       <r>     2.0108    16.3439   130.1672 </r>
       <r>     2.0764    21.4558   131.5754 </r>
       <r>     2.1420    25.0460   133.2191 </r>
       <r>     2.2077    22.4256   134.6909 </r>
       <r>     2.2733    17.8723   135.8639 </r>
       <r>     2.3389    21.3362   137.2642 </r>
       <r>     2.4046    39.1362   139.8327 </r>
       <r>     2.4702    66.2660   144.1817 </r>
       <r>     2.5358    87.3661   149.9155 </r>
       <r>     2.6014    87.6906   155.6707 </r>
       <r>     2.6671    65.7016   159.9827 </r>
       <r>     2.7327    34.3728   162.2385 </r>
       <r>     2.7983     9.2129   162.8432 </r>
       <r>     2.8640    -3.5004   162.6135 </r>
       <r>     2.9296    -6.6564   162.1766 </r>
       <r>     2.9952    -4.2713   161.8963 </r>
       <r>     3.0609     3.6919   162.1386 </r>
       <r>     3.1265    19.1468   163.3952 </r>
       <r>     3.1921    40.5124   166.0540 </r>
       <r>     3.2577    61.3204   170.0785 </r>
       <r>     3.3234    74.7645   174.9852 </r>
       <r>     3.3890    78.3654   180.1284 </r>
       <r>     3.4546    73.7140   184.9662 </r>
       <r>     3.5203    63.6251   189.1419 </r>
       <r>     3.5859    51.0781   192.4942 </r>
       <r>     3.6515    40.3543   195.1426 </r>
       <r>     3.7171    36.6116   197.5454 </r>
       <r>     3.7828    40.8260   200.2248 </r>
       <r>     3.8484    45.7757   203.2291 </r>
       <r>     3.9140    42.2526   206.0021 </r>
       <r>     3.9797    30.3981   207.9972 </r>
       <r>     4.0453    20.3005   209.3295 </r>
       <r>     4.1109    20.0950   210.6483 </r>
       <r>     4.1766    27.4030   212.4468 </r>
       <r>     4.2422    34.1553   214.6884 </r>
       <r>     4.3078    36.5236   217.0854 </r>
       <r>     4.3734    36.9276   219.5090 </r>
       <r>     4.4391    38.0866   222.0086 </r>
       <r>     4.5047    39.6971   224.6139 </r>
       <r>     4.5703    41.3924   227.3305 </r>
       <r>     4.6360    44.7669   230.2685 </r>
       <r>     4.7016    50.4146   233.5772 </r>
       <r>     4.7672    54.8653   237.1781 </r>
       <r>     4.8329    52.4008   240.6171 </r>
       <r>     4.8985    40.4886   243.2744 </r>
       <r>     4.9641    23.1239   244.7920 </r>
       <r>     5.0297     8.2415   245.3329 </r>
       <r>     5.0954     2.0914   245.4702 </r>
       <r>     5.1610     5.9108   245.8581 </r>
       <r>     5.2266    15.8387   246.8976 </r>
       <r>     5.2923    24.7835   248.5241 </r>
       <r>     5.3579    26.4686   250.2612 </r>
       <r>     5.4235    19.9358   251.5696 </r>
       <r>     5.4892     9.8815   252.2181 </r>
       <r>     5.5548     2.1824   252.3614 </r>
       <r>     5.6204    -0.2091   252.3477 </r>
       <r>     5.6860     2.3187   252.4998 </r>
       <r>     5.7517     7.3038   252.9792 </r>
       <r>     5.8173    11.3062   253.7212 </r>
       <r>     5.8829    11.7255   254.4907 </r>
       <r>     5.9486     8.8242   255.0699 </r>
       <r>     6.0142     5.2486   255.4143 </r>
       <r>     6.0798     3.1292   255.6197 </r>
       <r>     6.1455     2.3520   255.7741 </r>
       <r>     6.2111     1.6964   255.8854 </r>
       <r>     6.2767     0.7007   255.9314 </r>
       <r>     6.3423     0.1076   255.9385 </r>
       <r>     6.4080     1.0801   256.0093 </r>
       <r>     6.4736     4.1210   256.2798 </r>
       <r>     6.5392     8.2327   256.8201 </r>
       <r>     6.6049    11.1098   257.5493 </r>
       <r>     6.6705    10.7978   258.2579 </r>
       <r>     6.7361     7.4143   258.7445 </r>
       <r>     6.8018     3.0241   258.9430 </r>
       <r>     6.8674     0.0532   258.9465 </r>
       <r>     6.9330     0.1849   258.9586 </r>
       <r>     6.9986     4.0099   259.2218 </r>
       <r>     7.0643    10.2593   259.8951 </r>
       <r>     7.1299    15.4189   260.9070 </r>
       <r>     7.1955    16.1212   261.9651 </r>
       <r>     7.2612    13.1984   262.8313 </r>
       <r>     7.3268    12.0316   263.6209 </r>
       <r>     7.3924    16.9176   264.7312 </r>
       <r>     7.4581    25.3264   266.3934 </r>
       <r>     7.5237    29.6533   268.3395 </r>
       <r>     7.5893    25.2066   269.9938 </r>
       <r>     7.6549    15.1147   270.9858 </r>
       <r>     7.7206     7.4288   271.4734 </r>
       <r>     7.7862     9.1174   272.0717 </r>
       <r>     7.8518    21.6871   273.4951 </r>
       <r>     7.9175    39.0966   276.0610 </r>
       <r>     7.9831    50.4218   279.3702 </r>
       <r>     8.0487    48.5907   282.5592 </r>
       <r>     8.1144    37.2579   285.0044 </r>
       <r>     8.1800    27.0235   286.7779 </r>
       <r>     8.2456    25.6914   288.4641 </r>
       <r>     8.3112    34.1409   290.7047 </r>
       <r>     8.3769    49.0696   293.9252 </r>
       <r>     8.4425    65.1053   298.1980 </r>
       <r>     8.5081    74.9406   303.1164 </r>
       <r>     8.5738    72.5078   307.8751 </r>
       <r>     8.6394    58.0725   311.6864 </r>
       <r>     8.7050    38.5578   314.2169 </r>
       <r>     8.7707    22.1851   315.6729 </r>
       <r>     8.8363    13.0735   316.5309 </r>
       <r>     8.9019    10.4198   317.2148 </r>
       <r>     8.9675    11.7539   317.9862 </r>
       <r>     9.0332    15.4585   319.0007 </r>
       <r>     9.0988    19.6261   320.2888 </r>
       <r>     9.1644    20.9048   321.6608 </r>
       <r>     9.2301    17.0626   322.7806 </r>
       <r>     9.2957     9.8244   323.4254 </r>
       <r>     9.3613     3.3048   323.6423 </r>
       <r>     9.4270     0.1240   323.6504 </r>
       <r>     9.4926    -0.0315   323.6483 </r>
       <r>     9.5582     1.0290   323.7159 </r>
       <r>     9.6238     1.7596   323.8313 </r>
       <r>     9.6895     1.6206   323.9377 </r>
       <r>     9.7551     0.9348   323.9990 </r>
       <r>     9.8207     0.2794   324.0174 </r>
       <r>     9.8864    -0.0498   324.0141 </r>
       <r>     9.9520    -0.1094   324.0069 </r>
       <r>    10.0176    -0.0683   324.0025 </r>
       <r>    10.0833    -0.0273   324.0007 </r>
       <r>    10.1489    -0.0079   324.0001 </r>
       <r>    10.2145    -0.0018   324.0000 </r>
       <r>    10.2801    -0.0003   324.0000 </r>
       <r>    10.3458    -0.0000   324.0000 </r>
       <r>    10.4114    -0.0000   324.0000 </r>
       <r>    10.4770    -0.0000   324.0000 </r>
       <r>    10.5427    -0.0000   324.0000 </r>
       <r>    10.6083    -0.0000   324.0000 </r>
       <r>    10.6739    -0.0000   324.0000 </r>
       <r>    10.7396    -0.0000   324.0000 </r>
       <r>    10.8052    -0.0000   324.0000 </r>
       <r>    10.8708    -0.0000   324.0000 </r>
       <r>    10.9364     0.0000   324.0000 </r>
       <r>    11.0021     0.0000   324.0000 </r>
       <r>    11.0677     0.0000   324.0000 </r>
       <r>    11.1333     0.0000   324.0000 </r>
       <r>    11.1990     0.0000   324.0000 </r>
       <r>    11.2646     0.0000   324.0000 </r>
       <r>    11.3302     0.0000   324.0000 </r>
       <r>    11.3959     0.0000   324.0000 </r>
       <r>    11.4615     0.0000   324.0000 </r>
       <r>    11.5271     0.0000   324.0000 </r>
       <r>    11.5927     0.0000   324.0000 </r>
      </set>
     </set>
    </array>
   </total>
  </dos>
 </calculation>
 <structure name="finalpos" >
  <crystal>
   <varray name="basis" >
    <v>      10.78490159       0.02682800       0.00000000 </v>
    <v>       0.02682800      10.73124558       0.00000000 </v>
    <v>       0.00000000       0.00000000      10.73124558 </v>
   </varray>
   <i name="volume">   1241.97757270 </i>
   <varray name="rec_basis" >
    <v>       0.09272279      -0.00023181       0.00000000 </v>
    <v>      -0.00023181       0.09318641       0.00000000 </v>
    <v>       0.00000000       0.00000000       0.09318583 </v>
   </varray>
  </crystal>
  <varray name="positions" >
   <v>       0.00000000       0.00000000       0.00018474 </v>
   <v>       0.00000000       0.00000000       0.50018474 </v>
   <v>       0.00000000       0.50000000       0.00018474 </v>
   <v>       0.00000000       0.50000000       0.50018474 </v>
   <v>       0.50000000       0.00000000       0.00018474 </v>
   <v>       0.50000000       0.00000000       0.50018474 </v>
   <v>       0.50000000       0.50000000       0.00018474 </v>
   <v>       0.50000000       0.50000000       0.50018474 </v>
   <v>       0.37500000       0.37500000       0.12481526 </v>
   <v>       0.37500000       0.37500000       0.62481526 </v>
   <v>       0.37500000       0.87500000       0.12481526 </v>
   <v>       0.37500000       0.87500000       0.62481526 </v>
   <v>       0.87500000       0.37500000       0.12481526 </v>
   <v>       0.87500000       0.37500000       0.62481526 </v>
   <v>       0.87500000       0.87500000       0.12481526 </v>
   <v>       0.87500000       0.87500000       0.62481526 </v>
   <v>       0.00000000       0.25000000       0.25018474 </v>
   <v>       0.00000000       0.25000000       0.75018474 </v>
   <v>       0.00000000       0.75000000       0.25018474 </v>
   <v>       0.00000000       0.75000000       0.75018474 </v>
   <v>       0.50000000       0.25000000       0.25018474 </v>
   <v>       0.50000000       0.25000000       0.75018474 </v>
   <v>       0.50000000       0.75000000       0.25018474 </v>
   <v>       0.50000000       0.75000000       0.75018474 </v>
   <v>       0.37500000       0.12500000       0.37481526 </v>
   <v>       0.37500000       0.12500000       0.87481526 </v>
   <v>       0.37500000       0.62500000       0.37481526 </v>
   <v>       0.37500000       0.62500000       0.87481526 </v>
   <v>       0.87500000       0.12500000       0.37481526 </v>
   <v>       0.87500000       0.12500000       0.87481526 </v>
   <v>       0.87500000       0.62500000       0.37481526 </v>
   <v>       0.87500000       0.62500000       0.87481526 </v>
   <v>       0.25000000       0.00000000       0.25018474 </v>
   <v>       0.25000000       0.00000000       0.75018474 </v>
   <v>       0.25000000       0.50000000       0.25018474 </v>
   <v>       0.25000000       0.50000000       0.75018474 </v>
   <v>       0.75000000       0.00000000       0.25018474 </v>
   <v>       0.75000000       0.00000000       0.75018474 </v>
   <v>       0.75000000       0.50000000       0.25018474 </v>
   <v>       0.75000000       0.50000000       0.75018474 </v>
   <v>       0.12500000       0.37500000       0.37481526 </v>
   <v>       0.12500000       0.37500000       0.87481526 </v>
   <v>       0.12500000       0.87500000       0.37481526 </v>
   <v>       0.12500000       0.87500000       0.87481526 </v>
   <v>       0.62500000       0.37500000       0.37481526 </v>
   <v>       0.62500000       0.37500000       0.87481526 </v>
   <v>       0.62500000       0.87500000       0.37481526 </v>
   <v>       0.62500000       0.87500000       0.87481526 </v>
   <v>       0.25000000       0.25000000       0.00018474 </v>
   <v>       0.25000000       0.25000000       0.50018474 </v>
   <v>       0.25000000       0.75000000       0.00018474 </v>
   <v>       0.25000000       0.75000000       0.50018474 </v>
   <v>       0.75000000       0.25000000       0.00018474 </v>
   <v>       0.75000000       0.25000000       0.50018474 </v>
   <v>       0.75000000       0.75000000       0.00018474 </v>
   <v>       0.75000000       0.75000000       0.50018474 </v>
   <v>       0.12500000       0.12500000       0.12481526 </v>
   <v>       0.12500000       0.12500000       0.62481526 </v>
   <v>       0.12500000       0.62500000       0.12481526 </v>
   <v>       0.12500000       0.62500000       0.62481526 </v>
   <v>       0.62500000       0.12500000       0.12481526 </v>
   <v>       0.62500000       0.12500000       0.62481526 </v>
   <v>       0.62500000       0.62500000       0.12481526 </v>
   <v>       0.62500000       0.62500000       0.62481526 </v>
  </varray>
 </structure>
</modeling>
