Si64                                    
           1
    10.784902    0.026828    0.000000
     0.026828   10.731246    0.000000
     0.000000    0.000000   10.731246
   Si
    64
Direct configuration=     1
   0.00000000  0.00000000  0.00000000
   0.00000000  0.00000000  0.50000000
   0.00000000  0.50000000  0.00000000
   0.00000000  0.50000000  0.50000000
   0.50000000  0.00000000  0.00000000
   0.50000000  0.00000000  0.50000000
   0.50000000  0.50000000  0.00000000
   0.50000000  0.50000000  0.50000000
   0.37500000  0.37500000  0.12500000
   0.37500000  0.37500000  0.62500000
   0.37500000  0.87500000  0.12500000
   0.37500000  0.87500000  0.62500000
   0.87500000  0.37500000  0.12500000
   0.87500000  0.37500000  0.62500000
   0.87500000  0.87500000  0.12500000
   0.87500000  0.87500000  0.62500000
   0.00000000  0.25000000  0.25000000
   0.00000000  0.25000000  0.75000000
   0.00000000  0.75000000  0.25000000
   0.00000000  0.75000000  0.75000000
   0.50000000  0.25000000  0.25000000
   0.50000000  0.25000000  0.75000000
   0.50000000  0.75000000  0.25000000
   0.50000000  0.75000000  0.75000000
   0.37500000  0.12500000  0.37500000
   0.37500000  0.12500000  0.87500000
   0.37500000  0.62500000  0.37500000
   0.37500000  0.62500000  0.87500000
   0.87500000  0.12500000  0.37500000
   0.87500000  0.12500000  0.87500000
   0.87500000  0.62500000  0.37500000
   0.87500000  0.62500000  0.87500000
   0.25000000  0.00000000  0.25000000
   0.25000000  0.00000000  0.75000000
   0.25000000  0.50000000  0.25000000
   0.25000000  0.50000000  0.75000000
   0.75000000  0.00000000  0.25000000
   0.75000000  0.00000000  0.75000000
   0.75000000  0.50000000  0.25000000
   0.75000000  0.50000000  0.75000000
   0.12500000  0.37500000  0.37500000
   0.12500000  0.37500000  0.87500000
   0.12500000  0.87500000  0.37500000
   0.12500000  0.87500000  0.87500000
   0.62500000  0.37500000  0.37500000
   0.62500000  0.37500000  0.87500000
   0.62500000  0.87500000  0.37500000
   0.62500000  0.87500000  0.87500000
   0.25000000  0.25000000  0.00000000
   0.25000000  0.25000000  0.50000000
   0.25000000  0.75000000  0.00000000
   0.25000000  0.75000000  0.50000000
   0.75000000  0.25000000  0.00000000
   0.75000000  0.25000000  0.50000000
   0.75000000  0.75000000  0.00000000
   0.75000000  0.75000000  0.50000000
   0.12500000  0.12500000  0.12500000
   0.12500000  0.12500000  0.62500000
   0.12500000  0.62500000  0.12500000
   0.12500000  0.62500000  0.62500000
   0.62500000  0.12500000  0.12500000
   0.62500000  0.12500000  0.62500000
   0.62500000  0.62500000  0.12500000
   0.62500000  0.62500000  0.62500000
Direct configuration=     2
   0.00000000  1.00000000  0.00025630
   0.00000000  0.00000000  0.50025630
   1.00000000  0.50000000  0.00025630
   0.00000000  0.50000000  0.50025630
   0.50000000  1.00000000  0.00025630
   0.50000000  1.00000000  0.50025630
   0.50000000  0.50000000  0.00025630
   0.50000000  0.50000000  0.50025630
   0.37500000  0.37500000  0.12474370
   0.37500000  0.37500000  0.62474370
   0.37500000  0.87500000  0.12474370
   0.37500000  0.87500000  0.62474370
   0.87500000  0.37500000  0.12474370
   0.87500000  0.37500000  0.62474370
   0.87500000  0.87500000  0.12474370
   0.87500000  0.87500000  0.62474370
   1.00000000  0.25000000  0.25025630
   1.00000000  0.25000000  0.75025630
   0.00000000  0.75000000  0.25025630
   0.00000000  0.75000000  0.75025630
   0.50000000  0.25000000  0.25025630
   0.50000000  0.25000000  0.75025630
   0.50000000  0.75000000  0.25025630
   0.50000000  0.75000000  0.75025630
   0.37500000  0.12500000  0.37474370
   0.37500000  0.12500000  0.87474370
   0.37500000  0.62500000  0.37474370
   0.37500000  0.62500000  0.87474370
   0.87500000  0.12500000  0.37474370
   0.87500000  0.12500000  0.87474370
   0.87500000  0.62500000  0.37474370
   0.87500000  0.62500000  0.87474370
   0.25000000  1.00000000  0.25025630
   0.25000000  1.00000000  0.75025630
   0.25000000  0.50000000  0.25025630
   0.25000000  0.50000000  0.75025630
   0.75000000  1.00000000  0.25025630
   0.75000000  1.00000000  0.75025630
   0.75000000  0.50000000  0.25025630
   0.75000000  0.50000000  0.75025630
   0.12500000  0.37500000  0.37474370
   0.12500000  0.37500000  0.87474370
   0.12500000  0.87500000  0.37474370
   0.12500000  0.87500000  0.87474370
   0.62500000  0.37500000  0.37474370
   0.62500000  0.37500000  0.87474370
   0.62500000  0.87500000  0.37474370
   0.62500000  0.87500000  0.87474370
   0.25000000  0.25000000  0.00025630
   0.25000000  0.25000000  0.50025630
   0.25000000  0.75000000  0.00025630
   0.25000000  0.75000000  0.50025630
   0.75000000  0.25000000  0.00025630
   0.75000000  0.25000000  0.50025630
   0.75000000  0.75000000  0.00025630
   0.75000000  0.75000000  0.50025630
   0.12500000  0.12500000  0.12474370
   0.12500000  0.12500000  0.62474370
   0.12500000  0.62500000  0.12474370
   0.12500000  0.62500000  0.62474370
   0.62500000  0.12500000  0.12474370
   0.62500000  0.12500000  0.62474370
   0.62500000  0.62500000  0.12474370
   0.62500000  0.62500000  0.62474370
Direct configuration=     3
   0.00000000  0.00000000  0.00018474
   0.00000000  0.00000000  0.50018474
   0.00000000  0.50000000  0.00018474
   0.00000000  0.50000000  0.50018474
   0.50000000  0.00000000  0.00018474
   0.50000000  0.00000000  0.50018474
   0.50000000  0.50000000  0.00018474
   0.50000000  0.50000000  0.50018474
   0.37500000  0.37500000  0.12481526
   0.37500000  0.37500000  0.62481526
   0.37500000  0.87500000  0.12481526
   0.37500000  0.87500000  0.62481526
   0.87500000  0.37500000  0.12481526
   0.87500000  0.37500000  0.62481526
   0.87500000  0.87500000  0.12481526
   0.87500000  0.87500000  0.62481526
   0.00000000  0.25000000  0.25018474
   0.00000000  0.25000000  0.75018474
   0.00000000  0.75000000  0.25018474
   0.00000000  0.75000000  0.75018474
   0.50000000  0.25000000  0.25018474
   0.50000000  0.25000000  0.75018474
   0.50000000  0.75000000  0.25018474
   0.50000000  0.75000000  0.75018474
   0.37500000  0.12500000  0.37481526
   0.37500000  0.12500000  0.87481526
   0.37500000  0.62500000  0.37481526
   0.37500000  0.62500000  0.87481526
   0.87500000  0.12500000  0.37481526
   0.87500000  0.12500000  0.87481526
   0.87500000  0.62500000  0.37481526
   0.87500000  0.62500000  0.87481526
   0.25000000  0.00000000  0.25018474
   0.25000000  0.00000000  0.75018474
   0.25000000  0.50000000  0.25018474
   0.25000000  0.50000000  0.75018474
   0.75000000  0.00000000  0.25018474
   0.75000000  0.00000000  0.75018474
   0.75000000  0.50000000  0.25018474
   0.75000000  0.50000000  0.75018474
   0.12500000  0.37500000  0.37481526
   0.12500000  0.37500000  0.87481526
   0.12500000  0.87500000  0.37481526
   0.12500000  0.87500000  0.87481526
   0.62500000  0.37500000  0.37481526
   0.62500000  0.37500000  0.87481526
   0.62500000  0.87500000  0.37481526
   0.62500000  0.87500000  0.87481526
   0.25000000  0.25000000  0.00018474
   0.25000000  0.25000000  0.50018474
   0.25000000  0.75000000  0.00018474
   0.25000000  0.75000000  0.50018474
   0.75000000  0.25000000  0.00018474
   0.75000000  0.25000000  0.50018474
   0.75000000  0.75000000  0.00018474
   0.75000000  0.75000000  0.50018474
   0.12500000  0.12500000  0.12481526
   0.12500000  0.12500000  0.62481526
   0.12500000  0.62500000  0.12481526
   0.12500000  0.62500000  0.62481526
   0.62500000  0.12500000  0.12481526
   0.62500000  0.12500000  0.62481526
   0.62500000  0.62500000  0.12481526
   0.62500000  0.62500000  0.62481526
