  64  64   0   0
  0.1901874E+02  0.1057058E-08  0.1073155E-08  0.1073125E-08  0.5000000E-15
  1.000000000000000E-004
  CAR 
 Si64                                    
     11.78896149     -8.02841640  301      6.54924616      1.00000000
     -8.028  0.0000E+00  0.0000E+00
     -7.962  0.0000E+00  0.0000E+00
     -7.896  0.0000E+00  0.0000E+00
     -7.830  0.0000E+00  0.0000E+00
     -7.764  0.0000E+00  0.0000E+00
     -7.698  0.0000E+00  0.0000E+00
     -7.632 -0.1708E-28 -0.1128E-29
     -7.566 -0.2915E-26 -0.1937E-27
     -7.500 -0.4009E-24 -0.2668E-25
     -7.434 -0.4424E-22 -0.2949E-23
     -7.368 -0.3914E-20 -0.2615E-21
     -7.302 -0.2775E-18 -0.1860E-19
     -7.236 -0.1577E-16 -0.1060E-17
     -7.170 -0.6966E-15 -0.4708E-16
     -7.104 -0.2524E-13 -0.1715E-14
     -7.038 -0.7318E-12 -0.5006E-13
     -6.971 -0.1694E-10 -0.1169E-11
     -6.905 -0.3124E-09 -0.2180E-10
     -6.839 -0.4584E-08 -0.3246E-09
     -6.773 -0.5336E-07 -0.3849E-08
     -6.707 -0.4911E-06 -0.3629E-07
     -6.641 -0.3554E-05 -0.2710E-06
     -6.575 -0.2007E-04 -0.1597E-05
     -6.509 -0.8726E-04 -0.7360E-05
     -6.443 -0.2856E-03 -0.2623E-04
     -6.377 -0.6709E-03 -0.7055E-04
     -6.311 -0.9896E-03 -0.1359E-03
     -6.245 -0.3552E-03 -0.1594E-03
     -6.179  0.2276E-02 -0.9041E-05
     -6.113  0.6491E-02  0.4197E-03
     -6.047  0.1015E-01  0.1090E-02
     -5.981  0.1350E-01  0.1982E-02
     -5.915  0.2323E-01  0.3516E-02
     -5.849  0.4597E-01  0.6552E-02
     -5.782  0.7500E-01  0.1151E-01
     -5.716  0.9379E-01  0.1770E-01
     -5.650  0.1012E+00  0.2438E-01
     -5.584  0.1192E+00  0.3226E-01
     -5.518  0.1594E+00  0.4279E-01
     -5.452  0.1950E+00  0.5567E-01
     -5.386  0.1929E+00  0.6841E-01
     -5.320  0.1616E+00  0.7909E-01
     -5.254  0.1372E+00  0.8815E-01
     -5.188  0.1296E+00  0.9672E-01
     -5.122  0.1181E+00  0.1045E+00
     -5.056  0.9318E-01  0.1107E+00
     -4.990  0.7208E-01  0.1154E+00
     -4.924  0.6972E-01  0.1200E+00
     -4.858  0.8837E-01  0.1259E+00
     -4.792  0.1390E+00  0.1351E+00
     -4.726  0.2344E+00  0.1505E+00
     -4.659  0.3477E+00  0.1735E+00
     -4.593  0.4215E+00  0.2014E+00
     -4.527  0.4394E+00  0.2304E+00
     -4.461  0.4397E+00  0.2594E+00
     -4.395  0.4364E+00  0.2883E+00
     -4.329  0.3858E+00  0.3137E+00
     -4.263  0.2614E+00  0.3310E+00
     -4.197  0.1099E+00  0.3383E+00
     -4.131  0.3443E-02  0.3385E+00
     -4.065 -0.2235E-01  0.3370E+00
     -3.999  0.3053E-01  0.3390E+00
     -3.933  0.1466E+00  0.3487E+00
     -3.867  0.2981E+00  0.3684E+00
     -3.801  0.4369E+00  0.3973E+00
     -3.735  0.5063E+00  0.4307E+00
     -3.669  0.4767E+00  0.4622E+00
     -3.603  0.3736E+00  0.4869E+00
     -3.536  0.2656E+00  0.5044E+00
     -3.470  0.2210E+00  0.5190E+00
     -3.404  0.2732E+00  0.5371E+00
     -3.338  0.4046E+00  0.5638E+00
     -3.272  0.5525E+00  0.6003E+00
     -3.206  0.6483E+00  0.6431E+00
     -3.140  0.6654E+00  0.6871E+00
     -3.074  0.6241E+00  0.7283E+00
     -3.008  0.5550E+00  0.7649E+00
     -2.942  0.4794E+00  0.7966E+00
     -2.876  0.4228E+00  0.8245E+00
     -2.810  0.4083E+00  0.8515E+00
     -2.744  0.4148E+00  0.8789E+00
     -2.678  0.3792E+00  0.9040E+00
     -2.612  0.2703E+00  0.9218E+00
     -2.546  0.1303E+00  0.9304E+00
     -2.480  0.2420E-01  0.9320E+00
     -2.413 -0.2355E-01  0.9305E+00
     -2.347 -0.2720E-01  0.9287E+00
     -2.281 -0.8724E-03  0.9286E+00
     -2.215  0.5469E-01  0.9322E+00
     -2.149  0.1294E+00  0.9408E+00
     -2.083  0.1860E+00  0.9531E+00
     -2.017  0.1838E+00  0.9652E+00
     -1.951  0.1216E+00  0.9732E+00
     -1.885  0.4930E-01  0.9765E+00
     -1.819  0.3326E-01  0.9787E+00
     -1.753  0.1142E+00  0.9862E+00
     -1.687  0.2820E+00  0.1005E+01
     -1.621  0.4698E+00  0.1036E+01
     -1.555  0.5818E+00  0.1074E+01
     -1.489  0.5537E+00  0.1111E+01
     -1.423  0.4015E+00  0.1137E+01
     -1.357  0.2100E+00  0.1151E+01
     -1.291  0.7242E-01  0.1156E+01
     -1.224  0.3563E-01  0.1158E+01
     -1.158  0.8485E-01  0.1164E+01
     -1.092  0.1625E+00  0.1175E+01
     -1.026  0.2068E+00  0.1188E+01
     -0.960  0.1957E+00  0.1201E+01
     -0.894  0.1676E+00  0.1212E+01
     -0.828  0.1883E+00  0.1225E+01
     -0.762  0.2753E+00  0.1243E+01
     -0.696  0.3587E+00  0.1267E+01
     -0.630  0.3532E+00  0.1290E+01
     -0.564  0.2782E+00  0.1308E+01
     -0.498  0.2673E+00  0.1326E+01
     -0.432  0.4311E+00  0.1355E+01
     -0.366  0.7275E+00  0.1403E+01
     -0.300  0.9782E+00  0.1467E+01
     -0.234  0.1010E+01  0.1534E+01
     -0.168  0.7905E+00  0.1586E+01
     -0.101  0.4419E+00  0.1615E+01
     -0.035  0.1394E+00  0.1625E+01
      0.031 -0.8530E-02  0.1624E+01
      0.097  0.1047E-01  0.1625E+01
      0.163  0.1459E+00  0.1634E+01
      0.229  0.3094E+00  0.1655E+01
      0.295  0.4019E+00  0.1681E+01
      0.361  0.3738E+00  0.1706E+01
      0.427  0.2617E+00  0.1723E+01
      0.493  0.1485E+00  0.1733E+01
      0.559  0.9724E-01  0.1740E+01
      0.625  0.1294E+00  0.1748E+01
      0.691  0.2349E+00  0.1764E+01
      0.757  0.3735E+00  0.1788E+01
      0.823  0.4788E+00  0.1820E+01
      0.889  0.4883E+00  0.1852E+01
      0.955  0.3882E+00  0.1878E+01
      1.022  0.2289E+00  0.1893E+01
      1.088  0.8609E-01  0.1899E+01
      1.154  0.4585E-02  0.1899E+01
      1.220 -0.2084E-01  0.1898E+01
      1.286 -0.2042E-01  0.1896E+01
      1.352 -0.1916E-01  0.1895E+01
      1.418 -0.2474E-01  0.1893E+01
      1.484 -0.2491E-01  0.1892E+01
      1.550  0.1243E-01  0.1893E+01
      1.616  0.1221E+00  0.1901E+01
      1.682  0.3026E+00  0.1921E+01
      1.748  0.4957E+00  0.1953E+01
      1.814  0.6254E+00  0.1995E+01
      1.880  0.6583E+00  0.2038E+01
      1.946  0.6107E+00  0.2078E+01
      2.012  0.5182E+00  0.2113E+01
      2.078  0.4272E+00  0.2141E+01
      2.145  0.3857E+00  0.2166E+01
      2.211  0.3966E+00  0.2193E+01
      2.277  0.4017E+00  0.2219E+01
      2.343  0.3546E+00  0.2243E+01
      2.409  0.3031E+00  0.2263E+01
      2.475  0.3700E+00  0.2287E+01
      2.541  0.6345E+00  0.2329E+01
      2.607  0.1025E+01  0.2397E+01
      2.673  0.1337E+01  0.2485E+01
      2.739  0.1371E+01  0.2576E+01
      2.805  0.1095E+01  0.2648E+01
      2.871  0.6564E+00  0.2691E+01
      2.937  0.2595E+00  0.2708E+01
      3.003  0.1774E-01  0.2710E+01
      3.069 -0.7478E-01  0.2705E+01
      3.135 -0.6423E-01  0.2700E+01
      3.201  0.4159E-01  0.2703E+01
      3.267  0.2675E+00  0.2721E+01
      3.334  0.5975E+00  0.2760E+01
      3.400  0.9337E+00  0.2822E+01
      3.466  0.1157E+01  0.2898E+01
      3.532  0.1225E+01  0.2979E+01
      3.598  0.1172E+01  0.3057E+01
      3.664  0.1046E+01  0.3126E+01
      3.730  0.8795E+00  0.3184E+01
      3.796  0.7223E+00  0.3232E+01
      3.862  0.6456E+00  0.3274E+01
      3.928  0.6718E+00  0.3319E+01
      3.994  0.7279E+00  0.3367E+01
      4.060  0.7055E+00  0.3413E+01
      4.126  0.5749E+00  0.3451E+01
      4.192  0.4194E+00  0.3479E+01
      4.258  0.3485E+00  0.3502E+01
      4.324  0.3913E+00  0.3528E+01
      4.390  0.4887E+00  0.3560E+01
      4.457  0.5699E+00  0.3598E+01
      4.523  0.6093E+00  0.3638E+01
      4.589  0.6184E+00  0.3679E+01
      4.655  0.6219E+00  0.3720E+01
      4.721  0.6491E+00  0.3763E+01
      4.787  0.7167E+00  0.3810E+01
      4.853  0.8030E+00  0.3863E+01
      4.919  0.8568E+00  0.3920E+01
      4.985  0.8314E+00  0.3975E+01
      5.051  0.7098E+00  0.4022E+01
      5.117  0.5141E+00  0.4056E+01
      5.183  0.3047E+00  0.4076E+01
      5.249  0.1595E+00  0.4086E+01
      5.315  0.1303E+00  0.4095E+01
      5.381  0.2052E+00  0.4108E+01
      5.447  0.3120E+00  0.4129E+01
      5.513  0.3676E+00  0.4153E+01
      5.580  0.3359E+00  0.4176E+01
      5.646  0.2405E+00  0.4191E+01
      5.712  0.1326E+00  0.4200E+01
      5.778  0.5707E-01  0.4204E+01
      5.844  0.3845E-01  0.4207E+01
      5.910  0.7437E-01  0.4211E+01
      5.976  0.1338E+00  0.4220E+01
      6.042  0.1738E+00  0.4232E+01
      6.108  0.1701E+00  0.4243E+01
      6.174  0.1319E+00  0.4252E+01
      6.240  0.8592E-01  0.4257E+01
      6.306  0.5079E-01  0.4261E+01
      6.372  0.2950E-01  0.4263E+01
      6.438  0.1867E-01  0.4264E+01
      6.504  0.1924E-01  0.4265E+01
      6.570  0.3783E-01  0.4268E+01
      6.636  0.7758E-01  0.4273E+01
      6.703  0.1266E+00  0.4281E+01
      6.769  0.1592E+00  0.4292E+01
      6.835  0.1542E+00  0.4302E+01
      6.901  0.1135E+00  0.4309E+01
      6.967  0.6058E-01  0.4313E+01
      7.033  0.2498E-01  0.4315E+01
      7.099  0.2861E-01  0.4317E+01
      7.165  0.7683E-01  0.4322E+01
      7.231  0.1501E+00  0.4332E+01
      7.297  0.2096E+00  0.4346E+01
      7.363  0.2275E+00  0.4361E+01
      7.429  0.2191E+00  0.4375E+01
      7.495  0.2335E+00  0.4391E+01
      7.561  0.2993E+00  0.4410E+01
      7.627  0.3830E+00  0.4436E+01
      7.693  0.4152E+00  0.4463E+01
      7.759  0.3630E+00  0.4487E+01
      7.825  0.2668E+00  0.4505E+01
      7.892  0.2096E+00  0.4519E+01
      7.958  0.2507E+00  0.4535E+01
      8.024  0.3808E+00  0.4560E+01
      8.090  0.5326E+00  0.4596E+01
      8.156  0.6313E+00  0.4637E+01
      8.222  0.6391E+00  0.4679E+01
      8.288  0.5713E+00  0.4717E+01
      8.354  0.4903E+00  0.4750E+01
      8.420  0.4719E+00  0.4781E+01
      8.486  0.5554E+00  0.4817E+01
      8.552  0.7214E+00  0.4865E+01
      8.618  0.9145E+00  0.4926E+01
      8.684  0.1072E+01  0.4996E+01
      8.750  0.1139E+01  0.5072E+01
      8.816  0.1083E+01  0.5143E+01
      8.882  0.9121E+00  0.5203E+01
      8.948  0.6772E+00  0.5248E+01
      9.015  0.4447E+00  0.5277E+01
      9.081  0.2749E+00  0.5296E+01
      9.147  0.2070E+00  0.5309E+01
      9.213  0.2364E+00  0.5325E+01
      9.279  0.3005E+00  0.5345E+01
      9.345  0.3160E+00  0.5366E+01
      9.411  0.2485E+00  0.5382E+01
      9.477  0.1359E+00  0.5391E+01
      9.543  0.4190E-01  0.5394E+01
      9.609 -0.8192E-03  0.5394E+01
      9.675 -0.2778E-03  0.5394E+01
      9.741  0.1747E-01  0.5395E+01
      9.807  0.3014E-01  0.5397E+01
      9.873  0.2875E-01  0.5399E+01
      9.939  0.1750E-01  0.5400E+01
     10.005  0.5884E-02  0.5400E+01
     10.071 -0.4167E-03  0.5400E+01
     10.138 -0.1835E-02  0.5400E+01
     10.204 -0.1231E-02  0.5400E+01
     10.270 -0.5119E-03  0.5400E+01
     10.336 -0.1527E-03  0.5400E+01
     10.402 -0.3433E-04  0.5400E+01
     10.468 -0.5952E-05  0.5400E+01
     10.534 -0.8061E-06  0.5400E+01
     10.600 -0.8595E-07  0.5400E+01
     10.666 -0.7250E-08  0.5400E+01
     10.732 -0.4856E-09  0.5400E+01
     10.798 -0.2589E-10  0.5400E+01
     10.864 -0.1101E-11  0.5400E+01
     10.930 -0.3740E-13  0.5400E+01
     10.996 -0.1008E-14  0.5400E+01
     11.062 -0.2801E-16  0.5400E+01
     11.128  0.0000E+00  0.5400E+01
     11.194  0.0000E+00  0.5400E+01
     11.260  0.0000E+00  0.5400E+01
     11.327  0.0000E+00  0.5400E+01
     11.393  0.0000E+00  0.5400E+01
     11.459  0.0000E+00  0.5400E+01
     11.525  0.0000E+00  0.5400E+01
     11.591  0.0000E+00  0.5400E+01
     11.657  0.0000E+00  0.5400E+01
     11.723  0.0000E+00  0.5400E+01
     11.789  0.0000E+00  0.5400E+01
