<?xml version="1.0" encoding="ISO-8859-1"?>
<modeling>
 <generator>
  <i name="program" type="string">vasp </i>
  <i name="version" type="string">6.4.3  </i>
  <i name="subversion" type="string">19Mar24 (build Oct 21 2024 22:36:34) complex                          parallel </i>
  <i name="platform" type="string">LinuxIFC </i>
  <i name="date" type="string">2024 11 01 </i>
  <i name="time" type="string">22:50:55 </i>
 </generator>
 <incar>
  <i type="string" name="SYSTEM">Si64</i>
  <i type="int" name="ISTART">     0</i>
  <i type="string" name="PREC">Accurate</i>
  <i type="string" name="ALGO">Fast</i>
  <i type="logical" name="ADDGRID"> T  </i>
  <i type="int" name="ICHARG">     2</i>
  <i type="int" name="NELM">    60</i>
  <i type="int" name="NELMIN">     8</i>
  <i type="int" name="IBRION">     2</i>
  <i name="EDIFF">      0.00000100</i>
  <i name="EDIFFG">     -0.01000000</i>
  <i type="int" name="NSW">    60</i>
  <i type="int" name="ISIF">     2</i>
  <i name="ENCUT">    400.00000000</i>
  <i type="string" name="LREAL">Auto</i>
  <i type="int" name="ISMEAR">     1</i>
  <i name="SIGMA">      0.20000000</i>
  <i type="logical" name="LWAVE"> F  </i>
  <i type="logical" name="LCHARG"> F  </i>
  <i type="logical" name="GGA_COMPAT"> F  </i>
  <i type="string" name="GGA">PS</i>
 </incar>
 <primitive_cell>
  <structure name="primitive_cell" >
   <crystal>
    <varray name="basis" >
     <v>      -2.64256914       0.02012100      -2.68281140 </v>
     <v>      -2.64256914       0.02012100       2.68281140 </v>
     <v>       2.62244814       2.66269039       0.00000000 </v>
    </varray>
    <i name="volume">     38.03748885 </i>
    <varray name="rec_basis" >
     <v>      -0.18780147       0.18496315      -0.18637166 </v>
     <v>      -0.18780147       0.18496315       0.18637166 </v>
     <v>       0.00283830       0.37276460       0.00000000 </v>
    </varray>
   </crystal>
   <varray name="positions" >
    <v>       0.00000000       0.00000000       0.00000000 </v>
    <v>       0.75000000       0.25000000       0.50000000 </v>
   </varray>
  </structure>
  <varray name="primitive_index" >
   <v type="int" >        1 </v>
   <v type="int" >       15 </v>
  </varray>
 </primitive_cell>
 <kpoints>
  <generation param="Gamma">
   <v type="int" name="divisions">       2        2        2 </v>
   <v name="usershift">      0.00000000       0.00000000       0.00000000 </v>
   <v name="genvec1">      0.50000000       0.00000000       0.00000000 </v>
   <v name="genvec2">      0.00000000       0.50000000       0.00000000 </v>
   <v name="genvec3">      0.00000000       0.00000000       0.50000000 </v>
   <v name="shift">      0.00000000       0.00000000       0.00000000 </v>
  </generation>
  <varray name="kpointlist" >
   <v>       0.00000000       0.00000000       0.00000000 </v>
   <v>       0.50000000       0.00000000       0.00000000 </v>
   <v>       0.00000000       0.50000000       0.00000000 </v>
   <v>       0.50000000       0.50000000       0.00000000 </v>
   <v>       0.00000000       0.00000000       0.50000000 </v>
   <v>       0.50000000       0.00000000       0.50000000 </v>
   <v>       0.00000000       0.50000000       0.50000000 </v>
   <v>       0.50000000       0.50000000       0.50000000 </v>
  </varray>
  <varray name="weights" >
   <v>       0.12500000 </v>
   <v>       0.12500000 </v>
   <v>       0.12500000 </v>
   <v>       0.12500000 </v>
   <v>       0.12500000 </v>
   <v>       0.12500000 </v>
   <v>       0.12500000 </v>
   <v>       0.12500000 </v>
  </varray>
 </kpoints>
 <parameters>
  <separator name="general" >
   <i type="string" name="SYSTEM">Si64</i>
   <i type="logical" name="LCOMPAT"> F  </i>
  </separator>
  <separator name="electronic" >
   <i type="string" name="PREC">accura</i>
   <i name="ENMAX">    400.00000000</i>
   <i name="ENAUG">    322.06900000</i>
   <i name="EDIFF">      0.00000100</i>
   <i type="int" name="IALGO">    68</i>
   <i type="int" name="IWAVPR">    11</i>
   <i type="int" name="NBANDS">   162</i>
   <i type="int" name="NBANDSLOW">    -1</i>
   <i type="int" name="NBANDSHIGH">    -1</i>
   <i name="NELECT">    256.00000000</i>
   <i type="int" name="TURBO">     0</i>
   <i type="int" name="IRESTART">     0</i>
   <i type="int" name="NREBOOT">     0</i>
   <i type="int" name="NMIN">     0</i>
   <i name="EREF">      0.00000000</i>
   <separator name="electronic smearing" >
    <i type="int" name="ISMEAR">     1</i>
    <i name="SIGMA">      0.20000000</i>
    <i name="KSPACING">      0.50000000</i>
    <i type="logical" name="KGAMMA"> T  </i>
    <i type="logical" name="KBLOWUP"> T  </i>
   </separator>
   <separator name="electronic projectors" >
    <i type="logical" name="LREAL"> T  </i>
    <v name="ROPT">     -0.00025000</v>
    <i type="int" name="LMAXPAW">  -100</i>
    <i type="int" name="LMAXMIX">     2</i>
    <i type="logical" name="NLSPLINE"> F  </i>
   </separator>
   <separator name="electronic startup" >
    <i type="int" name="ISTART">     0</i>
    <i type="int" name="ICHARG">     2</i>
    <i type="int" name="INIWAV">     1</i>
   </separator>
   <separator name="electronic spin" >
    <i type="int" name="ISPIN">     1</i>
    <i type="logical" name="LNONCOLLINEAR"> F  </i>
    <v name="MAGMOM">      1.00000000      1.00000000      1.00000000      1.00000000      1.00000000      1.00000000      1.00000000      1.00000000      1.00000000      1.00000000      1.00000000      1.00000000      1.00000000      1.00000000      1.00000000      1.00000000      1.00000000      1.00000000      1.00000000      1.00000000
      1.00000000      1.00000000      1.00000000      1.00000000      1.00000000      1.00000000      1.00000000      1.00000000      1.00000000      1.00000000      1.00000000      1.00000000      1.00000000      1.00000000      1.00000000      1.00000000      1.00000000      1.00000000      1.00000000      1.00000000
      1.00000000      1.00000000      1.00000000      1.00000000      1.00000000      1.00000000      1.00000000      1.00000000      1.00000000      1.00000000      1.00000000      1.00000000      1.00000000      1.00000000      1.00000000      1.00000000      1.00000000      1.00000000      1.00000000      1.00000000
      1.00000000      1.00000000      1.00000000      1.00000000</v>
    <i name="NUPDOWN">     -1.00000000</i>
    <i type="logical" name="LSORBIT"> F  </i>
    <v name="SAXIS">      0.00000000      0.00000000      1.00000000</v>
    <i type="logical" name="LSPIRAL"> F  </i>
    <v name="QSPIRAL">      0.00000000      0.00000000      0.00000000</v>
    <i type="logical" name="LZEROZ"> F  </i>
   </separator>
   <separator name="electronic exchange-correlation" >
    <i type="logical" name="LASPH"> F  </i>
   </separator>
   <separator name="electronic convergence" >
    <i type="int" name="NELM">    60</i>
    <i type="int" name="NELMDL">    -5</i>
    <i type="int" name="NELMIN">     8</i>
    <i name="ENINI">    400.00000000</i>
    <separator name="electronic convergence detail" >
     <i type="logical" name="LDIAG"> T  </i>
     <i type="logical" name="LSUBROT"> F  </i>
     <i name="WEIMIN">      0.00100000</i>
     <i name="EBREAK">      0.00000000</i>
     <i name="DEPER">      0.30000000</i>
     <i type="int" name="NRMM">     4</i>
     <i name="TIME">      0.40000000</i>
    </separator>
   </separator>
   <separator name="electronic mixer" >
    <i name="AMIX">      0.40000000</i>
    <i name="BMIX">      1.00000000</i>
    <i name="AMIN">      0.10000000</i>
    <i name="AMIX_MAG">      1.60000000</i>
    <i name="BMIX_MAG">      1.00000000</i>
    <separator name="electronic mixer details" >
     <i type="int" name="IMIX">     4</i>
     <i type="logical" name="MIXFIRST"> F  </i>
     <i type="int" name="MAXMIX">   -45</i>
     <i name="WC">    100.00000000</i>
     <i type="int" name="INIMIX">     1</i>
     <i type="int" name="MIXPRE">     1</i>
     <i type="int" name="MREMOVE">     5</i>
    </separator>
   </separator>
   <separator name="electronic dipolcorrection" >
    <i type="logical" name="LDIPOL"> F  </i>
    <i type="logical" name="LMONO"> F  </i>
    <i type="int" name="IDIPOL">     0</i>
    <i name="EPSILON">      1.00000000</i>
    <v name="DIPOL">   -100.00000000   -100.00000000   -100.00000000</v>
    <i name="EFIELD">      0.00000000</i>
    <i type="logical" name="LVACPOTAV"> F  </i>
   </separator>
  </separator>
  <separator name="grids" >
   <i type="int" name="NGX">    70</i>
   <i type="int" name="NGY">    70</i>
   <i type="int" name="NGZ">    70</i>
   <i type="int" name="NGXF">   140</i>
   <i type="int" name="NGYF">   140</i>
   <i type="int" name="NGZF">   140</i>
   <i type="logical" name="ADDGRID"> T  </i>
  </separator>
  <separator name="ionic" >
   <i type="int" name="NSW">    60</i>
   <i type="int" name="IBRION">     2</i>
   <i type="int" name="MDALGO">     0</i>
   <i type="int" name="ISIF">     2</i>
   <i name="PSTRESS">      0.00000000</i>
   <i name="EDIFFG">     -0.01000000</i>
   <i type="int" name="NFREE">     1</i>
   <i name="POTIM">      0.50000000</i>
   <i name="SMASS">     -3.00000000</i>
   <i name="SCALEE">      1.00000000</i>
  </separator>
  <separator name="ionic md" >
   <i name="TEBEG">      0.00010000</i>
   <i name="TEEND">      0.00010000</i>
   <i type="int" name="NBLOCK">     1</i>
   <i type="int" name="KBLOCK">    60</i>
   <i type="int" name="NPACO">   256</i>
   <i name="APACO">     10.00000000</i>
  </separator>
  <separator name="symmetry" >
   <i type="int" name="ISYM">     2</i>
   <i name="SYMPREC">      0.00001000</i>
  </separator>
  <separator name="dos" >
   <i type="int" name="LORBIT">     0</i>
   <v name="RWIGS">     -1.00000000</v>
   <i type="int" name="NEDOS">   301</i>
   <i name="EMIN">     10.00000000</i>
   <i name="EMAX">    -10.00000000</i>
   <i name="EFERMI">      0.00000000</i>
  </separator>
  <separator name="writing" >
   <i type="int" name="NWRITE">     2</i>
   <i type="logical" name="LWAVE"> F  </i>
   <i type="logical" name="LDOWNSAMPLE"> F  </i>
   <i type="logical" name="LCHARG"> F  </i>
   <i type="logical" name="LPARD"> F  </i>
   <i type="logical" name="LVTOT"> F  </i>
   <i type="logical" name="LVHAR"> F  </i>
   <i type="logical" name="LELF"> F  </i>
   <i type="logical" name="LOPTICS"> F  </i>
   <v name="STM">      0.00000000      0.00000000      0.00000000      0.00000000      0.00000000      0.00000000      0.00000000</v>
  </separator>
  <separator name="performance" >
   <i type="int" name="NPAR">     2</i>
   <i type="int" name="NSIM">     4</i>
   <i type="int" name="NBLK">    -1</i>
   <i type="logical" name="LPLANE"> T  </i>
   <i type="logical" name="LSCALAPACK"> T  </i>
   <i type="logical" name="LSCAAWARE"> F  </i>
   <i type="logical" name="LSCALU"> F  </i>
   <i type="logical" name="LASYNC"> F  </i>
   <i type="logical" name="LORBITALREAL"> F  </i>
  </separator>
  <separator name="miscellaneous" >
   <i type="int" name="IDIOT">     3</i>
   <i type="int" name="PHON_NSTRUCT">    -1</i>
   <i type="logical" name="LMUSIC"> F  </i>
   <v name="POMASS">     28.08500000</v>
   <v name="DARWINR">      0.00000000</v>
   <v name="DARWINV">      1.00000000</v>
   <i type="logical" name="LCORR"> T  </i>
  </separator>
  <i type="logical" name="GGA_COMPAT"> F  </i>
  <i type="logical" name="LBERRY"> F  </i>
  <i type="int" name="ICORELEVEL">     0</i>
  <i type="logical" name="LDAU"> F  </i>
  <i type="int" name="I_CONSTRAINED_M">     0</i>
  <separator name="electronic exchange-correlation" >
   <i type="string" name="GGA    ">PS</i>
   <i type="string" name="XC_C">1</i>
   <i type="int" name="VOSKOWN">     0</i>
   <i type="logical" name="LHFCALC"> F  </i>
   <i type="string" name="PRECFOCK"></i>
   <i type="logical" name="LSYMGRAD"> F  </i>
   <i type="logical" name="LHFONE"> F  </i>
   <i type="logical" name="LRHFCALC"> F  </i>
   <i type="logical" name="LTHOMAS"> F  </i>
   <i type="logical" name="LMODELHF"> F  </i>
   <i type="logical" name="LFOCKACE"> F  </i>
   <i name="ENCUT4O">     -1.00000000</i>
   <i type="int" name="EXXOEP">     0</i>
   <i type="int" name="FOURORBIT">     0</i>
   <i name="AEXX">      0.00000000</i>
   <i name="HFALPHA">      0.00000000</i>
   <i name="MCALPHA">      0.00000000</i>
   <i name="ALDAX">      1.00000000</i>
   <i name="AGGAX">      1.00000000</i>
   <i name="AMGGAX">      1.00000000</i>
   <i name="ALDAC">      1.00000000</i>
   <i name="AGGAC">      1.00000000</i>
   <i name="AMGGAC">      1.00000000</i>
   <i type="int" name="NKREDX">     1</i>
   <i type="int" name="NKREDY">     1</i>
   <i type="int" name="NKREDZ">     1</i>
   <i type="logical" name="SHIFTRED"> F  </i>
   <i type="logical" name="ODDONLY"> F  </i>
   <i type="logical" name="EVENONLY"> F  </i>
   <i type="int" name="LMAXFOCK">     0</i>
   <i type="int" name="NMAXFOCKAE">     0</i>
   <i type="logical" name="LFOCKAEDFT"> F  </i>
   <i name="HFSCREEN">      0.00000000</i>
   <i name="HFSCREENC">      0.00000000</i>
   <i type="int" name="NBANDSGWLOW">     0</i>
  </separator>
  <separator name="vdW DFT" >
   <i type="logical" name="LUSE_VDW"> F  </i>
   <i type="int" name="IVDW_NL">    -1</i>
   <i type="logical" name="LSPIN_VDW"> F  </i>
   <i name="ZAB_VDW">     -0.84910000</i>
   <i name="GAMMA_VDW">      1.39626340</i>
   <i name="ALPHA_VDW">      0.00000000</i>
   <i name="PARAM1">      0.12340000</i>
   <i name="PARAM2">      1.00000000</i>
   <i name="BPARAM">      6.30000000</i>
   <i name="CPARAM">      0.00930000</i>
  </separator>
  <separator name="model GW" >
   <i type="int" name="MODEL_GW">     0</i>
   <i name="MODEL_EPS0">     11.41124666</i>
   <i name="MODEL_ALPHA">      1.00000000</i>
  </separator>
  <separator name="linear response parameters" >
   <i type="logical" name="LEPSILON"> F  </i>
   <i type="logical" name="LRPA"> F  </i>
   <i type="logical" name="LNABLA"> F  </i>
   <i type="logical" name="LVEL"> F  </i>
   <i name="CSHIFT">      0.10000000</i>
   <i name="OMEGAMAX">     -1.00000000</i>
   <i name="DEG_THRESHOLD">      0.00200000</i>
   <i name="RTIME">     -0.10000000</i>
   <i name="WPLASMAI">      0.00000000</i>
   <v name="DFIELD">      0.00000000      0.00000000      0.00000000</v>
   <v name="WPLASMA">      0.00000000      0.00000000      0.00000000      0.00000000      0.00000000      0.00000000      0.00000000      0.00000000      0.00000000</v>
  </separator>
  <separator name="orbital magnetization" >
   <i type="logical" name="NUCIND"> F  </i>
   <v name="MAGPOS">      0.00000000      0.00000000      0.00000000</v>
   <i type="logical" name="LNICSALL"> T  </i>
   <i type="logical" name="ORBITALMAG"> F  </i>
   <i type="logical" name="LMAGBLOCH"> F  </i>
   <i type="logical" name="LCHIMAG"> F  </i>
   <i type="logical" name="LGAUGE"> T  </i>
   <i type="int" name="MAGATOM">     0</i>
   <v name="MAGDIPOL">      0.00000000      0.00000000      0.00000000</v>
   <v name="AVECCONST">      0.00000000      0.00000000      0.00000000</v>
  </separator>
  <separator name="response functions" >
   <i type="logical" name="LALL_IN_ONE"> F  </i>
   <i type="int" name="IALL_IN_ONE">    -1</i>
   <i type="int" name="NBANDS_WAVE">    -1</i>
   <i type="logical" name="LFINITE_TEMPERATURE"> F  </i>
   <i type="logical" name="LADDER"> F  </i>
   <i type="logical" name="LRPAFORCE"> F  </i>
   <i type="logical" name="LFXC"> F  </i>
   <i type="logical" name="LHARTREE"> T  </i>
   <i type="int" name="IBSE">     0</i>
   <v type="int" name="KPOINT">    -1     0     0     0</v>
   <i type="logical" name="LTCTC"> F  </i>
   <i type="logical" name="LTCTE"> F  </i>
   <i type="logical" name="LTETE"> F  </i>
   <i type="logical" name="LTRIPLET"> F  </i>
   <i type="logical" name="LFXCEPS"> F  </i>
   <i type="logical" name="LFXHEG"> F  </i>
   <i type="int" name="NATURALO">     2</i>
   <i type="logical" name="LHOLEGF"> F  </i>
   <i type="logical" name="L2ORDER"> F  </i>
   <i type="logical" name="LDMP1"> F  </i>
   <i type="logical" name="LMP2LT"> F  </i>
   <i type="logical" name="LSMP2LT"> F  </i>
   <i type="logical" name="LGWLF"> F  </i>
   <i name="ENCUTGW">     -1.60000002</i>
   <i name="ENCUTGWSOFT">     -1.60000002</i>
   <i name="ENCUTLF">     -1.00000000</i>
   <i type="logical" name="ESF_SPLINES"> F  </i>
   <i name="ESF_CONV">      0.01000000</i>
   <i type="int" name="ESF_NINTER">    15</i>
   <i type="int" name="LMAXMP2">    -1</i>
   <i name="SCISSOR">      0.00000000</i>
   <i type="int" name="NOMEGA">     0</i>
   <i type="int" name="NOMEGAR">     0</i>
   <i type="int" name="NBANDSGW">    -1</i>
   <i type="int" name="NBANDSO">    -1</i>
   <i type="int" name="NBANDSV">    -1</i>
   <i type="int" name="NELMGW">     1</i>
   <i type="int" name="NELMHF">     1</i>
   <i type="int" name="DIM">     3</i>
   <i type="int" name="IESPILON">     4</i>
   <i type="int" name="ANTIRES">     0</i>
   <i name="OMEGAMAX">    -30.00000000</i>
   <i name="OMEGAMIN">    -30.00000000</i>
   <i name="OMEGATL">   -200.00000000</i>
   <i type="int" name="OMEGAGRID">     0</i>
   <i name="CSHIFT">     -0.10000000</i>
   <i type="logical" name="LSELFENERGY"> F  </i>
   <i type="logical" name="LSPECTRAL"> F  </i>
   <i type="logical" name="LSPECTRALGW"> F  </i>
   <i type="logical" name="LSINGLES"> F  </i>
   <i type="logical" name="LFERMIGW"> F  </i>
   <i type="logical" name="ODDONLYGW"> F  </i>
   <i type="logical" name="EVENONLYGW"> F  </i>
   <i type="int" name="NKREDLFX">     1</i>
   <i type="int" name="NKREDLFY">     1</i>
   <i type="int" name="NKREDLFZ">     1</i>
   <i type="int" name="MAXMEM">  2800</i>
   <i type="int" name="TELESCOPE">     0</i>
   <i type="int" name="NTAUPAR">    -1</i>
   <i type="int" name="NOMEGAPAR">    -1</i>
   <i name="DAMP_NEWTON">      0.80000001</i>
   <i name="LAMBDA">      1.00000000</i>
  </separator>
  <separator name="External order field" >
   <i name="OFIELD_KAPPA">      0.00000000</i>
   <v name="OFIELD_K">      0.00000000      0.00000000      0.00000000</v>
   <i name="OFIELD_Q6_NEAR">      0.00000000</i>
   <i name="OFIELD_Q6_FAR">      0.00000000</i>
   <i name="OFIELD_A">      0.00000000</i>
  </separator>
  <separator name="optional k-points parameters" >
   <i type="int" name="KPOINTS_OPT_MODE">     1</i>
   <i type="logical" name="LKPOINTS_OPT"> F  </i>
  </separator>
 </parameters>
 <atominfo>
  <atoms>      64 </atoms>
  <types>       1 </types>
  <array name="atoms" >
   <dimension dim="1">ion</dimension>
   <field type="string">element</field>
   <field type="int">atomtype</field>
   <set>
    <rc><c>Si</c><c>   1</c></rc>
    <rc><c>Si</c><c>   1</c></rc>
    <rc><c>Si</c><c>   1</c></rc>
    <rc><c>Si</c><c>   1</c></rc>
    <rc><c>Si</c><c>   1</c></rc>
    <rc><c>Si</c><c>   1</c></rc>
    <rc><c>Si</c><c>   1</c></rc>
    <rc><c>Si</c><c>   1</c></rc>
    <rc><c>Si</c><c>   1</c></rc>
    <rc><c>Si</c><c>   1</c></rc>
    <rc><c>Si</c><c>   1</c></rc>
    <rc><c>Si</c><c>   1</c></rc>
    <rc><c>Si</c><c>   1</c></rc>
    <rc><c>Si</c><c>   1</c></rc>
    <rc><c>Si</c><c>   1</c></rc>
    <rc><c>Si</c><c>   1</c></rc>
    <rc><c>Si</c><c>   1</c></rc>
    <rc><c>Si</c><c>   1</c></rc>
    <rc><c>Si</c><c>   1</c></rc>
    <rc><c>Si</c><c>   1</c></rc>
    <rc><c>Si</c><c>   1</c></rc>
    <rc><c>Si</c><c>   1</c></rc>
    <rc><c>Si</c><c>   1</c></rc>
    <rc><c>Si</c><c>   1</c></rc>
    <rc><c>Si</c><c>   1</c></rc>
    <rc><c>Si</c><c>   1</c></rc>
    <rc><c>Si</c><c>   1</c></rc>
    <rc><c>Si</c><c>   1</c></rc>
    <rc><c>Si</c><c>   1</c></rc>
    <rc><c>Si</c><c>   1</c></rc>
    <rc><c>Si</c><c>   1</c></rc>
    <rc><c>Si</c><c>   1</c></rc>
    <rc><c>Si</c><c>   1</c></rc>
    <rc><c>Si</c><c>   1</c></rc>
    <rc><c>Si</c><c>   1</c></rc>
    <rc><c>Si</c><c>   1</c></rc>
    <rc><c>Si</c><c>   1</c></rc>
    <rc><c>Si</c><c>   1</c></rc>
    <rc><c>Si</c><c>   1</c></rc>
    <rc><c>Si</c><c>   1</c></rc>
    <rc><c>Si</c><c>   1</c></rc>
    <rc><c>Si</c><c>   1</c></rc>
    <rc><c>Si</c><c>   1</c></rc>
    <rc><c>Si</c><c>   1</c></rc>
    <rc><c>Si</c><c>   1</c></rc>
    <rc><c>Si</c><c>   1</c></rc>
    <rc><c>Si</c><c>   1</c></rc>
    <rc><c>Si</c><c>   1</c></rc>
    <rc><c>Si</c><c>   1</c></rc>
    <rc><c>Si</c><c>   1</c></rc>
    <rc><c>Si</c><c>   1</c></rc>
    <rc><c>Si</c><c>   1</c></rc>
    <rc><c>Si</c><c>   1</c></rc>
    <rc><c>Si</c><c>   1</c></rc>
    <rc><c>Si</c><c>   1</c></rc>
    <rc><c>Si</c><c>   1</c></rc>
    <rc><c>Si</c><c>   1</c></rc>
    <rc><c>Si</c><c>   1</c></rc>
    <rc><c>Si</c><c>   1</c></rc>
    <rc><c>Si</c><c>   1</c></rc>
    <rc><c>Si</c><c>   1</c></rc>
    <rc><c>Si</c><c>   1</c></rc>
    <rc><c>Si</c><c>   1</c></rc>
    <rc><c>Si</c><c>   1</c></rc>
   </set>
  </array>
  <array name="atomtypes" >
   <dimension dim="1">type</dimension>
   <field type="int">atomspertype</field>
   <field type="string">element</field>
   <field>mass</field>
   <field>valence</field>
   <field type="string">pseudopotential</field>
   <set>
    <rc><c>  64</c><c>Si</c><c>     28.08500000</c><c>      4.00000000</c><c>  PAW_PBE Si 05Jan2001                  </c></rc>
   </set>
  </array>
 </atominfo>
 <structure name="initialpos" >
  <crystal>
   <varray name="basis" >
    <v>      10.57027656      -0.08048401       0.00000000 </v>
    <v>      -0.08048401      10.73124558       0.00000000 </v>
    <v>       0.00000000       0.00000000      10.73124558 </v>
   </varray>
   <i name="volume">   1217.19964327 </i>
   <varray name="rec_basis" >
    <v>       0.09461031       0.00070957       0.00000000 </v>
    <v>       0.00070957       0.09319115       0.00000000 </v>
    <v>       0.00000000       0.00000000       0.09318583 </v>
   </varray>
  </crystal>
  <varray name="positions" >
   <v>       0.00000000       0.00000000       0.00000000 </v>
   <v>       0.00000000       0.00000000       0.50000000 </v>
   <v>       0.00000000       0.50000000       0.00000000 </v>
   <v>       0.00000000       0.50000000       0.50000000 </v>
   <v>       0.50000000       0.00000000       0.00000000 </v>
   <v>       0.50000000       0.00000000       0.50000000 </v>
   <v>       0.50000000       0.50000000       0.00000000 </v>
   <v>       0.50000000       0.50000000       0.50000000 </v>
   <v>       0.37500000       0.37500000       0.12500000 </v>
   <v>       0.37500000       0.37500000       0.62500000 </v>
   <v>       0.37500000       0.87500000       0.12500000 </v>
   <v>       0.37500000       0.87500000       0.62500000 </v>
   <v>       0.87500000       0.37500000       0.12500000 </v>
   <v>       0.87500000       0.37500000       0.62500000 </v>
   <v>       0.87500000       0.87500000       0.12500000 </v>
   <v>       0.87500000       0.87500000       0.62500000 </v>
   <v>       0.00000000       0.25000000       0.25000000 </v>
   <v>       0.00000000       0.25000000       0.75000000 </v>
   <v>       0.00000000       0.75000000       0.25000000 </v>
   <v>       0.00000000       0.75000000       0.75000000 </v>
   <v>       0.50000000       0.25000000       0.25000000 </v>
   <v>       0.50000000       0.25000000       0.75000000 </v>
   <v>       0.50000000       0.75000000       0.25000000 </v>
   <v>       0.50000000       0.75000000       0.75000000 </v>
   <v>       0.37500000       0.12500000       0.37500000 </v>
   <v>       0.37500000       0.12500000       0.87500000 </v>
   <v>       0.37500000       0.62500000       0.37500000 </v>
   <v>       0.37500000       0.62500000       0.87500000 </v>
   <v>       0.87500000       0.12500000       0.37500000 </v>
   <v>       0.87500000       0.12500000       0.87500000 </v>
   <v>       0.87500000       0.62500000       0.37500000 </v>
   <v>       0.87500000       0.62500000       0.87500000 </v>
   <v>       0.25000000       0.00000000       0.25000000 </v>
   <v>       0.25000000       0.00000000       0.75000000 </v>
   <v>       0.25000000       0.50000000       0.25000000 </v>
   <v>       0.25000000       0.50000000       0.75000000 </v>
   <v>       0.75000000       0.00000000       0.25000000 </v>
   <v>       0.75000000       0.00000000       0.75000000 </v>
   <v>       0.75000000       0.50000000       0.25000000 </v>
   <v>       0.75000000       0.50000000       0.75000000 </v>
   <v>       0.12500000       0.37500000       0.37500000 </v>
   <v>       0.12500000       0.37500000       0.87500000 </v>
   <v>       0.12500000       0.87500000       0.37500000 </v>
   <v>       0.12500000       0.87500000       0.87500000 </v>
   <v>       0.62500000       0.37500000       0.37500000 </v>
   <v>       0.62500000       0.37500000       0.87500000 </v>
   <v>       0.62500000       0.87500000       0.37500000 </v>
   <v>       0.62500000       0.87500000       0.87500000 </v>
   <v>       0.25000000       0.25000000       0.00000000 </v>
   <v>       0.25000000       0.25000000       0.50000000 </v>
   <v>       0.25000000       0.75000000       0.00000000 </v>
   <v>       0.25000000       0.75000000       0.50000000 </v>
   <v>       0.75000000       0.25000000       0.00000000 </v>
   <v>       0.75000000       0.25000000       0.50000000 </v>
   <v>       0.75000000       0.75000000       0.00000000 </v>
   <v>       0.75000000       0.75000000       0.50000000 </v>
   <v>       0.12500000       0.12500000       0.12500000 </v>
   <v>       0.12500000       0.12500000       0.62500000 </v>
   <v>       0.12500000       0.62500000       0.12500000 </v>
   <v>       0.12500000       0.62500000       0.62500000 </v>
   <v>       0.62500000       0.12500000       0.12500000 </v>
   <v>       0.62500000       0.12500000       0.62500000 </v>
   <v>       0.62500000       0.62500000       0.12500000 </v>
   <v>       0.62500000       0.62500000       0.62500000 </v>
  </varray>
 </structure>
 <calculation>
  <scstep>
   <time name="dav">    1.25    1.31</time>
   <time name="total">    1.44    1.51</time>
   <energy>
    <i name="alphaZ">    113.27984240 </i>
    <i name="ewald">  -7439.25473752 </i>
    <i name="hartreedc">   -328.03004326 </i>
    <i name="XCdc">   -552.51367839 </i>
    <i name="pawpsdc">   5598.62625415 </i>
    <i name="pawaedc">  -4492.17844134 </i>
    <i name="eentropy">     -0.03695928 </i>
    <i name="bandstr">   1103.20378479 </i>
    <i name="atom">   6564.79586099 </i>
    <i name="e_fr_energy">    567.89188253 </i>
    <i name="e_wo_entrp">    567.92884181 </i>
    <i name="e_0_energy">    567.90420229 </i>
   </energy>
  </scstep>
  <scstep>
   <time name="dav">    1.32    1.34</time>
   <time name="total">    1.32    1.35</time>
   <energy>
    <i name="e_fr_energy">   -309.67477569 </i>
    <i name="e_wo_entrp">   -309.69316074 </i>
    <i name="e_0_energy">   -309.68090404 </i>
   </energy>
  </scstep>
  <scstep>
   <time name="dav">    1.33    1.35</time>
   <time name="total">    1.33    1.35</time>
   <energy>
    <i name="e_fr_energy">   -372.91197674 </i>
    <i name="e_wo_entrp">   -372.91949882 </i>
    <i name="e_0_energy">   -372.91448410 </i>
   </energy>
  </scstep>
  <scstep>
   <time name="dav">    1.32    1.33</time>
   <time name="total">    1.32    1.33</time>
   <energy>
    <i name="e_fr_energy">   -374.54413630 </i>
    <i name="e_wo_entrp">   -374.55231143 </i>
    <i name="e_0_energy">   -374.54686134 </i>
   </energy>
  </scstep>
  <scstep>
   <time name="dav">    1.30    1.31</time>
   <time name="total">    1.55    1.58</time>
   <energy>
    <i name="e_fr_energy">   -374.59623659 </i>
    <i name="e_wo_entrp">   -374.60442030 </i>
    <i name="e_0_energy">   -374.59896450 </i>
   </energy>
  </scstep>
  <scstep>
   <time name="diag">    0.14    0.14</time>
   <time name="diis">    0.69    0.70</time>
   <time name="orth">    0.02    0.02</time>
   <time name="total">    1.24    1.26</time>
   <energy>
    <i name="e_fr_energy">   -368.80034926 </i>
    <i name="e_wo_entrp">   -368.82318733 </i>
    <i name="e_0_energy">   -368.80796195 </i>
   </energy>
  </scstep>
  <scstep>
   <time name="diag">    0.13    0.13</time>
   <time name="diis">    0.70    0.70</time>
   <time name="orth">    0.02    0.02</time>
   <time name="total">    1.24    1.26</time>
   <energy>
    <i name="e_fr_energy">   -366.25693383 </i>
    <i name="e_wo_entrp">   -366.28281445 </i>
    <i name="e_0_energy">   -366.26556070 </i>
   </energy>
  </scstep>
  <scstep>
   <time name="diag">    0.13    0.13</time>
   <time name="diis">    0.71    0.71</time>
   <time name="orth">    0.02    0.02</time>
   <time name="total">    1.25    1.26</time>
   <energy>
    <i name="e_fr_energy">   -366.29328196 </i>
    <i name="e_wo_entrp">   -366.32212976 </i>
    <i name="e_0_energy">   -366.30289789 </i>
   </energy>
  </scstep>
  <scstep>
   <time name="diag">    0.13    0.13</time>
   <time name="diis">    0.71    0.71</time>
   <time name="orth">    0.02    0.02</time>
   <time name="total">    1.24    1.26</time>
   <energy>
    <i name="e_fr_energy">   -366.31534682 </i>
    <i name="e_wo_entrp">   -366.34359013 </i>
    <i name="e_0_energy">   -366.32476126 </i>
   </energy>
  </scstep>
  <scstep>
   <time name="diag">    0.13    0.13</time>
   <time name="diis">    0.75    0.76</time>
   <time name="orth">    0.02    0.02</time>
   <time name="total">    1.28    1.31</time>
   <energy>
    <i name="e_fr_energy">   -366.31964252 </i>
    <i name="e_wo_entrp">   -366.34782522 </i>
    <i name="e_0_energy">   -366.32903676 </i>
   </energy>
  </scstep>
  <scstep>
   <time name="diag">    0.13    0.13</time>
   <time name="diis">    0.69    0.69</time>
   <time name="orth">    0.02    0.02</time>
   <time name="total">    1.23    1.24</time>
   <energy>
    <i name="e_fr_energy">   -366.31563931 </i>
    <i name="e_wo_entrp">   -366.34460647 </i>
    <i name="e_0_energy">   -366.32529503 </i>
   </energy>
  </scstep>
  <scstep>
   <time name="diag">    0.13    0.13</time>
   <time name="diis">    0.68    0.68</time>
   <time name="orth">    0.02    0.02</time>
   <time name="total">    1.21    1.23</time>
   <energy>
    <i name="e_fr_energy">   -366.31581864 </i>
    <i name="e_wo_entrp">   -366.34480178 </i>
    <i name="e_0_energy">   -366.32547969 </i>
   </energy>
  </scstep>
  <scstep>
   <time name="diag">    0.13    0.13</time>
   <time name="diis">    0.71    0.72</time>
   <time name="orth">    0.02    0.02</time>
   <time name="total">    1.25    1.27</time>
   <energy>
    <i name="e_fr_energy">   -366.31588815 </i>
    <i name="e_wo_entrp">   -366.34487451 </i>
    <i name="e_0_energy">   -366.32555027 </i>
   </energy>
  </scstep>
  <scstep>
   <time name="diag">    0.13    0.13</time>
   <time name="diis">    0.67    0.71</time>
   <time name="orth">    0.02    0.02</time>
   <time name="total">    1.21    1.26</time>
   <energy>
    <i name="e_fr_energy">   -366.31589164 </i>
    <i name="e_wo_entrp">   -366.34488457 </i>
    <i name="e_0_energy">   -366.32555595 </i>
   </energy>
  </scstep>
  <scstep>
   <time name="diag">    0.13    0.13</time>
   <time name="diis">    0.70    0.70</time>
   <time name="orth">    0.02    0.02</time>
   <time name="total">    1.23    1.25</time>
   <energy>
    <i name="e_fr_energy">   -366.31595331 </i>
    <i name="e_wo_entrp">   -366.34497126 </i>
    <i name="e_0_energy">   -366.32562596 </i>
   </energy>
  </scstep>
  <scstep>
   <time name="diag">    0.13    0.13</time>
   <time name="diis">    0.69    0.69</time>
   <time name="orth">    0.02    0.02</time>
   <time name="total">    1.23    1.25</time>
   <energy>
    <i name="e_fr_energy">   -366.31599483 </i>
    <i name="e_wo_entrp">   -366.34501995 </i>
    <i name="e_0_energy">   -366.32566987 </i>
   </energy>
  </scstep>
  <scstep>
   <time name="diag">    0.13    0.13</time>
   <time name="diis">    0.64    0.65</time>
   <time name="orth">    0.02    0.02</time>
   <time name="total">    1.18    1.20</time>
   <energy>
    <i name="e_fr_energy">   -366.31599912 </i>
    <i name="e_wo_entrp">   -366.34502955 </i>
    <i name="e_0_energy">   -366.32567593 </i>
   </energy>
  </scstep>
  <scstep>
   <time name="diag">    0.13    0.13</time>
   <time name="diis">    0.46    0.46</time>
   <time name="orth">    0.02    0.02</time>
   <time name="total">    1.00    1.02</time>
   <energy>
    <i name="e_fr_energy">   -366.31600164 </i>
    <i name="e_wo_entrp">   -366.34503416 </i>
    <i name="e_0_energy">   -366.32567915 </i>
   </energy>
  </scstep>
  <scstep>
   <time name="diag">    0.13    0.13</time>
   <time name="diis">    0.44    0.44</time>
   <time name="orth">    0.02    0.02</time>
   <time name="total">    0.74    0.76</time>
   <energy>
    <i name="alphaZ">    113.27984240 </i>
    <i name="ewald">  -7439.25473752 </i>
    <i name="hartreedc">   -449.19422718 </i>
    <i name="XCdc">   -531.98968972 </i>
    <i name="pawpsdc">  31052.78225553 </i>
    <i name="pawaedc"> -29954.54011887 </i>
    <i name="eentropy">      0.02903334 </i>
    <i name="bandstr">    277.77577885 </i>
    <i name="atom">   6564.79586099 </i>
    <i name="e_fr_energy">   -366.31600218 </i>
    <i name="e_wo_entrp">   -366.34503552 </i>
    <i name="e_0_energy">   -366.32567996 </i>
   </energy>
  </scstep>
  <structure>
   <crystal>
    <varray name="basis" >
     <v>      10.57027656      -0.08048401       0.00000000 </v>
     <v>      -0.08048401      10.73124558       0.00000000 </v>
     <v>       0.00000000       0.00000000      10.73124558 </v>
    </varray>
    <i name="volume">   1217.19964327 </i>
    <varray name="rec_basis" >
     <v>       0.09461031       0.00070957       0.00000000 </v>
     <v>       0.00070957       0.09319115       0.00000000 </v>
     <v>       0.00000000       0.00000000       0.09318583 </v>
    </varray>
   </crystal>
   <varray name="positions" >
    <v>       0.00000000       0.00000000       0.00000000 </v>
    <v>       0.00000000       0.00000000       0.50000000 </v>
    <v>       0.00000000       0.50000000       0.00000000 </v>
    <v>       0.00000000       0.50000000       0.50000000 </v>
    <v>       0.50000000       0.00000000       0.00000000 </v>
    <v>       0.50000000       0.00000000       0.50000000 </v>
    <v>       0.50000000       0.50000000       0.00000000 </v>
    <v>       0.50000000       0.50000000       0.50000000 </v>
    <v>       0.37500000       0.37500000       0.12500000 </v>
    <v>       0.37500000       0.37500000       0.62500000 </v>
    <v>       0.37500000       0.87500000       0.12500000 </v>
    <v>       0.37500000       0.87500000       0.62500000 </v>
    <v>       0.87500000       0.37500000       0.12500000 </v>
    <v>       0.87500000       0.37500000       0.62500000 </v>
    <v>       0.87500000       0.87500000       0.12500000 </v>
    <v>       0.87500000       0.87500000       0.62500000 </v>
    <v>       0.00000000       0.25000000       0.25000000 </v>
    <v>       0.00000000       0.25000000       0.75000000 </v>
    <v>       0.00000000       0.75000000       0.25000000 </v>
    <v>       0.00000000       0.75000000       0.75000000 </v>
    <v>       0.50000000       0.25000000       0.25000000 </v>
    <v>       0.50000000       0.25000000       0.75000000 </v>
    <v>       0.50000000       0.75000000       0.25000000 </v>
    <v>       0.50000000       0.75000000       0.75000000 </v>
    <v>       0.37500000       0.12500000       0.37500000 </v>
    <v>       0.37500000       0.12500000       0.87500000 </v>
    <v>       0.37500000       0.62500000       0.37500000 </v>
    <v>       0.37500000       0.62500000       0.87500000 </v>
    <v>       0.87500000       0.12500000       0.37500000 </v>
    <v>       0.87500000       0.12500000       0.87500000 </v>
    <v>       0.87500000       0.62500000       0.37500000 </v>
    <v>       0.87500000       0.62500000       0.87500000 </v>
    <v>       0.25000000       0.00000000       0.25000000 </v>
    <v>       0.25000000       0.00000000       0.75000000 </v>
    <v>       0.25000000       0.50000000       0.25000000 </v>
    <v>       0.25000000       0.50000000       0.75000000 </v>
    <v>       0.75000000       0.00000000       0.25000000 </v>
    <v>       0.75000000       0.00000000       0.75000000 </v>
    <v>       0.75000000       0.50000000       0.25000000 </v>
    <v>       0.75000000       0.50000000       0.75000000 </v>
    <v>       0.12500000       0.37500000       0.37500000 </v>
    <v>       0.12500000       0.37500000       0.87500000 </v>
    <v>       0.12500000       0.87500000       0.37500000 </v>
    <v>       0.12500000       0.87500000       0.87500000 </v>
    <v>       0.62500000       0.37500000       0.37500000 </v>
    <v>       0.62500000       0.37500000       0.87500000 </v>
    <v>       0.62500000       0.87500000       0.37500000 </v>
    <v>       0.62500000       0.87500000       0.87500000 </v>
    <v>       0.25000000       0.25000000       0.00000000 </v>
    <v>       0.25000000       0.25000000       0.50000000 </v>
    <v>       0.25000000       0.75000000       0.00000000 </v>
    <v>       0.25000000       0.75000000       0.50000000 </v>
    <v>       0.75000000       0.25000000       0.00000000 </v>
    <v>       0.75000000       0.25000000       0.50000000 </v>
    <v>       0.75000000       0.75000000       0.00000000 </v>
    <v>       0.75000000       0.75000000       0.50000000 </v>
    <v>       0.12500000       0.12500000       0.12500000 </v>
    <v>       0.12500000       0.12500000       0.62500000 </v>
    <v>       0.12500000       0.62500000       0.12500000 </v>
    <v>       0.12500000       0.62500000       0.62500000 </v>
    <v>       0.62500000       0.12500000       0.12500000 </v>
    <v>       0.62500000       0.12500000       0.62500000 </v>
    <v>       0.62500000       0.62500000       0.12500000 </v>
    <v>       0.62500000       0.62500000       0.62500000 </v>
   </varray>
  </structure>
  <varray name="forces" >
   <v>       0.00000000      -0.00000000      -0.18630762 </v>
   <v>       0.00000000      -0.00000000      -0.18630762 </v>
   <v>      -0.00000000      -0.00000000      -0.18630762 </v>
   <v>      -0.00000000       0.00000000      -0.18630762 </v>
   <v>       0.00000000      -0.00000000      -0.18630762 </v>
   <v>       0.00000000       0.00000000      -0.18630762 </v>
   <v>       0.00000000       0.00000000      -0.18630762 </v>
   <v>      -0.00000000       0.00000000      -0.18630762 </v>
   <v>       0.00000000       0.00000000       0.18630762 </v>
   <v>       0.00000000      -0.00000000       0.18630762 </v>
   <v>       0.00000000       0.00000000       0.18630762 </v>
   <v>      -0.00000000      -0.00000000       0.18630762 </v>
   <v>       0.00000000       0.00000000       0.18630762 </v>
   <v>      -0.00000000      -0.00000000       0.18630762 </v>
   <v>      -0.00000000      -0.00000000       0.18630762 </v>
   <v>      -0.00000000       0.00000000       0.18630762 </v>
   <v>      -0.00000000      -0.00000000      -0.18630762 </v>
   <v>       0.00000000      -0.00000000      -0.18630762 </v>
   <v>      -0.00000000      -0.00000000      -0.18630762 </v>
   <v>      -0.00000000       0.00000000      -0.18630762 </v>
   <v>       0.00000000       0.00000000      -0.18630762 </v>
   <v>       0.00000000       0.00000000      -0.18630762 </v>
   <v>       0.00000000       0.00000000      -0.18630762 </v>
   <v>      -0.00000000       0.00000000      -0.18630762 </v>
   <v>      -0.00000000       0.00000000       0.18630762 </v>
   <v>      -0.00000000       0.00000000       0.18630762 </v>
   <v>       0.00000000      -0.00000000       0.18630762 </v>
   <v>       0.00000000       0.00000000       0.18630762 </v>
   <v>      -0.00000000       0.00000000       0.18630762 </v>
   <v>      -0.00000000       0.00000000       0.18630762 </v>
   <v>       0.00000000      -0.00000000       0.18630762 </v>
   <v>       0.00000000      -0.00000000       0.18630762 </v>
   <v>       0.00000000      -0.00000000      -0.18630762 </v>
   <v>       0.00000000      -0.00000000      -0.18630762 </v>
   <v>      -0.00000000       0.00000000      -0.18630762 </v>
   <v>      -0.00000000      -0.00000000      -0.18630762 </v>
   <v>      -0.00000000      -0.00000000      -0.18630762 </v>
   <v>       0.00000000      -0.00000000      -0.18630762 </v>
   <v>      -0.00000000       0.00000000      -0.18630762 </v>
   <v>      -0.00000000      -0.00000000      -0.18630762 </v>
   <v>       0.00000000       0.00000000       0.18630762 </v>
   <v>       0.00000000       0.00000000       0.18630762 </v>
   <v>      -0.00000000      -0.00000000       0.18630762 </v>
   <v>       0.00000000      -0.00000000       0.18630762 </v>
   <v>       0.00000000      -0.00000000       0.18630762 </v>
   <v>      -0.00000000      -0.00000000       0.18630762 </v>
   <v>      -0.00000000       0.00000000       0.18630762 </v>
   <v>      -0.00000000       0.00000000       0.18630762 </v>
   <v>       0.00000000       0.00000000      -0.18630762 </v>
   <v>       0.00000000      -0.00000000      -0.18630762 </v>
   <v>       0.00000000       0.00000000      -0.18630762 </v>
   <v>      -0.00000000      -0.00000000      -0.18630762 </v>
   <v>      -0.00000000      -0.00000000      -0.18630762 </v>
   <v>       0.00000000      -0.00000000      -0.18630762 </v>
   <v>      -0.00000000      -0.00000000      -0.18630762 </v>
   <v>       0.00000000       0.00000000      -0.18630762 </v>
   <v>      -0.00000000       0.00000000       0.18630762 </v>
   <v>      -0.00000000       0.00000000       0.18630762 </v>
   <v>       0.00000000      -0.00000000       0.18630762 </v>
   <v>       0.00000000      -0.00000000       0.18630762 </v>
   <v>      -0.00000000       0.00000000       0.18630762 </v>
   <v>      -0.00000000       0.00000000       0.18630762 </v>
   <v>       0.00000000      -0.00000000       0.18630762 </v>
   <v>       0.00000000      -0.00000000       0.18630762 </v>
  </varray>
  <varray name="stress" >
   <v>      65.65982481      18.11031607       0.00000000 </v>
   <v>      18.11031608      53.12034203       0.00000000 </v>
   <v>       0.00000000       0.00000000      53.01879540 </v>
  </varray>
  <energy>
   <i name="e_fr_energy">   -366.31600218 </i>
   <i name="e_wo_entrp">   -366.34503552 </i>
   <i name="e_0_energy">   -366.32567996 </i>
  </energy>
  <time name="totalsc">   27.17   27.64</time>
 </calculation>
 <calculation>
  <scstep>
   <time name="dav">    1.26    1.27</time>
   <time name="total">    1.67    1.70</time>
   <energy>
    <i name="alphaZ">    113.27984240 </i>
    <i name="ewald">  -7439.82736228 </i>
    <i name="hartreedc">   -448.89750714 </i>
    <i name="XCdc">   -532.00046425 </i>
    <i name="pawpsdc">  31060.56964776 </i>
    <i name="pawaedc"> -29962.32721982 </i>
    <i name="eentropy">      0.01929090 </i>
    <i name="bandstr">    278.04841446 </i>
    <i name="atom">   6564.79586099 </i>
    <i name="e_fr_energy">   -366.33949699 </i>
    <i name="e_wo_entrp">   -366.35878789 </i>
    <i name="e_0_energy">   -366.34592729 </i>
   </energy>
  </scstep>
  <scstep>
   <time name="diag">    0.13    0.13</time>
   <time name="diis">    0.69    0.69</time>
   <time name="orth">    0.02    0.02</time>
   <time name="total">    1.22    1.24</time>
   <energy>
    <i name="e_fr_energy">   -366.34644468 </i>
    <i name="e_wo_entrp">   -366.36577139 </i>
    <i name="e_0_energy">   -366.35288692 </i>
   </energy>
  </scstep>
  <scstep>
   <time name="diag">    0.13    0.13</time>
   <time name="diis">    0.70    0.70</time>
   <time name="orth">    0.02    0.02</time>
   <time name="total">    1.23    1.25</time>
   <energy>
    <i name="e_fr_energy">   -366.34729405 </i>
    <i name="e_wo_entrp">   -366.36699478 </i>
    <i name="e_0_energy">   -366.35386096 </i>
   </energy>
  </scstep>
  <scstep>
   <time name="diag">    0.13    0.13</time>
   <time name="diis">    0.70    0.70</time>
   <time name="orth">    0.02    0.02</time>
   <time name="total">    1.23    1.25</time>
   <energy>
    <i name="e_fr_energy">   -366.34726901 </i>
    <i name="e_wo_entrp">   -366.36726484 </i>
    <i name="e_0_energy">   -366.35393428 </i>
   </energy>
  </scstep>
  <scstep>
   <time name="diag">    0.13    0.13</time>
   <time name="diis">    0.70    0.71</time>
   <time name="orth">    0.02    0.02</time>
   <time name="total">    1.24    1.26</time>
   <energy>
    <i name="e_fr_energy">   -366.34728238 </i>
    <i name="e_wo_entrp">   -366.36738430 </i>
    <i name="e_0_energy">   -366.35398302 </i>
   </energy>
  </scstep>
  <scstep>
   <time name="diag">    0.13    0.13</time>
   <time name="diis">    0.73    0.73</time>
   <time name="orth">    0.02    0.02</time>
   <time name="total">    1.27    1.28</time>
   <energy>
    <i name="e_fr_energy">   -366.34728838 </i>
    <i name="e_wo_entrp">   -366.36738649 </i>
    <i name="e_0_energy">   -366.35398775 </i>
   </energy>
  </scstep>
  <scstep>
   <time name="diag">    0.13    0.13</time>
   <time name="diis">    0.60    0.60</time>
   <time name="orth">    0.02    0.02</time>
   <time name="total">    1.13    1.15</time>
   <energy>
    <i name="e_fr_energy">   -366.34728924 </i>
    <i name="e_wo_entrp">   -366.36738421 </i>
    <i name="e_0_energy">   -366.35398757 </i>
   </energy>
  </scstep>
  <scstep>
   <time name="diag">    0.13    0.13</time>
   <time name="diis">    0.47    0.47</time>
   <time name="orth">    0.02    0.02</time>
   <time name="total">    0.77    0.79</time>
   <energy>
    <i name="alphaZ">    113.27984240 </i>
    <i name="ewald">  -7439.82736228 </i>
    <i name="hartreedc">   -448.72983902 </i>
    <i name="XCdc">   -532.02586365 </i>
    <i name="pawpsdc">  31031.52171241 </i>
    <i name="pawaedc"> -29933.26497079 </i>
    <i name="eentropy">      0.02009605 </i>
    <i name="bandstr">    277.88323457 </i>
    <i name="atom">   6564.79586099 </i>
    <i name="e_fr_energy">   -366.34728932 </i>
    <i name="e_wo_entrp">   -366.36738537 </i>
    <i name="e_0_energy">   -366.35398800 </i>
   </energy>
  </scstep>
  <structure>
   <crystal>
    <varray name="basis" >
     <v>      10.57027656      -0.08048401       0.00000000 </v>
     <v>      -0.08048401      10.73124558       0.00000000 </v>
     <v>       0.00000000       0.00000000      10.73124558 </v>
    </varray>
    <i name="volume">   1217.19964327 </i>
    <varray name="rec_basis" >
     <v>       0.09461031       0.00070957       0.00000000 </v>
     <v>       0.00070957       0.09319115       0.00000000 </v>
     <v>       0.00000000       0.00000000       0.09318583 </v>
    </varray>
   </crystal>
   <varray name="positions" >
    <v>       0.00000000       1.00000000       0.99916245 </v>
    <v>       0.00000000       1.00000000       0.49916245 </v>
    <v>       1.00000000       0.50000000       0.99916245 </v>
    <v>       1.00000000       0.50000000       0.49916245 </v>
    <v>       0.50000000       1.00000000       0.99916245 </v>
    <v>       0.50000000       0.00000000       0.49916245 </v>
    <v>       0.50000000       0.50000000       0.99916245 </v>
    <v>       0.50000000       0.50000000       0.49916245 </v>
    <v>       0.37500000       0.37500000       0.12583755 </v>
    <v>       0.37500000       0.37500000       0.62583755 </v>
    <v>       0.37500000       0.87500000       0.12583755 </v>
    <v>       0.37500000       0.87500000       0.62583755 </v>
    <v>       0.87500000       0.37500000       0.12583755 </v>
    <v>       0.87500000       0.37500000       0.62583755 </v>
    <v>       0.87500000       0.87500000       0.12583755 </v>
    <v>       0.87500000       0.87500000       0.62583755 </v>
    <v>       1.00000000       0.25000000       0.24916245 </v>
    <v>       0.00000000       0.25000000       0.74916245 </v>
    <v>       1.00000000       0.75000000       0.24916245 </v>
    <v>       1.00000000       0.75000000       0.74916245 </v>
    <v>       0.50000000       0.25000000       0.24916245 </v>
    <v>       0.50000000       0.25000000       0.74916245 </v>
    <v>       0.50000000       0.75000000       0.24916245 </v>
    <v>       0.50000000       0.75000000       0.74916245 </v>
    <v>       0.37500000       0.12500000       0.37583755 </v>
    <v>       0.37500000       0.12500000       0.87583755 </v>
    <v>       0.37500000       0.62500000       0.37583755 </v>
    <v>       0.37500000       0.62500000       0.87583755 </v>
    <v>       0.87500000       0.12500000       0.37583755 </v>
    <v>       0.87500000       0.12500000       0.87583755 </v>
    <v>       0.87500000       0.62500000       0.37583755 </v>
    <v>       0.87500000       0.62500000       0.87583755 </v>
    <v>       0.25000000       1.00000000       0.24916245 </v>
    <v>       0.25000000       1.00000000       0.74916245 </v>
    <v>       0.25000000       0.50000000       0.24916245 </v>
    <v>       0.25000000       0.50000000       0.74916245 </v>
    <v>       0.75000000       1.00000000       0.24916245 </v>
    <v>       0.75000000       1.00000000       0.74916245 </v>
    <v>       0.75000000       0.50000000       0.24916245 </v>
    <v>       0.75000000       0.50000000       0.74916245 </v>
    <v>       0.12500000       0.37500000       0.37583755 </v>
    <v>       0.12500000       0.37500000       0.87583755 </v>
    <v>       0.12500000       0.87500000       0.37583755 </v>
    <v>       0.12500000       0.87500000       0.87583755 </v>
    <v>       0.62500000       0.37500000       0.37583755 </v>
    <v>       0.62500000       0.37500000       0.87583755 </v>
    <v>       0.62500000       0.87500000       0.37583755 </v>
    <v>       0.62500000       0.87500000       0.87583755 </v>
    <v>       0.25000000       0.25000000       0.99916245 </v>
    <v>       0.25000000       0.25000000       0.49916245 </v>
    <v>       0.25000000       0.75000000       0.99916245 </v>
    <v>       0.25000000       0.75000000       0.49916245 </v>
    <v>       0.75000000       0.25000000       0.99916245 </v>
    <v>       0.75000000       0.25000000       0.49916245 </v>
    <v>       0.75000000       0.75000000       0.99916245 </v>
    <v>       0.75000000       0.75000000       0.49916245 </v>
    <v>       0.12500000       0.12500000       0.12583755 </v>
    <v>       0.12500000       0.12500000       0.62583755 </v>
    <v>       0.12500000       0.62500000       0.12583755 </v>
    <v>       0.12500000       0.62500000       0.62583755 </v>
    <v>       0.62500000       0.12500000       0.12583755 </v>
    <v>       0.62500000       0.12500000       0.62583755 </v>
    <v>       0.62500000       0.62500000       0.12583755 </v>
    <v>       0.62500000       0.62500000       0.62583755 </v>
   </varray>
  </structure>
  <varray name="forces" >
   <v>      -0.00000000       0.00000000       0.07687455 </v>
   <v>      -0.00000000       0.00000000       0.07687455 </v>
   <v>       0.00000000      -0.00000000       0.07687455 </v>
   <v>       0.00000000      -0.00000000       0.07687455 </v>
   <v>      -0.00000000       0.00000000       0.07687455 </v>
   <v>      -0.00000000       0.00000000       0.07687455 </v>
   <v>       0.00000000       0.00000000       0.07687455 </v>
   <v>       0.00000000      -0.00000000       0.07687455 </v>
   <v>       0.00000000      -0.00000000      -0.07687455 </v>
   <v>      -0.00000000       0.00000000      -0.07687455 </v>
   <v>      -0.00000000       0.00000000      -0.07687455 </v>
   <v>       0.00000000      -0.00000000      -0.07687455 </v>
   <v>       0.00000000      -0.00000000      -0.07687455 </v>
   <v>       0.00000000      -0.00000000      -0.07687455 </v>
   <v>       0.00000000      -0.00000000      -0.07687455 </v>
   <v>       0.00000000      -0.00000000      -0.07687455 </v>
   <v>       0.00000000      -0.00000000       0.07687455 </v>
   <v>      -0.00000000      -0.00000000       0.07687455 </v>
   <v>       0.00000000      -0.00000000       0.07687455 </v>
   <v>       0.00000000      -0.00000000       0.07687455 </v>
   <v>       0.00000000       0.00000000       0.07687455 </v>
   <v>      -0.00000000       0.00000000       0.07687455 </v>
   <v>      -0.00000000       0.00000000       0.07687455 </v>
   <v>       0.00000000      -0.00000000       0.07687455 </v>
   <v>      -0.00000000      -0.00000000      -0.07687455 </v>
   <v>      -0.00000000      -0.00000000      -0.07687455 </v>
   <v>       0.00000000       0.00000000      -0.07687455 </v>
   <v>       0.00000000       0.00000000      -0.07687455 </v>
   <v>       0.00000000       0.00000000      -0.07687455 </v>
   <v>      -0.00000000       0.00000000      -0.07687455 </v>
   <v>      -0.00000000      -0.00000000      -0.07687455 </v>
   <v>      -0.00000000      -0.00000000      -0.07687455 </v>
   <v>      -0.00000000       0.00000000       0.07687455 </v>
   <v>      -0.00000000       0.00000000       0.07687455 </v>
   <v>       0.00000000      -0.00000000       0.07687455 </v>
   <v>       0.00000000      -0.00000000       0.07687455 </v>
   <v>      -0.00000000       0.00000000       0.07687455 </v>
   <v>      -0.00000000       0.00000000       0.07687455 </v>
   <v>       0.00000000      -0.00000000       0.07687455 </v>
   <v>       0.00000000      -0.00000000       0.07687455 </v>
   <v>      -0.00000000       0.00000000      -0.07687455 </v>
   <v>      -0.00000000      -0.00000000      -0.07687455 </v>
   <v>       0.00000000      -0.00000000      -0.07687455 </v>
   <v>      -0.00000000      -0.00000000      -0.07687455 </v>
   <v>      -0.00000000       0.00000000      -0.07687455 </v>
   <v>      -0.00000000       0.00000000      -0.07687455 </v>
   <v>       0.00000000      -0.00000000      -0.07687455 </v>
   <v>       0.00000000       0.00000000      -0.07687455 </v>
   <v>      -0.00000000      -0.00000000       0.07687455 </v>
   <v>      -0.00000000       0.00000000       0.07687455 </v>
   <v>       0.00000000      -0.00000000       0.07687455 </v>
   <v>       0.00000000      -0.00000000       0.07687455 </v>
   <v>      -0.00000000       0.00000000       0.07687455 </v>
   <v>      -0.00000000      -0.00000000       0.07687455 </v>
   <v>       0.00000000       0.00000000       0.07687455 </v>
   <v>       0.00000000      -0.00000000       0.07687455 </v>
   <v>       0.00000000       0.00000000      -0.07687455 </v>
   <v>       0.00000000      -0.00000000      -0.07687455 </v>
   <v>       0.00000000      -0.00000000      -0.07687455 </v>
   <v>      -0.00000000       0.00000000      -0.07687455 </v>
   <v>      -0.00000000      -0.00000000      -0.07687455 </v>
   <v>      -0.00000000       0.00000000      -0.07687455 </v>
   <v>       0.00000000       0.00000000      -0.07687455 </v>
   <v>      -0.00000000       0.00000000      -0.07687455 </v>
  </varray>
  <varray name="stress" >
   <v>      65.02231344       8.68068256       0.00000000 </v>
   <v>       8.68068257      52.85662314       0.00000000 </v>
   <v>       0.00000000       0.00000000      52.49925500 </v>
  </varray>
  <energy>
   <i name="e_fr_energy">   -366.34728932 </i>
   <i name="e_wo_entrp">   -366.36738537 </i>
   <i name="e_0_energy">   -366.35398800 </i>
  </energy>
  <time name="totalsc">   13.32   13.49</time>
 </calculation>
 <calculation>
  <scstep>
   <time name="dav">    1.26    1.27</time>
   <time name="total">    1.64    1.65</time>
   <energy>
    <i name="alphaZ">    113.27984240 </i>
    <i name="ewald">  -7439.68700837 </i>
    <i name="hartreedc">   -448.81300716 </i>
    <i name="XCdc">   -532.02204359 </i>
    <i name="pawpsdc">  31031.33099412 </i>
    <i name="pawaedc"> -29933.07424325 </i>
    <i name="eentropy">      0.02367375 </i>
    <i name="bandstr">    277.81281001 </i>
    <i name="atom">   6564.79586099 </i>
    <i name="e_fr_energy">   -366.35312109 </i>
    <i name="e_wo_entrp">   -366.37679484 </i>
    <i name="e_0_energy">   -366.36101234 </i>
   </energy>
  </scstep>
  <scstep>
   <time name="diag">    0.13    0.14</time>
   <time name="diis">    0.69    0.69</time>
   <time name="orth">    0.02    0.02</time>
   <time name="total">    1.23    1.24</time>
   <energy>
    <i name="e_fr_energy">   -366.35370756 </i>
    <i name="e_wo_entrp">   -366.37736636 </i>
    <i name="e_0_energy">   -366.36159383 </i>
   </energy>
  </scstep>
  <scstep>
   <time name="diag">    0.13    0.13</time>
   <time name="diis">    0.69    0.69</time>
   <time name="orth">    0.02    0.02</time>
   <time name="total">    1.22    1.24</time>
   <energy>
    <i name="e_fr_energy">   -366.35377731 </i>
    <i name="e_wo_entrp">   -366.37733324 </i>
    <i name="e_0_energy">   -366.36162929 </i>
   </energy>
  </scstep>
  <scstep>
   <time name="diag">    0.13    0.13</time>
   <time name="diis">    0.69    0.69</time>
   <time name="orth">    0.02    0.02</time>
   <time name="total">    1.22    1.24</time>
   <energy>
    <i name="e_fr_energy">   -366.35377568 </i>
    <i name="e_wo_entrp">   -366.37725391 </i>
    <i name="e_0_energy">   -366.36160176 </i>
   </energy>
  </scstep>
  <scstep>
   <time name="diag">    0.13    0.13</time>
   <time name="diis">    0.70    0.70</time>
   <time name="orth">    0.02    0.02</time>
   <time name="total">    1.23    1.25</time>
   <energy>
    <i name="e_fr_energy">   -366.35377677 </i>
    <i name="e_wo_entrp">   -366.37722655 </i>
    <i name="e_0_energy">   -366.36159337 </i>
   </energy>
  </scstep>
  <scstep>
   <time name="diag">    0.13    0.13</time>
   <time name="diis">    0.55    0.55</time>
   <time name="orth">    0.02    0.02</time>
   <time name="total">    1.09    1.10</time>
   <energy>
    <i name="e_fr_energy">   -366.35377717 </i>
    <i name="e_wo_entrp">   -366.37722787 </i>
    <i name="e_0_energy">   -366.36159407 </i>
   </energy>
  </scstep>
  <scstep>
   <time name="diag">    0.13    0.13</time>
   <time name="diis">    0.45    0.46</time>
   <time name="orth">    0.02    0.02</time>
   <time name="total">    0.99    1.01</time>
   <energy>
    <i name="e_fr_energy">   -366.35377727 </i>
    <i name="e_wo_entrp">   -366.37722892 </i>
    <i name="e_0_energy">   -366.36159449 </i>
   </energy>
  </scstep>
  <scstep>
   <time name="diag">    0.13    0.13</time>
   <time name="diis">    0.40    0.40</time>
   <time name="orth">    0.02    0.02</time>
   <time name="total">    0.70    0.71</time>
   <energy>
    <i name="alphaZ">    113.27984240 </i>
    <i name="ewald">  -7439.68700837 </i>
    <i name="hartreedc">   -448.87803848 </i>
    <i name="XCdc">   -532.01318933 </i>
    <i name="pawpsdc">  31039.64363881 </i>
    <i name="pawaedc"> -29941.39096101 </i>
    <i name="eentropy">      0.02345152 </i>
    <i name="bandstr">    277.87262617 </i>
    <i name="atom">   6564.79586099 </i>
    <i name="e_fr_energy">   -366.35377730 </i>
    <i name="e_wo_entrp">   -366.37722881 </i>
    <i name="e_0_energy">   -366.36159447 </i>
   </energy>
  </scstep>
  <structure>
   <crystal>
    <varray name="basis" >
     <v>      10.57027656      -0.08048401       0.00000000 </v>
     <v>      -0.08048401      10.73124558       0.00000000 </v>
     <v>       0.00000000       0.00000000      10.73124558 </v>
    </varray>
    <i name="volume">   1217.19964327 </i>
    <varray name="rec_basis" >
     <v>       0.09461031       0.00070957       0.00000000 </v>
     <v>       0.00070957       0.09319115       0.00000000 </v>
     <v>       0.00000000       0.00000000       0.09318583 </v>
    </varray>
   </crystal>
   <varray name="positions" >
    <v>       0.00000000       0.00000000       0.99940838 </v>
    <v>       0.00000000       0.00000000       0.49940838 </v>
    <v>       0.00000000       0.50000000       0.99940838 </v>
    <v>       0.00000000       0.50000000       0.49940838 </v>
    <v>       0.50000000       0.00000000       0.99940838 </v>
    <v>       0.50000000       0.00000000       0.49940838 </v>
    <v>       0.50000000       0.50000000       0.99940838 </v>
    <v>       0.50000000       0.50000000       0.49940838 </v>
    <v>       0.37500000       0.37500000       0.12559162 </v>
    <v>       0.37500000       0.37500000       0.62559162 </v>
    <v>       0.37500000       0.87500000       0.12559162 </v>
    <v>       0.37500000       0.87500000       0.62559162 </v>
    <v>       0.87500000       0.37500000       0.12559162 </v>
    <v>       0.87500000       0.37500000       0.62559162 </v>
    <v>       0.87500000       0.87500000       0.12559162 </v>
    <v>       0.87500000       0.87500000       0.62559162 </v>
    <v>       0.00000000       0.25000000       0.24940838 </v>
    <v>       0.00000000       0.25000000       0.74940838 </v>
    <v>       0.00000000       0.75000000       0.24940838 </v>
    <v>       0.00000000       0.75000000       0.74940838 </v>
    <v>       0.50000000       0.25000000       0.24940838 </v>
    <v>       0.50000000       0.25000000       0.74940838 </v>
    <v>       0.50000000       0.75000000       0.24940838 </v>
    <v>       0.50000000       0.75000000       0.74940838 </v>
    <v>       0.37500000       0.12500000       0.37559162 </v>
    <v>       0.37500000       0.12500000       0.87559162 </v>
    <v>       0.37500000       0.62500000       0.37559162 </v>
    <v>       0.37500000       0.62500000       0.87559162 </v>
    <v>       0.87500000       0.12500000       0.37559162 </v>
    <v>       0.87500000       0.12500000       0.87559162 </v>
    <v>       0.87500000       0.62500000       0.37559162 </v>
    <v>       0.87500000       0.62500000       0.87559162 </v>
    <v>       0.25000000       0.00000000       0.24940838 </v>
    <v>       0.25000000       0.00000000       0.74940838 </v>
    <v>       0.25000000       0.50000000       0.24940838 </v>
    <v>       0.25000000       0.50000000       0.74940838 </v>
    <v>       0.75000000       0.00000000       0.24940838 </v>
    <v>       0.75000000       0.00000000       0.74940838 </v>
    <v>       0.75000000       0.50000000       0.24940838 </v>
    <v>       0.75000000       0.50000000       0.74940838 </v>
    <v>       0.12500000       0.37500000       0.37559162 </v>
    <v>       0.12500000       0.37500000       0.87559162 </v>
    <v>       0.12500000       0.87500000       0.37559162 </v>
    <v>       0.12500000       0.87500000       0.87559162 </v>
    <v>       0.62500000       0.37500000       0.37559162 </v>
    <v>       0.62500000       0.37500000       0.87559162 </v>
    <v>       0.62500000       0.87500000       0.37559162 </v>
    <v>       0.62500000       0.87500000       0.87559162 </v>
    <v>       0.25000000       0.25000000       0.99940838 </v>
    <v>       0.25000000       0.25000000       0.49940838 </v>
    <v>       0.25000000       0.75000000       0.99940838 </v>
    <v>       0.25000000       0.75000000       0.49940838 </v>
    <v>       0.75000000       0.25000000       0.99940838 </v>
    <v>       0.75000000       0.25000000       0.49940838 </v>
    <v>       0.75000000       0.75000000       0.99940838 </v>
    <v>       0.75000000       0.75000000       0.49940838 </v>
    <v>       0.12500000       0.12500000       0.12559162 </v>
    <v>       0.12500000       0.12500000       0.62559162 </v>
    <v>       0.12500000       0.62500000       0.12559162 </v>
    <v>       0.12500000       0.62500000       0.62559162 </v>
    <v>       0.62500000       0.12500000       0.12559162 </v>
    <v>       0.62500000       0.12500000       0.62559162 </v>
    <v>       0.62500000       0.62500000       0.12559162 </v>
    <v>       0.62500000       0.62500000       0.62559162 </v>
   </varray>
  </structure>
  <varray name="forces" >
   <v>       0.00000000      -0.00000000      -0.00013360 </v>
   <v>       0.00000000       0.00000000      -0.00013360 </v>
   <v>      -0.00000000      -0.00000000      -0.00013360 </v>
   <v>      -0.00000000       0.00000000      -0.00013360 </v>
   <v>       0.00000000      -0.00000000      -0.00013360 </v>
   <v>       0.00000000       0.00000000      -0.00013360 </v>
   <v>       0.00000000       0.00000000      -0.00013360 </v>
   <v>      -0.00000000       0.00000000      -0.00013360 </v>
   <v>       0.00000000       0.00000000       0.00013360 </v>
   <v>       0.00000000      -0.00000000       0.00013360 </v>
   <v>      -0.00000000       0.00000000       0.00013360 </v>
   <v>      -0.00000000      -0.00000000       0.00013360 </v>
   <v>       0.00000000      -0.00000000       0.00013360 </v>
   <v>       0.00000000      -0.00000000       0.00013360 </v>
   <v>      -0.00000000       0.00000000       0.00013360 </v>
   <v>      -0.00000000      -0.00000000       0.00013360 </v>
   <v>      -0.00000000       0.00000000      -0.00013360 </v>
   <v>      -0.00000000      -0.00000000      -0.00013360 </v>
   <v>      -0.00000000       0.00000000      -0.00013360 </v>
   <v>      -0.00000000       0.00000000      -0.00013360 </v>
   <v>       0.00000000      -0.00000000      -0.00013360 </v>
   <v>       0.00000000      -0.00000000      -0.00013360 </v>
   <v>       0.00000000      -0.00000000      -0.00013360 </v>
   <v>       0.00000000      -0.00000000      -0.00013360 </v>
   <v>      -0.00000000       0.00000000       0.00013360 </v>
   <v>      -0.00000000      -0.00000000       0.00013360 </v>
   <v>       0.00000000       0.00000000       0.00013360 </v>
   <v>       0.00000000      -0.00000000       0.00013360 </v>
   <v>      -0.00000000       0.00000000       0.00013360 </v>
   <v>      -0.00000000       0.00000000       0.00013360 </v>
   <v>       0.00000000      -0.00000000       0.00013360 </v>
   <v>       0.00000000      -0.00000000       0.00013360 </v>
   <v>       0.00000000      -0.00000000      -0.00013360 </v>
   <v>      -0.00000000      -0.00000000      -0.00013360 </v>
   <v>      -0.00000000       0.00000000      -0.00013360 </v>
   <v>      -0.00000000       0.00000000      -0.00013360 </v>
   <v>       0.00000000       0.00000000      -0.00013360 </v>
   <v>       0.00000000       0.00000000      -0.00013360 </v>
   <v>      -0.00000000       0.00000000      -0.00013360 </v>
   <v>      -0.00000000      -0.00000000      -0.00013360 </v>
   <v>       0.00000000      -0.00000000       0.00013360 </v>
   <v>       0.00000000      -0.00000000       0.00013360 </v>
   <v>       0.00000000       0.00000000       0.00013360 </v>
   <v>      -0.00000000       0.00000000       0.00013360 </v>
   <v>       0.00000000       0.00000000       0.00013360 </v>
   <v>       0.00000000       0.00000000       0.00013360 </v>
   <v>      -0.00000000      -0.00000000       0.00013360 </v>
   <v>      -0.00000000      -0.00000000       0.00013360 </v>
   <v>       0.00000000       0.00000000      -0.00013360 </v>
   <v>      -0.00000000      -0.00000000      -0.00013360 </v>
   <v>      -0.00000000      -0.00000000      -0.00013360 </v>
   <v>      -0.00000000      -0.00000000      -0.00013360 </v>
   <v>       0.00000000       0.00000000      -0.00013360 </v>
   <v>       0.00000000       0.00000000      -0.00013360 </v>
   <v>      -0.00000000      -0.00000000      -0.00013360 </v>
   <v>      -0.00000000       0.00000000      -0.00013360 </v>
   <v>      -0.00000000       0.00000000       0.00013360 </v>
   <v>      -0.00000000       0.00000000       0.00013360 </v>
   <v>       0.00000000       0.00000000       0.00013360 </v>
   <v>       0.00000000      -0.00000000       0.00013360 </v>
   <v>      -0.00000000       0.00000000       0.00013360 </v>
   <v>      -0.00000000       0.00000000       0.00013360 </v>
   <v>       0.00000000      -0.00000000       0.00013360 </v>
   <v>       0.00000000      -0.00000000       0.00013360 </v>
  </varray>
  <varray name="stress" >
   <v>      65.18816542      11.45788176       0.00000000 </v>
   <v>      11.45788177      52.87395965       0.00000000 </v>
   <v>       0.00000000       0.00000000      52.68557611 </v>
  </varray>
  <energy>
   <i name="e_fr_energy">   -366.35377730 </i>
   <i name="e_wo_entrp">   -366.37722881 </i>
   <i name="e_0_energy">   -366.36159447 </i>
  </energy>
  <time name="totalsc">   12.72   12.89</time>
  <eigenvalues>
   <array>
    <dimension dim="1">band</dimension>
    <dimension dim="2">kpoint</dimension>
    <dimension dim="3">spin</dimension>
    <field>eigene</field>
    <field>occ</field>
    <set>
     <set comment="spin 1">
      <set comment="kpoint 1">
       <r>   -6.0284    1.0000 </r>
       <r>   -4.9034    1.0000 </r>
       <r>   -4.9034    1.0000 </r>
       <r>   -4.9031    1.0000 </r>
       <r>   -4.9031    1.0000 </r>
       <r>   -4.8734    1.0000 </r>
       <r>   -4.8734    1.0000 </r>
       <r>   -3.9038    1.0000 </r>
       <r>   -3.9038    1.0000 </r>
       <r>   -3.8884    1.0000 </r>
       <r>   -3.8884    1.0000 </r>
       <r>   -3.8884    1.0000 </r>
       <r>   -3.8884    1.0000 </r>
       <r>   -3.8669    1.0000 </r>
       <r>   -3.8669    1.0000 </r>
       <r>   -3.8669    1.0000 </r>
       <r>   -3.8669    1.0000 </r>
       <r>   -3.8294    1.0000 </r>
       <r>   -3.8294    1.0000 </r>
       <r>   -3.5823    1.0000 </r>
       <r>   -3.5823    1.0000 </r>
       <r>   -3.5051    1.0000 </r>
       <r>   -3.5051    1.0000 </r>
       <r>   -1.7313    1.0000 </r>
       <r>   -1.7082    1.0000 </r>
       <r>   -1.7082    1.0000 </r>
       <r>   -1.6877    1.0000 </r>
       <r>   -1.6115    1.0000 </r>
       <r>   -1.6115    1.0000 </r>
       <r>   -1.5430    1.0000 </r>
       <r>   -1.5430    1.0000 </r>
       <r>   -1.5099    1.0000 </r>
       <r>   -1.5099    1.0000 </r>
       <r>   -1.4704    1.0000 </r>
       <r>   -1.4704    1.0000 </r>
       <r>   -1.4703    1.0000 </r>
       <r>   -1.4703    1.0000 </r>
       <r>   -1.4625    1.0000 </r>
       <r>   -1.4625    1.0000 </r>
       <r>   -1.4321    1.0000 </r>
       <r>   -1.4321    1.0000 </r>
       <r>   -0.9624    1.0000 </r>
       <r>   -0.9624    1.0000 </r>
       <r>   -0.9229    1.0000 </r>
       <r>   -0.9229    1.0000 </r>
       <r>    0.6988    1.0000 </r>
       <r>    0.6988    1.0000 </r>
       <r>    0.7120    1.0000 </r>
       <r>    0.7120    1.0000 </r>
       <r>    0.7120    1.0000 </r>
       <r>    0.7120    1.0000 </r>
       <r>    0.7267    1.0000 </r>
       <r>    0.7267    1.0000 </r>
       <r>    0.7706    1.0000 </r>
       <r>    0.7706    1.0000 </r>
       <r>    0.7706    1.0000 </r>
       <r>    0.7706    1.0000 </r>
       <r>    2.1666    1.0000 </r>
       <r>    2.1666    1.0000 </r>
       <r>    2.1758    1.0000 </r>
       <r>    2.1758    1.0000 </r>
       <r>    2.1965    1.0000 </r>
       <r>    2.1965    1.0000 </r>
       <r>    2.1965    1.0000 </r>
       <r>    2.1965    1.0000 </r>
       <r>    2.2054    1.0000 </r>
       <r>    2.2054    1.0000 </r>
       <r>    2.2176    1.0000 </r>
       <r>    2.2176    1.0000 </r>
       <r>    2.2742    1.0000 </r>
       <r>    2.2742    1.0000 </r>
       <r>    2.2905    1.0000 </r>
       <r>    2.2905    1.0000 </r>
       <r>    2.2905    1.0000 </r>
       <r>    2.2905    1.0000 </r>
       <r>    2.3020    1.0000 </r>
       <r>    2.3020    1.0000 </r>
       <r>    2.3788    1.0000 </r>
       <r>    2.3788    1.0000 </r>
       <r>    2.3788    1.0000 </r>
       <r>    2.3788    1.0000 </r>
       <r>    2.7723    1.0000 </r>
       <r>    2.7724    1.0000 </r>
       <r>    2.7749    1.0000 </r>
       <r>    2.7749    1.0000 </r>
       <r>    2.8867    1.0000 </r>
       <r>    2.8868    1.0000 </r>
       <r>    3.2328    1.0000 </r>
       <r>    3.2328    1.0000 </r>
       <r>    3.2467    1.0000 </r>
       <r>    3.3544    1.0000 </r>
       <r>    3.3544    1.0000 </r>
       <r>    3.4647    1.0000 </r>
       <r>    4.2467    1.0000 </r>
       <r>    4.2467    1.0000 </r>
       <r>    4.2562    1.0000 </r>
       <r>    4.2562    1.0000 </r>
       <r>    4.2575    1.0000 </r>
       <r>    4.2575    1.0000 </r>
       <r>    4.3334    1.0000 </r>
       <r>    4.3334    1.0000 </r>
       <r>    4.3680    1.0000 </r>
       <r>    4.3680    1.0000 </r>
       <r>    4.4572    1.0000 </r>
       <r>    4.4572    1.0000 </r>
       <r>    4.8461    1.0000 </r>
       <r>    4.8461    1.0000 </r>
       <r>    4.8461    1.0000 </r>
       <r>    4.8461    1.0000 </r>
       <r>    4.8943    1.0000 </r>
       <r>    4.8943    1.0000 </r>
       <r>    4.9654    1.0000 </r>
       <r>    4.9654    1.0000 </r>
       <r>    4.9707    1.0000 </r>
       <r>    4.9707    1.0000 </r>
       <r>    4.9707    1.0000 </r>
       <r>    4.9707    1.0000 </r>
       <r>    5.0280    1.0000 </r>
       <r>    5.0280    1.0000 </r>
       <r>    5.0510    1.0000 </r>
       <r>    5.0510    1.0000 </r>
       <r>    5.0983    1.0000 </r>
       <r>    5.0983    1.0000 </r>
       <r>    5.2184    1.0000 </r>
       <r>    5.2184    1.0000 </r>
       <r>    6.2434    1.0263 </r>
       <r>    6.2884    1.0346 </r>
       <r>    6.4464    0.8777 </r>
       <r>    6.7251   -0.0076 </r>
       <r>    6.7251   -0.0076 </r>
       <r>    6.7299   -0.0120 </r>
       <r>    6.8494   -0.0276 </r>
       <r>    6.8494   -0.0276 </r>
       <r>    6.9703   -0.0056 </r>
       <r>    7.2264   -0.0000 </r>
       <r>    7.2264   -0.0000 </r>
       <r>    7.3459   -0.0000 </r>
       <r>    7.3459   -0.0000 </r>
       <r>    7.3498   -0.0000 </r>
       <r>    7.3498   -0.0000 </r>
       <r>    7.8856   -0.0000 </r>
       <r>    7.8856   -0.0000 </r>
       <r>    8.0363   -0.0000 </r>
       <r>    8.0363   -0.0000 </r>
       <r>    8.6145   -0.0000 </r>
       <r>    8.6145   -0.0000 </r>
       <r>    8.6145   -0.0000 </r>
       <r>    8.6145   -0.0000 </r>
       <r>    8.6752   -0.0000 </r>
       <r>    8.6752   -0.0000 </r>
       <r>    8.7594   -0.0000 </r>
       <r>    8.7594   -0.0000 </r>
       <r>    8.7594   -0.0000 </r>
       <r>    8.7594   -0.0000 </r>
       <r>    8.7639   -0.0000 </r>
       <r>    8.8455   -0.0000 </r>
       <r>    8.8455   -0.0000 </r>
       <r>    8.8614   -0.0000 </r>
       <r>    8.9448   -0.0000 </r>
       <r>    9.3149   -0.0000 </r>
       <r>    9.3178   -0.0000 </r>
       <r>    9.3387   -0.0000 </r>
      </set>
      <set comment="kpoint 2">
       <r>   -5.7370    1.0000 </r>
       <r>   -5.7370    1.0000 </r>
       <r>   -4.6558    1.0000 </r>
       <r>   -4.6558    1.0000 </r>
       <r>   -4.6368    1.0000 </r>
       <r>   -4.6368    1.0000 </r>
       <r>   -4.6368    1.0000 </r>
       <r>   -4.6368    1.0000 </r>
       <r>   -4.6171    1.0000 </r>
       <r>   -4.6171    1.0000 </r>
       <r>   -3.7593    1.0000 </r>
       <r>   -3.7593    1.0000 </r>
       <r>   -3.7593    1.0000 </r>
       <r>   -3.7593    1.0000 </r>
       <r>   -3.7120    1.0000 </r>
       <r>   -3.7120    1.0000 </r>
       <r>   -3.7120    1.0000 </r>
       <r>   -3.7120    1.0000 </r>
       <r>   -3.4733    1.0000 </r>
       <r>   -3.4733    1.0000 </r>
       <r>   -2.7631    1.0000 </r>
       <r>   -2.7631    1.0000 </r>
       <r>   -2.7148    1.0000 </r>
       <r>   -2.7148    1.0000 </r>
       <r>   -2.7148    1.0000 </r>
       <r>   -2.7148    1.0000 </r>
       <r>   -2.6662    1.0000 </r>
       <r>   -2.6662    1.0000 </r>
       <r>   -1.6417    1.0000 </r>
       <r>   -1.6417    1.0000 </r>
       <r>   -1.6406    1.0000 </r>
       <r>   -1.6406    1.0000 </r>
       <r>   -1.5844    1.0000 </r>
       <r>   -1.5844    1.0000 </r>
       <r>   -1.5810    1.0000 </r>
       <r>   -1.5810    1.0000 </r>
       <r>   -0.3989    1.0000 </r>
       <r>   -0.3989    1.0000 </r>
       <r>   -0.3885    1.0000 </r>
       <r>   -0.3885    1.0000 </r>
       <r>   -0.3885    1.0000 </r>
       <r>   -0.3885    1.0000 </r>
       <r>   -0.3804    1.0000 </r>
       <r>   -0.3804    1.0000 </r>
       <r>   -0.3025    1.0000 </r>
       <r>   -0.3025    1.0000 </r>
       <r>   -0.3025    1.0000 </r>
       <r>   -0.3025    1.0000 </r>
       <r>   -0.2410    1.0000 </r>
       <r>   -0.2410    1.0000 </r>
       <r>   -0.2410    1.0000 </r>
       <r>   -0.2410    1.0000 </r>
       <r>    0.5754    1.0000 </r>
       <r>    0.5754    1.0000 </r>
       <r>    1.7640    1.0000 </r>
       <r>    1.7640    1.0000 </r>
       <r>    1.7713    1.0000 </r>
       <r>    1.7713    1.0000 </r>
       <r>    1.7713    1.0000 </r>
       <r>    1.7713    1.0000 </r>
       <r>    1.7777    1.0000 </r>
       <r>    1.7777    1.0000 </r>
       <r>    1.9341    1.0000 </r>
       <r>    1.9341    1.0000 </r>
       <r>    1.9525    1.0000 </r>
       <r>    1.9525    1.0000 </r>
       <r>    1.9525    1.0000 </r>
       <r>    1.9525    1.0000 </r>
       <r>    1.9779    1.0000 </r>
       <r>    1.9779    1.0000 </r>
       <r>    2.6181    1.0000 </r>
       <r>    2.6181    1.0000 </r>
       <r>    2.6818    1.0000 </r>
       <r>    2.6818    1.0000 </r>
       <r>    2.6973    1.0000 </r>
       <r>    2.6973    1.0000 </r>
       <r>    2.7631    1.0000 </r>
       <r>    2.7631    1.0000 </r>
       <r>    3.3965    1.0000 </r>
       <r>    3.3965    1.0000 </r>
       <r>    3.4230    1.0000 </r>
       <r>    3.4230    1.0000 </r>
       <r>    3.4230    1.0000 </r>
       <r>    3.4230    1.0000 </r>
       <r>    3.4428    1.0000 </r>
       <r>    3.4428    1.0000 </r>
       <r>    3.4936    1.0000 </r>
       <r>    3.4936    1.0000 </r>
       <r>    3.4940    1.0000 </r>
       <r>    3.4940    1.0000 </r>
       <r>    3.5667    1.0000 </r>
       <r>    3.5667    1.0000 </r>
       <r>    3.6237    1.0000 </r>
       <r>    3.6237    1.0000 </r>
       <r>    3.6237    1.0000 </r>
       <r>    3.6237    1.0000 </r>
       <r>    3.6822    1.0000 </r>
       <r>    3.6822    1.0000 </r>
       <r>    3.7567    1.0000 </r>
       <r>    3.7567    1.0000 </r>
       <r>    3.7567    1.0000 </r>
       <r>    3.7567    1.0000 </r>
       <r>    3.8747    1.0000 </r>
       <r>    3.8747    1.0000 </r>
       <r>    3.8747    1.0000 </r>
       <r>    3.8747    1.0000 </r>
       <r>    4.7938    1.0000 </r>
       <r>    4.7938    1.0000 </r>
       <r>    4.8335    1.0000 </r>
       <r>    4.8335    1.0000 </r>
       <r>    4.8336    1.0000 </r>
       <r>    4.8336    1.0000 </r>
       <r>    4.8757    1.0000 </r>
       <r>    4.8757    1.0000 </r>
       <r>    4.9001    1.0000 </r>
       <r>    4.9001    1.0000 </r>
       <r>    4.9001    1.0000 </r>
       <r>    4.9001    1.0000 </r>
       <r>    4.9413    1.0000 </r>
       <r>    4.9413    1.0000 </r>
       <r>    4.9413    1.0000 </r>
       <r>    4.9413    1.0000 </r>
       <r>    5.0838    1.0000 </r>
       <r>    5.0838    1.0000 </r>
       <r>    5.4129    1.0000 </r>
       <r>    5.4129    1.0000 </r>
       <r>    5.4307    1.0000 </r>
       <r>    5.4307    1.0000 </r>
       <r>    6.6477    0.1343 </r>
       <r>    6.6477    0.1343 </r>
       <r>    7.6032   -0.0000 </r>
       <r>    7.6032   -0.0000 </r>
       <r>    8.0881   -0.0000 </r>
       <r>    8.0881   -0.0000 </r>
       <r>    8.2055   -0.0000 </r>
       <r>    8.2055   -0.0000 </r>
       <r>    8.2181   -0.0000 </r>
       <r>    8.2181   -0.0000 </r>
       <r>    8.2524   -0.0000 </r>
       <r>    8.2524   -0.0000 </r>
       <r>    8.3841   -0.0000 </r>
       <r>    8.3841   -0.0000 </r>
       <r>    8.5900   -0.0000 </r>
       <r>    8.5900   -0.0000 </r>
       <r>    8.5900   -0.0000 </r>
       <r>    8.5900   -0.0000 </r>
       <r>    8.6740   -0.0000 </r>
       <r>    8.6740   -0.0000 </r>
       <r>    8.6741   -0.0000 </r>
       <r>    8.6741   -0.0000 </r>
       <r>    8.7303   -0.0000 </r>
       <r>    8.7303   -0.0000 </r>
       <r>    8.7688   -0.0000 </r>
       <r>    8.7688   -0.0000 </r>
       <r>    8.7689   -0.0000 </r>
[...]
      </set>
     </set>
    </set>
   </array>
  </eigenvalues>
  <separator name="orbital magnetization" >
   <v name="MAGDIPOLOUT">      0.00000000      0.00000000      0.00000000</v>
  </separator>
  <dos>
   <i name="efermi">      6.54924616 </i>
   <total>
    <array>
     <dimension dim="1">gridpoints</dimension>
     <dimension dim="2">spin</dimension>
     <field>energy</field>
     <field>total</field>
     <field>integrated</field>
     <set>
      <set comment="spin 1">
       <r>    -8.0284     0.0000     0.0000 </r>
       <r>    -7.9624     0.0000     0.0000 </r>
       <r>    -7.8963     0.0000     0.0000 </r>
       <r>    -7.8302     0.0000     0.0000 </r>
       <r>    -7.7642     0.0000     0.0000 </r>
       <r>    -7.6981     0.0000     0.0000 </r>
       <r>    -7.6321    -0.0000    -0.0000 </r>
       <r>    -7.5660    -0.0000    -0.0000 </r>
       <r>    -7.5000    -0.0000    -0.0000 </r>
       <r>    -7.4339    -0.0000    -0.0000 </r>
       <r>    -7.3678    -0.0000    -0.0000 </r>
       <r>    -7.3018    -0.0000    -0.0000 </r>
       <r>    -7.2357    -0.0000    -0.0000 </r>
       <r>    -7.1697    -0.0000    -0.0000 </r>
       <r>    -7.1036    -0.0000    -0.0000 </r>
       <r>    -7.0375    -0.0000    -0.0000 </r>
       <r>    -6.9715    -0.0000    -0.0000 </r>
       <r>    -6.9054    -0.0000    -0.0000 </r>
       <r>    -6.8394    -0.0000    -0.0000 </r>
       <r>    -6.7733    -0.0000    -0.0000 </r>
       <r>    -6.7073    -0.0000    -0.0000 </r>
       <r>    -6.6412    -0.0002    -0.0000 </r>
       <r>    -6.5751    -0.0012    -0.0001 </r>
       <r>    -6.5091    -0.0052    -0.0004 </r>
       <r>    -6.4430    -0.0171    -0.0016 </r>
       <r>    -6.3770    -0.0403    -0.0042 </r>
       <r>    -6.3109    -0.0594    -0.0082 </r>
       <r>    -6.2449    -0.0213    -0.0096 </r>
       <r>    -6.1788     0.1365    -0.0005 </r>
       <r>    -6.1127     0.3894     0.0252 </r>
       <r>    -6.0467     0.6089     0.0654 </r>
       <r>    -5.9806     0.8098     0.1189 </r>
       <r>    -5.9146     1.3936     0.2110 </r>
       <r>    -5.8485     2.7580     0.3931 </r>
       <r>    -5.7824     4.5001     0.6904 </r>
       <r>    -5.7164     5.6275     1.0622 </r>
       <r>    -5.6503     6.0691     1.4631 </r>
       <r>    -5.5843     7.1525     1.9355 </r>
       <r>    -5.5182     9.5649     2.5674 </r>
       <r>    -5.4522    11.7004     3.3403 </r>
       <r>    -5.3861    11.5745     4.1049 </r>
       <r>    -5.3200     9.6989     4.7456 </r>
       <r>    -5.2540     8.2293     5.2892 </r>
       <r>    -5.1879     7.7779     5.8030 </r>
       <r>    -5.1219     7.0839     6.2709 </r>
       <r>    -5.0558     5.5906     6.6402 </r>
       <r>    -4.9898     4.3250     6.9259 </r>
       <r>    -4.9237     4.1834     7.2023 </r>
       <r>    -4.8576     5.3024     7.5525 </r>
       <r>    -4.7916     8.3408     8.1035 </r>
       <r>    -4.7255    14.0633     9.0325 </r>
       <r>    -4.6595    20.8599    10.4105 </r>
       <r>    -4.5934    25.2895    12.0810 </r>
       <r>    -4.5273    26.3628    13.8225 </r>
       <r>    -4.4613    26.3812    15.5652 </r>
       <r>    -4.3952    26.1866    17.2950 </r>
       <r>    -4.3292    23.1481    18.8241 </r>
       <r>    -4.2631    15.6855    19.8603 </r>
       <r>    -4.1971     6.5926    20.2958 </r>
       <r>    -4.1310     0.2066    20.3094 </r>
       <r>    -4.0649    -1.3412    20.2208 </r>
       <r>    -3.9989     1.8315    20.3418 </r>
       <r>    -3.9328     8.7941    20.9227 </r>
       <r>    -3.8668    17.8845    22.1042 </r>
       <r>    -3.8007    26.2116    23.8356 </r>
       <r>    -3.7347    30.3774    25.8423 </r>
       <r>    -3.6686    28.6006    27.7316 </r>
       <r>    -3.6025    22.4186    29.2125 </r>
       <r>    -3.5365    15.9357    30.2652 </r>
       <r>    -3.4704    13.2579    31.1410 </r>
       <r>    -3.4044    16.3891    32.2236 </r>
       <r>    -3.3383    24.2744    33.8271 </r>
       <r>    -3.2722    33.1481    36.0168 </r>
       <r>    -3.2062    38.8958    38.5862 </r>
       <r>    -3.1401    39.9231    41.2235 </r>
       <r>    -3.0741    37.4438    43.6969 </r>
       <r>    -3.0080    33.3010    45.8967 </r>
       <r>    -2.9420    28.7648    47.7968 </r>
       <r>    -2.8759    25.3681    49.4726 </r>
       <r>    -2.8098    24.5010    51.0911 </r>
       <r>    -2.7438    24.8882    52.7352 </r>
       <r>    -2.6777    22.7514    54.2381 </r>
       <r>    -2.6117    16.2174    55.3094 </r>
       <r>    -2.5456     7.8175    55.8258 </r>
       <r>    -2.4796     1.4518    55.9217 </r>
       <r>    -2.4135    -1.4129    55.8283 </r>
       <r>    -2.3474    -1.6321    55.7205 </r>
       <r>    -2.2814    -0.0523    55.7171 </r>
       <r>    -2.2153     3.2812    55.9338 </r>
       <r>    -2.1493     7.7612    56.4465 </r>
       <r>    -2.0832    11.1612    57.1838 </r>
       <r>    -2.0171    11.0259    57.9121 </r>
       <r>    -1.9511     7.2962    58.3941 </r>
       <r>    -1.8850     2.9582    58.5895 </r>
       <r>    -1.8190     1.9959    58.7214 </r>
       <r>    -1.7529     6.8547    59.1742 </r>
       <r>    -1.6869    16.9187    60.2918 </r>
       <r>    -1.6208    28.1859    62.1537 </r>
       <r>    -1.5547    34.9066    64.4595 </r>
       <r>    -1.4887    33.2213    66.6541 </r>
       <r>    -1.4226    24.0899    68.2454 </r>
       <r>    -1.3566    12.6006    69.0778 </r>
       <r>    -1.2905     4.3452    69.3648 </r>
       <r>    -1.2244     2.1380    69.5060 </r>
       <r>    -1.1584     5.0912    69.8423 </r>
       <r>    -1.0923     9.7483    70.4863 </r>
       <r>    -1.0263    12.4070    71.3059 </r>
       <r>    -0.9602    11.7442    72.0817 </r>
       <r>    -0.8942    10.0580    72.7461 </r>
       <r>    -0.8281    11.2968    73.4923 </r>
       <r>    -0.7620    16.5158    74.5833 </r>
       <r>    -0.6960    21.5225    76.0051 </r>
       <r>    -0.6299    21.1903    77.4048 </r>
       <r>    -0.5639    16.6909    78.5074 </r>
       <r>    -0.4978    16.0382    79.5669 </r>
       <r>    -0.4318    25.8688    81.2757 </r>
       <r>    -0.3657    43.6471    84.1589 </r>
       <r>    -0.2996    58.6925    88.0360 </r>
       <r>    -0.2336    60.6216    92.0406 </r>
       <r>    -0.1675    47.4300    95.1737 </r>
       <r>    -0.1015    26.5166    96.9253 </r>
       <r>    -0.0354     8.3665    97.4780 </r>
       <r>     0.0307    -0.5118    97.4442 </r>
       <r>     0.0967     0.6279    97.4857 </r>
       <r>     0.1628     8.7547    98.0640 </r>
       <r>     0.2288    18.5619    99.2902 </r>
       <r>     0.2949    24.1141   100.8831 </r>
       <r>     0.3609    22.4283   102.3646 </r>
       <r>     0.4270    15.7025   103.4019 </r>
       <r>     0.4931     8.9104   103.9905 </r>
       <r>     0.5591     5.8341   104.3759 </r>
       <r>     0.6252     7.7661   104.8889 </r>
       <r>     0.6912    14.0922   105.8198 </r>
       <r>     0.7573    22.4099   107.3002 </r>
       <r>     0.8233    28.7299   109.1980 </r>
       <r>     0.8894    29.2964   111.1333 </r>
       <r>     0.9555    23.2903   112.6718 </r>
       <r>     1.0215    13.7316   113.5789 </r>
       <r>     1.0876     5.1654   113.9201 </r>
       <r>     1.1536     0.2751   113.9382 </r>
       <r>     1.2197    -1.2505   113.8556 </r>
       <r>     1.2858    -1.2252   113.7747 </r>
       <r>     1.3518    -1.1499   113.6988 </r>
       <r>     1.4179    -1.4846   113.6007 </r>
       <r>     1.4839    -1.4947   113.5019 </r>
       <r>     1.5500     0.7457   113.5512 </r>
       <r>     1.6160     7.3255   114.0351 </r>
       <r>     1.6821    18.1570   115.2345 </r>
       <r>     1.7482    29.7422   117.1992 </r>
       <r>     1.8142    37.5246   119.6780 </r>
       <r>     1.8803    39.4974   122.2871 </r>
       <r>     1.9463    36.6426   124.7077 </r>
       <r>     2.0124    31.0932   126.7616 </r>
       <r>     2.0784    25.6344   128.4550 </r>
       <r>     2.1445    23.1441   129.9838 </r>
       <r>     2.2106    23.7961   131.5558 </r>
       <r>     2.2766    24.1036   133.1480 </r>
       <r>     2.3427    21.2780   134.5536 </r>
       <r>     2.4087    18.1852   135.7548 </r>
       <r>     2.4748    22.1974   137.2212 </r>
       <r>     2.5409    38.0706   139.7360 </r>
       <r>     2.6069    61.5252   143.8003 </r>
       <r>     2.6730    80.1977   149.0979 </r>
       <r>     2.7390    82.2803   154.5332 </r>
       <r>     2.8051    65.7005   158.8733 </r>
       <r>     2.8711    39.3852   161.4750 </r>
       <r>     2.9372    15.5680   162.5033 </r>
       <r>     3.0033     1.0646   162.5737 </r>
       <r>     3.0693    -4.4871   162.2773 </r>
       <r>     3.1354    -3.8538   162.0227 </r>
       <r>     3.2014     2.4955   162.1875 </r>
       <r>     3.2675    16.0489   163.2477 </r>
       <r>     3.3335    35.8517   165.6160 </r>
       <r>     3.3996    56.0222   169.3167 </r>
       <r>     3.4657    69.4488   173.9043 </r>
       <r>     3.5317    73.4898   178.7589 </r>
       <r>     3.5978    70.3173   183.4039 </r>
       <r>     3.6638    62.7756   187.5508 </r>
       <r>     3.7299    52.7676   191.0365 </r>
       <r>     3.7960    43.3375   193.8993 </r>
       <r>     3.8620    38.7383   196.4582 </r>
       <r>     3.9281    40.3096   199.1210 </r>
       <r>     3.9941    43.6716   202.0059 </r>
       <r>     4.0602    42.3286   204.8020 </r>
       <r>     4.1262    34.4928   207.0805 </r>
       <r>     4.1923    25.1660   208.7429 </r>
       <r>     4.2584    20.9081   210.1241 </r>
       <r>     4.3244    23.4757   211.6748 </r>
       <r>     4.3905    29.3221   213.6118 </r>
       <r>     4.4565    34.1949   215.8706 </r>
       <r>     4.5226    36.5583   218.2856 </r>
       <r>     4.5886    37.1058   220.7367 </r>
       <r>     4.6547    37.3128   223.2015 </r>
       <r>     4.7208    38.9484   225.7744 </r>
       <r>     4.7868    42.9996   228.6149 </r>
       <r>     4.8529    48.1827   231.7977 </r>
       <r>     4.9189    51.4098   235.1937 </r>
       <r>     4.9850    49.8837   238.4889 </r>
       <r>     5.0511    42.5896   241.3023 </r>
       <r>     5.1171    30.8444   243.3398 </r>
       <r>     5.1832    18.2811   244.5474 </r>
       <r>     5.2492     9.5703   245.1796 </r>
       <r>     5.3153     7.8166   245.6960 </r>
       <r>     5.3813    12.3128   246.5093 </r>
       <r>     5.4474    18.7174   247.7458 </r>
       <r>     5.5135    22.0552   249.2027 </r>
       <r>     5.5795    20.1548   250.5341 </r>
       <r>     5.6456    14.4297   251.4873 </r>
       <r>     5.7116     7.9544   252.0127 </r>
       <r>     5.7777     3.4239   252.2389 </r>
       <r>     5.8437     2.3068   252.3913 </r>
       <r>     5.9098     4.4624   252.6861 </r>
       <r>     5.9759     8.0295   253.2165 </r>
       <r>     6.0419    10.4286   253.9054 </r>
       <r>     6.1080    10.2053   254.5795 </r>
       <r>     6.1740     7.9151   255.1024 </r>
       <r>     6.2401     5.1549   255.4429 </r>
       <r>     6.3062     3.0476   255.6442 </r>
       <r>     6.3722     1.7703   255.7611 </r>
       <r>     6.4383     1.1203   255.8352 </r>
       <r>     6.5043     1.1545   255.9114 </r>
       <r>     6.5704     2.2700   256.0614 </r>
       <r>     6.6364     4.6549   256.3689 </r>
       <r>     6.7025     7.5969   256.8707 </r>
       <r>     6.7686     9.5516   257.5017 </r>
       <r>     6.8346     9.2517   258.1128 </r>
       <r>     6.9007     6.8077   258.5625 </r>
       <r>     6.9667     3.6345   258.8026 </r>
       <r>     7.0328     1.4991   258.9016 </r>
       <r>     7.0988     1.7166   259.0150 </r>
       <r>     7.1649     4.6100   259.3195 </r>
       <r>     7.2310     9.0072   259.9145 </r>
       <r>     7.2970    12.5737   260.7451 </r>
       <r>     7.3631    13.6483   261.6467 </r>
       <r>     7.4291    13.1475   262.5152 </r>
       <r>     7.4952    14.0108   263.4407 </r>
       <r>     7.5613    17.9593   264.6271 </r>
       <r>     7.6273    22.9787   266.1450 </r>
       <r>     7.6934    24.9150   267.7908 </r>
       <r>     7.7594    21.7770   269.2294 </r>
       <r>     7.8255    16.0064   270.2867 </r>
       <r>     7.8915    12.5779   271.1176 </r>
       <r>     7.9576    15.0420   272.1112 </r>
       <r>     8.0237    22.8481   273.6205 </r>
       <r>     8.0897    31.9543   275.7314 </r>
       <r>     8.1558    37.8769   278.2334 </r>
       <r>     8.2218    38.3464   280.7665 </r>
       <r>     8.2879    34.2786   283.0309 </r>
       <r>     8.3539    29.4181   284.9742 </r>
       <r>     8.4200    28.3160   286.8447 </r>
       <r>     8.4861    33.3212   289.0458 </r>
       <r>     8.5521    43.2866   291.9052 </r>
       <r>     8.6182    54.8726   295.5300 </r>
       <r>     8.6842    64.3202   299.7789 </r>
       <r>     8.7503    68.3355   304.2930 </r>
       <r>     8.8164    64.9613   308.5842 </r>
       <r>     8.8824    54.7230   312.1991 </r>
       <r>     8.9485    40.6291   314.8829 </r>
       <r>     9.0145    26.6821   316.6455 </r>
       <r>     9.0806    16.4924   317.7350 </r>
       <r>     9.1466    12.4193   318.5554 </r>
       <r>     9.2127    14.1856   319.4924 </r>
       <r>     9.2788    18.0312   320.6835 </r>
       <r>     9.3448    18.9601   321.9360 </r>
       <r>     9.4109    14.9077   322.9208 </r>
       <r>     9.4769     8.1566   323.4596 </r>
       <r>     9.5430     2.5137   323.6256 </r>
       <r>     9.6090    -0.0492   323.6224 </r>
       <r>     9.6751    -0.0167   323.6213 </r>
       <r>     9.7412     1.0481   323.6905 </r>
       <r>     9.8072     1.8082   323.8100 </r>
       <r>     9.8733     1.7249   323.9239 </r>
       <r>     9.9393     1.0500   323.9933 </r>
       <r>    10.0054     0.3530   324.0166 </r>
       <r>    10.0715    -0.0250   324.0150 </r>
       <r>    10.1375    -0.1101   324.0077 </r>
       <r>    10.2036    -0.0739   324.0028 </r>
       <r>    10.2696    -0.0307   324.0008 </r>
       <r>    10.3357    -0.0092   324.0002 </r>
       <r>    10.4017    -0.0021   324.0000 </r>
       <r>    10.4678    -0.0004   324.0000 </r>
       <r>    10.5339    -0.0000   324.0000 </r>
       <r>    10.5999    -0.0000   324.0000 </r>
       <r>    10.6660    -0.0000   324.0000 </r>
       <r>    10.7320    -0.0000   324.0000 </r>
       <r>    10.7981    -0.0000   324.0000 </r>
       <r>    10.8642    -0.0000   324.0000 </r>
       <r>    10.9302    -0.0000   324.0000 </r>
       <r>    10.9963    -0.0000   324.0000 </r>
       <r>    11.0623    -0.0000   324.0000 </r>
       <r>    11.1284     0.0000   324.0000 </r>
       <r>    11.1944     0.0000   324.0000 </r>
       <r>    11.2605     0.0000   324.0000 </r>
       <r>    11.3266     0.0000   324.0000 </r>
       <r>    11.3926     0.0000   324.0000 </r>
       <r>    11.4587     0.0000   324.0000 </r>
       <r>    11.5247     0.0000   324.0000 </r>
       <r>    11.5908     0.0000   324.0000 </r>
       <r>    11.6568     0.0000   324.0000 </r>
       <r>    11.7229     0.0000   324.0000 </r>
       <r>    11.7890     0.0000   324.0000 </r>
      </set>
     </set>
    </array>
   </total>
  </dos>
 </calculation>
 <structure name="finalpos" >
  <crystal>
   <varray name="basis" >
    <v>      10.57027656      -0.08048401       0.00000000 </v>
    <v>      -0.08048401      10.73124558       0.00000000 </v>
    <v>       0.00000000       0.00000000      10.73124558 </v>
   </varray>
   <i name="volume">   1217.19964327 </i>
   <varray name="rec_basis" >
    <v>       0.09461031       0.00070957       0.00000000 </v>
    <v>       0.00070957       0.09319115       0.00000000 </v>
    <v>       0.00000000       0.00000000       0.09318583 </v>
   </varray>
  </crystal>
  <varray name="positions" >
   <v>       0.00000000       0.00000000       0.99940838 </v>
   <v>       0.00000000       0.00000000       0.49940838 </v>
   <v>       0.00000000       0.50000000       0.99940838 </v>
   <v>       0.00000000       0.50000000       0.49940838 </v>
   <v>       0.50000000       0.00000000       0.99940838 </v>
   <v>       0.50000000       0.00000000       0.49940838 </v>
   <v>       0.50000000       0.50000000       0.99940838 </v>
   <v>       0.50000000       0.50000000       0.49940838 </v>
   <v>       0.37500000       0.37500000       0.12559162 </v>
   <v>       0.37500000       0.37500000       0.62559162 </v>
   <v>       0.37500000       0.87500000       0.12559162 </v>
   <v>       0.37500000       0.87500000       0.62559162 </v>
   <v>       0.87500000       0.37500000       0.12559162 </v>
   <v>       0.87500000       0.37500000       0.62559162 </v>
   <v>       0.87500000       0.87500000       0.12559162 </v>
   <v>       0.87500000       0.87500000       0.62559162 </v>
   <v>       0.00000000       0.25000000       0.24940838 </v>
   <v>       0.00000000       0.25000000       0.74940838 </v>
   <v>       0.00000000       0.75000000       0.24940838 </v>
   <v>       0.00000000       0.75000000       0.74940838 </v>
   <v>       0.50000000       0.25000000       0.24940838 </v>
   <v>       0.50000000       0.25000000       0.74940838 </v>
   <v>       0.50000000       0.75000000       0.24940838 </v>
   <v>       0.50000000       0.75000000       0.74940838 </v>
   <v>       0.37500000       0.12500000       0.37559162 </v>
   <v>       0.37500000       0.12500000       0.87559162 </v>
   <v>       0.37500000       0.62500000       0.37559162 </v>
   <v>       0.37500000       0.62500000       0.87559162 </v>
   <v>       0.87500000       0.12500000       0.37559162 </v>
   <v>       0.87500000       0.12500000       0.87559162 </v>
   <v>       0.87500000       0.62500000       0.37559162 </v>
   <v>       0.87500000       0.62500000       0.87559162 </v>
   <v>       0.25000000       0.00000000       0.24940838 </v>
   <v>       0.25000000       0.00000000       0.74940838 </v>
   <v>       0.25000000       0.50000000       0.24940838 </v>
   <v>       0.25000000       0.50000000       0.74940838 </v>
   <v>       0.75000000       0.00000000       0.24940838 </v>
   <v>       0.75000000       0.00000000       0.74940838 </v>
   <v>       0.75000000       0.50000000       0.24940838 </v>
   <v>       0.75000000       0.50000000       0.74940838 </v>
   <v>       0.12500000       0.37500000       0.37559162 </v>
   <v>       0.12500000       0.37500000       0.87559162 </v>
   <v>       0.12500000       0.87500000       0.37559162 </v>
   <v>       0.12500000       0.87500000       0.87559162 </v>
   <v>       0.62500000       0.37500000       0.37559162 </v>
   <v>       0.62500000       0.37500000       0.87559162 </v>
   <v>       0.62500000       0.87500000       0.37559162 </v>
   <v>       0.62500000       0.87500000       0.87559162 </v>
   <v>       0.25000000       0.25000000       0.99940838 </v>
   <v>       0.25000000       0.25000000       0.49940838 </v>
   <v>       0.25000000       0.75000000       0.99940838 </v>
   <v>       0.25000000       0.75000000       0.49940838 </v>
   <v>       0.75000000       0.25000000       0.99940838 </v>
   <v>       0.75000000       0.25000000       0.49940838 </v>
   <v>       0.75000000       0.75000000       0.99940838 </v>
   <v>       0.75000000       0.75000000       0.49940838 </v>
   <v>       0.12500000       0.12500000       0.12559162 </v>
   <v>       0.12500000       0.12500000       0.62559162 </v>
   <v>       0.12500000       0.62500000       0.12559162 </v>
   <v>       0.12500000       0.62500000       0.62559162 </v>
   <v>       0.62500000       0.12500000       0.12559162 </v>
   <v>       0.62500000       0.12500000       0.62559162 </v>
   <v>       0.62500000       0.62500000       0.12559162 </v>
   <v>       0.62500000       0.62500000       0.62559162 </v>
  </varray>
 </structure>
</modeling>
