Si64                                    
           1
    10.570277   -0.080484    0.000000
    -0.080484   10.731246    0.000000
     0.000000    0.000000   10.731246
   Si
    64
Direct configuration=     1
   0.00000000  0.00000000  0.00000000
   0.00000000  0.00000000  0.50000000
   0.00000000  0.50000000  0.00000000
   0.00000000  0.50000000  0.50000000
   0.50000000  0.00000000  0.00000000
   0.50000000  0.00000000  0.50000000
   0.50000000  0.50000000  0.00000000
   0.50000000  0.50000000  0.50000000
   0.37500000  0.37500000  0.12500000
   0.37500000  0.37500000  0.62500000
   0.37500000  0.87500000  0.12500000
   0.37500000  0.87500000  0.62500000
   0.87500000  0.37500000  0.12500000
   0.87500000  0.37500000  0.62500000
   0.87500000  0.87500000  0.12500000
   0.87500000  0.87500000  0.62500000
   0.00000000  0.25000000  0.25000000
   0.00000000  0.25000000  0.75000000
   0.00000000  0.75000000  0.25000000
   0.00000000  0.75000000  0.75000000
   0.50000000  0.25000000  0.25000000
   0.50000000  0.25000000  0.75000000
   0.50000000  0.75000000  0.25000000
   0.50000000  0.75000000  0.75000000
   0.37500000  0.12500000  0.37500000
   0.37500000  0.12500000  0.87500000
   0.37500000  0.62500000  0.37500000
   0.37500000  0.62500000  0.87500000
   0.87500000  0.12500000  0.37500000
   0.87500000  0.12500000  0.87500000
   0.87500000  0.62500000  0.37500000
   0.87500000  0.62500000  0.87500000
   0.25000000  0.00000000  0.25000000
   0.25000000  0.00000000  0.75000000
   0.25000000  0.50000000  0.25000000
   0.25000000  0.50000000  0.75000000
   0.75000000  0.00000000  0.25000000
   0.75000000  0.00000000  0.75000000
   0.75000000  0.50000000  0.25000000
   0.75000000  0.50000000  0.75000000
   0.12500000  0.37500000  0.37500000
   0.12500000  0.37500000  0.87500000
   0.12500000  0.87500000  0.37500000
   0.12500000  0.87500000  0.87500000
   0.62500000  0.37500000  0.37500000
   0.62500000  0.37500000  0.87500000
   0.62500000  0.87500000  0.37500000
   0.62500000  0.87500000  0.87500000
   0.25000000  0.25000000  0.00000000
   0.25000000  0.25000000  0.50000000
   0.25000000  0.75000000  0.00000000
   0.25000000  0.75000000  0.50000000
   0.75000000  0.25000000  0.00000000
   0.75000000  0.25000000  0.50000000
   0.75000000  0.75000000  0.00000000
   0.75000000  0.75000000  0.50000000
   0.12500000  0.12500000  0.12500000
   0.12500000  0.12500000  0.62500000
   0.12500000  0.62500000  0.12500000
   0.12500000  0.62500000  0.62500000
   0.62500000  0.12500000  0.12500000
   0.62500000  0.12500000  0.62500000
   0.62500000  0.62500000  0.12500000
   0.62500000  0.62500000  0.62500000
Direct configuration=     2
   0.00000000  1.00000000  0.99916245
   0.00000000  1.00000000  0.49916245
   1.00000000  0.50000000  0.99916245
   1.00000000  0.50000000  0.49916245
   0.50000000  1.00000000  0.99916245
   0.50000000  0.00000000  0.49916245
   0.50000000  0.50000000  0.99916245
   0.50000000  0.50000000  0.49916245
   0.37500000  0.37500000  0.12583755
   0.37500000  0.37500000  0.62583755
   0.37500000  0.87500000  0.12583755
   0.37500000  0.87500000  0.62583755
   0.87500000  0.37500000  0.12583755
   0.87500000  0.37500000  0.62583755
   0.87500000  0.87500000  0.12583755
   0.87500000  0.87500000  0.62583755
   1.00000000  0.25000000  0.24916245
   0.00000000  0.25000000  0.74916245
   1.00000000  0.75000000  0.24916245
   1.00000000  0.75000000  0.74916245
   0.50000000  0.25000000  0.24916245
   0.50000000  0.25000000  0.74916245
   0.50000000  0.75000000  0.24916245
   0.50000000  0.75000000  0.74916245
   0.37500000  0.12500000  0.37583755
   0.37500000  0.12500000  0.87583755
   0.37500000  0.62500000  0.37583755
   0.37500000  0.62500000  0.87583755
   0.87500000  0.12500000  0.37583755
   0.87500000  0.12500000  0.87583755
   0.87500000  0.62500000  0.37583755
   0.87500000  0.62500000  0.87583755
   0.25000000  1.00000000  0.24916245
   0.25000000  1.00000000  0.74916245
   0.25000000  0.50000000  0.24916245
   0.25000000  0.50000000  0.74916245
   0.75000000  1.00000000  0.24916245
   0.75000000  1.00000000  0.74916245
   0.75000000  0.50000000  0.24916245
   0.75000000  0.50000000  0.74916245
   0.12500000  0.37500000  0.37583755
   0.12500000  0.37500000  0.87583755
   0.12500000  0.87500000  0.37583755
   0.12500000  0.87500000  0.87583755
   0.62500000  0.37500000  0.37583755
   0.62500000  0.37500000  0.87583755
   0.62500000  0.87500000  0.37583755
   0.62500000  0.87500000  0.87583755
   0.25000000  0.25000000  0.99916245
   0.25000000  0.25000000  0.49916245
   0.25000000  0.75000000  0.99916245
   0.25000000  0.75000000  0.49916245
   0.75000000  0.25000000  0.99916245
   0.75000000  0.25000000  0.49916245
   0.75000000  0.75000000  0.99916245
   0.75000000  0.75000000  0.49916245
   0.12500000  0.12500000  0.12583755
   0.12500000  0.12500000  0.62583755
   0.12500000  0.62500000  0.12583755
   0.12500000  0.62500000  0.62583755
   0.62500000  0.12500000  0.12583755
   0.62500000  0.12500000  0.62583755
   0.62500000  0.62500000  0.12583755
   0.62500000  0.62500000  0.62583755
Direct configuration=     3
   0.00000000  0.00000000  0.99940838
   0.00000000  0.00000000  0.49940838
   0.00000000  0.50000000  0.99940838
   0.00000000  0.50000000  0.49940838
   0.50000000  0.00000000  0.99940838
   0.50000000  0.00000000  0.49940838
   0.50000000  0.50000000  0.99940838
   0.50000000  0.50000000  0.49940838
   0.37500000  0.37500000  0.12559162
   0.37500000  0.37500000  0.62559162
   0.37500000  0.87500000  0.12559162
   0.37500000  0.87500000  0.62559162
   0.87500000  0.37500000  0.12559162
   0.87500000  0.37500000  0.62559162
   0.87500000  0.87500000  0.12559162
   0.87500000  0.87500000  0.62559162
   0.00000000  0.25000000  0.24940838
   0.00000000  0.25000000  0.74940838
   0.00000000  0.75000000  0.24940838
   0.00000000  0.75000000  0.74940838
   0.50000000  0.25000000  0.24940838
   0.50000000  0.25000000  0.74940838
   0.50000000  0.75000000  0.24940838
   0.50000000  0.75000000  0.74940838
   0.37500000  0.12500000  0.37559162
   0.37500000  0.12500000  0.87559162
   0.37500000  0.62500000  0.37559162
   0.37500000  0.62500000  0.87559162
   0.87500000  0.12500000  0.37559162
   0.87500000  0.12500000  0.87559162
   0.87500000  0.62500000  0.37559162
   0.87500000  0.62500000  0.87559162
   0.25000000  0.00000000  0.24940838
   0.25000000  0.00000000  0.74940838
   0.25000000  0.50000000  0.24940838
   0.25000000  0.50000000  0.74940838
   0.75000000  0.00000000  0.24940838
   0.75000000  0.00000000  0.74940838
   0.75000000  0.50000000  0.24940838
   0.75000000  0.50000000  0.74940838
   0.12500000  0.37500000  0.37559162
   0.12500000  0.37500000  0.87559162
   0.12500000  0.87500000  0.37559162
   0.12500000  0.87500000  0.87559162
   0.62500000  0.37500000  0.37559162
   0.62500000  0.37500000  0.87559162
   0.62500000  0.87500000  0.37559162
   0.62500000  0.87500000  0.87559162
   0.25000000  0.25000000  0.99940838
   0.25000000  0.25000000  0.49940838
   0.25000000  0.75000000  0.99940838
   0.25000000  0.75000000  0.49940838
   0.75000000  0.25000000  0.99940838
   0.75000000  0.25000000  0.49940838
   0.75000000  0.75000000  0.99940838
   0.75000000  0.75000000  0.49940838
   0.12500000  0.12500000  0.12559162
   0.12500000  0.12500000  0.62559162
   0.12500000  0.62500000  0.12559162
   0.12500000  0.62500000  0.62559162
   0.62500000  0.12500000  0.12559162
   0.62500000  0.12500000  0.62559162
   0.62500000  0.62500000  0.12559162
   0.62500000  0.62500000  0.62559162
