  64  64   0   0
  0.1959803E+02  0.1089251E-08  0.1073155E-08  0.1073125E-08  0.5000000E-15
  1.000000000000000E-004
  CAR 
 Si64                                    
     11.43988923     -8.12853096  301      6.26994291      1.00000000
     -8.129  0.0000E+00  0.0000E+00
     -8.063  0.0000E+00  0.0000E+00
     -7.998  0.0000E+00  0.0000E+00
     -7.933  0.0000E+00  0.0000E+00
     -7.868  0.0000E+00  0.0000E+00
     -7.802  0.0000E+00  0.0000E+00
     -7.737 -0.1163E-28 -0.7587E-30
     -7.672 -0.1894E-26 -0.1243E-27
     -7.607 -0.2499E-24 -0.1643E-25
     -7.541 -0.2660E-22 -0.1752E-23
     -7.476 -0.2283E-20 -0.1507E-21
     -7.411 -0.1579E-18 -0.1045E-19
     -7.346 -0.8802E-17 -0.5846E-18
     -7.281 -0.3845E-15 -0.2566E-16
     -7.215 -0.1380E-13 -0.9256E-15
     -7.150 -0.3992E-12 -0.2696E-13
     -7.085 -0.9272E-11 -0.6317E-12
     -7.020 -0.1727E-09 -0.1189E-10
     -6.954 -0.2574E-08 -0.1798E-09
     -6.889 -0.3063E-07 -0.2178E-08
     -6.824 -0.2902E-06 -0.2111E-07
     -6.759 -0.2178E-05 -0.1632E-06
     -6.694 -0.1286E-04 -0.1002E-05
     -6.628 -0.5912E-04 -0.4858E-05
     -6.563 -0.2077E-03 -0.1841E-04
     -6.498 -0.5384E-03 -0.5352E-04
     -6.433 -0.9444E-03 -0.1151E-03
     -6.367 -0.7861E-03 -0.1664E-03
     -6.302  0.1003E-02 -0.1010E-03
     -6.237  0.4683E-02  0.2045E-03
     -6.172  0.8710E-02  0.7726E-03
     -6.106  0.1220E-01  0.1568E-02
     -6.041  0.1957E-01  0.2845E-02
     -5.976  0.3814E-01  0.5332E-02
     -5.911  0.6629E-01  0.9656E-02
     -5.846  0.8996E-01  0.1552E-01
     -5.780  0.1017E+00  0.2216E-01
     -5.715  0.1167E+00  0.2977E-01
     -5.650  0.1513E+00  0.3964E-01
     -5.585  0.1902E+00  0.5205E-01
     -5.519  0.1998E+00  0.6508E-01
     -5.454  0.1756E+00  0.7654E-01
     -5.389  0.1476E+00  0.8616E-01
     -5.324  0.1345E+00  0.9494E-01
     -5.258  0.1230E+00  0.1030E+00
     -5.193  0.1000E+00  0.1095E+00
     -5.128  0.7695E-01  0.1145E+00
     -5.063  0.7059E-01  0.1191E+00
     -4.998  0.8723E-01  0.1248E+00
     -4.932  0.1363E+00  0.1337E+00
     -4.867  0.2286E+00  0.1486E+00
     -4.802  0.3424E+00  0.1709E+00
     -4.737  0.4253E+00  0.1987E+00
     -4.671  0.4545E+00  0.2283E+00
     -4.606  0.4577E+00  0.2582E+00
     -4.541  0.4487E+00  0.2874E+00
     -4.476  0.3924E+00  0.3130E+00
     -4.411  0.2666E+00  0.3304E+00
     -4.345  0.1145E+00  0.3379E+00
     -4.280  0.6549E-02  0.3383E+00
     -4.215 -0.1826E-01  0.3371E+00
     -4.150  0.4138E-01  0.3398E+00
     -4.084  0.1686E+00  0.3508E+00
     -4.019  0.3292E+00  0.3723E+00
     -3.954  0.4664E+00  0.4027E+00
     -3.889  0.5208E+00  0.4367E+00
     -3.823  0.4714E+00  0.4675E+00
     -3.758  0.3573E+00  0.4908E+00
     -3.693  0.2534E+00  0.5073E+00
     -3.628  0.2256E+00  0.5220E+00
     -3.563  0.2989E+00  0.5415E+00
     -3.497  0.4464E+00  0.5706E+00
     -3.432  0.5996E+00  0.6097E+00
     -3.367  0.6917E+00  0.6548E+00
     -3.302  0.7002E+00  0.7005E+00
     -3.236  0.6447E+00  0.7426E+00
     -3.171  0.5561E+00  0.7788E+00
     -3.106  0.4672E+00  0.8093E+00
     -3.041  0.4151E+00  0.8364E+00
     -2.976  0.4107E+00  0.8632E+00
     -2.910  0.4079E+00  0.8898E+00
     -2.845  0.3441E+00  0.9122E+00
     -2.780  0.2158E+00  0.9263E+00
     -2.715  0.8220E-01  0.9317E+00
     -2.649 -0.2499E-02  0.9315E+00
     -2.584 -0.3009E-01  0.9296E+00
     -2.519 -0.1624E-01  0.9285E+00
     -2.454  0.3043E-01  0.9305E+00
     -2.388  0.1024E+00  0.9372E+00
     -2.323  0.1707E+00  0.9483E+00
     -2.258  0.1925E+00  0.9608E+00
     -2.193  0.1496E+00  0.9706E+00
     -2.128  0.7395E-01  0.9754E+00
     -2.062  0.2847E-01  0.9773E+00
     -1.997  0.6757E-01  0.9817E+00
     -1.932  0.2064E+00  0.9952E+00
     -1.867  0.4030E+00  0.1021E+01
     -1.801  0.5644E+00  0.1058E+01
     -1.736  0.5988E+00  0.1097E+01
     -1.671  0.4844E+00  0.1129E+01
     -1.606  0.2888E+00  0.1148E+01
     -1.540  0.1161E+00  0.1155E+01
     -1.475  0.3553E-01  0.1158E+01
     -1.410  0.5205E-01  0.1161E+01
     -1.345  0.1206E+00  0.1169E+01
     -1.280  0.1797E+00  0.1181E+01
     -1.214  0.1896E+00  0.1193E+01
     -1.149  0.1589E+00  0.1203E+01
     -1.084  0.1389E+00  0.1212E+01
     -1.019  0.1812E+00  0.1224E+01
     -0.953  0.2815E+00  0.1243E+01
     -0.888  0.3692E+00  0.1267E+01
     -0.823  0.3801E+00  0.1291E+01
     -0.758  0.3456E+00  0.1314E+01
     -0.693  0.3758E+00  0.1339E+01
     -0.627  0.5411E+00  0.1374E+01
     -0.562  0.7879E+00  0.1425E+01
     -0.497  0.9672E+00  0.1488E+01
     -0.432  0.9416E+00  0.1550E+01
     -0.366  0.6953E+00  0.1595E+01
     -0.301  0.3565E+00  0.1618E+01
     -0.236  0.1003E+00  0.1625E+01
     -0.171  0.2715E-01  0.1627E+01
     -0.105  0.1208E+00  0.1635E+01
     -0.040  0.2823E+00  0.1653E+01
      0.025  0.3925E+00  0.1679E+01
      0.090  0.3839E+00  0.1704E+01
      0.155  0.2813E+00  0.1722E+01
      0.221  0.1651E+00  0.1733E+01
      0.286  0.9913E-01  0.1739E+01
      0.351  0.1027E+00  0.1746E+01
      0.416  0.1689E+00  0.1757E+01
      0.482  0.2782E+00  0.1775E+01
      0.547  0.3952E+00  0.1801E+01
      0.612  0.4681E+00  0.1831E+01
      0.677  0.4511E+00  0.1861E+01
      0.742  0.3404E+00  0.1883E+01
      0.808  0.1870E+00  0.1895E+01
      0.873  0.6016E-01  0.1899E+01
      0.938 -0.5364E-02  0.1899E+01
      1.003 -0.2099E-01  0.1897E+01
      1.069 -0.1624E-01  0.1896E+01
      1.134 -0.1244E-01  0.1895E+01
      1.199 -0.1792E-01  0.1894E+01
      1.264 -0.3067E-01  0.1892E+01
      1.330 -0.3294E-01  0.1890E+01
      1.395  0.1659E-01  0.1891E+01
      1.460  0.1684E+00  0.1902E+01
      1.525  0.4317E+00  0.1930E+01
      1.590  0.7237E+00  0.1978E+01
      1.656  0.8913E+00  0.2036E+01
      1.721  0.8264E+00  0.2090E+01
      1.786  0.5784E+00  0.2127E+01
      1.851  0.3283E+00  0.2149E+01
      1.917  0.2314E+00  0.2164E+01
      1.982  0.2888E+00  0.2183E+01
      2.047  0.3771E+00  0.2207E+01
      2.112  0.3879E+00  0.2233E+01
      2.178  0.3383E+00  0.2255E+01
      2.243  0.3575E+00  0.2278E+01
      2.308  0.5660E+00  0.2315E+01
      2.373  0.9449E+00  0.2377E+01
      2.438  0.1311E+01  0.2462E+01
      2.504  0.1434E+01  0.2556E+01
      2.569  0.1221E+01  0.2635E+01
      2.634  0.7833E+00  0.2686E+01
      2.699  0.3398E+00  0.2709E+01
      2.765  0.4678E-01  0.2712E+01
      2.830 -0.7694E-01  0.2707E+01
      2.895 -0.8551E-01  0.2701E+01
      2.960 -0.4164E-02  0.2701E+01
      3.025  0.1960E+00  0.2713E+01
      3.091  0.5282E+00  0.2748E+01
      3.156  0.9157E+00  0.2808E+01
      3.221  0.1217E+01  0.2887E+01
      3.286  0.1335E+01  0.2974E+01
      3.352  0.1273E+01  0.3057E+01
      3.417  0.1102E+01  0.3129E+01
      3.482  0.8993E+00  0.3188E+01
      3.547  0.7255E+00  0.3235E+01
      3.613  0.6331E+00  0.3276E+01
      3.678  0.6421E+00  0.3318E+01
      3.743  0.7029E+00  0.3364E+01
      3.808  0.7129E+00  0.3411E+01
      3.873  0.6148E+00  0.3451E+01
      3.939  0.4693E+00  0.3481E+01
      4.004  0.3942E+00  0.3507E+01
      4.069  0.4324E+00  0.3535E+01
      4.134  0.5186E+00  0.3569E+01
      4.200  0.5721E+00  0.3606E+01
      4.265  0.5821E+00  0.3644E+01
      4.330  0.5920E+00  0.3683E+01
      4.395  0.6367E+00  0.3724E+01
      4.460  0.7164E+00  0.3771E+01
      4.526  0.8085E+00  0.3824E+01
      4.591  0.8796E+00  0.3881E+01
      4.656  0.8936E+00  0.3940E+01
      4.721  0.8232E+00  0.3993E+01
      4.787  0.6650E+00  0.4037E+01
      4.852  0.4518E+00  0.4066E+01
      4.917  0.2502E+00  0.4082E+01
      4.982  0.1307E+00  0.4091E+01
      5.048  0.1265E+00  0.4099E+01
      5.113  0.2133E+00  0.4113E+01
      5.178  0.3226E+00  0.4134E+01
      5.243  0.3792E+00  0.4159E+01
      5.308  0.3427E+00  0.4181E+01
      5.374  0.2323E+00  0.4196E+01
      5.439  0.1109E+00  0.4204E+01
      5.504  0.4020E-01  0.4206E+01
      5.569  0.4286E-01  0.4209E+01
      5.635  0.9761E-01  0.4215E+01
      5.700  0.1584E+00  0.4226E+01
      5.765  0.1833E+00  0.4238E+01
      5.830  0.1598E+00  0.4248E+01
      5.896  0.1090E+00  0.4255E+01
      5.961  0.6330E-01  0.4259E+01
      6.026  0.3820E-01  0.4262E+01
      6.091  0.2703E-01  0.4264E+01
      6.156  0.1833E-01  0.4265E+01
      6.222  0.1308E-01  0.4266E+01
      6.287  0.2332E-01  0.4267E+01
      6.352  0.5614E-01  0.4271E+01
      6.417  0.1020E+00  0.4278E+01
      6.483  0.1397E+00  0.4287E+01
      6.548  0.1518E+00  0.4297E+01
      6.613  0.1334E+00  0.4305E+01
      6.678  0.9279E-01  0.4311E+01
      6.743  0.5070E-01  0.4315E+01
      6.809  0.3379E-01  0.4317E+01
      6.874  0.5944E-01  0.4321E+01
      6.939  0.1203E+00  0.4329E+01
      7.004  0.1858E+00  0.4341E+01
      7.070  0.2247E+00  0.4355E+01
      7.135  0.2310E+00  0.4370E+01
      7.200  0.2317E+00  0.4385E+01
      7.265  0.2662E+00  0.4403E+01
      7.331  0.3449E+00  0.4425E+01
      7.396  0.4251E+00  0.4453E+01
      7.461  0.4419E+00  0.4482E+01
      7.526  0.3749E+00  0.4506E+01
      7.591  0.2814E+00  0.4525E+01
      7.657  0.2498E+00  0.4541E+01
      7.722  0.3213E+00  0.4562E+01
      7.787  0.4622E+00  0.4592E+01
      7.852  0.6028E+00  0.4631E+01
      7.918  0.6863E+00  0.4676E+01
      7.983  0.6918E+00  0.4721E+01
      8.048  0.6433E+00  0.4763E+01
      8.113  0.6063E+00  0.4803E+01
      8.178  0.6452E+00  0.4845E+01
      8.244  0.7672E+00  0.4895E+01
      8.309  0.9168E+00  0.4955E+01
      8.374  0.1025E+01  0.5022E+01
      8.439  0.1050E+01  0.5090E+01
      8.505  0.9794E+00  0.5154E+01
      8.570  0.8235E+00  0.5208E+01
      8.635  0.6204E+00  0.5248E+01
      8.700  0.4302E+00  0.5276E+01
      8.766  0.3051E+00  0.5296E+01
      8.831  0.2610E+00  0.5313E+01
      8.896  0.2743E+00  0.5331E+01
      8.961  0.2976E+00  0.5350E+01
      9.026  0.2838E+00  0.5369E+01
      9.092  0.2158E+00  0.5383E+01
      9.157  0.1198E+00  0.5391E+01
      9.222  0.4060E-01  0.5394E+01
      9.287  0.4729E-02  0.5394E+01
      9.353  0.6313E-02  0.5394E+01
      9.418  0.2161E-01  0.5396E+01
      9.483  0.2996E-01  0.5398E+01
      9.548  0.2507E-01  0.5399E+01
      9.614  0.1321E-01  0.5400E+01
      9.679  0.3221E-02  0.5400E+01
      9.744 -0.1248E-02  0.5400E+01
      9.809 -0.1759E-02  0.5400E+01
      9.874 -0.1006E-02  0.5400E+01
      9.940 -0.3834E-03  0.5400E+01
     10.005 -0.1075E-03  0.5400E+01
     10.070 -0.2303E-04  0.5400E+01
     10.135 -0.3845E-05  0.5400E+01
     10.201 -0.5052E-06  0.5400E+01
     10.266 -0.5262E-07  0.5400E+01
     10.331 -0.4363E-08  0.5400E+01
     10.396 -0.2891E-09  0.5400E+01
     10.461 -0.1533E-10  0.5400E+01
     10.527 -0.6522E-12  0.5400E+01
     10.592 -0.2228E-13  0.5400E+01
     10.657 -0.5957E-15  0.5400E+01
     10.722 -0.1418E-16  0.5400E+01
     10.788  0.0000E+00  0.5400E+01
     10.853  0.0000E+00  0.5400E+01
     10.918  0.0000E+00  0.5400E+01
     10.983  0.0000E+00  0.5400E+01
     11.049  0.0000E+00  0.5400E+01
     11.114  0.0000E+00  0.5400E+01
     11.179  0.0000E+00  0.5400E+01
     11.244  0.0000E+00  0.5400E+01
     11.309  0.0000E+00  0.5400E+01
     11.375  0.0000E+00  0.5400E+01
     11.440  0.0000E+00  0.5400E+01
