       N       E                     dE             d eps       ncg     rms          rms(c)
DAV:   1     0.559507131370E+03    0.55951E+03   -0.84367E+04  2592   0.106E+03
DAV:   2    -0.310343218025E+03   -0.86985E+03   -0.82466E+03  3090   0.172E+02
DAV:   3    -0.373221230934E+03   -0.62878E+02   -0.61534E+02  3136   0.410E+01
DAV:   4    -0.374846995276E+03   -0.16258E+01   -0.16148E+01  3144   0.798E+00
DAV:   5    -0.374897431145E+03   -0.50436E-01   -0.50320E-01  3128   0.131E+00    0.289E+01
RMM:   6    -0.369585576802E+03    0.53119E+01   -0.26964E+00  2592   0.257E+00    0.174E+01
RMM:   7    -0.367187112201E+03    0.23985E+01   -0.68520E+00  2627   0.411E+00    0.997E-01
RMM:   8    -0.367232602410E+03   -0.45490E-01   -0.69024E-01  2634   0.158E+00    0.510E-01
RMM:   9    -0.367253278561E+03   -0.20676E-01   -0.19300E-01  2669   0.772E-01    0.582E-01
RMM:  10    -0.367257075935E+03   -0.37974E-02   -0.33783E-02  2741   0.361E-01    0.796E-01
RMM:  11    -0.367254038563E+03    0.30374E-02   -0.11960E-02  2592   0.219E-01    0.619E-01
RMM:  12    -0.367254183583E+03   -0.14502E-03   -0.17735E-03  2610   0.995E-02    0.595E-01
RMM:  13    -0.367254233501E+03   -0.49918E-04   -0.32739E-04  2748   0.404E-02    0.688E-01
RMM:  14    -0.367254274085E+03   -0.40584E-04   -0.96645E-05  2599   0.242E-02    0.296E-01
RMM:  15    -0.367254329054E+03   -0.54969E-04   -0.32261E-05  2640   0.124E-02    0.235E-01
RMM:  16    -0.367254363130E+03   -0.34076E-04   -0.21818E-05  2592   0.107E-02    0.128E-01
RMM:  17    -0.367254371792E+03   -0.86626E-05   -0.91254E-06  2590   0.709E-03    0.349E-02
RMM:  18    -0.367254372754E+03   -0.96161E-06   -0.22635E-06  1668   0.343E-03
   1 F= -.36725437E+03 E0= -.36726418E+03  d E =-.367254E+03
       N       E                     dE             d eps       ncg     rms          rms(c)
DAV:   1    -0.367275110444E+03   -0.20739E-01   -0.10694E+00  2944   0.198E+00    0.451E-01
RMM:   2    -0.367280480926E+03   -0.53705E-02   -0.56007E-02  2593   0.495E-01    0.183E-01
RMM:   3    -0.367281315307E+03   -0.83438E-03   -0.89595E-03  2641   0.223E-01    0.779E-02
RMM:   4    -0.367281320370E+03   -0.50626E-05   -0.12377E-03  2662   0.931E-02    0.279E-02
RMM:   5    -0.367281329800E+03   -0.94299E-05   -0.21809E-04  2672   0.373E-02    0.644E-03
RMM:   6    -0.367281335081E+03   -0.52817E-05   -0.52451E-05  2794   0.164E-02    0.122E-03
RMM:   7    -0.367281335678E+03   -0.59630E-06   -0.62769E-06  2021   0.568E-03    0.151E-03
RMM:   8    -0.367281335782E+03   -0.10398E-06   -0.12798E-06  1607   0.247E-03
   2 F= -.36728134E+03 E0= -.36728967E+03  d E =-.269630E-01
       N       E                     dE             d eps       ncg     rms          rms(c)
DAV:   1    -0.367284586958E+03   -0.32513E-02   -0.71229E-02  2960   0.510E-01    0.116E-01
RMM:   2    -0.367284937295E+03   -0.35034E-03   -0.36281E-03  2592   0.127E-01    0.475E-02
RMM:   3    -0.367284990144E+03   -0.52850E-04   -0.57006E-04  2641   0.570E-02    0.199E-02
RMM:   4    -0.367284990656E+03   -0.51123E-06   -0.78294E-05  2666   0.237E-02    0.716E-03
RMM:   5    -0.367284991285E+03   -0.62916E-06   -0.13427E-05  2552   0.929E-03    0.156E-03
RMM:   6    -0.367284991554E+03   -0.26922E-06   -0.30236E-06  1780   0.410E-03    0.299E-04
RMM:   7    -0.367284991600E+03   -0.46493E-07   -0.50107E-07  1522   0.163E-03    0.262E-04
RMM:   8    -0.367284991620E+03   -0.19708E-07   -0.12943E-07  1120   0.827E-04
   3 F= -.36728499E+03 E0= -.36729389E+03  d E =-.306189E-01
