 vasp.6.4.3 19Mar24 (build Oct 21 2024 22:36:34) complex                        
  
 executed on             LinuxIFC date 2024.11.01  22:52:01
 running   96 mpi-ranks, on    1 nodes
 distrk:  each k-point on   24 cores,    4 groups
 distr:  one band on NCORE=  12 cores,    2 groups


--------------------------------------------------------------------------------------------------------


 INCAR:
   SYSTEM = Si64
   ISTART = 0
   ICHARG = 2
   LREAL = Auto
   PREC = Accurate
   LWAVE = .False.
   LCHARG = .False.
   ADDGRID = .True.
   ENCUT = 400
   GGA = PS
   GGA_COMPAT = .FALSE.
   ISMEAR = 1
   SIGMA = 0.2
   NELM = 60
   NELMIN = 8
   EDIFF = 1e-06
   EDIFFG = -0.01
   NSW = 60
   IBRION = 2
   ISIF = 2
   KPAR = 4
   NPAR = 2
   ALGO = Fast

 POTCAR:    PAW_PBE Si 05Jan2001                  
 POTCAR:    PAW_PBE Si 05Jan2001                  
   VRHFIN =Si: s2p2                                                                                 
   LEXCH  = PE                                                                                      
   EATOM  =   103.0669 eV,    7.5752 Ry                                                             
                                                                                                    
   TITEL  = PAW_PBE Si 05Jan2001                                                                    
   LULTRA =        F    use ultrasoft PP ?                                                          
   IUNSCR =        1    unscreen: 0-lin 1-nonlin 2-no                                               
   RPACOR =    1.500    partial core radius                                                         
   POMASS =   28.085; ZVAL   =    4.000    mass and valenz                                          
   RCORE  =    1.900    outmost cutoff radius                                                       
   RWIGS  =    2.480; RWIGS  =    1.312    wigner-seitz radius (au A)                               
   ENMAX  =  245.345; ENMIN  =  184.009 eV                                                          
   ICORE  =        2    local potential                                                             
   LCOR   =        T    correct aug charges                                                         
   LPAW   =        T    paw PP                                                                      
   EAUG   =  322.069                                                                                
   DEXC   =    0.000                                                                                
   RMAX   =    1.950    core radius for proj-oper                                                   
   RAUG   =    1.300    factor for augmentation sphere                                              
   RDEP   =    1.993    radius for radial grids                                                     
   RDEPT  =    1.837    core radius for aug-charge                                                  
                                                                                                    
   Atomic configuration                                                                             
    6 entries                                                                                       
     n  l   j            E        occ.                                                              
     1  0  0.50     -1785.8828   2.0000                                                             
     2  0  0.50      -139.4969   2.0000                                                             
     2  1  1.50       -95.5546   6.0000                                                             
     3  0  0.50       -10.8127   2.0000                                                             
     3  1  0.50        -4.0811   2.0000                                                             
     3  2  1.50        -4.0817   0.0000                                                             
   Description                                                                                      
     l       E           TYP  RCUT    TYP  RCUT                                                     
     0    -10.8127223     23  1.900                                                                 
     0     -7.6451159     23  1.900                                                                 
     1     -4.0811372     23  1.900                                                                 
     1      2.4879257     23  1.900                                                                 
     2     -4.0817478      7  1.900                                                                 
  local pseudopotential read in
  partial core-charges read in
  partial kinetic energy density read in
  atomic valenz-charges read in
  non local Contribution for L=           0  read in
    real space projection operators read in
  non local Contribution for L=           0  read in
    real space projection operators read in
  non local Contribution for L=           1  read in
    real space projection operators read in
  non local Contribution for L=           1  read in
    real space projection operators read in
    PAW grid and wavefunctions read in
 
   number of l-projection  operators is LMAX  =           4
   number of lm-projection operators is LMMAX =           8
 
 Optimization of the real space projectors (new method)

 maximal supplied QI-value         = 19.84
 optimisation between [QCUT,QGAM] = [ 10.12, 20.44] = [ 28.68,116.96] Ry 
 Optimized for a Real-space Cutoff    1.38 Angstroem

   l    n(q)    QCUT    max X(q) W(low)/X(q) W(high)/X(q)  e(spline) 
   0      8    10.119   159.560    0.58E-04    0.11E-03    0.54E-07
   0      8    10.119   115.863    0.56E-04    0.11E-03    0.54E-07
   1      8    10.119    88.339    0.22E-03    0.17E-03    0.19E-06
   1      8    10.119    48.592    0.22E-03    0.17E-03    0.18E-06
 -----------------------------------------------------------------------------
|                                                                             |
|               ----> ADVICE to this user running VASP <----                  |
|                                                                             |
|     You enforced a specific xc type in the INCAR file but a different       |
|     type was found in the POTCAR file.                                      |
|     I HOPE YOU KNOW WHAT YOU ARE DOING!                                     |
|                                                                             |
 -----------------------------------------------------------------------------

  PAW_PBE Si 05Jan2001                  :
 energy of atom  1       EATOM= -103.0669
 kinetic energy error for atom=    0.0012 (will be added to EATOM!!)
 
 
 POSCAR: Si8
  positions in direct lattice
  velocities in cartesian coordinates


 exchange-correlation table for PS
   RHO(1)=    0.500       N(1)  =     2000
   RHO(2)=  100.500       N(2)  =     4000
 


--------------------------------------------------------------------------------------------------------


 ion  position               nearest neighbor table
   1  0.000  0.000  0.000-  30 2.32  44 2.32  15 2.35  57 2.35
   2  0.000  0.000  0.500-  29 2.32  43 2.32  16 2.35  58 2.35
   3  0.000  0.500  0.000-  32 2.32  42 2.32  13 2.35  59 2.35
   4  0.000  0.500  0.500-  31 2.32  41 2.32  14 2.35  60 2.35
   5  0.500  0.000  0.000-  26 2.32  48 2.32  11 2.35  61 2.35
   6  0.500  0.000  0.500-  25 2.32  47 2.32  12 2.35  62 2.35
   7  0.500  0.500  0.000-  28 2.32  46 2.32   9 2.35  63 2.35
   8  0.500  0.500  0.500-  27 2.32  45 2.32  10 2.35  64 2.35
   9  0.375  0.375  0.125-  21 2.32  35 2.32   7 2.35  49 2.35
  10  0.375  0.375  0.625-  22 2.32  36 2.32   8 2.35  50 2.35
  11  0.375  0.875  0.125-  23 2.32  33 2.32   5 2.35  51 2.35
  12  0.375  0.875  0.625-  24 2.32  34 2.32   6 2.35  52 2.35
  13  0.875  0.375  0.125-  17 2.32  39 2.32   3 2.35  53 2.35
  14  0.875  0.375  0.625-  18 2.32  40 2.32   4 2.35  54 2.35
  15  0.875  0.875  0.125-  19 2.32  37 2.32   1 2.35  55 2.35
  16  0.875  0.875  0.625-  20 2.32  38 2.32   2 2.35  56 2.35
  17  0.000  0.250  0.250-  13 2.32  57 2.32  41 2.35  29 2.35
  18  0.000  0.250  0.750-  14 2.32  58 2.32  42 2.35  30 2.35
  19  0.000  0.750  0.250-  15 2.32  59 2.32  43 2.35  31 2.35
  20  0.000  0.750  0.750-  16 2.32  60 2.32  44 2.35  32 2.35
  21  0.500  0.250  0.250-   9 2.32  61 2.32  45 2.35  25 2.35
  22  0.500  0.250  0.750-  10 2.32  62 2.32  46 2.35  26 2.35
  23  0.500  0.750  0.250-  11 2.32  63 2.32  47 2.35  27 2.35
  24  0.500  0.750  0.750-  12 2.32  64 2.32  48 2.35  28 2.35
  25  0.375  0.125  0.375-   6 2.32  50 2.32  33 2.35  21 2.35
  26  0.375  0.125  0.875-   5 2.32  49 2.32  34 2.35  22 2.35
  27  0.375  0.625  0.375-   8 2.32  52 2.32  35 2.35  23 2.35
  28  0.375  0.625  0.875-   7 2.32  51 2.32  36 2.35  24 2.35
  29  0.875  0.125  0.375-   2 2.32  54 2.32  37 2.35  17 2.35
  30  0.875  0.125  0.875-   1 2.32  53 2.32  38 2.35  18 2.35
  31  0.875  0.625  0.375-   4 2.32  56 2.32  39 2.35  19 2.35
  32  0.875  0.625  0.875-   3 2.32  55 2.32  40 2.35  20 2.35
  33  0.250  0.000  0.250-  11 2.32  57 2.32  43 2.35  25 2.35
  34  0.250  0.000  0.750-  12 2.32  58 2.32  44 2.35  26 2.35
  35  0.250  0.500  0.250-   9 2.32  59 2.32  41 2.35  27 2.35
  36  0.250  0.500  0.750-  10 2.32  60 2.32  42 2.35  28 2.35
  37  0.750  0.000  0.250-  15 2.32  61 2.32  47 2.35  29 2.35
  38  0.750  0.000  0.750-  16 2.32  62 2.32  48 2.35  30 2.35
  39  0.750  0.500  0.250-  13 2.32  63 2.32  45 2.35  31 2.35
  40  0.750  0.500  0.750-  14 2.32  64 2.32  46 2.35  32 2.35
  41  0.125  0.375  0.375-   4 2.32  50 2.32  35 2.35  17 2.35
  42  0.125  0.375  0.875-   3 2.32  49 2.32  36 2.35  18 2.35
  43  0.125  0.875  0.375-   2 2.32  52 2.32  33 2.35  19 2.35
  44  0.125  0.875  0.875-   1 2.32  51 2.32  34 2.35  20 2.35
  45  0.625  0.375  0.375-   8 2.32  54 2.32  39 2.35  21 2.35
  46  0.625  0.375  0.875-   7 2.32  53 2.32  40 2.35  22 2.35
  47  0.625  0.875  0.375-   6 2.32  56 2.32  37 2.35  23 2.35
  48  0.625  0.875  0.875-   5 2.32  55 2.32  38 2.35  24 2.35
  49  0.250  0.250  0.000-  26 2.32  42 2.32   9 2.35  57 2.35
  50  0.250  0.250  0.500-  25 2.32  41 2.32  10 2.35  58 2.35
  51  0.250  0.750  0.000-  28 2.32  44 2.32  11 2.35  59 2.35
  52  0.250  0.750  0.500-  27 2.32  43 2.32  12 2.35  60 2.35
  53  0.750  0.250  0.000-  30 2.32  46 2.32  13 2.35  61 2.35
  54  0.750  0.250  0.500-  29 2.32  45 2.32  14 2.35  62 2.35
  55  0.750  0.750  0.000-  32 2.32  48 2.32  15 2.35  63 2.35
  56  0.750  0.750  0.500-  31 2.32  47 2.32  16 2.35  64 2.35
  57  0.125  0.125  0.125-  17 2.32  33 2.32   1 2.35  49 2.35
  58  0.125  0.125  0.625-  18 2.32  34 2.32   2 2.35  50 2.35
  59  0.125  0.625  0.125-  19 2.32  35 2.32   3 2.35  51 2.35
  60  0.125  0.625  0.625-  20 2.32  36 2.32   4 2.35  52 2.35
  61  0.625  0.125  0.125-  21 2.32  37 2.32   5 2.35  53 2.35
  62  0.625  0.125  0.625-  22 2.32  38 2.32   6 2.35  54 2.35
  63  0.625  0.625  0.125-  23 2.32  39 2.32   7 2.35  55 2.35
  64  0.625  0.625  0.625-  24 2.32  40 2.32   8 2.35  56 2.35
 
  LATTYP: Found a simple monoclinic cell.
 ALAT       =    10.7315473944
 B/A-ratio  =     0.9999718764
 C/A-ratio  =     1.0149991010
 COS(beta)  =    -0.0148882768
  
  Lattice vectors:
  
 A1 = (   0.0804840119,  10.7312455848,   0.0000000000)
 A2 = (   0.0000000000,   0.0000000000, -10.7312455848)
 A3 = ( -10.8922136086,  -0.0804840119,   0.0000000000)


Analysis of symmetry for initial positions (statically):
=====================================================================
 Subroutine PRICEL returns following result:
 
  LATTYP: Found a base centered monoclinic cell.
 ALAT       =     5.3657736972
 B/A-ratio  =     0.9999718764
 C/A-ratio  =     0.7071067812
 COS(beta)  =    -0.6964212752
  
  Lattice vectors:
  
 A1 = (   0.0201210030,   2.6828113962,  -2.6828113962)
 A2 = (   0.0201210030,   2.6828113962,   2.6828113962)
 A3 = (   2.7029323992,  -2.6626903932,   0.0000000000)
 
  32 primitive cells build up your supercell.
 

 Routine SETGRP: Setting up the symmetry group for a 
 simple monoclinic supercell.


 Subroutine GETGRP returns: Found  4 space group operations
 (whereof  2 operations were pure point group operations)
 out of a pool of  4 trial point group operations.


The static configuration has the point symmetry C_2 .
 The point group associated with its full space group is C_2h.


Analysis of symmetry for dynamics (positions and initial velocities):
=====================================================================
 Subroutine PRICEL returns following result:
 
  LATTYP: Found a base centered monoclinic cell.
 ALAT       =     5.3657736972
 B/A-ratio  =     0.9999718764
 C/A-ratio  =     0.7071067812
 COS(beta)  =    -0.6964212752
  
  Lattice vectors:
  
 A1 = (   0.0201210030,   2.6828113962,  -2.6828113962)
 A2 = (   0.0201210030,   2.6828113962,   2.6828113962)
 A3 = (   2.7029323992,  -2.6626903932,   0.0000000000)
 
  32 primitive cells build up your supercell.
 

 Routine SETGRP: Setting up the symmetry group for a 
 simple monoclinic supercell.


 Subroutine GETGRP returns: Found  4 space group operations
 (whereof  2 operations were pure point group operations)
 out of a pool of  4 trial point group operations.


The dynamic configuration has the point symmetry C_2 .
 The point group associated with its full space group is C_2h.


 Subroutine INISYM returns: Found  4 space group operations
 (whereof  2 operations are pure point group operations),
 and found    32 'primitive' translations


----------------------------------------------------------------------------------------

                                     Primitive cell                                     

  volume of cell :      39.1961

  direct lattice vectors                    reciprocal lattice vectors
     0.020121003  2.682811396 -2.682811396     0.182250380  0.185004783 -0.186371655
     0.020121003  2.682811396  2.682811396     0.182250380  0.185004783  0.186371655
     2.702932399 -2.662690393  0.000000000     0.367255163 -0.002754402 -0.000000000

  length of vectors
     3.794121615  3.794121615  3.794174968     0.319650379  0.319650379  0.367265492

  position of ions in fractional coordinates (direct lattice)
     0.000000000  0.000000000  0.000000000
     0.250000000  0.750000000  0.500000000

  ion indices of the primitive-cell ions
   primitive index   ion index
                 1           1
                 2          15

----------------------------------------------------------------------------------------

 
 
 KPOINTS: Automatic mesh                          

Automatic generation of k-mesh.
 Grid dimensions read from file:
 generate k-points for:    2    2    2

 Generating k-lattice:

  Cartesian coordinates                     Fractional coordinates (reciprocal lattice)
     0.045906895 -0.000344300  0.000000000     0.500000000  0.000000000  0.000000000
    -0.000344300  0.046595496  0.000000000    -0.000000000  0.500000000  0.000000000
     0.000000000  0.000000000  0.046592914     0.000000000  0.000000000  0.500000000

  Length of vectors
     0.045908186  0.046596768  0.046592914

  Shift w.r.t. Gamma in fractional coordinates (k-lattice)
     0.000000000  0.000000000  0.000000000

 
 Subroutine IBZKPT returns following result:
 ===========================================
 
 Found      8 irreducible k-points:
 
 Following reciprocal coordinates:
            Coordinates               Weight
  0.000000  0.000000  0.000000      1.000000
  0.500000 -0.000000  0.000000      1.000000
 -0.000000  0.500000  0.000000      1.000000
  0.500000  0.500000  0.000000      1.000000
  0.000000  0.000000  0.500000      1.000000
  0.500000 -0.000000  0.500000      1.000000
 -0.000000  0.500000  0.500000      1.000000
  0.500000  0.500000  0.500000      1.000000
 
 Following cartesian coordinates:
            Coordinates               Weight
  0.000000  0.000000  0.000000      1.000000
  0.045907 -0.000344  0.000000      1.000000
 -0.000344  0.046596  0.000000      1.000000
  0.045563  0.046251  0.000000      1.000000
  0.000000  0.000000  0.046593      1.000000
  0.045907 -0.000344  0.046593      1.000000
 -0.000344  0.046596  0.046593      1.000000
  0.045563  0.046251  0.046593      1.000000
 


--------------------------------------------------------------------------------------------------------




 Dimension of arrays:
   k-points           NKPTS =      8   k-points in BZ     NKDIM =      8   number of bands    NBANDS=    162
   number of dos      NEDOS =    301   number of ions     NIONS =     64
   non local maximal  LDIM  =      4   non local SUM 2l+1 LMDIM =      8
   total plane-waves  NPLWV = 352800
   max r-space proj   IRMAX =   3150   max aug-charges    IRDMAX=  75427
   dimension x,y,z NGX =    72 NGY =   70 NGZ =   70
   dimension x,y,z NGXF=   144 NGYF=  140 NGZF=  140
   support grid    NGXF=   288 NGYF=  280 NGZF=  280
   ions per type =              64
   NGX,Y,Z   is equivalent  to a cutoff of  10.99, 10.84, 10.84 a.u.
   NGXF,Y,Z  is equivalent  to a cutoff of  21.98, 21.69, 21.69 a.u.

 SYSTEM =  Si64                                    
 POSCAR =  Si8                                     

 Startparameter for this run:
   NWRITE =      2    write-flag & timer
   PREC   = accura    normal or accurate (medium, high low for compatibility)
   ISTART =      0    job   : 0-new  1-cont  2-samecut
   ICHARG =      2    charge: 1-file 2-atom 10-const
   ISPIN  =      1    spin polarized calculation?
   LNONCOLLINEAR =      F non collinear calculations
   LSORBIT =      F    spin-orbit coupling
   INIWAV =      1    electr: 0-lowe 1-rand  2-diag
   LASPH  =      F    aspherical Exc in radial PAW
 Electronic Relaxation 1
   ENCUT  =  400.0 eV  29.40 Ry    5.42 a.u.  17.76 17.50 17.50*2*pi/ulx,y,z
   ENINI  =  400.0     initial cutoff
   ENAUG  =  322.1 eV  augmentation charge cutoff
   NELM   =     60;   NELMIN=  8; NELMDL= -5     # of ELM steps 
   EDIFF  = 0.1E-05   stopping-criterion for ELM
   LREAL  =      T    real-space projection
   NLSPLINE    = F    spline interpolate recip. space projectors
   LCOMPAT=      F    compatible to vasp.4.4
   GGA_COMPAT  = F    GGA compatible to vasp.4.4-vasp.4.6
   LMAXPAW     = -100 max onsite density
   LMAXMIX     =    2 max onsite mixed and CHGCAR
   VOSKOWN=      0    Vosko Wilk Nusair interpolation
   ROPT   =   -0.00025
 Ionic relaxation
   EDIFFG = -.1E-01   stopping-criterion for IOM
   NSW    =     60    number of steps for IOM
   NBLOCK =      1;   KBLOCK =     60    inner block; outer block 
   IBRION =      2    ionic relax: 0-MD 1-quasi-New 2-CG
   NFREE  =      1    steps in history (QN), initial steepest desc. (CG)
   ISIF   =      2    stress and relaxation
   IWAVPR =     11    prediction:  0-non 1-charg 2-wave 3-comb
   ISYM   =      2    0-nonsym 1-usesym 2-fastsym
   LCORR  =      T    Harris-Foulkes like correction to forces

   POTIM  = 0.5000    time-step for ionic-motion
   TEIN   =    0.0    initial temperature
   TEBEG  =    0.0;   TEEND  =   0.0 temperature during run
   SMASS  =  -3.00    Nose mass-parameter (am)
   estimated Nose-frequenzy (Omega)   =  0.10E-29 period in steps = 0.13E+47 mass=  -0.271E-26a.u.
   SCALEE = 1.0000    scale energy and forces
   NPACO  =    256;   APACO  = 10.0  distance and # of slots for P.C.
   PSTRESS=    0.0 pullay stress

  Mass of Ions in am
   POMASS =  28.09
  Ionic Valenz
   ZVAL   =   4.00
  Atomic Wigner-Seitz radii
   RWIGS  =  -1.00
  virtual crystal weights 
   VCA    =   1.00
   NELECT =     256.0000    total number of electrons
   NUPDOWN=      -1.0000    fix difference up-down

 DOS related values:
   EMIN   =  10.00;   EMAX   =-10.00  energy-range for DOS
   EFERMI =   0.00;   METHOD = LEGACY      
   ISMEAR =     1;   SIGMA  =   0.20  broadening in eV -4-tet -1-fermi 0-gaus

 Electronic relaxation 2 (details)
   IALGO  =     68    algorithm
   LDIAG  =      T    sub-space diagonalisation (order eigenvalues)
   LSUBROT=      F    optimize rotation matrix (better conditioning)
   TURBO    =      0    0=normal 1=particle mesh
   IRESTART =      0    0=no restart 2=restart with 2 vectors
   NREBOOT  =      0    no. of reboots
   NMIN     =      0    reboot dimension
   EREF     =   0.00    reference energy to select bands
   IMIX   =      4    mixing-type and parameters
     AMIX     =   0.40;   BMIX     =  1.00
     AMIX_MAG =   1.60;   BMIX_MAG =  1.00
     AMIN     =   0.10
     WC   =   100.;   INIMIX=   1;  MIXPRE=   1;  MAXMIX= -45

 Intra band minimization:
   WEIMIN = 0.0010     energy-eigenvalue tresh-hold
   EBREAK =  0.15E-08  absolut break condition
   DEPER  =   0.30     relativ break condition  

   TIME   =   0.40     timestep for ELM

  volume/ion in A,a.u.               =      19.60       132.25
  Fermi-wavevector in a.u.,A,eV,Ry     =   0.963882  1.821474 12.640754  0.929069
  Thomas-Fermi vector in A             =   2.093466
 
 Write flags
   LWAVE        =      F    write WAVECAR
   LDOWNSAMPLE  =      F    k-point downsampling of WAVECAR
   LCHARG       =      F    write CHGCAR
   LVTOT        =      F    write LOCPOT, total local potential
   LVHAR        =      F    write LOCPOT, Hartree potential only
   WRT_POTENTIAL= false  ! write potential to hdf5 file
   LELF         =      F    write electronic localiz. function (ELF)
   LORBIT       =      0    0 simple, 1 ext, 2 COOP (PROOUT), +10 PAW based schemes


 Dipole corrections
   LMONO      =      F    monopole corrections only (constant potential shift)
   LDIPOL     =      F    correct potential (dipole corrections)
   IDIPOL     =      0    1-x, 2-y, 3-z, 4-all directions 
   EPSILON    =  1.0000000 bulk dielectric constant
   LVACPOTAV  =      F  vacuum potentials using an averaging scheme for the charge density
   VACPOTFLAT =  0.1000000 required flatness to determine vacuum potential
 Exchange correlation treatment:
   GGA     = PS    functional components
   XC_C    = 1    coefficients multiplying the functional components
   LIBXC   =     F    Libxc                    
   VOSKOWN =     0    Vosko Wilk Nusair interpolation
   LHFCALC =     F    Hartree Fock is set to
   LHFONE  =     F    Hartree Fock one center treatment
   AEXX    =    0.0000 exact exchange contribution

 Parameters of functionals:
   PS:
     No parameter
 
 Van der Waals corrections
   IVDW    =     0    specifies the selected vdW correction

 Linear response parameters
   LEPSILON=     F    determine dielectric tensor
   LRPA    =     F    only Hartree local field effects (RPA)
   LNABLA  =     F    use nabla operator in PAW spheres
   LVEL    =     F    velocity operator in full k-point grid
   CSHIFT  =0.1000    complex shift for real part using Kramers Kronig
   OMEGAMAX=  -1.0    maximum frequency
   DEG_THRESHOLD= 0.2000000E-02 threshold for treating states as degnerate
   RTIME   =   -0.100 relaxation time in fs
  (WPLASMAI=    0.000 imaginary part of plasma frequency in eV, 0.658/RTIME)
   DFIELD  = 0.0000000 0.0000000 0.0000000 field for delta impulse in time
 
  Optional k-point grid parameters
   LKPOINTS_OPT  =     F    use optional k-point grid
   KPOINTS_OPT_MODE=     1    mode for optional k-point grid
 
 Orbital magnetization related:
   ORBITALMAG=     F  switch on orbital magnetization
   LCHIMAG   =     F  perturbation theory with respect to B field
   DQ        =  0.001000  dq finite difference perturbation B field
   LLRAUG    =     F  two centre corrections for induced B field
   LBONE     =     F  B-component reconstruction in AE one-centre
   LVGVCALC  =     T  calculate vGv susceptibility
   LVGVAPPL  =     F  apply vGv susceptibility instead of pGv for G=0

 Random number generation:
   RANDOM_GENERATOR = DEFAULT
   PCG_SEED         = not used


--------------------------------------------------------------------------------------------------------


 conjugate gradient relaxation of ions
 charge density and potential will be updated during run
 non-spin polarized calculation
 RMM-DIIS sequential band-by-band and
  variant of blocked Davidson during initial phase
 perform sub-space diagonalisation
    before iterative eigenvector-optimisation
 modified Broyden-mixing scheme, WC =      100.0
 initial mixing is a Kerker type mixing with AMIX =  0.4000 and BMIX =      1.0000
 Hartree-type preconditioning will be used
 using additional bands           34
 real space projection scheme for non local part
 use partial core corrections
 calculate Harris-corrections to forces 
   (improved forces if not selfconsistent)
 use gradient corrections 
 use of overlap-Matrix (Vanderbilt PP)
 Methfessel and Paxton  Order N= 1 SIGMA  =   0.20


--------------------------------------------------------------------------------------------------------


  energy-cutoff  :      400.00
  volume of cell :     1254.27
      direct lattice vectors                 reciprocal lattice vectors
    10.892213609  0.080484012  0.000000000     0.091813791 -0.000688601  0.000000000
     0.080484012 10.731245585  0.000000000    -0.000688601  0.093190992  0.000000000
     0.000000000  0.000000000 10.731245585     0.000000000  0.000000000  0.093185828

  length of vectors
    10.892510958 10.731547394 10.731245585     0.091816373  0.093193536  0.093185828


 
 k-points in units of 2pi/SCALE and weight: Automatic mesh                          
   0.00000000  0.00000000  0.00000000       0.125
   0.04590690 -0.00034430  0.00000000       0.125
  -0.00034430  0.04659550  0.00000000       0.125
   0.04556260  0.04625120  0.00000000       0.125
   0.00000000  0.00000000  0.04659292       0.125
   0.04590690 -0.00034430  0.04659292       0.125
  -0.00034430  0.04659550  0.04659292       0.125
   0.04556260  0.04625120  0.04659292       0.125
 
 k-points in reciprocal lattice and weights: Automatic mesh                          
   0.00000000  0.00000000  0.00000000       0.125
   0.50000000 -0.00000000  0.00000000       0.125
  -0.00000000  0.50000000  0.00000000       0.125
   0.50000000  0.50000000  0.00000000       0.125
   0.00000000  0.00000000  0.50000000       0.125
   0.50000000 -0.00000000  0.50000000       0.125
  -0.00000000  0.50000000  0.50000000       0.125
   0.50000000  0.50000000  0.50000000       0.125
 
 position of ions in fractional coordinates (direct lattice) 
   0.00000000  0.00000000  0.00000000
   0.00000000  0.00000000  0.50000000
   0.00000000  0.50000000  0.00000000
   0.00000000  0.50000000  0.50000000
   0.50000000  0.00000000  0.00000000
   0.50000000  0.00000000  0.50000000
   0.50000000  0.50000000  0.00000000
   0.50000000  0.50000000  0.50000000
   0.37500000  0.37500000  0.12500000
   0.37500000  0.37500000  0.62500000
   0.37500000  0.87500000  0.12500000
   0.37500000  0.87500000  0.62500000
   0.87500000  0.37500000  0.12500000
   0.87500000  0.37500000  0.62500000
   0.87500000  0.87500000  0.12500000
   0.87500000  0.87500000  0.62500000
   0.00000000  0.25000000  0.25000000
   0.00000000  0.25000000  0.75000000
   0.00000000  0.75000000  0.25000000
   0.00000000  0.75000000  0.75000000
   0.50000000  0.25000000  0.25000000
   0.50000000  0.25000000  0.75000000
   0.50000000  0.75000000  0.25000000
   0.50000000  0.75000000  0.75000000
   0.37500000  0.12500000  0.37500000
   0.37500000  0.12500000  0.87500000
   0.37500000  0.62500000  0.37500000
   0.37500000  0.62500000  0.87500000
   0.87500000  0.12500000  0.37500000
   0.87500000  0.12500000  0.87500000
   0.87500000  0.62500000  0.37500000
   0.87500000  0.62500000  0.87500000
   0.25000000  0.00000000  0.25000000
   0.25000000  0.00000000  0.75000000
   0.25000000  0.50000000  0.25000000
   0.25000000  0.50000000  0.75000000
   0.75000000  0.00000000  0.25000000
   0.75000000  0.00000000  0.75000000
   0.75000000  0.50000000  0.25000000
   0.75000000  0.50000000  0.75000000
   0.12500000  0.37500000  0.37500000
   0.12500000  0.37500000  0.87500000
   0.12500000  0.87500000  0.37500000
   0.12500000  0.87500000  0.87500000
   0.62500000  0.37500000  0.37500000
   0.62500000  0.37500000  0.87500000
   0.62500000  0.87500000  0.37500000
   0.62500000  0.87500000  0.87500000
   0.25000000  0.25000000  0.00000000
   0.25000000  0.25000000  0.50000000
   0.25000000  0.75000000  0.00000000
   0.25000000  0.75000000  0.50000000
   0.75000000  0.25000000  0.00000000
   0.75000000  0.25000000  0.50000000
   0.75000000  0.75000000  0.00000000
   0.75000000  0.75000000  0.50000000
   0.12500000  0.12500000  0.12500000
   0.12500000  0.12500000  0.62500000
   0.12500000  0.62500000  0.12500000
   0.12500000  0.62500000  0.62500000
   0.62500000  0.12500000  0.12500000
   0.62500000  0.12500000  0.62500000
   0.62500000  0.62500000  0.12500000
   0.62500000  0.62500000  0.62500000
 
 position of ions in cartesian coordinates  (Angst):
   0.00000000  0.00000000  0.00000000
   0.00000000  0.00000000  5.36562279
   0.04024201  5.36562279  0.00000000
   0.04024201  5.36562279  5.36562279
   5.44610680  0.04024201  0.00000000
   5.44610680  0.04024201  5.36562279
   5.48634881  5.40586480  0.00000000
   5.48634881  5.40586480  5.36562279
   4.11476161  4.05439860  1.34140570
   4.11476161  4.05439860  6.70702849
   4.15500361  9.42002139  1.34140570
   4.15500361  9.42002139  6.70702849
   9.56086841  4.09464060  1.34140570
   9.56086841  4.09464060  6.70702849
   9.60111042  9.46026340  1.34140570
   9.60111042  9.46026340  6.70702849
   0.02012100  2.68281140  2.68281140
   0.02012100  2.68281140  8.04843419
   0.06036301  8.04843419  2.68281140
   0.06036301  8.04843419  8.04843419
   5.46622781  2.72305340  2.68281140
   5.46622781  2.72305340  8.04843419
   5.50646981  8.08867619  2.68281140
   5.50646981  8.08867619  8.04843419
   4.09464060  1.37158720  4.02421709
   4.09464060  1.37158720  9.38983989
   4.13488261  6.73720999  4.02421709
   4.13488261  6.73720999  9.38983989
   9.54074741  1.41182921  4.02421709
   9.54074741  1.41182921  9.38983989
   9.58098941  6.77745200  4.02421709
   9.58098941  6.77745200  9.38983989
   2.72305340  0.02012100  2.68281140
   2.72305340  0.02012100  8.04843419
   2.76329541  5.38574380  2.68281140
   2.76329541  5.38574380  8.04843419
   8.16916021  0.06036301  2.68281140
   8.16916021  0.06036301  8.04843419
   8.20940221  5.42598580  2.68281140
   8.20940221  5.42598580  8.04843419
   1.39170821  4.03427760  4.02421709
   1.39170821  4.03427760  9.38983989
   1.43195021  9.39990039  4.02421709
   1.43195021  9.39990039  9.38983989
   6.83781501  4.07451960  4.02421709
   6.83781501  4.07451960  9.38983989
   6.87805702  9.44014239  4.02421709
   6.87805702  9.44014239  9.38983989
   2.74317441  2.70293240  0.00000000
   2.74317441  2.70293240  5.36562279
   2.78341641  8.06855519  0.00000000
   2.78341641  8.06855519  5.36562279
   8.18928121  2.74317441  0.00000000
   8.18928121  2.74317441  5.36562279
   8.22952322  8.10879720  0.00000000
   8.22952322  8.10879720  5.36562279
   1.37158720  1.35146620  1.34140570
   1.37158720  1.35146620  6.70702849
   1.41182921  6.71708899  1.34140570
   1.41182921  6.71708899  6.70702849
   6.81769401  1.39170821  1.34140570
   6.81769401  1.39170821  6.70702849
   6.85793601  6.75733100  1.34140570
   6.85793601  6.75733100  6.70702849
 


--------------------------------------------------------------------------------------------------------


 k-point     1 :   0.0000 0.0000 0.0000  plane waves:   22795
 k-point     2 :   0.5000-0.0000 0.0000  plane waves:   22802
 k-point     3 :  -0.0000 0.5000 0.0000  plane waves:   22770
 k-point     4 :   0.5000 0.5000 0.0000  plane waves:   22778
 k-point     5 :   0.0000 0.0000 0.5000  plane waves:   22770
 k-point     6 :   0.5000-0.0000 0.5000  plane waves:   22772
 k-point     7 :  -0.0000 0.5000 0.5000  plane waves:   22776
 k-point     8 :   0.5000 0.5000 0.5000  plane waves:   22740

 maximum and minimum number of plane-waves per node :      1923     1869

 maximum number of plane-waves:     22802
 maximum index in each direction: 
   IXMAX=   17   IYMAX=   17   IZMAX=   17
   IXMIN=  -18   IYMIN=  -17   IZMIN=  -17


 real space projection operators:
  total allocation   :      11986.50 KBytes
  max/ min on nodes  :       1014.00        972.00


 parallel 3D FFT for wavefunctions:
    minimum data exchange during FFTs selected (reduces bandwidth)
 parallel 3D FFT for charge:
    minimum data exchange during FFTs selected (reduces bandwidth)


 total amount of memory used by VASP MPI-rank0    80060. kBytes
=======================================================================

   base      :      30000. kBytes
   nonlr-proj:       4603. kBytes
   fftplans  :      18113. kBytes
   grid      :       6881. kBytes
   one-center:         18. kBytes
   wavefun   :      20445. kBytes
 
     INWAV:  cpu time      0.0000: real time      0.0000
 Broyden mixing: mesh for mixing (old mesh)
   NGX = 35   NGY = 35   NGZ = 35
  (NGX  =144   NGY  =140   NGZ  =140)
  gives a total of  42875 points

 initial charge density was supplied:
 charge density of overlapping atoms calculated
 number of electron     256.0000000 magnetization 
 keeping initial charge density in first step


--------------------------------------------------------------------------------------------------------


 Maximum index for non-local projection operator          280
 Maximum index for augmentation-charges         3304 (set IRDMAX)


--------------------------------------------------------------------------------------------------------


 First call to EWALD:  gamma=   0.164
 Maximum number of real-space cells 3x 3x 3
 Maximum number of reciprocal cells 3x 3x 3

    FEWALD:  cpu time      0.0072: real time      0.0073


--------------------------------------- Ionic step        1  -------------------------------------------




--------------------------------------- Iteration      1(   1)  ---------------------------------------


    POTLOK:  cpu time      0.0968: real time      0.1070
    SETDIJ:  cpu time      0.0890: real time      0.0918
     EDDAV:  cpu time      1.2983: real time      1.3718
       DOS:  cpu time      0.0106: real time      0.0133
    --------------------------------------------
      LOOP:  cpu time      1.4948: real time      1.5838

 eigenvalue-minimisations  :  2592
 total energy-change (2. order) : 0.5595071E+03  (-0.8436651E+04)
 number of electron     256.0000000 magnetization 
 augmentation part      256.0000000 magnetization 

 Free energy of the ion-electron system (eV)
  ---------------------------------------------------
  alpha Z        PSCENC =       109.93148728
  Ewald energy   TEWEN  =     -7365.22475610
  -Hartree energ DENC   =      -342.07838786
  -exchange      EXHF   =         0.00000000
  -V(xc)+E(xc)   XCENC  =      -556.09676577
  PAW double counting   =      5598.62625415    -4492.17844134
  entropy T*S    EENTRO =        -0.00739212
  eigenvalues    EBANDS =      1041.73927214
  atomic energy  EATOM  =      6564.79586099
  Solvation  Ediel_sol  =         0.00000000
  ---------------------------------------------------
  free energy    TOTEN  =       559.50713137 eV

  energy without entropy =      559.51452349  energy(sigma->0) =      559.50959541


--------------------------------------------------------------------------------------------------------




--------------------------------------- Iteration      1(   2)  ---------------------------------------


     EDDAV:  cpu time      1.3424: real time      1.3619
       DOS:  cpu time      0.0014: real time      0.0014
    --------------------------------------------
      LOOP:  cpu time      1.3438: real time      1.3632

 eigenvalue-minimisations  :  3090
 total energy-change (2. order) :-0.8698503E+03  (-0.8246554E+03)
 number of electron     256.0000000 magnetization 
 augmentation part      256.0000000 magnetization 

 Free energy of the ion-electron system (eV)
  ---------------------------------------------------
  alpha Z        PSCENC =       109.93148728
  Ewald energy   TEWEN  =     -7365.22475610
  -Hartree energ DENC   =      -342.07838786
  -exchange      EXHF   =         0.00000000
  -V(xc)+E(xc)   XCENC  =      -556.09676577
  PAW double counting   =      5598.62625415    -4492.17844134
  entropy T*S    EENTRO =         0.01136979
  eigenvalues    EBANDS =       171.87016083
  atomic energy  EATOM  =      6564.79586099
  Solvation  Ediel_sol  =         0.00000000
  ---------------------------------------------------
  free energy    TOTEN  =      -310.34321802 eV

  energy without entropy =     -310.35458781  energy(sigma->0) =     -310.34700795


--------------------------------------------------------------------------------------------------------




--------------------------------------- Iteration      1(   3)  ---------------------------------------


     EDDAV:  cpu time      1.3761: real time      1.4205
       DOS:  cpu time      0.0020: real time      0.0020
    --------------------------------------------
      LOOP:  cpu time      1.3781: real time      1.4225

 eigenvalue-minimisations  :  3136
 total energy-change (2. order) :-0.6287801E+02  (-0.6153370E+02)
 number of electron     256.0000000 magnetization 
 augmentation part      256.0000000 magnetization 

 Free energy of the ion-electron system (eV)
  ---------------------------------------------------
  alpha Z        PSCENC =       109.93148728
  Ewald energy   TEWEN  =     -7365.22475610
  -Hartree energ DENC   =      -342.07838786
  -exchange      EXHF   =         0.00000000
  -V(xc)+E(xc)   XCENC  =      -556.09676577
  PAW double counting   =      5598.62625415    -4492.17844134
  entropy T*S    EENTRO =         0.00776237
  eigenvalues    EBANDS =       108.99575534
  atomic energy  EATOM  =      6564.79586099
  Solvation  Ediel_sol  =         0.00000000
  ---------------------------------------------------
  free energy    TOTEN  =      -373.22123093 eV

  energy without entropy =     -373.22899330  energy(sigma->0) =     -373.22381839


--------------------------------------------------------------------------------------------------------




--------------------------------------- Iteration      1(   4)  ---------------------------------------


     EDDAV:  cpu time      1.3533: real time      1.3652
       DOS:  cpu time      0.0016: real time      0.0016
    --------------------------------------------
      LOOP:  cpu time      1.3549: real time      1.3668

 eigenvalue-minimisations  :  3144
 total energy-change (2. order) :-0.1625764E+01  (-0.1614770E+01)
 number of electron     256.0000000 magnetization 
 augmentation part      256.0000000 magnetization 

 Free energy of the ion-electron system (eV)
  ---------------------------------------------------
  alpha Z        PSCENC =       109.93148728
  Ewald energy   TEWEN  =     -7365.22475610
  -Hartree energ DENC   =      -342.07838786
  -exchange      EXHF   =         0.00000000
  -V(xc)+E(xc)   XCENC  =      -556.09676577
  PAW double counting   =      5598.62625415    -4492.17844134
  entropy T*S    EENTRO =         0.00786529
  eigenvalues    EBANDS =       107.36988807
  atomic energy  EATOM  =      6564.79586099
  Solvation  Ediel_sol  =         0.00000000
  ---------------------------------------------------
  free energy    TOTEN  =      -374.84699528 eV

  energy without entropy =     -374.85486057  energy(sigma->0) =     -374.84961704


--------------------------------------------------------------------------------------------------------




--------------------------------------- Iteration      1(   5)  ---------------------------------------


     EDDAV:  cpu time      1.3514: real time      1.3673
       DOS:  cpu time      0.0012: real time      0.0012
    CHARGE:  cpu time      0.2494: real time      0.2540
    MIXING:  cpu time      0.0075: real time      0.0077
    --------------------------------------------
      LOOP:  cpu time      1.6095: real time      1.6302

 eigenvalue-minimisations  :  3128
 total energy-change (2. order) :-0.5043587E-01  (-0.5031974E-01)
 number of electron     256.0000001 magnetization 
 augmentation part      -15.0144973 magnetization 

 Broyden mixing:
  rms(total) = 0.28919E+01    rms(broyden)= 0.28919E+01
  rms(prec ) = 0.31837E+01
  weight for this iteration     100.00

 Free energy of the ion-electron system (eV)
  ---------------------------------------------------
  alpha Z        PSCENC =       109.93148728
  Ewald energy   TEWEN  =     -7365.22475610
  -Hartree energ DENC   =      -342.07838786
  -exchange      EXHF   =         0.00000000
  -V(xc)+E(xc)   XCENC  =      -556.09676577
  PAW double counting   =      5598.62625415    -4492.17844134
  entropy T*S    EENTRO =         0.00796394
  eigenvalues    EBANDS =       107.31935356
  atomic energy  EATOM  =      6564.79586099
  Solvation  Ediel_sol  =         0.00000000
  ---------------------------------------------------
  free energy    TOTEN  =      -374.89743114 eV

  energy without entropy =     -374.90539508  energy(sigma->0) =     -374.90008579


--------------------------------------------------------------------------------------------------------




--------------------------------------- Iteration      1(   6)  ---------------------------------------


    POTLOK:  cpu time      0.0778: real time      0.0900
    SETDIJ:  cpu time      0.0721: real time      0.0723
    EDDIAG:  cpu time      0.1385: real time      0.1416
  RMM-DIIS:  cpu time      0.7033: real time      0.7089
    ORTHCH:  cpu time      0.0232: real time      0.0233
       DOS:  cpu time      0.0012: real time      0.0012
    CHARGE:  cpu time      0.2390: real time      0.2397
    MIXING:  cpu time      0.0060: real time      0.0060
    --------------------------------------------
      LOOP:  cpu time      1.2610: real time      1.2830

 eigenvalue-minimisations  :  2592
 total energy-change (2. order) : 0.5311854E+01  (-0.2696410E+00)
 number of electron     256.0000001 magnetization 
 augmentation part      -14.8470292 magnetization 

 Broyden mixing:
  rms(total) = 0.17409E+01    rms(broyden)= 0.17409E+01
  rms(prec ) = 0.19071E+01
  weight for this iteration     100.00

 eigenvalues of (default mixing * dielectric matrix)
  average eigenvalue GAMMA=   2.5070
  2.5070

 Free energy of the ion-electron system (eV)
  ---------------------------------------------------
  alpha Z        PSCENC =       109.93148728
  Ewald energy   TEWEN  =     -7365.22475610
  -Hartree energ DENC   =      -389.35962960
  -exchange      EXHF   =         0.00000000
  -V(xc)+E(xc)   XCENC  =      -548.62483765
  PAW double counting   =     12622.60023129   -11519.63817744
  entropy T*S    EENTRO =         0.01089398
  eigenvalues    EBANDS =       155.92335044
  atomic energy  EATOM  =      6564.79586099
  Solvation  Ediel_sol  =         0.00000000
  ---------------------------------------------------
  free energy    TOTEN  =      -369.58557680 eV

  energy without entropy =     -369.59647078  energy(sigma->0) =     -369.58920813


--------------------------------------------------------------------------------------------------------




--------------------------------------- Iteration      1(   7)  ---------------------------------------


    POTLOK:  cpu time      0.0768: real time      0.0907
    SETDIJ:  cpu time      0.0747: real time      0.0750
    EDDIAG:  cpu time      0.1355: real time      0.1359
  RMM-DIIS:  cpu time      0.7033: real time      0.7056
    ORTHCH:  cpu time      0.0212: real time      0.0213
       DOS:  cpu time      0.0036: real time      0.0036
    CHARGE:  cpu time      0.2389: real time      0.2396
    MIXING:  cpu time      0.0083: real time      0.0093
    --------------------------------------------
      LOOP:  cpu time      1.2623: real time      1.2810

 eigenvalue-minimisations  :  2627
 total energy-change (2. order) : 0.2398465E+01  (-0.6851992E+00)
 number of electron     256.0000001 magnetization 
 augmentation part      -14.6121687 magnetization 

 Broyden mixing:
  rms(total) = 0.99654E-01    rms(broyden)= 0.99654E-01
  rms(prec ) = 0.12523E+00
  weight for this iteration     100.00

 eigenvalues of (default mixing * dielectric matrix)
  average eigenvalue GAMMA=   2.2905
  2.2905  2.2905

 Free energy of the ion-electron system (eV)
  ---------------------------------------------------
  alpha Z        PSCENC =       109.93148728
  Ewald energy   TEWEN  =     -7365.22475610
  -Hartree energ DENC   =      -467.43780551
  -exchange      EXHF   =         0.00000000
  -V(xc)+E(xc)   XCENC  =      -535.71328636
  PAW double counting   =     29568.17302459   -28470.04511879
  entropy T*S    EENTRO =         0.02879470
  eigenvalues    EBANDS =       228.30468699
  atomic energy  EATOM  =      6564.79586099
  Solvation  Ediel_sol  =         0.00000000
  ---------------------------------------------------
  free energy    TOTEN  =      -367.18711220 eV

  energy without entropy =     -367.21590690  energy(sigma->0) =     -367.19671043


--------------------------------------------------------------------------------------------------------




--------------------------------------- Iteration      1(   8)  ---------------------------------------


    POTLOK:  cpu time      0.0876: real time      0.0890
    SETDIJ:  cpu time      0.0751: real time      0.0754
    EDDIAG:  cpu time      0.1347: real time      0.1351
  RMM-DIIS:  cpu time      0.7097: real time      0.7123
    ORTHCH:  cpu time      0.0211: real time      0.0212
       DOS:  cpu time      0.0018: real time      0.0019
    CHARGE:  cpu time      0.2354: real time      0.2361
    MIXING:  cpu time      0.0072: real time      0.0072
    --------------------------------------------
      LOOP:  cpu time      1.2728: real time      1.2782

 eigenvalue-minimisations  :  2634
 total energy-change (2. order) :-0.4549021E-01  (-0.6902439E-01)
 number of electron     256.0000001 magnetization 
 augmentation part      -14.6646535 magnetization 

 Broyden mixing:
  rms(total) = 0.50952E-01    rms(broyden)= 0.50951E-01
  rms(prec ) = 0.54262E-01
  weight for this iteration     100.00

 eigenvalues of (default mixing * dielectric matrix)
  average eigenvalue GAMMA=   2.1845
  2.5657  1.9939  1.9939

 Free energy of the ion-electron system (eV)
  ---------------------------------------------------
  alpha Z        PSCENC =       109.93148728
  Ewald energy   TEWEN  =     -7365.22475610
  -Hartree energ DENC   =      -459.82999510
  -exchange      EXHF   =         0.00000000
  -V(xc)+E(xc)   XCENC  =      -536.33390881
  PAW double counting   =     29215.05708736   -28115.99668504
  entropy T*S    EENTRO =         0.02949049
  eigenvalues    EBANDS =       220.33881652
  atomic energy  EATOM  =      6564.79586099
  Solvation  Ediel_sol  =         0.00000000
  ---------------------------------------------------
  free energy    TOTEN  =      -367.23260241 eV

  energy without entropy =     -367.26209290  energy(sigma->0) =     -367.24243257


--------------------------------------------------------------------------------------------------------




--------------------------------------- Iteration      1(   9)  ---------------------------------------


    POTLOK:  cpu time      0.0818: real time      0.0953
    SETDIJ:  cpu time      0.0722: real time      0.0724
    EDDIAG:  cpu time      0.1352: real time      0.1356
  RMM-DIIS:  cpu time      0.7226: real time      0.7251
    ORTHCH:  cpu time      0.0213: real time      0.0213
       DOS:  cpu time      0.0018: real time      0.0018
    CHARGE:  cpu time      0.2361: real time      0.2368
    MIXING:  cpu time      0.0064: real time      0.0065
    --------------------------------------------
      LOOP:  cpu time      1.2774: real time      1.2949

 eigenvalue-minimisations  :  2669
 total energy-change (2. order) :-0.2067615E-01  (-0.1930019E-01)
 number of electron     256.0000001 magnetization 
 augmentation part      -14.6532823 magnetization 

 Broyden mixing:
  rms(total) = 0.58194E-01    rms(broyden)= 0.58194E-01
  rms(prec ) = 0.65221E-01
  weight for this iteration     100.00

 eigenvalues of (default mixing * dielectric matrix)
  average eigenvalue GAMMA=   1.8905
  2.5598  2.3479  2.3479  0.3064

 Free energy of the ion-electron system (eV)
  ---------------------------------------------------
  alpha Z        PSCENC =       109.93148728
  Ewald energy   TEWEN  =     -7365.22475610
  -Hartree energ DENC   =      -462.63147659
  -exchange      EXHF   =         0.00000000
  -V(xc)+E(xc)   XCENC  =      -535.94912567
  PAW double counting   =     29578.87270564   -28480.04307312
  entropy T*S    EENTRO =         0.02952152
  eigenvalues    EBANDS =       222.96557748
  atomic energy  EATOM  =      6564.79586099
  Solvation  Ediel_sol  =         0.00000000
  ---------------------------------------------------
  free energy    TOTEN  =      -367.25327856 eV

  energy without entropy =     -367.28280008  energy(sigma->0) =     -367.26311907


--------------------------------------------------------------------------------------------------------




--------------------------------------- Iteration      1(  10)  ---------------------------------------


    POTLOK:  cpu time      0.0765: real time      0.0885
    SETDIJ:  cpu time      0.0760: real time      0.0762
    EDDIAG:  cpu time      0.1337: real time      0.1340
  RMM-DIIS:  cpu time      0.7312: real time      0.7336
    ORTHCH:  cpu time      0.0212: real time      0.0213
       DOS:  cpu time      0.0021: real time      0.0021
    CHARGE:  cpu time      0.2350: real time      0.2357
    MIXING:  cpu time      0.0069: real time      0.0069
    --------------------------------------------
      LOOP:  cpu time      1.2825: real time      1.2984

 eigenvalue-minimisations  :  2741
 total energy-change (2. order) :-0.3797375E-02  (-0.3378344E-02)
 number of electron     256.0000001 magnetization 
 augmentation part      -14.6593351 magnetization 

 Broyden mixing:
  rms(total) = 0.79557E-01    rms(broyden)= 0.79557E-01
  rms(prec ) = 0.85958E-01
  weight for this iteration     100.00

 eigenvalues of (default mixing * dielectric matrix)
  average eigenvalue GAMMA=   1.6103
  2.6769  2.0960  2.0960  0.5913  0.5913

 Free energy of the ion-electron system (eV)
  ---------------------------------------------------
  alpha Z        PSCENC =       109.93148728
  Ewald energy   TEWEN  =     -7365.22475610
  -Hartree energ DENC   =      -462.80542892
  -exchange      EXHF   =         0.00000000
  -V(xc)+E(xc)   XCENC  =      -535.92948174
  PAW double counting   =     29617.85923591   -28519.03681203
  entropy T*S    EENTRO =         0.02951798
  eigenvalues    EBANDS =       223.12330069
  atomic energy  EATOM  =      6564.79586099
  Solvation  Ediel_sol  =         0.00000000
  ---------------------------------------------------
  free energy    TOTEN  =      -367.25707594 eV

  energy without entropy =     -367.28659392  energy(sigma->0) =     -367.26691526


--------------------------------------------------------------------------------------------------------




--------------------------------------- Iteration      1(  11)  ---------------------------------------


    POTLOK:  cpu time      0.0808: real time      0.0971
    SETDIJ:  cpu time      0.0711: real time      0.0713
    EDDIAG:  cpu time      0.1339: real time      0.1343
  RMM-DIIS:  cpu time      0.7029: real time      0.7053
    ORTHCH:  cpu time      0.0217: real time      0.0218
       DOS:  cpu time      0.0017: real time      0.0017
    CHARGE:  cpu time      0.2335: real time      0.2391
    MIXING:  cpu time      0.0066: real time      0.0066
    --------------------------------------------
      LOOP:  cpu time      1.2522: real time      1.2772

 eigenvalue-minimisations  :  2592
 total energy-change (2. order) : 0.3037373E-02  (-0.1196042E-02)
 number of electron     256.0000001 magnetization 
 augmentation part      -14.6729096 magnetization 

 Broyden mixing:
  rms(total) = 0.61916E-01    rms(broyden)= 0.61916E-01
  rms(prec ) = 0.62473E-01
  weight for this iteration     100.00

 eigenvalues of (default mixing * dielectric matrix)
  average eigenvalue GAMMA=   1.4575
  2.5676  2.5676  1.3466  0.9695  0.9695  0.3243

 Free energy of the ion-electron system (eV)
  ---------------------------------------------------
  alpha Z        PSCENC =       109.93148728
  Ewald energy   TEWEN  =     -7365.22475610
  -Hartree energ DENC   =      -460.42050978
  -exchange      EXHF   =         0.00000000
  -V(xc)+E(xc)   XCENC  =      -536.09836497
  PAW double counting   =     29528.02476240   -28428.96107320
  entropy T*S    EENTRO =         0.02945349
  eigenvalues    EBANDS =       220.66910132
  atomic energy  EATOM  =      6564.79586099
  Solvation  Ediel_sol  =         0.00000000
  ---------------------------------------------------
  free energy    TOTEN  =      -367.25403856 eV

  energy without entropy =     -367.28349206  energy(sigma->0) =     -367.26385639


--------------------------------------------------------------------------------------------------------




--------------------------------------- Iteration      1(  12)  ---------------------------------------


    POTLOK:  cpu time      0.0885: real time      0.0893
    SETDIJ:  cpu time      0.0713: real time      0.0715
    EDDIAG:  cpu time      0.1337: real time      0.1340
  RMM-DIIS:  cpu time      0.6951: real time      0.6975
    ORTHCH:  cpu time      0.0210: real time      0.0211
       DOS:  cpu time      0.0023: real time      0.0023
    CHARGE:  cpu time      0.2355: real time      0.2389
    MIXING:  cpu time      0.0070: real time      0.0070
    --------------------------------------------
      LOOP:  cpu time      1.2543: real time      1.2616

 eigenvalue-minimisations  :  2610
 total energy-change (2. order) :-0.1450202E-03  (-0.1773470E-03)
 number of electron     256.0000001 magnetization 
 augmentation part      -14.6762856 magnetization 

 Broyden mixing:
  rms(total) = 0.59534E-01    rms(broyden)= 0.59534E-01
  rms(prec ) = 0.59865E-01
  weight for this iteration     100.00

 eigenvalues of (default mixing * dielectric matrix)
  average eigenvalue GAMMA=   1.3742
  2.5700  2.5700  1.5372  0.9499  0.9499  0.4184  0.6237

 Free energy of the ion-electron system (eV)
  ---------------------------------------------------
  alpha Z        PSCENC =       109.93148728
  Ewald energy   TEWEN  =     -7365.22475610
  -Hartree energ DENC   =      -460.22755273
  -exchange      EXHF   =         0.00000000
  -V(xc)+E(xc)   XCENC  =      -536.13096768
  PAW double counting   =     29444.22918292   -28345.17543397
  entropy T*S    EENTRO =         0.02944370
  eigenvalues    EBANDS =       220.51855200
  atomic energy  EATOM  =      6564.79586099
  Solvation  Ediel_sol  =         0.00000000
  ---------------------------------------------------
  free energy    TOTEN  =      -367.25418358 eV

  energy without entropy =     -367.28362728  energy(sigma->0) =     -367.26399815


--------------------------------------------------------------------------------------------------------




--------------------------------------- Iteration      1(  13)  ---------------------------------------


    POTLOK:  cpu time      0.0736: real time      0.0877
    SETDIJ:  cpu time      0.0741: real time      0.0744
    EDDIAG:  cpu time      0.1356: real time      0.1360
  RMM-DIIS:  cpu time      0.7382: real time      0.7406
    ORTHCH:  cpu time      0.0210: real time      0.0211
       DOS:  cpu time      0.0015: real time      0.0015
    CHARGE:  cpu time      0.2370: real time      0.2377
    MIXING:  cpu time      0.0069: real time      0.0069
    --------------------------------------------
      LOOP:  cpu time      1.2880: real time      1.3059

 eigenvalue-minimisations  :  2748
 total energy-change (2. order) :-0.4991821E-04  (-0.3273870E-04)
 number of electron     256.0000001 magnetization 
 augmentation part      -14.6767231 magnetization 

 Broyden mixing:
  rms(total) = 0.68771E-01    rms(broyden)= 0.68771E-01
  rms(prec ) = 0.69100E-01
  weight for this iteration     100.00

 eigenvalues of (default mixing * dielectric matrix)
  average eigenvalue GAMMA=   1.6160
  2.7525  2.7525  2.3919  1.9477  0.9350  0.8389  0.8389  0.4703

 Free energy of the ion-electron system (eV)
  ---------------------------------------------------
  alpha Z        PSCENC =       109.93148728
  Ewald energy   TEWEN  =     -7365.22475610
  -Hartree energ DENC   =      -460.27902269
  -exchange      EXHF   =         0.00000000
  -V(xc)+E(xc)   XCENC  =      -536.11929856
  PAW double counting   =     29504.60830633   -28405.55356300
  entropy T*S    EENTRO =         0.02944644
  eigenvalues    EBANDS =       220.55730580
  atomic energy  EATOM  =      6564.79586099
  Solvation  Ediel_sol  =         0.00000000
  ---------------------------------------------------
  free energy    TOTEN  =      -367.25423350 eV

  energy without entropy =     -367.28367994  energy(sigma->0) =     -367.26404898


--------------------------------------------------------------------------------------------------------




--------------------------------------- Iteration      1(  14)  ---------------------------------------


    POTLOK:  cpu time      0.0775: real time      0.0937
    SETDIJ:  cpu time      0.0718: real time      0.0720
    EDDIAG:  cpu time      0.1353: real time      0.1357
  RMM-DIIS:  cpu time      0.6971: real time      0.6996
    ORTHCH:  cpu time      0.0208: real time      0.0208
       DOS:  cpu time      0.0021: real time      0.0021
    CHARGE:  cpu time      0.2355: real time      0.2362
    MIXING:  cpu time      0.0084: real time      0.0084
    --------------------------------------------
      LOOP:  cpu time      1.2485: real time      1.2686

 eigenvalue-minimisations  :  2599
 total energy-change (2. order) :-0.4058403E-04  (-0.9664494E-05)
 number of electron     256.0000001 magnetization 
 augmentation part      -14.6770761 magnetization 

 Broyden mixing:
  rms(total) = 0.29620E-01    rms(broyden)= 0.29620E-01
  rms(prec ) = 0.29869E-01
  weight for this iteration     100.00

 eigenvalues of (default mixing * dielectric matrix)
  average eigenvalue GAMMA=   1.4640
  2.6399  2.6399  2.3464  1.8019  0.9843  0.9843  0.8096  0.4848  0.4848

 Free energy of the ion-electron system (eV)
  ---------------------------------------------------
  alpha Z        PSCENC =       109.93148728
  Ewald energy   TEWEN  =     -7365.22475610
  -Hartree energ DENC   =      -460.08294670
  -exchange      EXHF   =         0.00000000
  -V(xc)+E(xc)   XCENC  =      -536.16066690
  PAW double counting   =     29223.08170722   -28124.05208080
  entropy T*S    EENTRO =         0.02943309
  eigenvalues    EBANDS =       220.42768782
  atomic energy  EATOM  =      6564.79586099
  Solvation  Ediel_sol  =         0.00000000
  ---------------------------------------------------
  free energy    TOTEN  =      -367.25427409 eV

  energy without entropy =     -367.28370718  energy(sigma->0) =     -367.26408512


--------------------------------------------------------------------------------------------------------




--------------------------------------- Iteration      1(  15)  ---------------------------------------


    POTLOK:  cpu time      0.1029: real time      0.1214
    SETDIJ:  cpu time      0.0732: real time      0.0734
    EDDIAG:  cpu time      0.1345: real time      0.1352
  RMM-DIIS:  cpu time      0.7178: real time      0.7200
    ORTHCH:  cpu time      0.0214: real time      0.0215
       DOS:  cpu time      0.0020: real time      0.0020
    CHARGE:  cpu time      0.2380: real time      0.2386
    MIXING:  cpu time      0.0066: real time      0.0066
    --------------------------------------------
      LOOP:  cpu time      1.2964: real time      1.3187

 eigenvalue-minimisations  :  2640
 total energy-change (2. order) :-0.5496875E-04  (-0.3226138E-05)
 number of electron     256.0000001 magnetization 
 augmentation part      -14.6773120 magnetization 

 Broyden mixing:
  rms(total) = 0.23497E-01    rms(broyden)= 0.23497E-01
  rms(prec ) = 0.23676E-01
  weight for this iteration     100.00

 eigenvalues of (default mixing * dielectric matrix)
  average eigenvalue GAMMA=   1.4311
  2.7135  2.7135  2.2861  1.7124  0.8281  0.8281  0.9669  0.9669  0.8184  0.4769

 Free energy of the ion-electron system (eV)
  ---------------------------------------------------
  alpha Z        PSCENC =       109.93148728
  Ewald energy   TEWEN  =     -7365.22475610
  -Hartree energ DENC   =      -460.06313906
  -exchange      EXHF   =         0.00000000
  -V(xc)+E(xc)   XCENC  =      -536.15949196
  PAW double counting   =     29202.24394422   -28103.21055850
  entropy T*S    EENTRO =         0.02942740
  eigenvalues    EBANDS =       220.40289668
  atomic energy  EATOM  =      6564.79586099
  Solvation  Ediel_sol  =         0.00000000
  ---------------------------------------------------
  free energy    TOTEN  =      -367.25432905 eV

  energy without entropy =     -367.28375646  energy(sigma->0) =     -367.26413819


--------------------------------------------------------------------------------------------------------




--------------------------------------- Iteration      1(  16)  ---------------------------------------


    POTLOK:  cpu time      0.0800: real time      0.0958
    SETDIJ:  cpu time      0.0710: real time      0.0712
    EDDIAG:  cpu time      0.1454: real time      0.1460
  RMM-DIIS:  cpu time      0.6918: real time      0.6939
    ORTHCH:  cpu time      0.0217: real time      0.0218
       DOS:  cpu time      0.0017: real time      0.0017
    CHARGE:  cpu time      0.2380: real time      0.2387
    MIXING:  cpu time      0.0072: real time      0.0072
    --------------------------------------------
      LOOP:  cpu time      1.2569: real time      1.2764

 eigenvalue-minimisations  :  2592
 total energy-change (2. order) :-0.3407572E-04  (-0.2181830E-05)
 number of electron     256.0000001 magnetization 
 augmentation part      -14.6769024 magnetization 

 Broyden mixing:
  rms(total) = 0.12805E-01    rms(broyden)= 0.12805E-01
  rms(prec ) = 0.12884E-01
  weight for this iteration     100.00

 eigenvalues of (default mixing * dielectric matrix)
  average eigenvalue GAMMA=   1.3632
  2.7255  2.7255  2.2470  1.7876  0.9191  0.9191  0.9594  0.9594  0.8021  0.4755
  0.4755

 Free energy of the ion-electron system (eV)
  ---------------------------------------------------
  alpha Z        PSCENC =       109.93148728
  Ewald energy   TEWEN  =     -7365.22475610
  -Hartree energ DENC   =      -460.17070964
  -exchange      EXHF   =         0.00000000
  -V(xc)+E(xc)   XCENC  =      -536.15185198
  PAW double counting   =     29158.85995999   -28059.82932106
  entropy T*S    EENTRO =         0.02943009
  eigenvalues    EBANDS =       220.50553728
  atomic energy  EATOM  =      6564.79586099
  Solvation  Ediel_sol  =         0.00000000
  ---------------------------------------------------
  free energy    TOTEN  =      -367.25436313 eV

  energy without entropy =     -367.28379322  energy(sigma->0) =     -367.26417316


--------------------------------------------------------------------------------------------------------




--------------------------------------- Iteration      1(  17)  ---------------------------------------


    POTLOK:  cpu time      0.0813: real time      0.0952
    SETDIJ:  cpu time      0.0701: real time      0.0703
    EDDIAG:  cpu time      0.1337: real time      0.1345
  RMM-DIIS:  cpu time      0.7012: real time      0.7032
    ORTHCH:  cpu time      0.0216: real time      0.0217
       DOS:  cpu time      0.0015: real time      0.0015
    CHARGE:  cpu time      0.2369: real time      0.2376
    MIXING:  cpu time      0.0070: real time      0.0070
    --------------------------------------------
      LOOP:  cpu time      1.2532: real time      1.2710

 eigenvalue-minimisations  :  2590
 total energy-change (2. order) :-0.8662569E-05  (-0.9125398E-06)
 number of electron     256.0000001 magnetization 
 augmentation part      -14.6766222 magnetization 

 Broyden mixing:
  rms(total) = 0.34921E-02    rms(broyden)= 0.34920E-02
  rms(prec ) = 0.35227E-02
  weight for this iteration     100.00

 eigenvalues of (default mixing * dielectric matrix)
  average eigenvalue GAMMA=   1.6497
  2.4317  2.4317  2.7674  2.7674  2.3774  2.0766  0.9963  0.9963  0.8574  0.8046
  0.8046  0.4847

 Free energy of the ion-electron system (eV)
  ---------------------------------------------------
  alpha Z        PSCENC =       109.93148728
  Ewald energy   TEWEN  =     -7365.22475610
  -Hartree energ DENC   =      -460.21511692
  -exchange      EXHF   =         0.00000000
  -V(xc)+E(xc)   XCENC  =      -536.15239133
  PAW double counting   =     29107.18528648   -28008.15552903
  entropy T*S    EENTRO =         0.02943034
  eigenvalues    EBANDS =       220.55135649
  atomic energy  EATOM  =      6564.79586099
  Solvation  Ediel_sol  =         0.00000000
  ---------------------------------------------------
  free energy    TOTEN  =      -367.25437179 eV

  energy without entropy =     -367.28380214  energy(sigma->0) =     -367.26418191


--------------------------------------------------------------------------------------------------------




--------------------------------------- Iteration      1(  18)  ---------------------------------------


    POTLOK:  cpu time      0.0814: real time      0.0963
    SETDIJ:  cpu time      0.0712: real time      0.0714
    EDDIAG:  cpu time      0.1362: real time      0.1368
  RMM-DIIS:  cpu time      0.4846: real time      0.4861
    ORTHCH:  cpu time      0.0211: real time      0.0212
       DOS:  cpu time      0.0020: real time      0.0020
    --------------------------------------------
      LOOP:  cpu time      0.7965: real time      0.8137

 eigenvalue-minimisations  :  1668
 total energy-change (2. order) :-0.9616106E-06  (-0.2263531E-06)
 number of electron     256.0000001 magnetization 
 augmentation part      -14.6766222 magnetization 

 Free energy of the ion-electron system (eV)
  ---------------------------------------------------
  alpha Z        PSCENC =       109.93148728
  Ewald energy   TEWEN  =     -7365.22475610
  -Hartree energ DENC   =      -460.23510359
  -exchange      EXHF   =         0.00000000
  -V(xc)+E(xc)   XCENC  =      -536.15250427
  PAW double counting   =     29086.85493400   -27987.82565164
  entropy T*S    EENTRO =         0.02943037
  eigenvalues    EBANDS =       220.57193019
  atomic energy  EATOM  =      6564.79586099
  Solvation  Ediel_sol  =         0.00000000
  ---------------------------------------------------
  free energy    TOTEN  =      -367.25437275 eV

  energy without entropy =     -367.28380313  energy(sigma->0) =     -367.26418288


--------------------------------------------------------------------------------------------------------




 average (electrostatic) potential at core
  the test charge radii are     0.9892
  (the norm of the test charge is              1.0000)
       1 -82.7915       2 -82.7915       3 -82.7915       4 -82.7915       5 -82.7915
       6 -82.7915       7 -82.7915       8 -82.7915       9 -82.7915      10 -82.7915
      11 -82.7915      12 -82.7915      13 -82.7915      14 -82.7915      15 -82.7915
      16 -82.7915      17 -82.7915      18 -82.7915      19 -82.7915      20 -82.7915
      21 -82.7915      22 -82.7915      23 -82.7915      24 -82.7915      25 -82.7915
      26 -82.7915      27 -82.7915      28 -82.7915      29 -82.7915      30 -82.7915
      31 -82.7915      32 -82.7915      33 -82.7915      34 -82.7915      35 -82.7915
      36 -82.7915      37 -82.7915      38 -82.7915      39 -82.7915      40 -82.7915
      41 -82.7915      42 -82.7915      43 -82.7915      44 -82.7915      45 -82.7915
      46 -82.7915      47 -82.7915      48 -82.7915      49 -82.7915      50 -82.7915
      51 -82.7915      52 -82.7915      53 -82.7915      54 -82.7915      55 -82.7915
      56 -82.7915      57 -82.7915      58 -82.7915      59 -82.7915      60 -82.7915
      61 -82.7915      62 -82.7915      63 -82.7915      64 -82.7915
 
 
 
 E-fermi :   6.2772     XC(G=0):  -9.6347     alpha+bet :-12.2382

 val. band max:        6.0511942273   @ k =   0.0000   0.0000   0.0000
 cond. band min:       6.4290736500   @ k =   0.0000   0.0000   0.5000
 fundamental gap:      0.3778794227
 Fermi energy:         6.2771651794

 k-point     1 :       0.0000    0.0000    0.0000
  band No.  band energies     occupation 
      1      -6.1292      2.00000
      2      -5.0414      2.00000
      3      -5.0414      2.00000
      4      -5.0138      2.00000
      5      -5.0137      2.00000
      6      -5.0133      2.00000
      7      -5.0133      2.00000
      8      -4.0839      2.00000
      9      -4.0839      2.00000
     10      -4.0404      2.00000
     11      -4.0404      2.00000
     12      -4.0404      2.00000
     13      -4.0404      2.00000
     14      -4.0207      2.00000
     15      -4.0207      2.00000
     16      -4.0207      2.00000
     17      -4.0207      2.00000
     18      -3.9958      2.00000
     19      -3.9957      2.00000
     20      -3.7741      2.00000
     21      -3.7741      2.00000
     22      -3.6730      2.00000
     23      -3.6730      2.00000
     24      -1.9499      2.00000
     25      -1.9499      2.00000
     26      -1.9214      2.00000
     27      -1.8583      2.00000
     28      -1.8583      2.00000
     29      -1.7971      2.00000
     30      -1.7888      2.00000
     31      -1.7888      2.00000
     32      -1.7558      2.00000
     33      -1.7558      2.00000
     34      -1.7198      2.00000
     35      -1.7198      2.00000
     36      -1.7198      2.00000
     37      -1.7198      2.00000
     38      -1.6507      2.00000
     39      -1.6507      2.00000
     40      -1.6189      2.00000
     41      -1.6189      2.00000
     42      -1.1189      2.00000
     43      -1.1189      2.00000
     44      -1.0964      2.00000
     45      -1.0963      2.00000
     46       0.4419      2.00000
     47       0.4419      2.00000
     48       0.4419      2.00000
     49       0.4419      2.00000
     50       0.4660      2.00000
     51       0.4660      2.00000
     52       0.4960      2.00000
     53       0.4960      2.00000
     54       0.4960      2.00000
     55       0.4960      2.00000
     56       0.5240      2.00000
     57       0.5240      2.00000
     58       2.0079      2.00000
     59       2.0080      2.00000
     60       2.0092      2.00000
     61       2.0092      2.00000
     62       2.0093      2.00000
     63       2.0093      2.00000
     64       2.0093      2.00000
     65       2.0093      2.00000
     66       2.0142      2.00000
     67       2.0142      2.00000
     68       2.0165      2.00000
     69       2.0165      2.00000
     70       2.0669      2.00000
     71       2.0669      2.00000
     72       2.0670      2.00000
     73       2.0670      2.00000
     74       2.1334      2.00000
     75       2.1334      2.00000
     76       2.1507      2.00000
     77       2.1507      2.00000
     78       2.1508      2.00000
     79       2.1508      2.00000
     80       2.1671      2.00000
     81       2.1671      2.00000
     82       2.4221      2.00000
     83       2.4221      2.00000
     84       2.5289      2.00000
     85       2.5289      2.00000
     86       2.5322      2.00000
     87       2.5322      2.00000
     88       2.9615      2.00000
     89       3.0421      2.00000
     90       3.0421      2.00000
     91       3.1236      2.00000
     92       3.1582      2.00000
     93       3.1582      2.00000
     94       3.9609      2.00000
     95       3.9609      2.00000
     96       4.0151      2.00000
     97       4.0151      2.00000
     98       4.0489      2.00000
     99       4.0489      2.00000
    100       4.1057      2.00000
    101       4.1057      2.00000
    102       4.1224      2.00000
    103       4.1224      2.00000
    104       4.1225      2.00000
    105       4.1225      2.00000
    106       4.5724      2.00000
    107       4.5724      2.00000
    108       4.6091      2.00000
    109       4.6091      2.00000
    110       4.6091      2.00000
    111       4.6091      2.00000
    112       4.6479      2.00000
    113       4.6479      2.00000
    114       4.6802      2.00000
    115       4.6802      2.00000
    116       4.7316      2.00000
    117       4.7316      2.00000
    118       4.7316      2.00000
    119       4.7316      2.00000
    120       4.7524      2.00000
    121       4.7524      2.00000
    122       4.8250      2.00000
    123       4.8250      2.00000
    124       4.9001      2.00000
    125       4.9001      2.00000
    126       5.9378      2.03736
    127       6.0457      2.06939
    128       6.0512      2.06777
    129       6.4319      0.03405
    130       6.5171     -0.07071
    131       6.5171     -0.07071
    132       6.6043     -0.04285
    133       6.6371     -0.02889
    134       6.6371     -0.02889
    135       6.9853     -0.00001
    136       6.9853     -0.00001
    137       6.9854     -0.00001
    138       6.9854     -0.00001
    139       7.1044     -0.00000
    140       7.1044     -0.00000
    141       7.4671     -0.00000
    142       7.4671     -0.00000
    143       7.6168     -0.00000
    144       7.6168     -0.00000
    145       8.2895     -0.00000
    146       8.2908     -0.00000
    147       8.3380     -0.00000
    148       8.3382     -0.00000
    149       8.3384     -0.00000
    150       8.3420     -0.00000
    151       8.3931     -0.00000
    152       8.3960     -0.00000
    153       8.4284     -0.00000
    154       8.4796     -0.00000
    155       8.4798     -0.00000
    156       8.4818     -0.00000
    157       8.4890     -0.00000
    158       8.5004     -0.00000
    159       8.7047     -0.00000
    160       9.0331     -0.00000
    161       9.0666     -0.00000
    162       9.1289     -0.00000

 k-point     2 :       0.5000   -0.0000    0.0000
  band No.  band energies     occupation 
      1      -5.8550      2.00000
      2      -5.8550      2.00000
      3      -4.7855      2.00000
      4      -4.7855      2.00000
      5      -4.7638      2.00000
      6      -4.7638      2.00000
      7      -4.7638      2.00000
      8      -4.7638      2.00000
      9      -4.7413      2.00000
     10      -4.7413      2.00000
     11      -3.9181      2.00000
     12      -3.9181      2.00000
     13      -3.9181      2.00000
     14      -3.9181      2.00000
     15      -3.8567      2.00000
     16      -3.8567      2.00000
     17      -3.8567      2.00000
     18      -3.8567      2.00000
     19      -3.7189      2.00000
     20      -3.7189      2.00000
     21      -3.0089      2.00000
     22      -3.0089      2.00000
     23      -2.9460      2.00000
     24      -2.9460      2.00000
     25      -2.9459      2.00000
     26      -2.9459      2.00000
     27      -2.8818      2.00000
     28      -2.8818      2.00000
     29      -1.8444      2.00000
     30      -1.8444      2.00000
     31      -1.8200      2.00000
     32      -1.8200      2.00000
     33      -1.7341      2.00000
     34      -1.7341      2.00000
     35      -1.7114      2.00000
     36      -1.7114      2.00000
     37      -0.6588      2.00000
     38      -0.6588      2.00000
     39      -0.6069      2.00000
     40      -0.6069      2.00000
     41      -0.6069      2.00000
     42      -0.6069      2.00000
     43      -0.5578      2.00000
     44      -0.5578      2.00000
     45      -0.5039      2.00000
     46      -0.5039      2.00000
     47      -0.5039      2.00000
     48      -0.5039      2.00000
     49      -0.4946      2.00000
     50      -0.4946      2.00000
     51      -0.4946      2.00000
     52      -0.4946      2.00000
     53       0.1538      2.00000
     54       0.1538      2.00000
     55       1.6546      2.00000
     56       1.6546      2.00000
     57       1.6567      2.00000
     58       1.6567      2.00000
     59       1.6567      2.00000
     60       1.6567      2.00000
     61       1.6590      2.00000
     62       1.6590      2.00000
     63       1.6929      2.00000
     64       1.6929      2.00000
     65       1.7087      2.00000
     66       1.7087      2.00000
     67       1.7088      2.00000
     68       1.7088      2.00000
     69       1.7282      2.00000
     70       1.7282      2.00000
     71       2.4157      2.00000
     72       2.4157      2.00000
     73       2.4479      2.00000
     74       2.4479      2.00000
     75       2.4744      2.00000
     76       2.4744      2.00000
     77       2.5075      2.00000
     78       2.5075      2.00000
     79       3.1780      2.00000
     80       3.1780      2.00000
     81       3.2086      2.00000
     82       3.2086      2.00000
     83       3.2086      2.00000
     84       3.2086      2.00000
     85       3.2343      2.00000
     86       3.2343      2.00000
     87       3.2606      2.00000
     88       3.2606      2.00000
     89       3.2850      2.00000
     90       3.2850      2.00000
     91       3.2850      2.00000
     92       3.2850      2.00000
     93       3.3083      2.00000
     94       3.3083      2.00000
     95       3.3757      2.00000
     96       3.3757      2.00000
     97       3.3757      2.00000
     98       3.3757      2.00000
     99       3.4038      2.00000
    100       3.4038      2.00000
    101       3.4042      2.00000
    102       3.4042      2.00000
    103       3.4517      2.00000
    104       3.4517      2.00000
    105       3.4517      2.00000
    106       3.4517      2.00000
    107       4.5260      2.00000
    108       4.5260      2.00000
    109       4.5260      2.00000
    110       4.5260      2.00000
    111       4.5268      2.00000
    112       4.5268      2.00000
    113       4.5298      2.00000
    114       4.5298      2.00000
    115       4.6277      2.00000
    116       4.6277      2.00000
    117       4.7694      2.00000
    118       4.7694      2.00000
    119       4.7694      2.00000
    120       4.7694      2.00000
    121       4.8198      2.00000
    122       4.8198      2.00000
    123       4.8198      2.00000
    124       4.8198      2.00000
    125       5.2154      2.00000
    126       5.2154      2.00000
    127       5.2172      2.00000
    128       5.2172      2.00000
    129       6.5691     -0.05883
    130       6.5691     -0.05883
    131       7.4334     -0.00000
    132       7.4334     -0.00000
    133       7.6790     -0.00000
    134       7.6791     -0.00000
    135       7.7824     -0.00000
    136       7.7824     -0.00000
    137       7.8003     -0.00000
    138       7.8003     -0.00000
    139       7.9054     -0.00000
    140       7.9054     -0.00000
    141       8.0038     -0.00000
    142       8.0039     -0.00000
    143       8.2692     -0.00000
    144       8.2705     -0.00000
    145       8.3217     -0.00000
    146       8.3222     -0.00000
    147       8.3245     -0.00000
    148       8.3315     -0.00000
    149       8.3820     -0.00000
    150       8.3828     -0.00000
    151       8.3832     -0.00000
    152       8.3859     -0.00000
    153       8.3880     -0.00000
    154       8.4030     -0.00000
    155       8.4696     -0.00000
    156       8.4701     -0.00000
    157       8.4751     -0.00000
    158       8.5428     -0.00000
    159       8.7549     -0.00000
    160       8.7919     -0.00000
    161       8.8102     -0.00000
    162       8.8267     -0.00000

 k-point     3 :      -0.0000    0.5000    0.0000
  band No.  band energies     occupation 
[...]
 -0.000  -0.000   4.174   0.000  -0.000   7.776   0.000  -0.000
  0.001   0.001   0.000   4.174   0.000   0.000   7.776   0.000
 -0.000  -0.000  -0.000   0.000   4.174  -0.000   0.000   7.776
 -0.000  -0.000   7.776   0.000  -0.000  14.498   0.000  -0.000
  0.002   0.002   0.000   7.776   0.000   0.000  14.498   0.000
 -0.000  -0.000  -0.000   0.000   7.776  -0.000   0.000  14.497
 total augmentation occupancy for first ion, spin component:           1
  6.100  -2.374   0.000  -0.041   0.000   0.000   0.015   0.000
 -2.374   1.033   0.000   0.021   0.000   0.000  -0.007   0.000
  0.000   0.000   3.004   0.000  -0.007  -0.675  -0.000  -0.000
 -0.041   0.021   0.000   3.004   0.000   0.000  -0.676   0.000
  0.000   0.000  -0.007   0.000   3.032  -0.000   0.000  -0.686
  0.000   0.000  -0.675   0.000  -0.000   0.161   0.000   0.000
  0.015  -0.007  -0.000  -0.676   0.000   0.000   0.161   0.000
  0.000   0.000  -0.000   0.000  -0.686   0.000   0.000   0.164


------------------------ aborting loop because EDIFF is reached ----------------------------------------


    CHARGE:  cpu time      0.2468: real time      0.2476
    FORLOC:  cpu time      0.0217: real time      0.0218
    FORNL :  cpu time      0.6827: real time      0.6848
    STRESS:  cpu time      2.1034: real time      2.1101
    FORCOR:  cpu time      0.0877: real time      0.0879
    FORHAR:  cpu time      0.0359: real time      0.0360
    MIXING:  cpu time      0.0260: real time      0.0261
    OFIELD:  cpu time      0.0000: real time      0.0000

  FORCE on cell =-STRESS in cart. coord.  units (eV):
  Direction    XX          YY          ZZ          XY          YZ          ZX
  --------------------------------------------------------------------------------------
  Alpha Z   109.93149   109.93149   109.93149
  Ewald   -2421.77429 -2472.01414 -2471.87362   -11.17070    -0.00000     0.00000
  Hartree   158.88823   150.62371   150.49972    -6.47294    -0.00000    -0.00000
  E(xc)    -822.13299  -821.67729  -821.69704     0.10630    -0.00000    -0.00000
  Local    -960.88501  -899.92779  -900.13737    19.23612     0.00000    -0.00000
  n-local  2502.00295  2494.33142  2494.67316    -1.07207     0.00000    -0.00000
  augment  -368.69271  -368.71354  -368.72303     0.56990     0.00000     0.00000
  Kinetic  1813.91666  1829.95265  1829.46431    -9.74441     0.00000    -0.00000
  Fock        0.00000     0.00000     0.00000     0.00000     0.00000     0.00000
  -------------------------------------------------------------------------------------
  Total      11.25433    22.50650    22.13763    -8.54779     0.00000     0.00000
  in kB      14.37599    28.74923    28.27804   -10.91873     0.00000     0.00000
  external pressure =       23.80 kB  Pullay stress =        0.00 kB


 VOLUME and BASIS-vectors are now :
 -----------------------------------------------------------------------------
  energy-cutoff  :      400.00
  volume of cell :     1254.27
      direct lattice vectors                 reciprocal lattice vectors
    10.892213609  0.080484012  0.000000000     0.091813791 -0.000688601  0.000000000
     0.080484012 10.731245585  0.000000000    -0.000688601  0.093190992  0.000000000
     0.000000000  0.000000000 10.731245585     0.000000000  0.000000000  0.093185828

  length of vectors
    10.892510958 10.731547394 10.731245585     0.091816373  0.093193536  0.093185828


 FORCES acting on ions
    electron-ion (+dipol)            ewald-force                    non-local-force                 convergence-correction
 -----------------------------------------------------------------------------------------------
   0.246E-08 -.100E-09 -.127E+01   -.124E-13 -.255E-13 0.903E+00   0.196E-21 0.198E-20 0.364E+00   -.938E-14 0.131E-12 0.134E-04
   0.246E-08 -.100E-09 -.127E+01   -.133E-13 -.253E-13 0.903E+00   -.487E-22 -.879E-21 0.364E+00   0.187E-13 -.249E-13 0.134E-04
   0.246E-08 -.100E-09 -.127E+01   0.622E-14 -.209E-13 0.903E+00   -.927E-21 -.849E-21 0.364E+00   0.133E-13 -.129E-12 0.134E-04
   0.246E-08 -.100E-09 -.127E+01   0.799E-14 -.244E-13 0.903E+00   -.288E-21 -.785E-21 0.364E+00   -.951E-14 0.281E-13 0.134E-04
   0.246E-08 -.100E-09 -.127E+01   -.622E-14 -.293E-13 0.903E+00   -.104E-20 -.581E-21 0.364E+00   0.178E-13 0.961E-13 0.134E-04
   0.246E-08 -.100E-09 -.127E+01   -.799E-14 -.329E-13 0.903E+00   -.631E-21 -.569E-21 0.364E+00   -.105E-13 -.189E-13 0.134E-04
   0.246E-08 -.100E-09 -.127E+01   0.888E-14 -.244E-13 0.903E+00   0.177E-21 -.170E-20 0.364E+00   -.459E-14 -.980E-13 0.134E-04
   0.246E-08 -.101E-09 -.127E+01   -.107E-13 -.213E-13 0.903E+00   -.662E-21 0.260E-21 0.364E+00   0.209E-13 0.688E-14 0.134E-04
   -.985E-09 -.163E-09 0.127E+01   -.222E-14 -.249E-13 -.903E+00   0.360E-21 -.132E-20 -.364E+00   -.502E-13 -.768E-13 -.134E-04
   -.985E-09 -.164E-09 0.127E+01   -.178E-14 -.266E-13 -.903E+00   0.168E-21 0.174E-20 -.364E+00   0.342E-13 0.813E-13 -.134E-04
   -.985E-09 -.164E-09 0.127E+01   -.622E-14 -.191E-13 -.903E+00   -.114E-21 0.105E-20 -.364E+00   -.633E-14 0.707E-13 -.134E-04
   -.985E-09 -.163E-09 0.127E+01   -.355E-14 -.178E-13 -.903E+00   -.768E-22 -.904E-22 -.364E+00   0.136E-13 -.676E-13 -.134E-04
   -.985E-09 -.164E-09 0.127E+01   0.107E-13 -.226E-13 -.903E+00   0.587E-22 0.165E-20 -.364E+00   0.516E-13 -.780E-13 -.134E-04
   -.985E-09 -.164E-09 0.127E+01   -.888E-14 -.231E-13 -.903E+00   -.284E-21 0.124E-20 -.364E+00   -.234E-13 0.925E-13 -.134E-04
   -.985E-09 -.163E-09 0.127E+01   -.253E-13 -.204E-13 -.903E+00   0.334E-21 -.118E-20 -.364E+00   -.367E-14 0.785E-13 -.134E-04
   -.985E-09 -.163E-09 0.127E+01   -.249E-13 -.231E-13 -.903E+00   -.241E-21 -.534E-21 -.364E+00   -.463E-14 -.836E-13 -.134E-04
   0.246E-08 -.100E-09 -.127E+01   0.140E-13 0.266E-14 0.903E+00   -.801E-21 0.795E-21 0.364E+00   0.510E-13 -.337E-13 0.134E-04
   0.246E-08 -.100E-09 -.127E+01   0.107E-13 0.222E-14 0.903E+00   0.627E-22 0.470E-21 0.364E+00   -.542E-13 0.168E-12 0.134E-04
   0.246E-08 -.100E-09 -.127E+01   0.755E-14 0.111E-13 0.903E+00   -.354E-21 0.937E-21 0.364E+00   0.172E-13 0.168E-13 0.134E-04
   0.246E-08 -.100E-09 -.127E+01   0.888E-15 0.147E-13 0.903E+00   0.329E-21 -.205E-21 0.364E+00   0.226E-13 -.160E-12 0.134E-04
   0.246E-08 -.101E-09 -.127E+01   -.244E-14 0.222E-14 0.903E+00   0.701E-22 0.130E-20 0.364E+00   -.592E-13 0.122E-13 0.134E-04
   0.246E-08 -.101E-09 -.127E+01   0.120E-13 0.533E-14 0.903E+00   0.778E-21 0.409E-22 0.364E+00   0.762E-13 0.457E-13 0.134E-04
   0.246E-08 -.100E-09 -.127E+01   0.355E-14 0.711E-14 0.903E+00   -.184E-21 0.534E-21 0.364E+00   -.690E-14 -.122E-13 0.134E-04
   0.246E-08 -.101E-09 -.127E+01   -.355E-14 0.711E-14 0.903E+00   -.325E-21 0.202E-20 0.364E+00   -.977E-14 -.492E-13 0.134E-04
   -.985E-09 -.164E-09 0.127E+01   0.488E-14 0.656E-14 -.903E+00   0.711E-21 0.781E-21 -.364E+00   -.770E-13 0.386E-13 -.134E-04
   -.985E-09 -.164E-09 0.127E+01   -.222E-14 0.106E-13 -.903E+00   0.741E-22 -.254E-20 -.364E+00   0.961E-13 0.744E-13 -.134E-04
   -.985E-09 -.164E-09 0.127E+01   0.355E-14 0.107E-13 -.903E+00   -.380E-21 0.173E-20 -.364E+00   -.173E-13 -.236E-13 -.134E-04
   -.985E-09 -.163E-09 0.127E+01   0.000E+00 0.143E-13 -.903E+00   -.620E-21 0.141E-20 -.364E+00   -.999E-14 -.704E-13 -.134E-04
   -.985E-09 -.165E-09 0.127E+01   -.533E-14 0.106E-13 -.903E+00   -.192E-21 0.144E-20 -.364E+00   0.705E-13 0.191E-13 -.134E-04
   -.985E-09 -.163E-09 0.127E+01   0.178E-14 0.110E-13 -.903E+00   -.169E-21 0.254E-20 -.364E+00   -.904E-13 0.172E-12 -.134E-04
   -.985E-09 -.163E-09 0.127E+01   -.533E-14 0.718E-14 -.903E+00   0.216E-21 -.280E-21 -.364E+00   0.231E-13 0.471E-14 -.134E-04
   -.985E-09 -.163E-09 0.127E+01   0.178E-14 0.112E-13 -.903E+00   0.186E-21 -.366E-20 -.364E+00   0.177E-13 -.162E-12 -.134E-04
   0.246E-08 -.100E-09 -.127E+01   -.777E-14 -.118E-13 0.903E+00   -.932E-21 0.407E-20 0.364E+00   -.602E-13 0.363E-13 0.134E-04
   0.246E-08 -.100E-09 -.127E+01   -.844E-14 -.120E-13 0.903E+00   0.104E-20 -.230E-20 0.364E+00   0.792E-13 0.399E-13 0.134E-04
   0.246E-08 -.100E-09 -.127E+01   -.799E-14 -.755E-14 0.903E+00   0.202E-20 -.108E-20 0.364E+00   -.283E-13 -.311E-13 0.134E-04
   0.246E-08 -.100E-09 -.127E+01   -.799E-14 -.182E-13 0.903E+00   -.617E-21 0.112E-20 0.364E+00   -.293E-13 -.406E-13 0.134E-04
   0.246E-08 -.100E-09 -.127E+01   -.622E-14 -.799E-14 0.903E+00   0.151E-20 -.346E-20 0.364E+00   0.674E-13 -.538E-14 0.134E-04
   0.246E-08 -.100E-09 -.127E+01   0.799E-14 -.799E-14 0.903E+00   -.883E-21 -.627E-21 0.364E+00   -.983E-13 0.120E-12 0.134E-04
   0.246E-08 -.101E-09 -.127E+01   0.311E-14 -.107E-13 0.903E+00   0.426E-22 0.556E-20 0.364E+00   0.258E-13 0.141E-13 0.134E-04
   0.246E-08 -.101E-09 -.127E+01   0.107E-13 -.711E-14 0.903E+00   0.119E-20 -.203E-20 0.364E+00   0.212E-13 -.127E-12 0.134E-04
   -.985E-09 -.163E-09 0.127E+01   -.250E-15 -.888E-14 -.903E+00   -.183E-21 -.342E-20 -.364E+00   -.129E-13 0.244E-13 -.134E-04
   -.985E-09 -.163E-09 0.127E+01   -.472E-15 -.888E-14 -.903E+00   -.148E-20 0.272E-21 -.364E+00   -.474E-13 0.109E-13 -.134E-04
   -.985E-09 -.163E-09 0.127E+01   0.638E-15 -.488E-14 -.903E+00   -.270E-21 -.201E-20 -.364E+00   -.289E-13 -.304E-13 -.134E-04
   -.985E-09 -.163E-09 0.127E+01   0.194E-15 -.844E-14 -.903E+00   -.612E-21 0.202E-20 -.364E+00   0.463E-13 -.956E-15 -.134E-04
   -.985E-09 -.163E-09 0.127E+01   -.622E-14 -.107E-13 -.903E+00   -.624E-21 0.835E-21 -.364E+00   -.551E-14 0.806E-13 -.134E-04
   -.985E-09 -.164E-09 0.127E+01   -.204E-13 -.355E-14 -.903E+00   -.545E-21 0.152E-20 -.364E+00   0.308E-13 -.100E-12 -.134E-04
   -.985E-09 -.163E-09 0.127E+01   -.711E-14 -.711E-14 -.903E+00   -.110E-21 -.318E-20 -.364E+00   0.258E-13 -.836E-13 -.134E-04
   -.985E-09 -.163E-09 0.127E+01   -.755E-14 -.711E-14 -.903E+00   -.143E-20 0.436E-20 -.364E+00   -.631E-13 0.105E-12 -.134E-04
   0.246E-08 -.101E-09 -.127E+01   -.422E-14 0.278E-13 0.903E+00   -.219E-21 -.112E-20 0.364E+00   -.230E-16 -.270E-15 0.134E-04
   0.246E-08 -.100E-09 -.127E+01   0.400E-14 0.169E-13 0.903E+00   0.613E-21 -.251E-20 0.364E+00   -.292E-13 0.997E-13 0.134E-04
   0.246E-08 -.100E-09 -.127E+01   0.107E-13 0.244E-13 0.903E+00   0.185E-21 0.222E-20 0.364E+00   0.207E-13 -.616E-14 0.134E-04
   0.246E-08 -.101E-09 -.127E+01   0.178E-13 0.280E-13 0.903E+00   0.692E-21 0.311E-21 0.364E+00   -.321E-13 -.939E-13 0.134E-04
   0.246E-08 -.996E-10 -.127E+01   0.164E-13 0.173E-13 0.903E+00   0.544E-21 0.186E-20 0.364E+00   0.639E-14 -.165E-13 0.134E-04
   0.246E-08 -.101E-09 -.127E+01   0.155E-13 0.204E-13 0.903E+00   0.189E-21 0.861E-21 0.364E+00   0.129E-13 0.126E-12 0.134E-04
   0.246E-08 -.102E-09 -.127E+01   -.266E-14 0.249E-13 0.903E+00   0.178E-21 -.267E-20 0.364E+00   -.374E-13 0.228E-13 0.134E-04
   0.246E-08 -.100E-09 -.127E+01   -.355E-14 0.249E-13 0.903E+00   -.332E-21 -.190E-20 0.364E+00   0.361E-13 -.127E-12 0.134E-04
   -.985E-09 -.163E-09 0.127E+01   -.634E-14 0.287E-13 -.903E+00   -.651E-21 -.196E-20 -.364E+00   -.574E-14 0.558E-13 -.134E-04
   -.985E-09 -.163E-09 0.127E+01   0.678E-14 0.219E-13 -.903E+00   -.965E-21 0.447E-20 -.364E+00   -.111E-13 0.104E-12 -.134E-04
   -.985E-09 -.163E-09 0.127E+01   -.105E-13 0.221E-13 -.903E+00   -.167E-20 -.279E-20 -.364E+00   -.301E-14 -.389E-13 -.134E-04
   -.985E-09 -.163E-09 0.127E+01   -.105E-13 0.222E-13 -.903E+00   0.927E-21 0.162E-21 -.364E+00   -.254E-13 -.101E-12 -.134E-04
   -.985E-09 -.163E-09 0.127E+01   0.823E-14 0.249E-13 -.903E+00   -.119E-20 -.390E-20 -.364E+00   0.637E-16 0.564E-14 -.134E-04
   -.985E-09 -.163E-09 0.127E+01   -.508E-14 0.253E-13 -.903E+00   0.187E-20 -.218E-20 -.364E+00   -.861E-14 0.125E-12 -.134E-04
   -.985E-09 -.162E-09 0.127E+01   0.253E-14 0.217E-13 -.903E+00   -.102E-20 -.107E-20 -.364E+00   -.612E-14 0.121E-13 -.134E-04
   -.985E-09 -.164E-09 0.127E+01   0.344E-14 0.217E-13 -.903E+00   -.193E-20 0.261E-20 -.364E+00   0.426E-14 -.120E-12 -.134E-04
 -----------------------------------------------------------------------------------------------
   0.473E-07 -.844E-08 0.136E-04   -.633E-13 -.170E-13 -.367E-13   -.828E-20 0.824E-21 -.200E-14   -.583E-13 0.107E-12 0.123E-09
 
 
 POSITION                                       TOTAL-FORCE (eV/Angst)
 -----------------------------------------------------------------------------------
      0.00000      0.00000      0.00586        -0.000000     -0.000000      0.000011
      0.00000      0.00000      5.37149        -0.000000      0.000000      0.000011
      0.04024      5.36562      0.00586        -0.000000     -0.000000      0.000011
      0.04024      5.36562      5.37149        -0.000000     -0.000000      0.000011
      5.44611      0.04024      0.00586         0.000000      0.000000      0.000011
      5.44611      0.04024      5.37149         0.000000      0.000000      0.000011
      5.48635      5.40586      0.00586         0.000000      0.000000      0.000011
      5.48635      5.40586      5.37149        -0.000000      0.000000      0.000011
      4.11476      4.05440      1.33554         0.000000      0.000000     -0.000011
      4.11476      4.05440      6.70117         0.000000      0.000000     -0.000011
      4.15500      9.42002      1.33554         0.000000     -0.000000     -0.000011
      4.15500      9.42002      6.70117        -0.000000     -0.000000     -0.000011
      9.56087      4.09464      1.33554        -0.000000     -0.000000     -0.000011
      9.56087      4.09464      6.70117        -0.000000     -0.000000     -0.000011
      9.60111      9.46026      1.33554         0.000000      0.000000     -0.000011
      9.60111      9.46026      6.70117        -0.000000     -0.000000     -0.000011
      0.02012      2.68281      2.68867        -0.000000     -0.000000      0.000011
      0.02012      2.68281      8.05430        -0.000000     -0.000000      0.000011
      0.06036      8.04843      2.68867        -0.000000     -0.000000      0.000011
      0.06036      8.04843      8.05430        -0.000000     -0.000000      0.000011
      5.46623      2.72305      2.68867         0.000000      0.000000      0.000011
      5.46623      2.72305      8.05430         0.000000     -0.000000      0.000011
      5.50647      8.08868      2.68867         0.000000      0.000000      0.000011
      5.50647      8.08868      8.05430         0.000000      0.000000      0.000011
      4.09464      1.37159      4.01835         0.000000     -0.000000     -0.000011
      4.09464      1.37159      9.38398         0.000000     -0.000000     -0.000011
      4.13488      6.73721      4.01835         0.000000     -0.000000     -0.000011
      4.13488      6.73721      9.38398        -0.000000      0.000000     -0.000011
      9.54075      1.41183      4.01835        -0.000000      0.000000     -0.000011
      9.54075      1.41183      9.38398         0.000000      0.000000     -0.000011
      9.58099      6.77745      4.01835        -0.000000     -0.000000     -0.000011
      9.58099      6.77745      9.38398        -0.000000     -0.000000     -0.000011
      2.72305      0.02012      2.68867        -0.000000     -0.000000      0.000011
      2.72305      0.02012      8.05430        -0.000000     -0.000000      0.000011
      2.76330      5.38574      2.68867         0.000000     -0.000000      0.000011
      2.76330      5.38574      8.05430        -0.000000     -0.000000      0.000011
      8.16916      0.06036      2.68867         0.000000     -0.000000      0.000011
      8.16916      0.06036      8.05430         0.000000      0.000000      0.000011
      8.20940      5.42599      2.68867         0.000000      0.000000      0.000011
      8.20940      5.42599      8.05430        -0.000000      0.000000      0.000011
      1.39171      4.03428      4.01835         0.000000     -0.000000     -0.000011
      1.39171      4.03428      9.38398        -0.000000     -0.000000     -0.000011
      1.43195      9.39990      4.01835        -0.000000      0.000000     -0.000011
      1.43195      9.39990      9.38398        -0.000000      0.000000     -0.000011
      6.83782      4.07452      4.01835         0.000000     -0.000000     -0.000011
      6.83782      4.07452      9.38398         0.000000     -0.000000     -0.000011
      6.87806      9.44014      4.01835         0.000000     -0.000000     -0.000011
      6.87806      9.44014      9.38398         0.000000     -0.000000     -0.000011
      2.74317      2.70293      0.00586        -0.000000     -0.000000      0.000011
      2.74317      2.70293      5.37149        -0.000000     -0.000000      0.000011
      2.78342      8.06856      0.00586        -0.000000      0.000000      0.000011
      2.78342      8.06856      5.37149        -0.000000     -0.000000      0.000011
      8.18928      2.74317      0.00586         0.000000     -0.000000      0.000011
      8.18928      2.74317      5.37149         0.000000      0.000000      0.000011
      8.22952      8.10880      0.00586        -0.000000     -0.000000      0.000011
      8.22952      8.10880      5.37149        -0.000000      0.000000      0.000011
      1.37159      1.35147      1.33554        -0.000000     -0.000000     -0.000011
      1.37159      1.35147      6.70117        -0.000000      0.000000     -0.000011
      1.41183      6.71709      1.33554         0.000000     -0.000000     -0.000011
      1.41183      6.71709      6.70117        -0.000000      0.000000     -0.000011
      6.81769      1.39171      1.33554         0.000000     -0.000000     -0.000011
      6.81769      1.39171      6.70117         0.000000      0.000000     -0.000011
      6.85794      6.75733      1.33554        -0.000000     -0.000000     -0.000011
      6.85794      6.75733      6.70117         0.000000      0.000000     -0.000011
 -----------------------------------------------------------------------------------
    total drift:                                0.000000     -0.000000      0.000014


--------------------------------------------------------------------------------------------------------



  FREE ENERGIE OF THE ION-ELECTRON SYSTEM (eV)
  ---------------------------------------------------
  free  energy   TOTEN  =      -367.28499162 eV

  energy  without entropy=     -367.31168392  energy(sigma->0) =     -367.29388905
 
 d Force = 0.3651691E-02[-0.141E-05, 0.730E-02]  d Energy = 0.3655839E-02-0.415E-05
 d Force =-0.1112744E+00[-0.118E+00,-0.105E+00]  d Ewald  =-0.1112742E+00-0.133E-06


--------------------------------------------------------------------------------------------------------


    POTLOK:  cpu time      0.1458: real time      0.1463


--------------------------------------------------------------------------------------------------------




--------------------------------------------------------------------------------------------------------


  
 reached required accuracy - stopping structural energy minimisation
     LOOP+:  cpu time     12.9805: real time     13.1382
    4ORBIT:  cpu time      0.0000: real time      0.0000

 total amount of memory used by VASP MPI-rank0    80060. kBytes
=======================================================================

   base      :      30000. kBytes
   nonlr-proj:       4603. kBytes
   fftplans  :      18113. kBytes
   grid      :       6881. kBytes
   one-center:         18. kBytes
   wavefun   :      20445. kBytes
 
  
  
 General timing and accounting informations for this job:
 ========================================================
  
                  Total CPU time used (sec):       59.273
                            User time (sec):       55.710
                          System time (sec):        3.563
                         Elapsed time (sec):       62.845
  
                   Maximum memory used (kb):      413784.
                   Average memory used (kb):          N/A
  
                          Minor page faults:        96526
                          Major page faults:            0
                 Voluntary context switches:         9037
