Si64                                    
           1
    10.892214    0.080484    0.000000
     0.080484   10.731246    0.000000
     0.000000    0.000000   10.731246
   Si
    64
Direct configuration=     1
   0.00000000  0.00000000  0.00000000
   0.00000000  0.00000000  0.50000000
   0.00000000  0.50000000  0.00000000
   0.00000000  0.50000000  0.50000000
   0.50000000  0.00000000  0.00000000
   0.50000000  0.00000000  0.50000000
   0.50000000  0.50000000  0.00000000
   0.50000000  0.50000000  0.50000000
   0.37500000  0.37500000  0.12500000
   0.37500000  0.37500000  0.62500000
   0.37500000  0.87500000  0.12500000
   0.37500000  0.87500000  0.62500000
   0.87500000  0.37500000  0.12500000
   0.87500000  0.37500000  0.62500000
   0.87500000  0.87500000  0.12500000
   0.87500000  0.87500000  0.62500000
   0.00000000  0.25000000  0.25000000
   0.00000000  0.25000000  0.75000000
   0.00000000  0.75000000  0.25000000
   0.00000000  0.75000000  0.75000000
   0.50000000  0.25000000  0.25000000
   0.50000000  0.25000000  0.75000000
   0.50000000  0.75000000  0.25000000
   0.50000000  0.75000000  0.75000000
   0.37500000  0.12500000  0.37500000
   0.37500000  0.12500000  0.87500000
   0.37500000  0.62500000  0.37500000
   0.37500000  0.62500000  0.87500000
   0.87500000  0.12500000  0.37500000
   0.87500000  0.12500000  0.87500000
   0.87500000  0.62500000  0.37500000
   0.87500000  0.62500000  0.87500000
   0.25000000  0.00000000  0.25000000
   0.25000000  0.00000000  0.75000000
   0.25000000  0.50000000  0.25000000
   0.25000000  0.50000000  0.75000000
   0.75000000  0.00000000  0.25000000
   0.75000000  0.00000000  0.75000000
   0.75000000  0.50000000  0.25000000
   0.75000000  0.50000000  0.75000000
   0.12500000  0.37500000  0.37500000
   0.12500000  0.37500000  0.87500000
   0.12500000  0.87500000  0.37500000
   0.12500000  0.87500000  0.87500000
   0.62500000  0.37500000  0.37500000
   0.62500000  0.37500000  0.87500000
   0.62500000  0.87500000  0.37500000
   0.62500000  0.87500000  0.87500000
   0.25000000  0.25000000  0.00000000
   0.25000000  0.25000000  0.50000000
   0.25000000  0.75000000  0.00000000
   0.25000000  0.75000000  0.50000000
   0.75000000  0.25000000  0.00000000
   0.75000000  0.25000000  0.50000000
   0.75000000  0.75000000  0.00000000
   0.75000000  0.75000000  0.50000000
   0.12500000  0.12500000  0.12500000
   0.12500000  0.12500000  0.62500000
   0.12500000  0.62500000  0.12500000
   0.12500000  0.62500000  0.62500000
   0.62500000  0.12500000  0.12500000
   0.62500000  0.12500000  0.62500000
   0.62500000  0.62500000  0.12500000
   0.62500000  0.62500000  0.62500000
Direct configuration=     2
   1.00000000  1.00000000  0.00073605
   1.00000000  0.00000000  0.50073605
   1.00000000  0.50000000  0.00073605
   0.00000000  0.50000000  0.50073605
   0.50000000  0.00000000  0.00073605
   0.50000000  0.00000000  0.50073605
   0.50000000  0.50000000  0.00073605
   0.50000000  0.50000000  0.50073605
   0.37500000  0.37500000  0.12426395
   0.37500000  0.37500000  0.62426395
   0.37500000  0.87500000  0.12426395
   0.37500000  0.87500000  0.62426395
   0.87500000  0.37500000  0.12426395
   0.87500000  0.37500000  0.62426395
   0.87500000  0.87500000  0.12426395
   0.87500000  0.87500000  0.62426395
   1.00000000  0.25000000  0.25073605
   1.00000000  0.25000000  0.75073605
   1.00000000  0.75000000  0.25073605
   1.00000000  0.75000000  0.75073605
   0.50000000  0.25000000  0.25073605
   0.50000000  0.25000000  0.75073605
   0.50000000  0.75000000  0.25073605
   0.50000000  0.75000000  0.75073605
   0.37500000  0.12500000  0.37426395
   0.37500000  0.12500000  0.87426395
   0.37500000  0.62500000  0.37426395
   0.37500000  0.62500000  0.87426395
   0.87500000  0.12500000  0.37426395
   0.87500000  0.12500000  0.87426395
   0.87500000  0.62500000  0.37426395
   0.87500000  0.62500000  0.87426395
   0.25000000  1.00000000  0.25073605
   0.25000000  1.00000000  0.75073605
   0.25000000  0.50000000  0.25073605
   0.25000000  0.50000000  0.75073605
   0.75000000  0.00000000  0.25073605
   0.75000000  1.00000000  0.75073605
   0.75000000  0.50000000  0.25073605
   0.75000000  0.50000000  0.75073605
   0.12500000  0.37500000  0.37426395
   0.12500000  0.37500000  0.87426395
   0.12500000  0.87500000  0.37426395
   0.12500000  0.87500000  0.87426395
   0.62500000  0.37500000  0.37426395
   0.62500000  0.37500000  0.87426395
   0.62500000  0.87500000  0.37426395
   0.62500000  0.87500000  0.87426395
   0.25000000  0.25000000  0.00073605
   0.25000000  0.25000000  0.50073605
   0.25000000  0.75000000  0.00073605
   0.25000000  0.75000000  0.50073605
   0.75000000  0.25000000  0.00073605
   0.75000000  0.25000000  0.50073605
   0.75000000  0.75000000  0.00073605
   0.75000000  0.75000000  0.50073605
   0.12500000  0.12500000  0.12426395
   0.12500000  0.12500000  0.62426395
   0.12500000  0.62500000  0.12426395
   0.12500000  0.62500000  0.62426395
   0.62500000  0.12500000  0.12426395
   0.62500000  0.12500000  0.62426395
   0.62500000  0.62500000  0.12426395
   0.62500000  0.62500000  0.62426395
Direct configuration=     3
   0.00000000  0.00000000  0.00054639
   0.00000000  0.00000000  0.50054639
   0.00000000  0.50000000  0.00054639
   0.00000000  0.50000000  0.50054639
   0.50000000  0.00000000  0.00054639
   0.50000000  0.00000000  0.50054639
   0.50000000  0.50000000  0.00054639
   0.50000000  0.50000000  0.50054639
   0.37500000  0.37500000  0.12445361
   0.37500000  0.37500000  0.62445361
   0.37500000  0.87500000  0.12445361
   0.37500000  0.87500000  0.62445361
   0.87500000  0.37500000  0.12445361
   0.87500000  0.37500000  0.62445361
   0.87500000  0.87500000  0.12445361
   0.87500000  0.87500000  0.62445361
   0.00000000  0.25000000  0.25054639
   0.00000000  0.25000000  0.75054639
   0.00000000  0.75000000  0.25054639
   0.00000000  0.75000000  0.75054639
   0.50000000  0.25000000  0.25054639
   0.50000000  0.25000000  0.75054639
   0.50000000  0.75000000  0.25054639
   0.50000000  0.75000000  0.75054639
   0.37500000  0.12500000  0.37445361
   0.37500000  0.12500000  0.87445361
   0.37500000  0.62500000  0.37445361
   0.37500000  0.62500000  0.87445361
   0.87500000  0.12500000  0.37445361
   0.87500000  0.12500000  0.87445361
   0.87500000  0.62500000  0.37445361
   0.87500000  0.62500000  0.87445361
   0.25000000  0.00000000  0.25054639
   0.25000000  0.00000000  0.75054639
   0.25000000  0.50000000  0.25054639
   0.25000000  0.50000000  0.75054639
   0.75000000  0.00000000  0.25054639
   0.75000000  0.00000000  0.75054639
   0.75000000  0.50000000  0.25054639
   0.75000000  0.50000000  0.75054639
   0.12500000  0.37500000  0.37445361
   0.12500000  0.37500000  0.87445361
   0.12500000  0.87500000  0.37445361
   0.12500000  0.87500000  0.87445361
   0.62500000  0.37500000  0.37445361
   0.62500000  0.37500000  0.87445361
   0.62500000  0.87500000  0.37445361
   0.62500000  0.87500000  0.87445361
   0.25000000  0.25000000  0.00054639
   0.25000000  0.25000000  0.50054639
   0.25000000  0.75000000  0.00054639
   0.25000000  0.75000000  0.50054639
   0.75000000  0.25000000  0.00054639
   0.75000000  0.25000000  0.50054639
   0.75000000  0.75000000  0.00054639
   0.75000000  0.75000000  0.50054639
   0.12500000  0.12500000  0.12445361
   0.12500000  0.12500000  0.62445361
   0.12500000  0.62500000  0.12445361
   0.12500000  0.62500000  0.62445361
   0.62500000  0.12500000  0.12445361
   0.62500000  0.12500000  0.62445361
   0.62500000  0.62500000  0.12445361
   0.62500000  0.62500000  0.62445361
