  64  64   0   0
  0.1829160E+02  0.1050417E-08  0.1055695E-08  0.1055692E-08  0.5000000E-15
  1.000000000000000E-004
  CAR 
 Si64                                    
     12.25942932     -7.89351234  301      6.93106155      1.00000000
     -7.894  0.0000E+00  0.0000E+00
     -7.826  0.0000E+00  0.0000E+00
     -7.759  0.0000E+00  0.0000E+00
     -7.692  0.0000E+00  0.0000E+00
     -7.625  0.0000E+00  0.0000E+00
     -7.558 -0.1247E-30 -0.8379E-32
     -7.490 -0.2849E-28 -0.1922E-29
     -7.423 -0.5200E-26 -0.3512E-27
     -7.356 -0.7558E-24 -0.5112E-25
     -7.289 -0.8744E-22 -0.5925E-23
     -7.222 -0.8051E-20 -0.5467E-21
     -7.155 -0.5896E-18 -0.4016E-19
     -7.087 -0.3434E-16 -0.2347E-17
     -7.020 -0.1538E-14 -0.1057E-15
     -6.953 -0.5638E-13 -0.3893E-14
     -6.886 -0.1636E-11 -0.1138E-12
     -6.819 -0.3761E-10 -0.2640E-11
     -6.752 -0.6834E-09 -0.4855E-10
     -6.684 -0.9796E-08 -0.7066E-09
     -6.617 -0.1104E-06 -0.8125E-08
     -6.550 -0.9747E-06 -0.7360E-07
     -6.483 -0.6695E-05 -0.5234E-06
     -6.416 -0.3544E-04 -0.2904E-05
     -6.348 -0.1421E-03 -0.1245E-04
     -6.281 -0.4186E-03 -0.4057E-04
     -6.214 -0.8401E-03 -0.9701E-04
     -6.147 -0.8733E-03 -0.1557E-03
     -6.080  0.6589E-03 -0.1114E-03
     -6.013  0.4422E-02  0.1856E-03
     -5.945  0.8806E-02  0.7772E-03
     -5.878  0.1150E-01  0.1549E-02
     -5.811  0.1547E-01  0.2589E-02
     -5.744  0.2999E-01  0.4603E-02
     -5.677  0.5795E-01  0.8496E-02
     -5.610  0.8488E-01  0.1420E-01
     -5.542  0.9502E-01  0.2058E-01
     -5.475  0.9937E-01  0.2726E-01
     -5.408  0.1257E+00  0.3570E-01
     -5.341  0.1720E+00  0.4725E-01
     -5.274  0.1976E+00  0.6053E-01
     -5.206  0.1785E+00  0.7252E-01
     -5.139  0.1427E+00  0.8210E-01
     -5.072  0.1270E+00  0.9064E-01
     -5.005  0.1257E+00  0.9908E-01
     -4.938  0.1110E+00  0.1065E+00
     -4.871  0.8336E-01  0.1121E+00
     -4.803  0.6668E-01  0.1166E+00
     -4.736  0.6977E-01  0.1213E+00
     -4.669  0.8949E-01  0.1273E+00
     -4.602  0.1420E+00  0.1368E+00
     -4.535  0.2435E+00  0.1532E+00
     -4.468  0.3572E+00  0.1772E+00
     -4.400  0.4169E+00  0.2052E+00
     -4.333  0.4176E+00  0.2333E+00
     -4.266  0.4165E+00  0.2612E+00
     -4.199  0.4251E+00  0.2898E+00
     -4.132  0.3815E+00  0.3154E+00
     -4.064  0.2537E+00  0.3325E+00
     -3.997  0.9900E-01  0.3391E+00
     -3.930 -0.5046E-02  0.3388E+00
     -3.863 -0.2959E-01  0.3368E+00
     -3.796  0.1660E-01  0.3379E+00
     -3.729  0.1194E+00  0.3459E+00
     -3.661  0.2602E+00  0.3634E+00
     -3.594  0.4023E+00  0.3904E+00
     -3.527  0.4921E+00  0.4235E+00
     -3.460  0.4866E+00  0.4562E+00
     -3.393  0.3942E+00  0.4827E+00
     -3.326  0.2782E+00  0.5013E+00
     -3.258  0.2123E+00  0.5156E+00
     -3.191  0.2389E+00  0.5317E+00
     -3.124  0.3539E+00  0.5554E+00
     -3.057  0.5022E+00  0.5892E+00
     -2.990  0.6073E+00  0.6300E+00
     -2.922  0.6300E+00  0.6723E+00
     -2.855  0.5924E+00  0.7121E+00
     -2.788  0.5386E+00  0.7483E+00
     -2.721  0.4852E+00  0.7809E+00
     -2.654  0.4316E+00  0.8098E+00
     -2.587  0.4006E+00  0.8368E+00
     -2.519  0.4099E+00  0.8643E+00
     -2.452  0.4132E+00  0.8920E+00
     -2.385  0.3411E+00  0.9150E+00
     -2.318  0.1988E+00  0.9283E+00
     -2.251  0.6261E-01  0.9325E+00
     -2.184 -0.1219E-01  0.9317E+00
     -2.116 -0.3186E-01  0.9296E+00
     -2.049 -0.2381E-01  0.9280E+00
     -1.982  0.5886E-02  0.9284E+00
     -1.915  0.6652E-01  0.9328E+00
     -1.848  0.1463E+00  0.9427E+00
     -1.780  0.1985E+00  0.9560E+00
     -1.713  0.1801E+00  0.9681E+00
     -1.646  0.1023E+00  0.9750E+00
     -1.579  0.2873E-01  0.9769E+00
     -1.512  0.2869E-01  0.9788E+00
     -1.445  0.1363E+00  0.9880E+00
     -1.377  0.3281E+00  0.1010E+01
     -1.310  0.5186E+00  0.1045E+01
     -1.243  0.6013E+00  0.1085E+01
     -1.176  0.5265E+00  0.1121E+01
     -1.109  0.3409E+00  0.1144E+01
     -1.042  0.1483E+00  0.1153E+01
     -0.974  0.3785E-01  0.1156E+01
     -0.907  0.4233E-01  0.1159E+01
     -0.840  0.1293E+00  0.1168E+01
     -0.773  0.2188E+00  0.1182E+01
     -0.706  0.2410E+00  0.1198E+01
     -0.638  0.2072E+00  0.1212E+01
     -0.571  0.2030E+00  0.1226E+01
     -0.504  0.2779E+00  0.1245E+01
     -0.437  0.3637E+00  0.1269E+01
     -0.370  0.3467E+00  0.1292E+01
     -0.303  0.2241E+00  0.1307E+01
     -0.235  0.1433E+00  0.1317E+01
     -0.168  0.2678E+00  0.1335E+01
     -0.101  0.6018E+00  0.1375E+01
     -0.034  0.9528E+00  0.1440E+01
      0.033  0.1082E+01  0.1512E+01
      0.100  0.9078E+00  0.1573E+01
      0.168  0.5538E+00  0.1610E+01
      0.235  0.2147E+00  0.1625E+01
      0.302  0.7737E-02  0.1625E+01
      0.369 -0.5578E-01  0.1622E+01
      0.436 -0.5051E-02  0.1621E+01
      0.504  0.1320E+00  0.1630E+01
      0.571  0.3009E+00  0.1650E+01
      0.638  0.4068E+00  0.1678E+01
      0.705  0.3842E+00  0.1703E+01
      0.772  0.2669E+00  0.1721E+01
      0.839  0.1502E+00  0.1731E+01
      0.907  0.1076E+00  0.1739E+01
      0.974  0.1660E+00  0.1750E+01
      1.041  0.3130E+00  0.1771E+01
      1.108  0.4805E+00  0.1803E+01
      1.175  0.5582E+00  0.1841E+01
      1.242  0.4797E+00  0.1873E+01
      1.310  0.2913E+00  0.1892E+01
      1.377  0.1067E+00  0.1900E+01
      1.444  0.1110E-02  0.1900E+01
      1.511 -0.3000E-01  0.1898E+01
      1.578 -0.3004E-01  0.1896E+01
      1.646 -0.2925E-01  0.1894E+01
      1.713 -0.2479E-01  0.1892E+01
      1.780  0.1586E-01  0.1893E+01
      1.847  0.1309E+00  0.1902E+01
      1.914  0.3161E+00  0.1923E+01
      1.981  0.4901E+00  0.1956E+01
      2.049  0.5408E+00  0.1992E+01
      2.116  0.4401E+00  0.2022E+01
      2.183  0.3005E+00  0.2042E+01
      2.250  0.2747E+00  0.2061E+01
      2.317  0.3957E+00  0.2087E+01
      2.384  0.5503E+00  0.2124E+01
      2.452  0.6134E+00  0.2165E+01
      2.519  0.5611E+00  0.2203E+01
      2.586  0.4413E+00  0.2233E+01
      2.653  0.3121E+00  0.2254E+01
      2.720  0.2570E+00  0.2271E+01
      2.788  0.3883E+00  0.2297E+01
      2.855  0.7429E+00  0.2347E+01
      2.922  0.1175E+01  0.2426E+01
      2.989  0.1414E+01  0.2521E+01
      3.056  0.1285E+01  0.2607E+01
      3.123  0.8711E+00  0.2666E+01
      3.191  0.4259E+00  0.2694E+01
      3.258  0.1342E+00  0.2703E+01
      3.325  0.1928E-02  0.2703E+01
      3.392 -0.4439E-01  0.2700E+01
      3.459 -0.2554E-01  0.2699E+01
      3.526  0.1061E+00  0.2706E+01
      3.594  0.3789E+00  0.2731E+01
      3.661  0.7184E+00  0.2779E+01
      3.728  0.9783E+00  0.2845E+01
      3.795  0.1071E+01  0.2917E+01
      3.862  0.1038E+01  0.2987E+01
      3.930  0.9754E+00  0.3052E+01
      3.997  0.9301E+00  0.3115E+01
      4.064  0.8752E+00  0.3174E+01
      4.131  0.7844E+00  0.3226E+01
      4.198  0.7094E+00  0.3274E+01
      4.265  0.7256E+00  0.3323E+01
      4.333  0.7895E+00  0.3376E+01
      4.400  0.7478E+00  0.3426E+01
      4.467  0.5401E+00  0.3462E+01
      4.534  0.2981E+00  0.3482E+01
      4.601  0.1962E+00  0.3495E+01
      4.668  0.2747E+00  0.3514E+01
      4.736  0.4413E+00  0.3544E+01
      4.803  0.5874E+00  0.3583E+01
      4.870  0.6655E+00  0.3628E+01
      4.937  0.6826E+00  0.3674E+01
      5.004  0.6591E+00  0.3718E+01
      5.072  0.6212E+00  0.3760E+01
      5.139  0.6089E+00  0.3801E+01
      5.206  0.6523E+00  0.3844E+01
      5.273  0.7380E+00  0.3894E+01
      5.340  0.8095E+00  0.3948E+01
      5.407  0.7953E+00  0.4002E+01
      5.475  0.6536E+00  0.4046E+01
      5.542  0.4164E+00  0.4074E+01
      5.609  0.1856E+00  0.4086E+01
      5.676  0.6868E-01  0.4091E+01
      5.743  0.1089E+00  0.4098E+01
      5.810  0.2576E+00  0.4115E+01
      5.878  0.3992E+00  0.4142E+01
      5.945  0.4274E+00  0.4171E+01
      6.012  0.3242E+00  0.4193E+01
      6.079  0.1635E+00  0.4204E+01
      6.146  0.3600E-01  0.4206E+01
      6.214 -0.1434E-01  0.4205E+01
      6.281  0.1028E-01  0.4206E+01
      6.348  0.8492E-01  0.4211E+01
      6.415  0.1657E+00  0.4223E+01
      6.482  0.2010E+00  0.4236E+01
      6.549  0.1710E+00  0.4248E+01
      6.617  0.1080E+00  0.4255E+01
      6.684  0.5869E-01  0.4259E+01
      6.751  0.3680E-01  0.4261E+01
      6.818  0.2760E-01  0.4263E+01
      6.885  0.2564E-01  0.4265E+01
      6.952  0.4757E-01  0.4268E+01
      7.020  0.1038E+00  0.4275E+01
      7.087  0.1687E+00  0.4286E+01
      7.154  0.1945E+00  0.4299E+01
      7.221  0.1579E+00  0.4310E+01
      7.288  0.8328E-01  0.4316E+01
      7.356  0.1491E-01  0.4317E+01
      7.423 -0.1633E-01  0.4315E+01
      7.490  0.5036E-02  0.4316E+01
      7.557  0.8385E-01  0.4321E+01
      7.624  0.1943E+00  0.4335E+01
      7.691  0.2715E+00  0.4353E+01
      7.759  0.2659E+00  0.4371E+01
      7.826  0.2151E+00  0.4385E+01
      7.893  0.2201E+00  0.4400E+01
      7.960  0.3257E+00  0.4422E+01
      8.027  0.4493E+00  0.4452E+01
      8.094  0.4609E+00  0.4483E+01
      8.162  0.3232E+00  0.4505E+01
      8.229  0.1267E+00  0.4513E+01
      8.296  0.6425E-02  0.4514E+01
      8.363  0.6011E-01  0.4518E+01
      8.430  0.3060E+00  0.4538E+01
      8.498  0.6445E+00  0.4581E+01
      8.565  0.8754E+00  0.4640E+01
      8.632  0.8397E+00  0.4697E+01
      8.699  0.5732E+00  0.4735E+01
      8.766  0.2814E+00  0.4754E+01
      8.833  0.1617E+00  0.4765E+01
      8.901  0.2680E+00  0.4783E+01
      8.968  0.5335E+00  0.4819E+01
      9.035  0.8748E+00  0.4878E+01
      9.102  0.1219E+01  0.4959E+01
      9.169  0.1439E+01  0.5056E+01
      9.236  0.1378E+01  0.5149E+01
      9.304  0.1023E+01  0.5217E+01
      9.371  0.5736E+00  0.5256E+01
      9.438  0.2666E+00  0.5274E+01
      9.505  0.1780E+00  0.5286E+01
      9.572  0.2336E+00  0.5301E+01
      9.640  0.3287E+00  0.5323E+01
      9.707  0.3821E+00  0.5349E+01
      9.774  0.3446E+00  0.5372E+01
      9.841  0.2263E+00  0.5388E+01
      9.908  0.9353E-01  0.5394E+01
      9.975  0.8353E-02  0.5394E+01
     10.043 -0.1781E-01  0.5393E+01
     10.110 -0.8271E-02  0.5393E+01
     10.177  0.1250E-01  0.5393E+01
     10.244  0.2925E-01  0.5395E+01
     10.311  0.3353E-01  0.5398E+01
     10.378  0.2513E-01  0.5399E+01
     10.446  0.1186E-01  0.5400E+01
     10.513  0.2144E-02  0.5400E+01
     10.580 -0.1559E-02  0.5400E+01
     10.647 -0.1623E-02  0.5400E+01
     10.714 -0.8118E-03  0.5400E+01
     10.782 -0.2743E-03  0.5400E+01
     10.849 -0.6794E-04  0.5400E+01
     10.916 -0.1275E-04  0.5400E+01
     10.983 -0.1844E-05  0.5400E+01
     11.050 -0.2076E-06  0.5400E+01
     11.117 -0.1830E-07  0.5400E+01
     11.185 -0.1269E-08  0.5400E+01
     11.252 -0.6943E-10  0.5400E+01
     11.319 -0.3003E-11  0.5400E+01
     11.386 -0.1029E-12  0.5400E+01
     11.453 -0.2782E-14  0.5400E+01
     11.520 -0.6886E-16  0.5400E+01
     11.588  0.0000E+00  0.5400E+01
     11.655  0.0000E+00  0.5400E+01
     11.722  0.0000E+00  0.5400E+01
     11.789  0.0000E+00  0.5400E+01
     11.856  0.0000E+00  0.5400E+01
     11.924  0.0000E+00  0.5400E+01
     11.991  0.0000E+00  0.5400E+01
     12.058  0.0000E+00  0.5400E+01
     12.125  0.0000E+00  0.5400E+01
     12.192  0.0000E+00  0.5400E+01
     12.259  0.0000E+00  0.5400E+01
