 vasp.6.4.3 19Mar24 (build Oct 21 2024 22:36:34) complex                        
  
 executed on             LinuxIFC date 2024.11.01  22:58:23
 running   96 mpi-ranks, on    1 nodes
 distrk:  each k-point on   24 cores,    4 groups
 distr:  one band on NCORE=  12 cores,    2 groups


--------------------------------------------------------------------------------------------------------


 INCAR:
   SYSTEM = Si64
   ISTART = 0
   ICHARG = 2
   LREAL = Auto
   PREC = Accurate
   LWAVE = .False.
   LCHARG = .False.
   ADDGRID = .True.
   ENCUT = 400
   GGA = PS
   GGA_COMPAT = .FALSE.
   ISMEAR = 1
   SIGMA = 0.2
   NELM = 60
   NELMIN = 8
   EDIFF = 1e-06
   EDIFFG = -0.01
   NSW = 60
   IBRION = 2
   ISIF = 2
   KPAR = 4
   NPAR = 2
   ALGO = Fast

 POTCAR:    PAW_PBE Si 05Jan2001                  
 POTCAR:    PAW_PBE Si 05Jan2001                  
   VRHFIN =Si: s2p2                                                                                 
   LEXCH  = PE                                                                                      
   EATOM  =   103.0669 eV,    7.5752 Ry                                                             
                                                                                                    
   TITEL  = PAW_PBE Si 05Jan2001                                                                    
   LULTRA =        F    use ultrasoft PP ?                                                          
   IUNSCR =        1    unscreen: 0-lin 1-nonlin 2-no                                               
   RPACOR =    1.500    partial core radius                                                         
   POMASS =   28.085; ZVAL   =    4.000    mass and valenz                                          
   RCORE  =    1.900    outmost cutoff radius                                                       
   RWIGS  =    2.480; RWIGS  =    1.312    wigner-seitz radius (au A)                               
   ENMAX  =  245.345; ENMIN  =  184.009 eV                                                          
   ICORE  =        2    local potential                                                             
   LCOR   =        T    correct aug charges                                                         
   LPAW   =        T    paw PP                                                                      
   EAUG   =  322.069                                                                                
   DEXC   =    0.000                                                                                
   RMAX   =    1.950    core radius for proj-oper                                                   
   RAUG   =    1.300    factor for augmentation sphere                                              
   RDEP   =    1.993    radius for radial grids                                                     
   RDEPT  =    1.837    core radius for aug-charge                                                  
                                                                                                    
   Atomic configuration                                                                             
    6 entries                                                                                       
     n  l   j            E        occ.                                                              
     1  0  0.50     -1785.8828   2.0000                                                             
     2  0  0.50      -139.4969   2.0000                                                             
     2  1  1.50       -95.5546   6.0000                                                             
     3  0  0.50       -10.8127   2.0000                                                             
     3  1  0.50        -4.0811   2.0000                                                             
     3  2  1.50        -4.0817   0.0000                                                             
   Description                                                                                      
     l       E           TYP  RCUT    TYP  RCUT                                                     
     0    -10.8127223     23  1.900                                                                 
     0     -7.6451159     23  1.900                                                                 
     1     -4.0811372     23  1.900                                                                 
     1      2.4879257     23  1.900                                                                 
     2     -4.0817478      7  1.900                                                                 
  local pseudopotential read in
  partial core-charges read in
  partial kinetic energy density read in
  atomic valenz-charges read in
  non local Contribution for L=           0  read in
    real space projection operators read in
  non local Contribution for L=           0  read in
    real space projection operators read in
  non local Contribution for L=           1  read in
    real space projection operators read in
  non local Contribution for L=           1  read in
    real space projection operators read in
    PAW grid and wavefunctions read in
 
   number of l-projection  operators is LMAX  =           4
   number of lm-projection operators is LMMAX =           8
 
 Optimization of the real space projectors (new method)

 maximal supplied QI-value         = 19.84
 optimisation between [QCUT,QGAM] = [ 10.12, 20.44] = [ 28.68,116.96] Ry 
 Optimized for a Real-space Cutoff    1.38 Angstroem

   l    n(q)    QCUT    max X(q) W(low)/X(q) W(high)/X(q)  e(spline) 
   0      8    10.119   159.560    0.58E-04    0.11E-03    0.54E-07
   0      8    10.119   115.863    0.56E-04    0.11E-03    0.54E-07
   1      8    10.119    88.339    0.22E-03    0.17E-03    0.19E-06
   1      8    10.119    48.592    0.22E-03    0.17E-03    0.18E-06
 -----------------------------------------------------------------------------
|                                                                             |
|               ----> ADVICE to this user running VASP <----                  |
|                                                                             |
|     You enforced a specific xc type in the INCAR file but a different       |
|     type was found in the POTCAR file.                                      |
|     I HOPE YOU KNOW WHAT YOU ARE DOING!                                     |
|                                                                             |
 -----------------------------------------------------------------------------

  PAW_PBE Si 05Jan2001                  :
 energy of atom  1       EATOM= -103.0669
 kinetic energy error for atom=    0.0012 (will be added to EATOM!!)
 
 
 POSCAR: Si8
  positions in direct lattice
  velocities in cartesian coordinates


 exchange-correlation table for PS
   RHO(1)=    0.500       N(1)  =     2000
   RHO(2)=  100.500       N(2)  =     4000
 


--------------------------------------------------------------------------------------------------------


 ion  position               nearest neighbor table
   1  0.000  0.000  0.000-  15 2.28  57 2.28  44 2.29  30 2.29
   2  0.000  0.000  0.500-  16 2.28  58 2.28  43 2.29  29 2.29
   3  0.000  0.500  0.000-  13 2.28  59 2.28  42 2.29  32 2.29
   4  0.000  0.500  0.500-  14 2.28  60 2.28  41 2.29  31 2.29
   5  0.500  0.000  0.000-  11 2.28  61 2.28  48 2.29  26 2.29
   6  0.500  0.000  0.500-  12 2.28  62 2.28  47 2.29  25 2.29
   7  0.500  0.500  0.000-   9 2.28  63 2.28  46 2.29  28 2.29
   8  0.500  0.500  0.500-  10 2.28  64 2.28  45 2.29  27 2.29
   9  0.375  0.375  0.125-   7 2.28  49 2.28  35 2.29  21 2.29
  10  0.375  0.375  0.625-   8 2.28  50 2.28  36 2.29  22 2.29
  11  0.375  0.875  0.125-   5 2.28  51 2.28  33 2.29  23 2.29
  12  0.375  0.875  0.625-   6 2.28  52 2.28  34 2.29  24 2.29
  13  0.875  0.375  0.125-   3 2.28  53 2.28  39 2.29  17 2.29
  14  0.875  0.375  0.625-   4 2.28  54 2.28  40 2.29  18 2.29
  15  0.875  0.875  0.125-   1 2.28  55 2.28  37 2.29  19 2.29
  16  0.875  0.875  0.625-   2 2.28  56 2.28  38 2.29  20 2.29
  17  0.000  0.250  0.250-  29 2.28  41 2.28  13 2.29  57 2.29
  18  0.000  0.250  0.750-  30 2.28  42 2.28  14 2.29  58 2.29
  19  0.000  0.750  0.250-  31 2.28  43 2.28  15 2.29  59 2.29
  20  0.000  0.750  0.750-  32 2.28  44 2.28  16 2.29  60 2.29
  21  0.500  0.250  0.250-  25 2.28  45 2.28   9 2.29  61 2.29
  22  0.500  0.250  0.750-  26 2.28  46 2.28  10 2.29  62 2.29
  23  0.500  0.750  0.250-  27 2.28  47 2.28  11 2.29  63 2.29
  24  0.500  0.750  0.750-  28 2.28  48 2.28  12 2.29  64 2.29
  25  0.375  0.125  0.375-  21 2.28  33 2.28   6 2.29  50 2.29
  26  0.375  0.125  0.875-  22 2.28  34 2.28   5 2.29  49 2.29
  27  0.375  0.625  0.375-  23 2.28  35 2.28   8 2.29  52 2.29
  28  0.375  0.625  0.875-  24 2.28  36 2.28   7 2.29  51 2.29
  29  0.875  0.125  0.375-  17 2.28  37 2.28   2 2.29  54 2.29
  30  0.875  0.125  0.875-  18 2.28  38 2.28   1 2.29  53 2.29
  31  0.875  0.625  0.375-  19 2.28  39 2.28   4 2.29  56 2.29
  32  0.875  0.625  0.875-  20 2.28  40 2.28   3 2.29  55 2.29
  33  0.250  0.000  0.250-  25 2.28  43 2.28  11 2.29  57 2.29
  34  0.250  0.000  0.750-  26 2.28  44 2.28  12 2.29  58 2.29
  35  0.250  0.500  0.250-  27 2.28  41 2.28   9 2.29  59 2.29
  36  0.250  0.500  0.750-  28 2.28  42 2.28  10 2.29  60 2.29
  37  0.750  0.000  0.250-  29 2.28  47 2.28  15 2.29  61 2.29
  38  0.750  0.000  0.750-  30 2.28  48 2.28  16 2.29  62 2.29
  39  0.750  0.500  0.250-  31 2.28  45 2.28  13 2.29  63 2.29
  40  0.750  0.500  0.750-  32 2.28  46 2.28  14 2.29  64 2.29
  41  0.125  0.375  0.375-  17 2.28  35 2.28   4 2.29  50 2.29
  42  0.125  0.375  0.875-  18 2.28  36 2.28   3 2.29  49 2.29
  43  0.125  0.875  0.375-  19 2.28  33 2.28   2 2.29  52 2.29
  44  0.125  0.875  0.875-  20 2.28  34 2.28   1 2.29  51 2.29
  45  0.625  0.375  0.375-  21 2.28  39 2.28   8 2.29  54 2.29
  46  0.625  0.375  0.875-  22 2.28  40 2.28   7 2.29  53 2.29
  47  0.625  0.875  0.375-  23 2.28  37 2.28   6 2.29  56 2.29
  48  0.625  0.875  0.875-  24 2.28  38 2.28   5 2.29  55 2.29
  49  0.250  0.250  0.000-   9 2.28  57 2.28  42 2.29  26 2.29
  50  0.250  0.250  0.500-  10 2.28  58 2.28  41 2.29  25 2.29
  51  0.250  0.750  0.000-  11 2.28  59 2.28  44 2.29  28 2.29
  52  0.250  0.750  0.500-  12 2.28  60 2.28  43 2.29  27 2.29
  53  0.750  0.250  0.000-  13 2.28  61 2.28  46 2.29  30 2.29
  54  0.750  0.250  0.500-  14 2.28  62 2.28  45 2.29  29 2.29
  55  0.750  0.750  0.000-  15 2.28  63 2.28  48 2.29  32 2.29
  56  0.750  0.750  0.500-  16 2.28  64 2.28  47 2.29  31 2.29
  57  0.125  0.125  0.125-   1 2.28  49 2.28  33 2.29  17 2.29
  58  0.125  0.125  0.625-   2 2.28  50 2.28  34 2.29  18 2.29
  59  0.125  0.625  0.125-   3 2.28  51 2.28  35 2.29  19 2.29
  60  0.125  0.625  0.625-   4 2.28  52 2.28  36 2.29  20 2.29
  61  0.625  0.125  0.125-   5 2.28  53 2.28  37 2.29  21 2.29
  62  0.625  0.125  0.625-   6 2.28  54 2.28  38 2.29  22 2.29
  63  0.625  0.625  0.125-   7 2.28  55 2.28  39 2.29  23 2.29
  64  0.625  0.625  0.625-   8 2.28  56 2.28  40 2.29  24 2.29
 
  LATTYP: Found a simple monoclinic cell.
 ALAT       =    10.5041657066
 B/A-ratio  =     1.0050219936
 C/A-ratio  =     1.0050251342
 COS(beta)  =    -0.0050124764
  
  Lattice vectors:
  
 A1 = (  10.5041325513,  -0.0263920039,   0.0000000000)
 A2 = (   0.0000000000,   0.0000000000, -10.5569175591)
 A3 = (  -0.0263920039,  10.5569175591,   0.0000000000)


Analysis of symmetry for initial positions (statically):
=====================================================================
 Subroutine PRICEL returns following result:
 
  LATTYP: Found a base centered monoclinic cell.
 ALAT       =     5.2520828533
 B/A-ratio  =     1.0050219936
 C/A-ratio  =     0.7071068149
 COS(beta)  =    -0.7035445807
  
  Lattice vectors:
  
 A1 = (  -2.6260331378,   0.0065980010,  -2.6392293898)
 A2 = (  -2.6260331378,   0.0065980010,   2.6392293898)
 A3 = (   2.6194351368,   2.6326313888,   0.0000000000)
 
  32 primitive cells build up your supercell.
 

 Routine SETGRP: Setting up the symmetry group for a 
 simple monoclinic supercell.


 Subroutine GETGRP returns: Found  4 space group operations
 (whereof  2 operations were pure point group operations)
 out of a pool of  4 trial point group operations.


The static configuration has the point symmetry C_2 .
 The point group associated with its full space group is C_2h.


Analysis of symmetry for dynamics (positions and initial velocities):
=====================================================================
 Subroutine PRICEL returns following result:
 
  LATTYP: Found a base centered monoclinic cell.
 ALAT       =     5.2520828533
 B/A-ratio  =     1.0050219936
 C/A-ratio  =     0.7071068149
 COS(beta)  =    -0.7035445807
  
  Lattice vectors:
  
 A1 = (  -2.6260331378,   0.0065980010,  -2.6392293898)
 A2 = (  -2.6260331378,   0.0065980010,   2.6392293898)
 A3 = (   2.6194351368,   2.6326313888,   0.0000000000)
 
  32 primitive cells build up your supercell.
 

 Routine SETGRP: Setting up the symmetry group for a 
 simple monoclinic supercell.


 Subroutine GETGRP returns: Found  4 space group operations
 (whereof  2 operations were pure point group operations)
 out of a pool of  4 trial point group operations.


The dynamic configuration has the point symmetry C_2 .
 The point group associated with its full space group is C_2h.


 Subroutine INISYM returns: Found  4 space group operations
 (whereof  2 operations are pure point group operations),
 and found    32 'primitive' translations


----------------------------------------------------------------------------------------

                                     Primitive cell                                     

  volume of cell :      36.5832

  direct lattice vectors                    reciprocal lattice vectors
    -2.626033138  0.006598001 -2.639229390    -0.189926448  0.188974428 -0.189449239
    -2.626033138  0.006598001  2.639229390    -0.189926448  0.188974428  0.189449239
     2.619435137  2.632631389  0.000000000     0.000952002  0.378900858 -0.000000000

  length of vectors
     3.723120378  3.723120378  3.713783578     0.328137783  0.328137783  0.378902054

  position of ions in fractional coordinates (direct lattice)
     0.000000000  0.000000000  0.000000000
     0.750000000  0.250000000  0.500000000

  ion indices of the primitive-cell ions
   primitive index   ion index
                 1           1
                 2          15

----------------------------------------------------------------------------------------

 
 
 KPOINTS: Automatic mesh                          

Automatic generation of k-mesh.
 Grid dimensions read from file:
 generate k-points for:    2    2    2

 Generating k-lattice:

  Cartesian coordinates                     Fractional coordinates (reciprocal lattice)
     0.047600612  0.000119000  0.000000000     0.500000000 -0.000000000  0.000000000
     0.000119000  0.047362607  0.000000000     0.000000000  0.500000000  0.000000000
     0.000000000  0.000000000  0.047362310     0.000000000  0.000000000  0.500000000

  Length of vectors
     0.047600761  0.047362757  0.047362310

  Shift w.r.t. Gamma in fractional coordinates (k-lattice)
     0.000000000  0.000000000  0.000000000

 
 Subroutine IBZKPT returns following result:
 ===========================================
 
 Found      8 irreducible k-points:
 
 Following reciprocal coordinates:
            Coordinates               Weight
  0.000000  0.000000  0.000000      1.000000
  0.500000 -0.000000  0.000000      1.000000
 -0.000000  0.500000  0.000000      1.000000
  0.500000  0.500000  0.000000      1.000000
  0.000000  0.000000  0.500000      1.000000
  0.500000 -0.000000  0.500000      1.000000
 -0.000000  0.500000  0.500000      1.000000
  0.500000  0.500000  0.500000      1.000000
 
 Following cartesian coordinates:
            Coordinates               Weight
  0.000000  0.000000  0.000000      1.000000
  0.047601  0.000119  0.000000      1.000000
  0.000119  0.047363  0.000000      1.000000
  0.047720  0.047482  0.000000      1.000000
  0.000000  0.000000  0.047362      1.000000
  0.047601  0.000119  0.047362      1.000000
  0.000119  0.047363  0.047362      1.000000
  0.047720  0.047482  0.047362      1.000000
 


--------------------------------------------------------------------------------------------------------




 Dimension of arrays:
   k-points           NKPTS =      8   k-points in BZ     NKDIM =      8   number of bands    NBANDS=    162
   number of dos      NEDOS =    301   number of ions     NIONS =     64
   non local maximal  LDIM  =      4   non local SUM 2l+1 LMDIM =      8
   total plane-waves  NPLWV = 343000
   max r-space proj   IRMAX =   3279   max aug-charges    IRDMAX=  78561
   dimension x,y,z NGX =    70 NGY =   70 NGZ =   70
   dimension x,y,z NGXF=   140 NGYF=  140 NGZF=  140
   support grid    NGXF=   280 NGYF=  280 NGZF=  280
   ions per type =              64
   NGX,Y,Z   is equivalent  to a cutoff of  11.08, 11.02, 11.02 a.u.
   NGXF,Y,Z  is equivalent  to a cutoff of  22.16, 22.05, 22.05 a.u.

 SYSTEM =  Si64                                    
 POSCAR =  Si8                                     

 Startparameter for this run:
   NWRITE =      2    write-flag & timer
   PREC   = accura    normal or accurate (medium, high low for compatibility)
   ISTART =      0    job   : 0-new  1-cont  2-samecut
   ICHARG =      2    charge: 1-file 2-atom 10-const
   ISPIN  =      1    spin polarized calculation?
   LNONCOLLINEAR =      F non collinear calculations
   LSORBIT =      F    spin-orbit coupling
   INIWAV =      1    electr: 0-lowe 1-rand  2-diag
   LASPH  =      F    aspherical Exc in radial PAW
 Electronic Relaxation 1
   ENCUT  =  400.0 eV  29.40 Ry    5.42 a.u.  17.13 17.22 17.22*2*pi/ulx,y,z
   ENINI  =  400.0     initial cutoff
   ENAUG  =  322.1 eV  augmentation charge cutoff
   NELM   =     60;   NELMIN=  8; NELMDL= -5     # of ELM steps 
   EDIFF  = 0.1E-05   stopping-criterion for ELM
   LREAL  =      T    real-space projection
   NLSPLINE    = F    spline interpolate recip. space projectors
   LCOMPAT=      F    compatible to vasp.4.4
   GGA_COMPAT  = F    GGA compatible to vasp.4.4-vasp.4.6
   LMAXPAW     = -100 max onsite density
   LMAXMIX     =    2 max onsite mixed and CHGCAR
   VOSKOWN=      0    Vosko Wilk Nusair interpolation
   ROPT   =   -0.00025
 Ionic relaxation
   EDIFFG = -.1E-01   stopping-criterion for IOM
   NSW    =     60    number of steps for IOM
   NBLOCK =      1;   KBLOCK =     60    inner block; outer block 
   IBRION =      2    ionic relax: 0-MD 1-quasi-New 2-CG
   NFREE  =      1    steps in history (QN), initial steepest desc. (CG)
   ISIF   =      2    stress and relaxation
   IWAVPR =     11    prediction:  0-non 1-charg 2-wave 3-comb
   ISYM   =      2    0-nonsym 1-usesym 2-fastsym
   LCORR  =      T    Harris-Foulkes like correction to forces

   POTIM  = 0.5000    time-step for ionic-motion
   TEIN   =    0.0    initial temperature
   TEBEG  =    0.0;   TEEND  =   0.0 temperature during run
   SMASS  =  -3.00    Nose mass-parameter (am)
   estimated Nose-frequenzy (Omega)   =  0.10E-29 period in steps = 0.13E+47 mass=  -0.252E-26a.u.
   SCALEE = 1.0000    scale energy and forces
   NPACO  =    256;   APACO  = 10.0  distance and # of slots for P.C.
   PSTRESS=    0.0 pullay stress

  Mass of Ions in am
   POMASS =  28.09
  Ionic Valenz
   ZVAL   =   4.00
  Atomic Wigner-Seitz radii
   RWIGS  =  -1.00
  virtual crystal weights 
   VCA    =   1.00
   NELECT =     256.0000    total number of electrons
   NUPDOWN=      -1.0000    fix difference up-down

 DOS related values:
   EMIN   =  10.00;   EMAX   =-10.00  energy-range for DOS
   EFERMI =   0.00;   METHOD = LEGACY      
   ISMEAR =     1;   SIGMA  =   0.20  broadening in eV -4-tet -1-fermi 0-gaus

 Electronic relaxation 2 (details)
   IALGO  =     68    algorithm
   LDIAG  =      T    sub-space diagonalisation (order eigenvalues)
   LSUBROT=      F    optimize rotation matrix (better conditioning)
   TURBO    =      0    0=normal 1=particle mesh
   IRESTART =      0    0=no restart 2=restart with 2 vectors
   NREBOOT  =      0    no. of reboots
   NMIN     =      0    reboot dimension
   EREF     =   0.00    reference energy to select bands
   IMIX   =      4    mixing-type and parameters
     AMIX     =   0.40;   BMIX     =  1.00
     AMIX_MAG =   1.60;   BMIX_MAG =  1.00
     AMIN     =   0.10
     WC   =   100.;   INIMIX=   1;  MIXPRE=   1;  MAXMIX= -45

 Intra band minimization:
   WEIMIN = 0.0010     energy-eigenvalue tresh-hold
   EBREAK =  0.15E-08  absolut break condition
   DEPER  =   0.30     relativ break condition  

   TIME   =   0.40     timestep for ELM

  volume/ion in A,a.u.               =      18.29       123.44
  Fermi-wavevector in a.u.,A,eV,Ry     =   0.986304  1.863845 13.235694  0.972796
  Thomas-Fermi vector in A             =   2.117675
 
 Write flags
   LWAVE        =      F    write WAVECAR
   LDOWNSAMPLE  =      F    k-point downsampling of WAVECAR
   LCHARG       =      F    write CHGCAR
   LVTOT        =      F    write LOCPOT, total local potential
   LVHAR        =      F    write LOCPOT, Hartree potential only
   WRT_POTENTIAL= false  ! write potential to hdf5 file
   LELF         =      F    write electronic localiz. function (ELF)
   LORBIT       =      0    0 simple, 1 ext, 2 COOP (PROOUT), +10 PAW based schemes


 Dipole corrections
   LMONO      =      F    monopole corrections only (constant potential shift)
   LDIPOL     =      F    correct potential (dipole corrections)
   IDIPOL     =      0    1-x, 2-y, 3-z, 4-all directions 
   EPSILON    =  1.0000000 bulk dielectric constant
   LVACPOTAV  =      F  vacuum potentials using an averaging scheme for the charge density
   VACPOTFLAT =  0.1000000 required flatness to determine vacuum potential
 Exchange correlation treatment:
   GGA     = PS    functional components
   XC_C    = 1    coefficients multiplying the functional components
   LIBXC   =     F    Libxc                    
   VOSKOWN =     0    Vosko Wilk Nusair interpolation
   LHFCALC =     F    Hartree Fock is set to
   LHFONE  =     F    Hartree Fock one center treatment
   AEXX    =    0.0000 exact exchange contribution

 Parameters of functionals:
   PS:
     No parameter
 
 Van der Waals corrections
   IVDW    =     0    specifies the selected vdW correction

 Linear response parameters
   LEPSILON=     F    determine dielectric tensor
   LRPA    =     F    only Hartree local field effects (RPA)
   LNABLA  =     F    use nabla operator in PAW spheres
   LVEL    =     F    velocity operator in full k-point grid
   CSHIFT  =0.1000    complex shift for real part using Kramers Kronig
   OMEGAMAX=  -1.0    maximum frequency
   DEG_THRESHOLD= 0.2000000E-02 threshold for treating states as degnerate
   RTIME   =   -0.100 relaxation time in fs
  (WPLASMAI=    0.000 imaginary part of plasma frequency in eV, 0.658/RTIME)
   DFIELD  = 0.0000000 0.0000000 0.0000000 field for delta impulse in time
 
  Optional k-point grid parameters
   LKPOINTS_OPT  =     F    use optional k-point grid
   KPOINTS_OPT_MODE=     1    mode for optional k-point grid
 
 Orbital magnetization related:
   ORBITALMAG=     F  switch on orbital magnetization
   LCHIMAG   =     F  perturbation theory with respect to B field
   DQ        =  0.001000  dq finite difference perturbation B field
   LLRAUG    =     F  two centre corrections for induced B field
   LBONE     =     F  B-component reconstruction in AE one-centre
   LVGVCALC  =     T  calculate vGv susceptibility
   LVGVAPPL  =     F  apply vGv susceptibility instead of pGv for G=0

 Random number generation:
   RANDOM_GENERATOR = DEFAULT
   PCG_SEED         = not used


--------------------------------------------------------------------------------------------------------


 conjugate gradient relaxation of ions
 charge density and potential will be updated during run
 non-spin polarized calculation
 RMM-DIIS sequential band-by-band and
  variant of blocked Davidson during initial phase
 perform sub-space diagonalisation
    before iterative eigenvector-optimisation
 modified Broyden-mixing scheme, WC =      100.0
 initial mixing is a Kerker type mixing with AMIX =  0.4000 and BMIX =      1.0000
 Hartree-type preconditioning will be used
 using additional bands           34
 real space projection scheme for non local part
 use partial core corrections
 calculate Harris-corrections to forces 
   (improved forces if not selfconsistent)
 use gradient corrections 
 use of overlap-Matrix (Vanderbilt PP)
 Methfessel and Paxton  Order N= 1 SIGMA  =   0.20


--------------------------------------------------------------------------------------------------------


  energy-cutoff  :      400.00
  volume of cell :     1170.66
      direct lattice vectors                 reciprocal lattice vectors
    10.504132551 -0.026392004  0.000000000     0.095201225  0.000238000  0.000000000
    -0.026392004 10.556917559  0.000000000     0.000238000  0.094725215  0.000000000
     0.000000000  0.000000000 10.556917559     0.000000000  0.000000000  0.094724620

  length of vectors
    10.504165707 10.556950549 10.556917559     0.095201522  0.094725514  0.094724620


 
 k-points in units of 2pi/SCALE and weight: Automatic mesh                          
   0.00000000  0.00000000  0.00000000       0.125
   0.04760062  0.00011900  0.00000000       0.125
   0.00011900  0.04736261  0.00000000       0.125
   0.04771962  0.04748161  0.00000000       0.125
   0.00000000  0.00000000  0.04736232       0.125
   0.04760062  0.00011900  0.04736232       0.125
   0.00011900  0.04736261  0.04736232       0.125
   0.04771962  0.04748161  0.04736232       0.125
 
 k-points in reciprocal lattice and weights: Automatic mesh                          
   0.00000000  0.00000000  0.00000000       0.125
   0.50000000 -0.00000000  0.00000000       0.125
  -0.00000000  0.50000000  0.00000000       0.125
   0.50000000  0.50000000  0.00000000       0.125
   0.00000000  0.00000000  0.50000000       0.125
   0.50000000 -0.00000000  0.50000000       0.125
  -0.00000000  0.50000000  0.50000000       0.125
   0.50000000  0.50000000  0.50000000       0.125
 
 position of ions in fractional coordinates (direct lattice) 
   0.00000000  0.00000000  0.00000000
   0.00000000  0.00000000  0.50000000
   0.00000000  0.50000000  0.00000000
   0.00000000  0.50000000  0.50000000
   0.50000000  0.00000000  0.00000000
   0.50000000  0.00000000  0.50000000
   0.50000000  0.50000000  0.00000000
   0.50000000  0.50000000  0.50000000
   0.37500000  0.37500000  0.12500000
   0.37500000  0.37500000  0.62500000
   0.37500000  0.87500000  0.12500000
   0.37500000  0.87500000  0.62500000
   0.87500000  0.37500000  0.12500000
   0.87500000  0.37500000  0.62500000
   0.87500000  0.87500000  0.12500000
   0.87500000  0.87500000  0.62500000
   0.00000000  0.25000000  0.25000000
   0.00000000  0.25000000  0.75000000
   0.00000000  0.75000000  0.25000000
   0.00000000  0.75000000  0.75000000
   0.50000000  0.25000000  0.25000000
   0.50000000  0.25000000  0.75000000
   0.50000000  0.75000000  0.25000000
   0.50000000  0.75000000  0.75000000
   0.37500000  0.12500000  0.37500000
   0.37500000  0.12500000  0.87500000
   0.37500000  0.62500000  0.37500000
   0.37500000  0.62500000  0.87500000
   0.87500000  0.12500000  0.37500000
   0.87500000  0.12500000  0.87500000
   0.87500000  0.62500000  0.37500000
   0.87500000  0.62500000  0.87500000
   0.25000000  0.00000000  0.25000000
   0.25000000  0.00000000  0.75000000
   0.25000000  0.50000000  0.25000000
   0.25000000  0.50000000  0.75000000
   0.75000000  0.00000000  0.25000000
   0.75000000  0.00000000  0.75000000
   0.75000000  0.50000000  0.25000000
   0.75000000  0.50000000  0.75000000
   0.12500000  0.37500000  0.37500000
   0.12500000  0.37500000  0.87500000
   0.12500000  0.87500000  0.37500000
   0.12500000  0.87500000  0.87500000
   0.62500000  0.37500000  0.37500000
   0.62500000  0.37500000  0.87500000
   0.62500000  0.87500000  0.37500000
   0.62500000  0.87500000  0.87500000
   0.25000000  0.25000000  0.00000000
   0.25000000  0.25000000  0.50000000
   0.25000000  0.75000000  0.00000000
   0.25000000  0.75000000  0.50000000
   0.75000000  0.25000000  0.00000000
   0.75000000  0.25000000  0.50000000
   0.75000000  0.75000000  0.00000000
   0.75000000  0.75000000  0.50000000
   0.12500000  0.12500000  0.12500000
   0.12500000  0.12500000  0.62500000
   0.12500000  0.62500000  0.12500000
   0.12500000  0.62500000  0.62500000
   0.62500000  0.12500000  0.12500000
   0.62500000  0.12500000  0.62500000
   0.62500000  0.62500000  0.12500000
   0.62500000  0.62500000  0.62500000
 
 position of ions in cartesian coordinates  (Angst):
   0.00000000  0.00000000  0.00000000
   0.00000000  0.00000000  5.27845878
  -0.01319600  5.27845878  0.00000000
  -0.01319600  5.27845878  5.27845878
   5.25206628 -0.01319600  0.00000000
   5.25206628 -0.01319600  5.27845878
   5.23887027  5.26526278  0.00000000
   5.23887027  5.26526278  5.27845878
   3.92915271  3.94894708  1.31961469
   3.92915271  3.94894708  6.59807347
   3.91595670  9.22740586  1.31961469
   3.91595670  9.22740586  6.59807347
   9.18121898  3.93575108  1.31961469
   9.18121898  3.93575108  6.59807347
   9.16802298  9.21420986  1.31961469
   9.16802298  9.21420986  6.59807347
  -0.00659800  2.63922939  2.63922939
  -0.00659800  2.63922939  7.91768817
  -0.01979400  7.91768817  2.63922939
  -0.01979400  7.91768817  7.91768817
   5.24546827  2.62603339  2.63922939
   5.24546827  2.62603339  7.91768817
   5.23227227  7.90449217  2.63922939
   5.23227227  7.90449217  7.91768817
   3.93575071  1.30971769  3.95884408
   3.93575071  1.30971769  9.23730286
   3.92255470  6.58817647  3.95884408
   3.92255470  6.58817647  9.23730286
   9.18781698  1.29652169  3.95884408
   9.18781698  1.29652169  9.23730286
   9.17462098  6.57498047  3.95884408
   9.17462098  6.57498047  9.23730286
   2.62603314 -0.00659800  2.63922939
   2.62603314 -0.00659800  7.91768817
   2.61283714  5.27186078  2.63922939
   2.61283714  5.27186078  7.91768817
   7.87809941 -0.01979400  2.63922939
   7.87809941 -0.01979400  7.91768817
   7.86490341  5.25866478  2.63922939
   7.86490341  5.25866478  7.91768817
   1.30311957  3.95554508  3.95884408
   1.30311957  3.95554508  9.23730286
   1.28992357  9.23400386  3.95884408
   1.28992357  9.23400386  9.23730286
   6.55518584  3.94234908  3.95884408
   6.55518584  3.94234908  9.23730286
   6.54198984  9.22080786  3.95884408
   6.54198984  9.22080786  9.23730286
   2.61943514  2.63263139  0.00000000
   2.61943514  2.63263139  5.27845878
   2.60623913  7.91109017  0.00000000
   2.60623913  7.91109017  5.27845878
   7.87150141  2.61943539  0.00000000
   7.87150141  2.61943539  5.27845878
   7.85830541  7.89789417  0.00000000
   7.85830541  7.89789417  5.27845878
   1.30971757  1.31631569  1.31961469
   1.30971757  1.31631569  6.59807347
   1.29652157  6.59477447  1.31961469
   1.29652157  6.59477447  6.59807347
   6.56178384  1.30311969  1.31961469
   6.56178384  1.30311969  6.59807347
   6.54858784  6.58157847  1.31961469
   6.54858784  6.58157847  6.59807347
 


--------------------------------------------------------------------------------------------------------


 k-point     1 :   0.0000 0.0000 0.0000  plane waves:   21257
 k-point     2 :   0.5000-0.0000 0.0000  plane waves:   21322
 k-point     3 :  -0.0000 0.5000 0.0000  plane waves:   21282
 k-point     4 :   0.5000 0.5000 0.0000  plane waves:   21254
 k-point     5 :   0.0000 0.0000 0.5000  plane waves:   21286
 k-point     6 :   0.5000-0.0000 0.5000  plane waves:   21248
 k-point     7 :  -0.0000 0.5000 0.5000  plane waves:   21252
 k-point     8 :   0.5000 0.5000 0.5000  plane waves:   21292

 maximum and minimum number of plane-waves per node :      1821     1744

 maximum number of plane-waves:     21322
 maximum index in each direction: 
   IXMAX=   17   IYMAX=   17   IZMAX=   17
   IXMIN=  -17   IYMIN=  -17   IZMIN=  -17


 real space projection operators:
  total allocation   :      12546.50 KBytes
  max/ min on nodes  :       1090.00        910.25


 parallel 3D FFT for wavefunctions:
    minimum data exchange during FFTs selected (reduces bandwidth)
 parallel 3D FFT for charge:
    minimum data exchange during FFTs selected (reduces bandwidth)


 total amount of memory used by VASP MPI-rank0    78731. kBytes
=======================================================================

   base      :      30000. kBytes
   nonlr-proj:       4847. kBytes
   fftplans  :      17991. kBytes
   grid      :       6881. kBytes
   one-center:         18. kBytes
   wavefun   :      18994. kBytes
 
     INWAV:  cpu time      0.0000: real time      0.0000
 Broyden mixing: mesh for mixing (old mesh)
   NGX = 35   NGY = 35   NGZ = 35
  (NGX  =140   NGY  =140   NGZ  =140)
  gives a total of  42875 points

 initial charge density was supplied:
 charge density of overlapping atoms calculated
 number of electron     256.0000000 magnetization 
 keeping initial charge density in first step


--------------------------------------------------------------------------------------------------------


 Maximum index for non-local projection operator          294
 Maximum index for augmentation-charges         3889 (set IRDMAX)


--------------------------------------------------------------------------------------------------------


 First call to EWALD:  gamma=   0.168
 Maximum number of real-space cells 3x 3x 3
 Maximum number of reciprocal cells 3x 3x 3

    FEWALD:  cpu time      0.0092: real time      0.0092


--------------------------------------- Ionic step        1  -------------------------------------------




--------------------------------------- Iteration      1(   1)  ---------------------------------------


    POTLOK:  cpu time      0.0806: real time      0.0846
    SETDIJ:  cpu time      0.0840: real time      0.0844
     EDDAV:  cpu time      1.2290: real time      1.3443
       DOS:  cpu time      0.0037: real time      0.0037
    --------------------------------------------
      LOOP:  cpu time      1.3973: real time      1.5170

 eigenvalue-minimisations  :  2592
 total energy-change (2. order) : 0.5785061E+03  (-0.8532894E+04)
 number of electron     256.0000000 magnetization 
 augmentation part      256.0000000 magnetization 

 Free energy of the ion-electron system (eV)
  ---------------------------------------------------
  alpha Z        PSCENC =       117.78303119
  Ewald energy   TEWEN  =     -7536.60657322
  -Hartree energ DENC   =      -310.19287466
  -exchange      EXHF   =         0.00000000
  -V(xc)+E(xc)   XCENC  =      -547.76427934
  PAW double counting   =      5598.62625415    -4492.17844134
  entropy T*S    EENTRO =         0.00130301
  eigenvalues    EBANDS =      1184.04185406
  atomic energy  EATOM  =      6564.79586099
  Solvation  Ediel_sol  =         0.00000000
  ---------------------------------------------------
  free energy    TOTEN  =       578.50613484 eV

  energy without entropy =      578.50483183  energy(sigma->0) =      578.50570050


--------------------------------------------------------------------------------------------------------




--------------------------------------- Iteration      1(   2)  ---------------------------------------


     EDDAV:  cpu time      1.3473: real time      1.3578
       DOS:  cpu time      0.0015: real time      0.0015
    --------------------------------------------
      LOOP:  cpu time      1.3487: real time      1.3593

 eigenvalue-minimisations  :  3096
 total energy-change (2. order) :-0.8868413E+03  (-0.8405362E+03)
 number of electron     256.0000000 magnetization 
 augmentation part      256.0000000 magnetization 

 Free energy of the ion-electron system (eV)
  ---------------------------------------------------
  alpha Z        PSCENC =       117.78303119
  Ewald energy   TEWEN  =     -7536.60657322
  -Hartree energ DENC   =      -310.19287466
  -exchange      EXHF   =         0.00000000
  -V(xc)+E(xc)   XCENC  =      -547.76427934
  PAW double counting   =      5598.62625415    -4492.17844134
  entropy T*S    EENTRO =        -0.00478391
  eigenvalues    EBANDS =       297.20667577
  atomic energy  EATOM  =      6564.79586099
  Solvation  Ediel_sol  =         0.00000000
  ---------------------------------------------------
  free energy    TOTEN  =      -308.33513036 eV

  energy without entropy =     -308.33034646  energy(sigma->0) =     -308.33353573


--------------------------------------------------------------------------------------------------------




--------------------------------------- Iteration      1(   3)  ---------------------------------------


     EDDAV:  cpu time      1.3377: real time      1.3525
       DOS:  cpu time      0.0016: real time      0.0016
    --------------------------------------------
      LOOP:  cpu time      1.3393: real time      1.3541

 eigenvalue-minimisations  :  3144
 total energy-change (2. order) :-0.6326774E+02  (-0.6192108E+02)
 number of electron     256.0000000 magnetization 
 augmentation part      256.0000000 magnetization 

 Free energy of the ion-electron system (eV)
  ---------------------------------------------------
  alpha Z        PSCENC =       117.78303119
  Ewald energy   TEWEN  =     -7536.60657322
  -Hartree energ DENC   =      -310.19287466
  -exchange      EXHF   =         0.00000000
  -V(xc)+E(xc)   XCENC  =      -547.76427934
  PAW double counting   =      5598.62625415    -4492.17844134
  entropy T*S    EENTRO =         0.00747766
  eigenvalues    EBANDS =       233.92667511
  atomic energy  EATOM  =      6564.79586099
  Solvation  Ediel_sol  =         0.00000000
  ---------------------------------------------------
  free energy    TOTEN  =      -371.60286945 eV

  energy without entropy =     -371.61034712  energy(sigma->0) =     -371.60536201


--------------------------------------------------------------------------------------------------------




--------------------------------------- Iteration      1(   4)  ---------------------------------------


     EDDAV:  cpu time      1.3146: real time      1.3296
       DOS:  cpu time      0.0014: real time      0.0014
    --------------------------------------------
      LOOP:  cpu time      1.3160: real time      1.3310

 eigenvalue-minimisations  :  3136
 total energy-change (2. order) :-0.1594293E+01  (-0.1583542E+01)
 number of electron     256.0000000 magnetization 
 augmentation part      256.0000000 magnetization 

 Free energy of the ion-electron system (eV)
  ---------------------------------------------------
  alpha Z        PSCENC =       117.78303119
  Ewald energy   TEWEN  =     -7536.60657322
  -Hartree energ DENC   =      -310.19287466
  -exchange      EXHF   =         0.00000000
  -V(xc)+E(xc)   XCENC  =      -547.76427934
  PAW double counting   =      5598.62625415    -4492.17844134
  entropy T*S    EENTRO =         0.00795100
  eigenvalues    EBANDS =       232.33190914
  atomic energy  EATOM  =      6564.79586099
  Solvation  Ediel_sol  =         0.00000000
  ---------------------------------------------------
  free energy    TOTEN  =      -373.19716208 eV

  energy without entropy =     -373.20511309  energy(sigma->0) =     -373.19981242


--------------------------------------------------------------------------------------------------------




--------------------------------------- Iteration      1(   5)  ---------------------------------------


     EDDAV:  cpu time      1.2974: real time      1.3140
       DOS:  cpu time      0.0012: real time      0.0012
    CHARGE:  cpu time      0.2455: real time      0.2473
    MIXING:  cpu time      0.0074: real time      0.0074
    --------------------------------------------
      LOOP:  cpu time      1.5515: real time      1.5699

 eigenvalue-minimisations  :  3102
 total energy-change (2. order) :-0.4563297E-01  (-0.4555705E-01)
 number of electron     255.9999996 magnetization 
 augmentation part      -15.1898218 magnetization 

 Broyden mixing:
  rms(total) = 0.31613E+01    rms(broyden)= 0.31612E+01
  rms(prec ) = 0.34790E+01
  weight for this iteration     100.00

 Free energy of the ion-electron system (eV)
  ---------------------------------------------------
  alpha Z        PSCENC =       117.78303119
  Ewald energy   TEWEN  =     -7536.60657322
  -Hartree energ DENC   =      -310.19287466
  -exchange      EXHF   =         0.00000000
  -V(xc)+E(xc)   XCENC  =      -547.76427934
  PAW double counting   =      5598.62625415    -4492.17844134
  entropy T*S    EENTRO =         0.00796112
  eigenvalues    EBANDS =       232.28626606
  atomic energy  EATOM  =      6564.79586099
  Solvation  Ediel_sol  =         0.00000000
  ---------------------------------------------------
  free energy    TOTEN  =      -373.24279505 eV

  energy without entropy =     -373.25075617  energy(sigma->0) =     -373.24544876


--------------------------------------------------------------------------------------------------------




--------------------------------------- Iteration      1(   6)  ---------------------------------------


    POTLOK:  cpu time      0.0760: real time      0.0903
    SETDIJ:  cpu time      0.0732: real time      0.0734
    EDDIAG:  cpu time      0.1332: real time      0.1341
  RMM-DIIS:  cpu time      0.6895: real time      0.6974
    ORTHCH:  cpu time      0.0196: real time      0.0196
       DOS:  cpu time      0.0022: real time      0.0023
    CHARGE:  cpu time      0.2347: real time      0.2353
    MIXING:  cpu time      0.0065: real time      0.0078
    --------------------------------------------
      LOOP:  cpu time      1.2349: real time      1.2602

 eigenvalue-minimisations  :  2592
 total energy-change (2. order) : 0.6449393E+01  (-0.3434604E+00)
 number of electron     255.9999996 magnetization 
 augmentation part      -14.9924765 magnetization 

 Broyden mixing:
  rms(total) = 0.19105E+01    rms(broyden)= 0.19105E+01
  rms(prec ) = 0.20869E+01
  weight for this iteration     100.00

 eigenvalues of (default mixing * dielectric matrix)
  average eigenvalue GAMMA=   2.5205
  2.5205

 Free energy of the ion-electron system (eV)
  ---------------------------------------------------
  alpha Z        PSCENC =       117.78303119
  Ewald energy   TEWEN  =     -7536.60657322
  -Hartree energ DENC   =      -360.87714464
  -exchange      EXHF   =         0.00000000
  -V(xc)+E(xc)   XCENC  =      -539.71608718
  PAW double counting   =     13680.69524011   -12578.54571231
  entropy T*S    EENTRO =         0.02226221
  eigenvalues    EBANDS =       285.65572095
  atomic energy  EATOM  =      6564.79586099
  Solvation  Ediel_sol  =         0.00000000
  ---------------------------------------------------
  free energy    TOTEN  =      -366.79340190 eV

  energy without entropy =     -366.81566411  energy(sigma->0) =     -366.80082264


--------------------------------------------------------------------------------------------------------




--------------------------------------- Iteration      1(   7)  ---------------------------------------


    POTLOK:  cpu time      0.0736: real time      0.0877
    SETDIJ:  cpu time      0.0737: real time      0.0739
    EDDIAG:  cpu time      0.1354: real time      0.1362
  RMM-DIIS:  cpu time      0.6963: real time      0.6980
    ORTHCH:  cpu time      0.0197: real time      0.0199
       DOS:  cpu time      0.0013: real time      0.0013
    CHARGE:  cpu time      0.2347: real time      0.2353
    MIXING:  cpu time      0.0078: real time      0.0078
    --------------------------------------------
      LOOP:  cpu time      1.2424: real time      1.2600

 eigenvalue-minimisations  :  2655
 total energy-change (2. order) : 0.2756714E+01  (-0.8616765E+00)
 number of electron     255.9999996 magnetization 
 augmentation part      -14.7133732 magnetization 

 Broyden mixing:
  rms(total) = 0.12710E+00    rms(broyden)= 0.12710E+00
  rms(prec ) = 0.15896E+00
  weight for this iteration     100.00

 eigenvalues of (default mixing * dielectric matrix)
  average eigenvalue GAMMA=   2.3152
  2.3152  2.3152

 Free energy of the ion-electron system (eV)
  ---------------------------------------------------
  alpha Z        PSCENC =       117.78303119
  Ewald energy   TEWEN  =     -7536.60657322
  -Hartree energ DENC   =      -444.18256866
  -exchange      EXHF   =         0.00000000
  -V(xc)+E(xc)   XCENC  =      -525.89268622
  PAW double counting   =     34000.31768989   -32904.24724670
  entropy T*S    EENTRO =         0.02227588
  eigenvalues    EBANDS =       363.97352941
  atomic energy  EATOM  =      6564.79586099
  Solvation  Ediel_sol  =         0.00000000
  ---------------------------------------------------
  free energy    TOTEN  =      -364.03668744 eV

  energy without entropy =     -364.05896332  energy(sigma->0) =     -364.04411273


--------------------------------------------------------------------------------------------------------




--------------------------------------- Iteration      1(   8)  ---------------------------------------


    POTLOK:  cpu time      0.0758: real time      0.0906
    SETDIJ:  cpu time      0.0730: real time      0.0731
    EDDIAG:  cpu time      0.1328: real time      0.1331
  RMM-DIIS:  cpu time      0.7169: real time      0.7189
    ORTHCH:  cpu time      0.0198: real time      0.0198
       DOS:  cpu time      0.0027: real time      0.0027
    CHARGE:  cpu time      0.2387: real time      0.2393
    MIXING:  cpu time      0.0057: real time      0.0057
    --------------------------------------------
      LOOP:  cpu time      1.2654: real time      1.2833

 eigenvalue-minimisations  :  2610
 total energy-change (2. order) :-0.2971834E-01  (-0.7834603E-01)
 number of electron     255.9999996 magnetization 
 augmentation part      -14.7757124 magnetization 

 Broyden mixing:
  rms(total) = 0.56115E-01    rms(broyden)= 0.56115E-01
  rms(prec ) = 0.60373E-01
  weight for this iteration     100.00

 eigenvalues of (default mixing * dielectric matrix)
  average eigenvalue GAMMA=   2.0945
  2.5625  1.8606  1.8606

 Free energy of the ion-electron system (eV)
  ---------------------------------------------------
  alpha Z        PSCENC =       117.78303119
  Ewald energy   TEWEN  =     -7536.60657322
  -Hartree energ DENC   =      -434.12987289
  -exchange      EXHF   =         0.00000000
  -V(xc)+E(xc)   XCENC  =      -526.74534042
  PAW double counting   =     33859.68587572   -32762.43459637
  entropy T*S    EENTRO =         0.02938151
  eigenvalues    EBANDS =       353.55582772
  atomic energy  EATOM  =      6564.79586099
  Solvation  Ediel_sol  =         0.00000000
  ---------------------------------------------------
  free energy    TOTEN  =      -364.06640578 eV

  energy without entropy =     -364.09578728  energy(sigma->0) =     -364.07619961


--------------------------------------------------------------------------------------------------------




--------------------------------------- Iteration      1(   9)  ---------------------------------------


    POTLOK:  cpu time      0.0742: real time      0.0888
    SETDIJ:  cpu time      0.0742: real time      0.0744
    EDDIAG:  cpu time      0.1316: real time      0.1321
  RMM-DIIS:  cpu time      0.7146: real time      0.7166
    ORTHCH:  cpu time      0.0191: real time      0.0192
       DOS:  cpu time      0.0020: real time      0.0020
    CHARGE:  cpu time      0.2341: real time      0.2346
    MIXING:  cpu time      0.0072: real time      0.0072
    --------------------------------------------
      LOOP:  cpu time      1.2570: real time      1.2749

 eigenvalue-minimisations  :  2673
 total energy-change (2. order) :-0.2479048E-01  (-0.2430113E-01)
 number of electron     255.9999996 magnetization 
 augmentation part      -14.7585137 magnetization 

 Broyden mixing:
  rms(total) = 0.62786E-01    rms(broyden)= 0.62786E-01
  rms(prec ) = 0.72121E-01
  weight for this iteration     100.00

 eigenvalues of (default mixing * dielectric matrix)
  average eigenvalue GAMMA=   2.0002
  2.5495  2.4865  2.4865  0.4784

 Free energy of the ion-electron system (eV)
  ---------------------------------------------------
  alpha Z        PSCENC =       117.78303119
  Ewald energy   TEWEN  =     -7536.60657322
  -Hartree energ DENC   =      -437.99618750
  -exchange      EXHF   =         0.00000000
  -V(xc)+E(xc)   XCENC  =      -526.23802393
  PAW double counting   =     34332.84804455   -33235.94747297
  entropy T*S    EENTRO =         0.02767598
  eigenvalues    EBANDS =       357.24244866
  atomic energy  EATOM  =      6564.79586099
  Solvation  Ediel_sol  =         0.00000000
  ---------------------------------------------------
  free energy    TOTEN  =      -364.09119626 eV

  energy without entropy =     -364.11887224  energy(sigma->0) =     -364.10042159


--------------------------------------------------------------------------------------------------------




--------------------------------------- Iteration      1(  10)  ---------------------------------------


    POTLOK:  cpu time      0.0788: real time      0.0879
    SETDIJ:  cpu time      0.0741: real time      0.0743
    EDDIAG:  cpu time      0.1322: real time      0.1326
  RMM-DIIS:  cpu time      0.7158: real time      0.7180
    ORTHCH:  cpu time      0.0191: real time      0.0192
       DOS:  cpu time      0.0026: real time      0.0026
    CHARGE:  cpu time      0.2347: real time      0.2355
    MIXING:  cpu time      0.0068: real time      0.0068
    --------------------------------------------
      LOOP:  cpu time      1.2642: real time      1.2769

 eigenvalue-minimisations  :  2730
 total energy-change (2. order) :-0.4825365E-02  (-0.4341662E-02)
 number of electron     255.9999996 magnetization 
 augmentation part      -14.7645635 magnetization 

 Broyden mixing:
  rms(total) = 0.84447E-01    rms(broyden)= 0.84447E-01
  rms(prec ) = 0.92879E-01
  weight for this iteration     100.00

 eigenvalues of (default mixing * dielectric matrix)
  average eigenvalue GAMMA=   1.5805
  2.6348  2.0609  2.0609  0.5729  0.5729

 Free energy of the ion-electron system (eV)
  ---------------------------------------------------
  alpha Z        PSCENC =       117.78303119
  Ewald energy   TEWEN  =     -7536.60657322
  -Hartree energ DENC   =      -438.14080243
  -exchange      EXHF   =         0.00000000
  -V(xc)+E(xc)   XCENC  =      -526.22269738
  PAW double counting   =     34367.29049879   -33270.39640126
  entropy T*S    EENTRO =         0.02757003
  eigenvalues    EBANDS =       357.37349165
  atomic energy  EATOM  =      6564.79586099
  Solvation  Ediel_sol  =         0.00000000
  ---------------------------------------------------
  free energy    TOTEN  =      -364.09602163 eV

  energy without entropy =     -364.12359166  energy(sigma->0) =     -364.10521164


--------------------------------------------------------------------------------------------------------




--------------------------------------- Iteration      1(  11)  ---------------------------------------


    POTLOK:  cpu time      0.0796: real time      0.0950
    SETDIJ:  cpu time      0.0723: real time      0.0725
    EDDIAG:  cpu time      0.1321: real time      0.1325
  RMM-DIIS:  cpu time      0.6905: real time      0.6924
    ORTHCH:  cpu time      0.0193: real time      0.0194
       DOS:  cpu time      0.0017: real time      0.0017
    CHARGE:  cpu time      0.2349: real time      0.2354
    MIXING:  cpu time      0.0064: real time      0.0064
    --------------------------------------------
      LOOP:  cpu time      1.2368: real time      1.2552

 eigenvalue-minimisations  :  2592
 total energy-change (2. order) : 0.5453414E-02  (-0.1491722E-02)
 number of electron     255.9999996 magnetization 
 augmentation part      -14.7800974 magnetization 

 Broyden mixing:
  rms(total) = 0.65824E-01    rms(broyden)= 0.65824E-01
  rms(prec ) = 0.66469E-01
  weight for this iteration     100.00

 eigenvalues of (default mixing * dielectric matrix)
  average eigenvalue GAMMA=   1.4221
  2.5191  2.5191  1.5877  0.8183  0.8183  0.2700

 Free energy of the ion-electron system (eV)
  ---------------------------------------------------
  alpha Z        PSCENC =       117.78303119
  Ewald energy   TEWEN  =     -7536.60657322
  -Hartree energ DENC   =      -435.21492800
  -exchange      EXHF   =         0.00000000
  -V(xc)+E(xc)   XCENC  =      -526.45366099
  PAW double counting   =     34302.24001944   -33205.05741296
  entropy T*S    EENTRO =         0.02943129
  eigenvalues    EBANDS =       354.39366405
  atomic energy  EATOM  =      6564.79586099
  Solvation  Ediel_sol  =         0.00000000
  ---------------------------------------------------
  free energy    TOTEN  =      -364.09056821 eV

  energy without entropy =     -364.11999950  energy(sigma->0) =     -364.10037864


--------------------------------------------------------------------------------------------------------




--------------------------------------- Iteration      1(  12)  ---------------------------------------


    POTLOK:  cpu time      0.0820: real time      0.0967
    SETDIJ:  cpu time      0.0854: real time      0.0915
    EDDIAG:  cpu time      0.1438: real time      0.1476
  RMM-DIIS:  cpu time      0.7094: real time      0.7130
    ORTHCH:  cpu time      0.0196: real time      0.0201
       DOS:  cpu time      0.0012: real time      0.0012
    CHARGE:  cpu time      0.2353: real time      0.2391
    MIXING:  cpu time      0.0050: real time      0.0051
    --------------------------------------------
      LOOP:  cpu time      1.2817: real time      1.3143

 eigenvalue-minimisations  :  2619
 total energy-change (2. order) :-0.1784548E-03  (-0.1979191E-03)
 number of electron     255.9999996 magnetization 
 augmentation part      -14.7831016 magnetization 

 Broyden mixing:
  rms(total) = 0.65433E-01    rms(broyden)= 0.65433E-01
  rms(prec ) = 0.65881E-01
  weight for this iteration     100.00

 eigenvalues of (default mixing * dielectric matrix)
  average eigenvalue GAMMA=   1.3758
  2.5370  2.5370  1.7053  0.9371  0.9371  0.3580  0.6190

 Free energy of the ion-electron system (eV)
  ---------------------------------------------------
  alpha Z        PSCENC =       117.78303119
  Ewald energy   TEWEN  =     -7536.60657322
  -Hartree energ DENC   =      -435.08969763
  -exchange      EXHF   =         0.00000000
  -V(xc)+E(xc)   XCENC  =      -526.47627101
  PAW double counting   =     34224.62116084   -33127.44771898
  entropy T*S    EENTRO =         0.02947150
  eigenvalues    EBANDS =       354.29998966
  atomic energy  EATOM  =      6564.79586099
  Solvation  Ediel_sol  =         0.00000000
  ---------------------------------------------------
  free energy    TOTEN  =      -364.09074667 eV

  energy without entropy =     -364.12021817  energy(sigma->0) =     -364.10057050


--------------------------------------------------------------------------------------------------------




--------------------------------------- Iteration      1(  13)  ---------------------------------------


    POTLOK:  cpu time      0.0723: real time      0.0886
    SETDIJ:  cpu time      0.0747: real time      0.0750
    EDDIAG:  cpu time      0.1318: real time      0.1321
  RMM-DIIS:  cpu time      0.7255: real time      0.7274
    ORTHCH:  cpu time      0.0196: real time      0.0196
       DOS:  cpu time      0.0014: real time      0.0014
    CHARGE:  cpu time      0.2361: real time      0.2366
    MIXING:  cpu time      0.0061: real time      0.0061
    --------------------------------------------
      LOOP:  cpu time      1.2674: real time      1.2870

 eigenvalue-minimisations  :  2731
 total energy-change (2. order) :-0.7352214E-04  (-0.3756445E-04)
 number of electron     255.9999996 magnetization 
 augmentation part      -14.7837420 magnetization 

 Broyden mixing:
  rms(total) = 0.71713E-01    rms(broyden)= 0.71713E-01
  rms(prec ) = 0.72105E-01
  weight for this iteration     100.00

 eigenvalues of (default mixing * dielectric matrix)
  average eigenvalue GAMMA=   1.8167
  3.3890  3.3890  2.4357  2.1533  0.9855  0.8988  0.8988  0.3837

 Free energy of the ion-electron system (eV)
  ---------------------------------------------------
  alpha Z        PSCENC =       117.78303119
  Ewald energy   TEWEN  =     -7536.60657322
  -Hartree energ DENC   =      -435.11355814
  -exchange      EXHF   =         0.00000000
  -V(xc)+E(xc)   XCENC  =      -526.46722587
  PAW double counting   =     34279.24374129   -33182.07285718
  entropy T*S    EENTRO =         0.02947777
  eigenvalues    EBANDS =       354.31728298
  atomic energy  EATOM  =      6564.79586099
  Solvation  Ediel_sol  =         0.00000000
  ---------------------------------------------------
  free energy    TOTEN  =      -364.09082019 eV

  energy without entropy =     -364.12029796  energy(sigma->0) =     -364.10064611


--------------------------------------------------------------------------------------------------------




--------------------------------------- Iteration      1(  14)  ---------------------------------------


    POTLOK:  cpu time      0.0788: real time      0.0929
    SETDIJ:  cpu time      0.0727: real time      0.0729
    EDDIAG:  cpu time      0.1285: real time      0.1288
  RMM-DIIS:  cpu time      0.6904: real time      0.6944
    ORTHCH:  cpu time      0.0194: real time      0.0194
       DOS:  cpu time      0.0018: real time      0.0018
    CHARGE:  cpu time      0.2346: real time      0.2357
    MIXING:  cpu time      0.0061: real time      0.0061
    --------------------------------------------
      LOOP:  cpu time      1.2323: real time      1.2521

 eigenvalue-minimisations  :  2601
 total energy-change (2. order) : 0.7150590E-04  (-0.1143207E-04)
 number of electron     255.9999996 magnetization 
 augmentation part      -14.7840044 magnetization 

 Broyden mixing:
  rms(total) = 0.26205E-01    rms(broyden)= 0.26205E-01
  rms(prec ) = 0.26779E-01
  weight for this iteration     100.00

 eigenvalues of (default mixing * dielectric matrix)
  average eigenvalue GAMMA=   1.5127
  2.5799  2.5411  2.5411  1.9708  0.3886  0.9770  0.9770  0.8877  0.7512

 Free energy of the ion-electron system (eV)
  ---------------------------------------------------
  alpha Z        PSCENC =       117.78303119
  Ewald energy   TEWEN  =     -7536.60657322
  -Hartree energ DENC   =      -434.83025200
  -exchange      EXHF   =         0.00000000
  -V(xc)+E(xc)   XCENC  =      -526.53210816
  PAW double counting   =     33817.89265475   -32720.75021162
  entropy T*S    EENTRO =         0.02952808
  eigenvalues    EBANDS =       354.12732131
  atomic energy  EATOM  =      6564.79586099
  Solvation  Ediel_sol  =         0.00000000
  ---------------------------------------------------
  free energy    TOTEN  =      -364.09074868 eV

  energy without entropy =     -364.12027676  energy(sigma->0) =     -364.10059137


--------------------------------------------------------------------------------------------------------




--------------------------------------- Iteration      1(  15)  ---------------------------------------


    POTLOK:  cpu time      0.0755: real time      0.0884
    SETDIJ:  cpu time      0.0770: real time      0.0772
    EDDIAG:  cpu time      0.1314: real time      0.1317
  RMM-DIIS:  cpu time      0.6994: real time      0.7014
    ORTHCH:  cpu time      0.0195: real time      0.0195
       DOS:  cpu time      0.0013: real time      0.0013
    CHARGE:  cpu time      0.2356: real time      0.2362
    MIXING:  cpu time      0.0064: real time      0.0064
    --------------------------------------------
      LOOP:  cpu time      1.2460: real time      1.2620

 eigenvalue-minimisations  :  2614
 total energy-change (2. order) :-0.1314859E-03  (-0.5841070E-05)
 number of electron     255.9999996 magnetization 
 augmentation part      -14.7843771 magnetization 

 Broyden mixing:
  rms(total) = 0.26666E-01    rms(broyden)= 0.26666E-01
  rms(prec ) = 0.26979E-01
  weight for this iteration     100.00

 eigenvalues of (default mixing * dielectric matrix)
  average eigenvalue GAMMA=   1.4134
  2.5752  2.5752  2.4620  1.8734  0.9906  0.9906  0.8727  0.7054  0.7054  0.3833

 Free energy of the ion-electron system (eV)
  ---------------------------------------------------
  alpha Z        PSCENC =       117.78303119
  Ewald energy   TEWEN  =     -7536.60657322
  -Hartree energ DENC   =      -434.86421507
  -exchange      EXHF   =         0.00000000
  -V(xc)+E(xc)   XCENC  =      -526.51116912
  PAW double counting   =     33918.97815084   -32821.82964292
  entropy T*S    EENTRO =         0.02958811
  eigenvalues    EBANDS =       354.13408904
  atomic energy  EATOM  =      6564.79586099
  Solvation  Ediel_sol  =         0.00000000
  ---------------------------------------------------
  free energy    TOTEN  =      -364.09088017 eV

  energy without entropy =     -364.12046828  energy(sigma->0) =     -364.10074287


--------------------------------------------------------------------------------------------------------




--------------------------------------- Iteration      1(  16)  ---------------------------------------


    POTLOK:  cpu time      0.0845: real time      0.0946
    SETDIJ:  cpu time      0.0706: real time      0.0707
    EDDIAG:  cpu time      0.1314: real time      0.1317
  RMM-DIIS:  cpu time      0.6979: real time      0.6999
    ORTHCH:  cpu time      0.0196: real time      0.0196
       DOS:  cpu time      0.0023: real time      0.0023
    CHARGE:  cpu time      0.2371: real time      0.2377
    MIXING:  cpu time      0.0065: real time      0.0065
    --------------------------------------------
      LOOP:  cpu time      1.2500: real time      1.2632

 eigenvalue-minimisations  :  2592
 total energy-change (2. order) :-0.5967240E-04  (-0.2359569E-05)
 number of electron     255.9999996 magnetization 
 augmentation part      -14.7840240 magnetization 

 Broyden mixing:
  rms(total) = 0.25594E-01    rms(broyden)= 0.25594E-01
  rms(prec ) = 0.25766E-01
  weight for this iteration     100.00

 eigenvalues of (default mixing * dielectric matrix)
  average eigenvalue GAMMA=   1.5570
  2.8013  2.8013  2.4706  2.3346  1.2803  1.2803  0.9858  0.9858  0.9006  0.9006
  0.3855

 Free energy of the ion-electron system (eV)
  ---------------------------------------------------
  alpha Z        PSCENC =       117.78303119
  Ewald energy   TEWEN  =     -7536.60657322
  -Hartree energ DENC   =      -435.00559903
  -exchange      EXHF   =         0.00000000
  -V(xc)+E(xc)   XCENC  =      -526.49294572
  PAW double counting   =     33971.15520947   -32874.00717101
  entropy T*S    EENTRO =         0.02957527
  eigenvalues    EBANDS =       354.25767222
  atomic energy  EATOM  =      6564.79586099
  Solvation  Ediel_sol  =         0.00000000
  ---------------------------------------------------
  free energy    TOTEN  =      -364.09093984 eV

  energy without entropy =     -364.12051511  energy(sigma->0) =     -364.10079826


--------------------------------------------------------------------------------------------------------




--------------------------------------- Iteration      1(  17)  ---------------------------------------


    POTLOK:  cpu time      0.0784: real time      0.0909
    SETDIJ:  cpu time      0.0777: real time      0.0779
    EDDIAG:  cpu time      0.1317: real time      0.1321
  RMM-DIIS:  cpu time      0.6950: real time      0.6967
    ORTHCH:  cpu time      0.0195: real time      0.0196
       DOS:  cpu time      0.0016: real time      0.0016
    CHARGE:  cpu time      0.2379: real time      0.2385
    MIXING:  cpu time      0.0066: real time      0.0066
    --------------------------------------------
      LOOP:  cpu time      1.2483: real time      1.2638

 eigenvalue-minimisations  :  2592
 total energy-change (2. order) :-0.1936538E-04  (-0.1074835E-05)
 number of electron     255.9999996 magnetization 
 augmentation part      -14.7839432 magnetization 

 Broyden mixing:
  rms(total) = 0.76043E-02    rms(broyden)= 0.76043E-02
  rms(prec ) = 0.77182E-02
  weight for this iteration     100.00

 eigenvalues of (default mixing * dielectric matrix)
  average eigenvalue GAMMA=   1.6650
  3.0539  3.0539  1.8582  1.8582  2.5012  2.2369  0.3854  1.0309  1.0309  1.0452
  1.0452  0.8798

 Free energy of the ion-electron system (eV)
  ---------------------------------------------------
  alpha Z        PSCENC =       117.78303119
  Ewald energy   TEWEN  =     -7536.60657322
  -Hartree energ DENC   =      -434.99467759
  -exchange      EXHF   =         0.00000000
  -V(xc)+E(xc)   XCENC  =      -526.50496645
  PAW double counting   =     33847.76686112   -32750.61947769
  entropy T*S    EENTRO =         0.02960246
  eigenvalues    EBANDS =       354.25937998
  atomic energy  EATOM  =      6564.79586099
  Solvation  Ediel_sol  =         0.00000000
  ---------------------------------------------------
  free energy    TOTEN  =      -364.09095921 eV

  energy without entropy =     -364.12056167  energy(sigma->0) =     -364.10082669


--------------------------------------------------------------------------------------------------------




--------------------------------------- Iteration      1(  18)  ---------------------------------------


    POTLOK:  cpu time      0.0790: real time      0.0971
    SETDIJ:  cpu time      0.0721: real time      0.0723
    EDDIAG:  cpu time      0.1314: real time      0.1317
  RMM-DIIS:  cpu time      0.6601: real time      0.6621
    ORTHCH:  cpu time      0.0194: real time      0.0195
       DOS:  cpu time      0.0025: real time      0.0025
    CHARGE:  cpu time      0.2352: real time      0.2359
    MIXING:  cpu time      0.0066: real time      0.0066
    --------------------------------------------
      LOOP:  cpu time      1.2062: real time      1.2275

 eigenvalue-minimisations  :  2460
 total energy-change (2. order) :-0.1027961E-04  (-0.6701114E-06)
 number of electron     255.9999996 magnetization 
 augmentation part      -14.7837647 magnetization 

 Broyden mixing:
  rms(total) = 0.11290E-02    rms(broyden)= 0.11290E-02
  rms(prec ) = 0.11654E-02
  weight for this iteration     100.00

 eigenvalues of (default mixing * dielectric matrix)
  average eigenvalue GAMMA=   1.5607
  3.0840  3.0840  1.8916  1.8916  2.5032  2.2290  1.0406  1.0406  1.0506  1.0506
  0.8795  0.3854  0.1593

 Free energy of the ion-electron system (eV)
  ---------------------------------------------------
  alpha Z        PSCENC =       117.78303119
  Ewald energy   TEWEN  =     -7536.60657322
  -Hartree energ DENC   =      -435.02959194
  -exchange      EXHF   =         0.00000000
  -V(xc)+E(xc)   XCENC  =      -526.50301218
  PAW double counting   =     33826.12960643   -32728.98217434
  entropy T*S    EENTRO =         0.02961518
  eigenvalues    EBANDS =       354.29226841
  atomic energy  EATOM  =      6564.79586099
  Solvation  Ediel_sol  =         0.00000000
  ---------------------------------------------------
  free energy    TOTEN  =      -364.09096949 eV

  energy without entropy =     -364.12058467  energy(sigma->0) =     -364.10084121


--------------------------------------------------------------------------------------------------------




--------------------------------------- Iteration      1(  19)  ---------------------------------------


    POTLOK:  cpu time      0.0798: real time      0.0972
    SETDIJ:  cpu time      0.0708: real time      0.0710
    EDDIAG:  cpu time      0.1335: real time      0.1339
  RMM-DIIS:  cpu time      0.4446: real time      0.4457
    ORTHCH:  cpu time      0.0192: real time      0.0193
       DOS:  cpu time      0.0016: real time      0.0016
    CHARGE:  cpu time      0.2352: real time      0.2359
    MIXING:  cpu time      0.0065: real time      0.0065
    --------------------------------------------
      LOOP:  cpu time      0.9913: real time      1.0111

 eigenvalue-minimisations  :  1573
 total energy-change (2. order) :-0.1262612E-05  (-0.1493779E-06)
 number of electron     255.9999996 magnetization 
 augmentation part      -14.7836551 magnetization 

 Broyden mixing:
  rms(total) = 0.92482E-03    rms(broyden)= 0.92476E-03
  rms(prec ) = 0.92679E-03
  weight for this iteration     100.00

 eigenvalues of (default mixing * dielectric matrix)
  average eigenvalue GAMMA=   1.6768
  3.4440  3.4440  2.4164  1.7988  1.7988  1.7999  1.7999  1.3518  1.3518  0.3854
  0.9963  0.9963  1.0087  0.8826

 Free energy of the ion-electron system (eV)
  ---------------------------------------------------
  alpha Z        PSCENC =       117.78303119
  Ewald energy   TEWEN  =     -7536.60657322
  -Hartree energ DENC   =      -435.04479759
  -exchange      EXHF   =         0.00000000
  -V(xc)+E(xc)   XCENC  =      -526.50145641
  PAW double counting   =     33828.01437364   -32730.86707922
  entropy T*S    EENTRO =         0.02961737
  eigenvalues    EBANDS =       354.30605251
  atomic energy  EATOM  =      6564.79586099
  Solvation  Ediel_sol  =         0.00000000
  ---------------------------------------------------
  free energy    TOTEN  =      -364.09097075 eV

  energy without entropy =     -364.12058812  energy(sigma->0) =     -364.10084320


--------------------------------------------------------------------------------------------------------




--------------------------------------- Iteration      1(  20)  ---------------------------------------


    POTLOK:  cpu time      0.0759: real time      0.0881
    SETDIJ:  cpu time      0.0767: real time      0.0768
    EDDIAG:  cpu time      0.1334: real time      0.1337
  RMM-DIIS:  cpu time      0.4405: real time      0.4417
    ORTHCH:  cpu time      0.0194: real time      0.0194
       DOS:  cpu time      0.0017: real time      0.0017
    --------------------------------------------
      LOOP:  cpu time      0.7475: real time      0.7614

 eigenvalue-minimisations  :  1508
 total energy-change (2. order) :-0.2720217E-06  (-0.2626707E-07)
 number of electron     255.9999996 magnetization 
 augmentation part      -14.7836551 magnetization 

 Free energy of the ion-electron system (eV)
  ---------------------------------------------------
  alpha Z        PSCENC =       117.78303119
  Ewald energy   TEWEN  =     -7536.60657322
  -Hartree energ DENC   =      -435.04658109
  -exchange      EXHF   =         0.00000000
  -V(xc)+E(xc)   XCENC  =      -526.50086136
  PAW double counting   =     33835.68150593   -32738.53425410
  entropy T*S    EENTRO =         0.02961787
  eigenvalues    EBANDS =       354.30728277
  atomic energy  EATOM  =      6564.79586099
  Solvation  Ediel_sol  =         0.00000000
  ---------------------------------------------------
  free energy    TOTEN  =      -364.09097102 eV

  energy without entropy =     -364.12058889  energy(sigma->0) =     -364.10084364


--------------------------------------------------------------------------------------------------------




 average (electrostatic) potential at core
  the test charge radii are     0.9892
  (the norm of the test charge is              1.0000)
       1 -81.9915       2 -81.9915       3 -81.9915       4 -81.9915       5 -81.9915
       6 -81.9915       7 -81.9915       8 -81.9915       9 -81.9915      10 -81.9915
      11 -81.9915      12 -81.9915      13 -81.9915      14 -81.9915      15 -81.9915
      16 -81.9915      17 -81.9915      18 -81.9915      19 -81.9915      20 -81.9915
      21 -81.9915      22 -81.9915      23 -81.9915      24 -81.9915      25 -81.9915
      26 -81.9915      27 -81.9915      28 -81.9915      29 -81.9915      30 -81.9915
      31 -81.9915      32 -81.9915      33 -81.9915      34 -81.9915      35 -81.9915
      36 -81.9915      37 -81.9915      38 -81.9915      39 -81.9915      40 -81.9915
      41 -81.9915      42 -81.9915      43 -81.9915      44 -81.9915      45 -81.9915
      46 -81.9915      47 -81.9915      48 -81.9915      49 -81.9915      50 -81.9915
      51 -81.9915      52 -81.9915      53 -81.9915      54 -81.9915      55 -81.9915
      56 -81.9915      57 -81.9915      58 -81.9915      59 -81.9915      60 -81.9915
      61 -81.9915      62 -81.9915      63 -81.9915      64 -81.9915
 
 
 
 E-fermi :   6.9306     XC(G=0):  -9.9027     alpha+bet :-13.1123

 val. band max:        6.7733865121   @ k =   0.0000   0.0000   0.0000
 cond. band min:       7.0588623212   @ k =   0.5000  -0.0000   0.0000
 fundamental gap:      0.2854758092
 Fermi energy:         6.9305835926

 k-point     1 :       0.0000    0.0000    0.0000
  band No.  band energies     occupation 
      1      -5.8935      2.00000
      2      -4.7241      2.00000
      3      -4.7241      2.00000
      4      -4.7240      2.00000
      5      -4.7240      2.00000
      6      -4.7138      2.00000
      7      -4.7138      2.00000
      8      -3.6747      2.00000
      9      -3.6747      2.00000
     10      -3.6667      2.00000
     11      -3.6667      2.00000
     12      -3.6667      2.00000
     13      -3.6667      2.00000
     14      -3.6592      2.00000
     15      -3.6592      2.00000
     16      -3.6592      2.00000
     17      -3.6592      2.00000
     18      -3.6435      2.00000
     19      -3.6435      2.00000
     20      -3.3215      2.00000
     21      -3.3215      2.00000
     22      -3.2855      2.00000
     23      -3.2855      2.00000
     24      -1.4252      2.00000
     25      -1.4049      2.00000
     26      -1.4049      2.00000
     27      -1.3848      2.00000
     28      -1.3710      2.00000
     29      -1.3710      2.00000
     30      -1.2085      2.00000
     31      -1.2085      2.00000
     32      -1.1972      2.00000
     33      -1.1972      2.00000
     34      -1.1733      2.00000
     35      -1.1733      2.00000
     36      -1.1733      2.00000
     37      -1.1733      2.00000
     38      -1.1606      2.00000
     39      -1.1606      2.00000
     40      -1.1494      2.00000
     41      -1.1494      2.00000
     42      -0.7275      2.00000
     43      -0.7275      2.00000
     44      -0.7220      2.00000
     45      -0.7220      2.00000
     46       1.0560      2.00000
     47       1.0560      2.00000
     48       1.0646      2.00000
     49       1.0646      2.00000
     50       1.0646      2.00000
     51       1.0646      2.00000
     52       1.0730      2.00000
     53       1.0730      2.00000
     54       1.0852      2.00000
     55       1.0852      2.00000
     56       1.0852      2.00000
     57       1.0852      2.00000
     58       2.4318      2.00000
     59       2.4318      2.00000
     60       2.4331      2.00000
     61       2.4331      2.00000
     62       2.4354      2.00000
     63       2.4354      2.00000
     64       2.4362      2.00000
     65       2.4362      2.00000
     66       2.4362      2.00000
     67       2.4362      2.00000
     68       2.4368      2.00000
     69       2.4368      2.00000
     70       2.5633      2.00000
     71       2.5633      2.00000
     72       2.5698      2.00000
     73       2.5698      2.00000
     74       2.5698      2.00000
     75       2.5698      2.00000
     76       2.5760      2.00000
     77       2.5760      2.00000
     78       2.6001      2.00000
     79       2.6002      2.00000
     80       2.6002      2.00000
     81       2.6002      2.00000
     82       3.2216      2.00000
     83       3.2216      2.00000
     84       3.2220      2.00000
     85       3.2221      2.00000
     86       3.2618      2.00000
     87       3.2618      2.00000
     88       3.5985      2.00000
     89       3.5985      2.00000
     90       3.6101      2.00000
     91       3.6404      2.00000
     92       3.6404      2.00000
     93       3.6707      2.00000
     94       4.6407      2.00000
     95       4.6407      2.00000
     96       4.6408      2.00000
     97       4.6408      2.00000
     98       4.6460      2.00000
     99       4.6460      2.00000
    100       4.6676      2.00000
    101       4.6676      2.00000
    102       4.6787      2.00000
    103       4.6788      2.00000
    104       4.7006      2.00000
    105       4.7006      2.00000
    106       5.2760      2.00000
    107       5.2760      2.00000
    108       5.2760      2.00000
    109       5.2760      2.00000
    110       5.3048      2.00000
    111       5.3048      2.00000
    112       5.3195      2.00000
    113       5.3195      2.00000
    114       5.3195      2.00000
    115       5.3195      2.00000
    116       5.3345      2.00000
    117       5.3345      2.00000
    118       5.4239      2.00000
    119       5.4239      2.00000
    120       5.4511      2.00000
    121       5.4511      2.00000
    122       5.4765      2.00000
    123       5.4765      2.00000
    124       5.5029      2.00000
    125       5.5029      2.00000
    126       6.7330      2.04767
    127       6.7347      2.04575
    128       6.7734      1.97275
    129       7.1129     -0.02666
    130       7.1129     -0.02666
    131       7.1238     -0.04248
    132       7.1551     -0.06722
    133       7.1551     -0.06722
    134       7.1866     -0.07005
    135       7.6586     -0.00000
    136       7.6586     -0.00000
    137       7.6997     -0.00000
    138       7.6997     -0.00000
    139       7.6998     -0.00000
    140       7.6998     -0.00000
    141       8.5062     -0.00000
    142       8.5062     -0.00000
    143       8.5557     -0.00000
    144       8.5558     -0.00000
    145       9.1053     -0.00000
    146       9.1054     -0.00000
    147       9.1057     -0.00000
    148       9.1089     -0.00000
    149       9.1377     -0.00000
    150       9.1386     -0.00000
    151       9.1544     -0.00000
    152       9.1545     -0.00000
    153       9.1551     -0.00000
    154       9.1586     -0.00000
    155       9.1726     -0.00000
    156       9.1733     -0.00000
    157       9.2524     -0.00000
    158       9.2997     -0.00000
    159       9.3367     -0.00000
    160       9.7191     -0.00000
    161       9.7426     -0.00000
    162       9.7762     -0.00000

 k-point     2 :       0.5000   -0.0000    0.0000
  band No.  band energies     occupation 
      1      -5.5960      2.00000
      2      -5.5960      2.00000
      3      -4.4584      2.00000
      4      -4.4584      2.00000
      5      -4.4506      2.00000
      6      -4.4506      2.00000
      7      -4.4506      2.00000
      8      -4.4506      2.00000
      9      -4.4428      2.00000
     10      -4.4428      2.00000
     11      -3.5174      2.00000
     12      -3.5174      2.00000
     13      -3.5174      2.00000
     14      -3.5174      2.00000
     15      -3.4961      2.00000
     16      -3.4961      2.00000
     17      -3.4961      2.00000
     18      -3.4961      2.00000
     19      -3.2812      2.00000
     20      -3.2812      2.00000
     21      -2.4904      2.00000
     22      -2.4904      2.00000
     23      -2.4679      2.00000
     24      -2.4679      2.00000
     25      -2.4679      2.00000
     26      -2.4679      2.00000
     27      -2.4453      2.00000
     28      -2.4453      2.00000
     29      -1.3239      2.00000
     30      -1.3239      2.00000
     31      -1.3169      2.00000
     32      -1.3169      2.00000
     33      -1.2865      2.00000
     34      -1.2865      2.00000
     35      -1.2797      2.00000
     36      -1.2797      2.00000
     37      -0.0755      2.00000
     38      -0.0755      2.00000
     39      -0.0592      2.00000
     40      -0.0592      2.00000
     41      -0.0592      2.00000
     42      -0.0592      2.00000
[...]
  0.000   0.000   4.166   0.000  -0.000   7.760   0.000  -0.000
 -0.000  -0.000   0.000   4.166   0.000   0.000   7.760   0.000
  0.000   0.000  -0.000   0.000   4.166  -0.000   0.000   7.760
  0.000   0.000   7.760   0.000  -0.000  14.466   0.000  -0.000
 -0.001  -0.001   0.000   7.760   0.000   0.000  14.466   0.000
  0.000   0.000  -0.000   0.000   7.760  -0.000   0.000  14.466
 total augmentation occupancy for first ion, spin component:           1
  6.736  -2.729   0.000   0.013   0.000   0.000  -0.005   0.000
 -2.729   1.213  -0.000  -0.007   0.000  -0.000   0.002   0.000
  0.000  -0.000   3.289   0.000   0.000  -0.763   0.000   0.001
  0.013  -0.007   0.000   3.290   0.000   0.000  -0.763   0.000
  0.000   0.000   0.000   0.000   3.279   0.001   0.000  -0.758
  0.000  -0.000  -0.763   0.000   0.001   0.187   0.000  -0.000
 -0.005   0.002   0.000  -0.763  -0.000   0.000   0.187   0.000
  0.000   0.000   0.001   0.000  -0.758  -0.000   0.000   0.185


------------------------ aborting loop because EDIFF is reached ----------------------------------------


    CHARGE:  cpu time      0.2641: real time      0.2650
    FORLOC:  cpu time      0.0222: real time      0.0222
    FORNL :  cpu time      0.6994: real time      0.7016
    STRESS:  cpu time      2.1634: real time      2.1787
    FORCOR:  cpu time      0.0858: real time      0.0860
    FORHAR:  cpu time      0.0342: real time      0.0343
    MIXING:  cpu time      0.0311: real time      0.0312
    OFIELD:  cpu time      0.0001: real time      0.0001

  FORCE on cell =-STRESS in cart. coord.  units (eV):
  Direction    XX          YY          ZZ          XY          YZ          ZX
  --------------------------------------------------------------------------------------
  Alpha Z   117.78303   117.78303   117.78303
  Ewald   -2523.78616 -2506.46276 -2506.45623     1.82965    -0.00000    -0.00000
  Hartree   143.26387   145.87315   145.85821     1.99650    -0.00000    -0.00000
  E(xc)    -835.82778  -835.99305  -835.99638     0.00547    -0.00000    -0.00000
  Local    -878.54760  -898.89651  -898.93723    -4.32367    -0.00000    -0.00000
  n-local  2544.71263  2547.42569  2547.48020    -0.29557     0.00000     0.00000
  augment  -370.55627  -370.54907  -370.55364    -0.15696     0.00000     0.00000
  Kinetic  1882.60508  1877.64932  1877.59719     3.61145     0.00000     0.00000
  Fock        0.00000     0.00000     0.00000     0.00000     0.00000     0.00000
  -------------------------------------------------------------------------------------
  Total      79.64681    76.82980    76.77514     2.66687     0.00000     0.00000
  in kB     109.00521   105.14983   105.07502     3.64989     0.00000     0.00000
  external pressure =      106.41 kB  Pullay stress =        0.00 kB


 VOLUME and BASIS-vectors are now :
 -----------------------------------------------------------------------------
  energy-cutoff  :      400.00
  volume of cell :     1170.66
      direct lattice vectors                 reciprocal lattice vectors
    10.504132551 -0.026392004  0.000000000     0.095201225  0.000238000  0.000000000
    -0.026392004 10.556917559  0.000000000     0.000238000  0.094725215  0.000000000
     0.000000000  0.000000000 10.556917559     0.000000000  0.000000000  0.094724620

  length of vectors
    10.504165707 10.556950549 10.556917559     0.095201522  0.094725514  0.094724620


 FORCES acting on ions
    electron-ion (+dipol)            ewald-force                    non-local-force                 convergence-correction
 -----------------------------------------------------------------------------------------------
   -.369E-08 -.360E-08 0.419E+00   0.122E-13 -.235E-13 -.295E+00   -.336E-20 -.102E-19 -.123E+00   0.585E-13 0.292E-13 -.852E-05
   -.369E-08 -.360E-08 0.419E+00   0.138E-13 -.226E-13 -.295E+00   0.316E-20 0.157E-20 -.123E+00   -.577E-13 -.417E-13 -.852E-05
   -.369E-08 -.360E-08 0.419E+00   0.147E-13 -.198E-13 -.295E+00   0.481E-21 -.127E-19 -.123E+00   0.119E-13 -.250E-13 -.852E-05
   -.369E-08 -.360E-08 0.419E+00   0.178E-14 -.271E-13 -.295E+00   -.345E-20 -.255E-20 -.123E+00   -.120E-13 0.437E-13 -.852E-05
   -.369E-08 -.360E-08 0.419E+00   0.111E-13 -.244E-13 -.295E+00   0.900E-21 -.119E-19 -.123E+00   -.579E-13 0.119E-13 -.852E-05
   -.369E-08 -.360E-08 0.419E+00   0.182E-13 -.204E-13 -.295E+00   -.369E-20 0.852E-21 -.123E+00   0.642E-13 -.653E-13 -.852E-05
   -.369E-08 -.360E-08 0.419E+00   0.182E-13 -.178E-13 -.295E+00   -.751E-21 -.119E-19 -.123E+00   -.431E-14 -.101E-13 -.852E-05
   -.369E-08 -.360E-08 0.419E+00   0.178E-13 -.213E-13 -.295E+00   0.318E-20 0.168E-20 -.123E+00   0.115E-13 0.732E-13 -.852E-05
   0.521E-08 0.505E-08 -.419E+00   -.129E-13 -.160E-13 0.295E+00   0.336E-20 0.423E-20 0.123E+00   0.855E-14 0.171E-13 0.852E-05
   0.521E-08 0.505E-08 -.419E+00   -.711E-14 -.888E-14 0.295E+00   0.240E-21 0.944E-20 0.123E+00   -.183E-13 -.101E-13 0.852E-05
   0.521E-08 0.505E-08 -.419E+00   -.204E-13 -.355E-14 0.295E+00   -.480E-21 0.423E-20 0.123E+00   -.515E-13 -.247E-13 0.852E-05
   0.521E-08 0.505E-08 -.419E+00   -.888E-14 -.355E-14 0.295E+00   0.345E-20 0.852E-21 0.123E+00   0.554E-13 0.611E-14 0.852E-05
   0.521E-08 0.505E-08 -.419E+00   -.799E-14 -.711E-14 0.295E+00   -.429E-20 0.431E-20 0.123E+00   -.252E-14 -.231E-13 0.852E-05
   0.521E-08 0.505E-08 -.419E+00   -.107E-13 -.711E-14 0.295E+00   0.370E-20 0.169E-20 0.123E+00   0.873E-14 0.313E-14 0.852E-05
   0.521E-08 0.505E-08 -.419E+00   -.164E-13 -.133E-14 0.295E+00   0.416E-20 0.456E-22 0.123E+00   0.535E-13 0.138E-13 0.852E-05
   0.521E-08 0.505E-08 -.419E+00   -.124E-13 -.178E-14 0.295E+00   0.209E-21 0.102E-19 0.123E+00   -.588E-13 -.944E-14 0.852E-05
   -.369E-08 -.360E-08 0.419E+00   0.184E-13 -.178E-14 -.295E+00   0.190E-21 0.660E-21 -.123E+00   0.338E-14 -.541E-14 -.852E-05
   -.369E-08 -.360E-08 0.419E+00   0.182E-13 0.355E-14 -.295E+00   0.813E-20 0.287E-20 -.123E+00   0.337E-14 -.446E-13 -.852E-05
   -.369E-08 -.360E-08 0.419E+00   -.111E-13 -.311E-14 -.295E+00   -.139E-20 -.289E-20 -.123E+00   0.172E-13 -.146E-14 -.852E-05
   -.369E-08 -.360E-08 0.419E+00   -.888E-15 -.133E-14 -.295E+00   -.561E-20 -.681E-21 -.123E+00   -.271E-13 0.429E-13 -.852E-05
   -.369E-08 -.360E-08 0.419E+00   0.133E-14 -.711E-14 -.295E+00   -.372E-20 -.214E-20 -.123E+00   -.630E-15 0.449E-13 -.852E-05
   -.369E-08 -.360E-08 0.419E+00   0.755E-14 -.711E-14 -.295E+00   -.406E-20 -.169E-20 -.123E+00   0.588E-15 -.673E-13 -.852E-05
   -.369E-08 -.360E-08 0.419E+00   0.888E-15 -.133E-14 -.295E+00   -.401E-21 0.285E-20 -.123E+00   -.160E-13 -.434E-13 -.852E-05
   -.369E-08 -.360E-08 0.419E+00   0.000E+00 0.000E+00 -.295E+00   0.712E-20 0.507E-20 -.123E+00   0.314E-13 0.623E-13 -.852E-05
   0.521E-08 0.505E-08 -.419E+00   -.533E-14 0.165E-13 0.295E+00   0.337E-21 0.200E-20 0.123E+00   -.234E-14 -.662E-14 0.852E-05
   0.521E-08 0.505E-08 -.419E+00   -.231E-13 0.180E-13 0.295E+00   0.403E-20 0.167E-20 0.123E+00   -.179E-13 -.397E-13 0.852E-05
   0.521E-08 0.505E-08 -.419E+00   -.124E-13 0.203E-13 0.295E+00   0.370E-20 -.609E-20 0.123E+00   0.318E-14 0.137E-13 0.852E-05
   0.521E-08 0.505E-08 -.419E+00   -.178E-14 0.220E-13 0.295E+00   -.312E-21 -.177E-20 0.123E+00   0.184E-13 0.421E-13 0.852E-05
   0.521E-08 0.505E-08 -.419E+00   -.533E-14 0.196E-13 0.295E+00   0.323E-20 -.402E-20 0.123E+00   0.686E-15 -.409E-13 0.852E-05
   0.521E-08 0.505E-08 -.419E+00   -.124E-13 0.231E-13 0.295E+00   -.474E-20 -.274E-20 0.123E+00   0.135E-13 0.146E-14 0.852E-05
   0.521E-08 0.505E-08 -.419E+00   -.355E-14 0.216E-13 0.295E+00   0.135E-20 -.408E-21 0.123E+00   -.491E-14 0.437E-13 0.852E-05
   0.521E-08 0.505E-08 -.419E+00   -.213E-13 0.234E-13 0.295E+00   -.109E-20 0.539E-21 0.123E+00   -.195E-13 0.625E-14 0.852E-05
   -.369E-08 -.360E-08 0.419E+00   0.133E-13 -.799E-14 -.295E+00   0.422E-22 0.509E-20 -.123E+00   -.381E-13 -.751E-14 -.852E-05
   -.369E-08 -.360E-08 0.419E+00   -.488E-14 -.240E-13 -.295E+00   0.645E-21 -.267E-20 -.123E+00   0.168E-13 -.202E-13 -.852E-05
   -.369E-08 -.360E-08 0.419E+00   0.666E-14 -.955E-14 -.295E+00   0.307E-20 -.251E-20 -.123E+00   0.644E-14 0.926E-14 -.852E-05
   -.369E-08 -.360E-08 0.419E+00   -.444E-14 -.182E-13 -.295E+00   -.778E-21 -.331E-20 -.123E+00   -.118E-14 0.234E-13 -.852E-05
   -.369E-08 -.360E-08 0.419E+00   0.311E-14 -.147E-13 -.295E+00   0.178E-20 -.295E-20 -.123E+00   0.362E-13 0.721E-14 -.852E-05
   -.369E-08 -.360E-08 0.419E+00   0.400E-14 -.178E-13 -.295E+00   -.198E-20 -.672E-20 -.123E+00   -.268E-13 -.510E-13 -.852E-05
   -.369E-08 -.360E-08 0.419E+00   0.169E-13 -.129E-13 -.295E+00   0.187E-21 0.394E-20 -.123E+00   -.130E-13 -.454E-14 -.852E-05
   -.369E-08 -.360E-08 0.419E+00   0.178E-13 -.213E-13 -.295E+00   0.700E-21 0.179E-20 -.123E+00   -.195E-14 0.534E-13 -.852E-05
   0.521E-08 0.505E-08 -.419E+00   -.206E-13 -.622E-14 0.295E+00   -.125E-21 0.521E-20 0.123E+00   -.105E-13 0.108E-13 0.852E-05
   0.521E-08 0.505E-08 -.419E+00   -.243E-14 -.266E-14 0.295E+00   0.104E-19 0.168E-20 0.123E+00   0.439E-14 -.336E-13 0.852E-05
   0.521E-08 0.505E-08 -.419E+00   -.819E-14 -.888E-15 0.295E+00   0.323E-20 -.431E-20 0.123E+00   -.399E-13 -.202E-13 0.852E-05
   0.521E-08 0.505E-08 -.419E+00   -.420E-14 -.888E-15 0.295E+00   -.403E-20 -.344E-22 0.123E+00   0.392E-13 0.298E-13 0.852E-05
   0.521E-08 0.505E-08 -.419E+00   -.102E-13 -.355E-14 0.295E+00   -.173E-20 -.344E-20 0.123E+00   0.431E-14 0.176E-13 0.852E-05
   0.521E-08 0.505E-08 -.419E+00   -.244E-14 -.355E-14 0.295E+00   -.570E-20 -.298E-20 0.123E+00   -.344E-14 -.318E-14 0.852E-05
   0.521E-08 0.505E-08 -.419E+00   -.107E-13 0.533E-14 0.295E+00   0.253E-21 0.752E-20 0.123E+00   0.394E-13 -.246E-13 0.852E-05
   0.521E-08 0.505E-08 -.419E+00   -.266E-14 0.533E-14 0.295E+00   0.755E-20 0.707E-20 0.123E+00   -.457E-13 -.844E-14 0.852E-05
   -.369E-08 -.360E-08 0.419E+00   0.202E-13 0.178E-14 -.295E+00   0.312E-20 0.124E-19 -.123E+00   -.290E-14 -.207E-13 -.852E-05
   -.369E-08 -.360E-08 0.419E+00   0.488E-14 0.178E-14 -.295E+00   -.588E-21 0.990E-21 -.123E+00   -.293E-13 -.183E-13 -.852E-05
   -.369E-08 -.360E-08 0.419E+00   0.204E-13 -.666E-15 -.295E+00   -.378E-20 0.542E-20 -.123E+00   0.151E-13 0.168E-13 -.852E-05
   -.369E-08 -.360E-08 0.419E+00   0.187E-13 0.755E-14 -.295E+00   0.288E-20 -.495E-20 -.123E+00   -.331E-14 0.120E-13 -.852E-05
   -.369E-08 -.360E-08 0.419E+00   0.200E-14 0.533E-14 -.295E+00   -.654E-20 0.500E-20 -.123E+00   -.484E-14 0.293E-13 -.852E-05
   -.369E-08 -.360E-08 0.419E+00   0.888E-14 0.178E-14 -.295E+00   0.471E-20 -.474E-20 -.123E+00   0.242E-13 -.663E-13 -.852E-05
   -.369E-08 -.360E-08 0.419E+00   0.173E-13 0.266E-14 -.295E+00   0.536E-20 0.107E-19 -.123E+00   -.195E-13 -.335E-13 -.852E-05
   -.369E-08 -.360E-08 0.419E+00   0.178E-13 0.711E-14 -.295E+00   -.306E-20 0.294E-21 -.123E+00   -.253E-14 0.622E-13 -.852E-05
   0.521E-08 0.505E-08 -.419E+00   -.206E-13 0.260E-13 0.295E+00   -.311E-20 0.117E-20 0.123E+00   -.502E-14 0.635E-14 0.852E-05
   0.521E-08 0.505E-08 -.419E+00   -.521E-14 0.261E-13 0.295E+00   0.398E-20 -.437E-20 0.123E+00   -.162E-13 -.490E-13 0.852E-05
   0.521E-08 0.505E-08 -.419E+00   0.512E-15 0.332E-13 0.295E+00   0.124E-20 -.881E-20 0.123E+00   0.338E-13 -.392E-14 0.852E-05
   0.521E-08 0.505E-08 -.419E+00   -.834E-14 0.215E-13 0.295E+00   -.541E-20 0.156E-20 0.123E+00   -.297E-13 0.496E-13 0.852E-05
   0.521E-08 0.505E-08 -.419E+00   -.879E-14 0.295E-13 0.295E+00   0.317E-20 -.500E-20 0.123E+00   -.380E-14 0.670E-13 0.852E-05
   0.521E-08 0.505E-08 -.419E+00   -.857E-14 0.189E-13 0.295E+00   -.471E-20 0.135E-20 0.123E+00   0.169E-13 -.118E-12 0.852E-05
   0.521E-08 0.505E-08 -.419E+00   -.170E-13 0.263E-13 0.295E+00   0.565E-21 -.516E-21 0.123E+00   -.428E-13 -.589E-13 0.852E-05
   0.521E-08 0.505E-08 -.419E+00   -.245E-13 0.148E-13 0.295E+00   0.220E-20 -.292E-21 0.123E+00   0.313E-13 0.121E-12 0.852E-05
 -----------------------------------------------------------------------------------------------
   0.489E-07 0.462E-07 0.197E-04   -.313E-13 0.102E-13 0.147E-13   0.271E-19 -.342E-20 -.180E-14   -.601E-13 -.292E-13 0.109E-09
 
 
 POSITION                                       TOTAL-FORCE (eV/Angst)
 -----------------------------------------------------------------------------------
      0.00000      0.00000     10.55461         0.000000     -0.000000      0.000116
     -0.00000      0.00000      5.27615         0.000000     -0.000000      0.000116
     -0.01320      5.27846     10.55461         0.000000      0.000000      0.000116
     -0.01320      5.27846      5.27615        -0.000000      0.000000      0.000116
      5.25207     -0.01320     10.55461         0.000000     -0.000000      0.000116
      5.25207     -0.01320      5.27615         0.000000     -0.000000      0.000116
      5.23887      5.26526     10.55461         0.000000      0.000000      0.000116
      5.23887      5.26526      5.27615        -0.000000      0.000000      0.000116
      3.92915      3.94895      1.32193        -0.000000     -0.000000     -0.000116
      3.92915      3.94895      6.60039         0.000000      0.000000     -0.000116
      3.91596      9.22741      1.32193         0.000000     -0.000000     -0.000116
      3.91596      9.22741      6.60039        -0.000000     -0.000000     -0.000116
      9.18122      3.93575      1.32193        -0.000000     -0.000000     -0.000116
      9.18122      3.93575      6.60039         0.000000      0.000000     -0.000116
      9.16802      9.21421      1.32193        -0.000000     -0.000000     -0.000116
      9.16802      9.21421      6.60039         0.000000      0.000000     -0.000116
     -0.00660      2.63923      2.63692         0.000000      0.000000      0.000116
     -0.00660      2.63923      7.91538        -0.000000      0.000000      0.000116
     -0.01979      7.91769      2.63692         0.000000      0.000000      0.000116
     -0.01979      7.91769      7.91538         0.000000     -0.000000      0.000116
      5.24547      2.62603      2.63692         0.000000      0.000000      0.000116
      5.24547      2.62603      7.91538         0.000000      0.000000      0.000116
      5.23227      7.90449      2.63692         0.000000      0.000000      0.000116
      5.23227      7.90449      7.91538         0.000000      0.000000      0.000116
      3.93575      1.30972      3.96116         0.000000     -0.000000     -0.000116
      3.93575      1.30972      9.23961         0.000000     -0.000000     -0.000116
      3.92255      6.58818      3.96116        -0.000000      0.000000     -0.000116
      3.92255      6.58818      9.23961        -0.000000      0.000000     -0.000116
      9.18782      1.29652      3.96116         0.000000     -0.000000     -0.000116
      9.18782      1.29652      9.23961         0.000000     -0.000000     -0.000116
      9.17462      6.57498      3.96116        -0.000000      0.000000     -0.000116
      9.17462      6.57498      9.23961        -0.000000      0.000000     -0.000116
      2.62603     -0.00660      2.63692        -0.000000     -0.000000      0.000116
      2.62603     -0.00660      7.91538         0.000000     -0.000000      0.000116
      2.61284      5.27186      2.63692        -0.000000      0.000000      0.000116
      2.61284      5.27186      7.91538        -0.000000      0.000000      0.000116
      7.87810     -0.01979      2.63692        -0.000000     -0.000000      0.000116
      7.87810     -0.01979      7.91538         0.000000     -0.000000      0.000116
      7.86490      5.25866      2.63692        -0.000000      0.000000      0.000116
      7.86490      5.25866      7.91538        -0.000000      0.000000      0.000116
      1.30312      3.95555      3.96116        -0.000000      0.000000     -0.000116
      1.30312      3.95555      9.23961         0.000000     -0.000000     -0.000116
      1.28992      9.23400      3.96116         0.000000      0.000000     -0.000116
      1.28992      9.23400      9.23961         0.000000      0.000000     -0.000116
      6.55519      3.94235      3.96116         0.000000      0.000000     -0.000116
      6.55519      3.94235      9.23961         0.000000     -0.000000     -0.000116
      6.54199      9.22081      3.96116        -0.000000      0.000000     -0.000116
      6.54199      9.22081      9.23961        -0.000000      0.000000     -0.000116
      2.61944      2.63263     10.55461         0.000000      0.000000      0.000116
      2.61944      2.63263      5.27615        -0.000000     -0.000000      0.000116
      2.60624      7.91109     10.55461         0.000000      0.000000      0.000116
      2.60624      7.91109      5.27615         0.000000     -0.000000      0.000116
      7.87150      2.61944     10.55461        -0.000000     -0.000000      0.000116
      7.87150      2.61944      5.27615         0.000000      0.000000      0.000116
      7.85831      7.89789     10.55461        -0.000000      0.000000      0.000116
      7.85831      7.89789      5.27615         0.000000      0.000000      0.000116
      1.30972      1.31632      1.32193         0.000000     -0.000000     -0.000116
      1.30972      1.31632      6.60039         0.000000     -0.000000     -0.000116
      1.29652      6.59477      1.32193        -0.000000      0.000000     -0.000116
      1.29652      6.59477      6.60039        -0.000000      0.000000     -0.000116
      6.56178      1.30312      1.32193         0.000000     -0.000000     -0.000116
      6.56178      1.30312      6.60039         0.000000     -0.000000     -0.000116
      6.54859      6.58158      1.32193        -0.000000      0.000000     -0.000116
      6.54859      6.58158      6.60039        -0.000000      0.000000     -0.000116
 -----------------------------------------------------------------------------------
    total drift:                                0.000000      0.000000      0.000020


--------------------------------------------------------------------------------------------------------



  FREE ENERGIE OF THE ION-ELECTRON SYSTEM (eV)
  ---------------------------------------------------
  free  energy   TOTEN  =      -364.09633511 eV

  energy  without entropy=     -364.12481489  energy(sigma->0) =     -364.10582837
 
 d Force = 0.1423970E-02[ 0.877E-05, 0.284E-02]  d Energy = 0.1411507E-02 0.125E-04
 d Force =-0.2001238E-01[-0.224E-01,-0.176E-01]  d Ewald  =-0.2001237E-01-0.165E-07


--------------------------------------------------------------------------------------------------------


    POTLOK:  cpu time      0.1467: real time      0.1473


--------------------------------------------------------------------------------------------------------




--------------------------------------------------------------------------------------------------------


  
 reached required accuracy - stopping structural energy minimisation
     LOOP+:  cpu time     12.6911: real time     12.8402
    4ORBIT:  cpu time      0.0000: real time      0.0000

 total amount of memory used by VASP MPI-rank0    78731. kBytes
=======================================================================

   base      :      30000. kBytes
   nonlr-proj:       4847. kBytes
   fftplans  :      17991. kBytes
   grid      :       6881. kBytes
   one-center:         18. kBytes
   wavefun   :      18994. kBytes
 
  
  
 General timing and accounting informations for this job:
 ========================================================
  
                  Total CPU time used (sec):       60.158
                            User time (sec):       56.870
                          System time (sec):        3.288
                         Elapsed time (sec):       63.840
  
                   Maximum memory used (kb):      406180.
                   Average memory used (kb):          N/A
  
                          Minor page faults:        93076
                          Major page faults:            0
                 Voluntary context switches:         9098
