<?xml version="1.0" encoding="ISO-8859-1"?>
<modeling>
 <generator>
  <i name="program" type="string">vasp </i>
  <i name="version" type="string">6.4.3  </i>
  <i name="subversion" type="string">19Mar24 (build Oct 21 2024 22:36:34) complex                          parallel </i>
  <i name="platform" type="string">LinuxIFC </i>
  <i name="date" type="string">2024 11 01 </i>
  <i name="time" type="string">22:58:23 </i>
 </generator>
 <incar>
  <i type="string" name="SYSTEM">Si64</i>
  <i type="int" name="ISTART">     0</i>
  <i type="string" name="PREC">Accurate</i>
  <i type="string" name="ALGO">Fast</i>
  <i type="logical" name="ADDGRID"> T  </i>
  <i type="int" name="ICHARG">     2</i>
  <i type="int" name="NELM">    60</i>
  <i type="int" name="NELMIN">     8</i>
  <i type="int" name="IBRION">     2</i>
  <i name="EDIFF">      0.00000100</i>
  <i name="EDIFFG">     -0.01000000</i>
  <i type="int" name="NSW">    60</i>
  <i type="int" name="ISIF">     2</i>
  <i name="ENCUT">    400.00000000</i>
  <i type="string" name="LREAL">Auto</i>
  <i type="int" name="ISMEAR">     1</i>
  <i name="SIGMA">      0.20000000</i>
  <i type="logical" name="LWAVE"> F  </i>
  <i type="logical" name="LCHARG"> F  </i>
  <i type="logical" name="GGA_COMPAT"> F  </i>
  <i type="string" name="GGA">PS</i>
 </incar>
 <primitive_cell>
  <structure name="primitive_cell" >
   <crystal>
    <varray name="basis" >
     <v>      -2.62603314       0.00659800      -2.63922939 </v>
     <v>      -2.62603314       0.00659800       2.63922939 </v>
     <v>       2.61943514       2.63263139       0.00000000 </v>
    </varray>
    <i name="volume">     36.58320472 </i>
    <varray name="rec_basis" >
     <v>      -0.18992645       0.18897443      -0.18944924 </v>
     <v>      -0.18992645       0.18897443       0.18944924 </v>
     <v>       0.00095200       0.37890086      -0.00000000 </v>
    </varray>
   </crystal>
   <varray name="positions" >
    <v>       0.00000000       0.00000000       0.00000000 </v>
    <v>       0.75000000       0.25000000       0.50000000 </v>
   </varray>
  </structure>
  <varray name="primitive_index" >
   <v type="int" >        1 </v>
   <v type="int" >       15 </v>
  </varray>
 </primitive_cell>
 <kpoints>
  <generation param="Gamma">
   <v type="int" name="divisions">       2        2        2 </v>
   <v name="usershift">      0.00000000       0.00000000       0.00000000 </v>
   <v name="genvec1">      0.50000000      -0.00000000       0.00000000 </v>
   <v name="genvec2">      0.00000000       0.50000000       0.00000000 </v>
   <v name="genvec3">      0.00000000       0.00000000       0.50000000 </v>
   <v name="shift">      0.00000000       0.00000000       0.00000000 </v>
  </generation>
  <varray name="kpointlist" >
   <v>       0.00000000       0.00000000       0.00000000 </v>
   <v>       0.50000000      -0.00000000       0.00000000 </v>
   <v>      -0.00000000       0.50000000       0.00000000 </v>
   <v>       0.50000000       0.50000000       0.00000000 </v>
   <v>       0.00000000       0.00000000       0.50000000 </v>
   <v>       0.50000000      -0.00000000       0.50000000 </v>
   <v>      -0.00000000       0.50000000       0.50000000 </v>
   <v>       0.50000000       0.50000000       0.50000000 </v>
  </varray>
  <varray name="weights" >
   <v>       0.12500000 </v>
   <v>       0.12500000 </v>
   <v>       0.12500000 </v>
   <v>       0.12500000 </v>
   <v>       0.12500000 </v>
   <v>       0.12500000 </v>
   <v>       0.12500000 </v>
   <v>       0.12500000 </v>
  </varray>
 </kpoints>
 <parameters>
  <separator name="general" >
   <i type="string" name="SYSTEM">Si64</i>
   <i type="logical" name="LCOMPAT"> F  </i>
  </separator>
  <separator name="electronic" >
   <i type="string" name="PREC">accura</i>
   <i name="ENMAX">    400.00000000</i>
   <i name="ENAUG">    322.06900000</i>
   <i name="EDIFF">      0.00000100</i>
   <i type="int" name="IALGO">    68</i>
   <i type="int" name="IWAVPR">    11</i>
   <i type="int" name="NBANDS">   162</i>
   <i type="int" name="NBANDSLOW">    -1</i>
   <i type="int" name="NBANDSHIGH">    -1</i>
   <i name="NELECT">    256.00000000</i>
   <i type="int" name="TURBO">     0</i>
   <i type="int" name="IRESTART">     0</i>
   <i type="int" name="NREBOOT">     0</i>
   <i type="int" name="NMIN">     0</i>
   <i name="EREF">      0.00000000</i>
   <separator name="electronic smearing" >
    <i type="int" name="ISMEAR">     1</i>
    <i name="SIGMA">      0.20000000</i>
    <i name="KSPACING">      0.50000000</i>
    <i type="logical" name="KGAMMA"> T  </i>
    <i type="logical" name="KBLOWUP"> T  </i>
   </separator>
   <separator name="electronic projectors" >
    <i type="logical" name="LREAL"> T  </i>
    <v name="ROPT">     -0.00025000</v>
    <i type="int" name="LMAXPAW">  -100</i>
    <i type="int" name="LMAXMIX">     2</i>
    <i type="logical" name="NLSPLINE"> F  </i>
   </separator>
   <separator name="electronic startup" >
    <i type="int" name="ISTART">     0</i>
    <i type="int" name="ICHARG">     2</i>
    <i type="int" name="INIWAV">     1</i>
   </separator>
   <separator name="electronic spin" >
    <i type="int" name="ISPIN">     1</i>
    <i type="logical" name="LNONCOLLINEAR"> F  </i>
    <v name="MAGMOM">      1.00000000      1.00000000      1.00000000      1.00000000      1.00000000      1.00000000      1.00000000      1.00000000      1.00000000      1.00000000      1.00000000      1.00000000      1.00000000      1.00000000      1.00000000      1.00000000      1.00000000      1.00000000      1.00000000      1.00000000
      1.00000000      1.00000000      1.00000000      1.00000000      1.00000000      1.00000000      1.00000000      1.00000000      1.00000000      1.00000000      1.00000000      1.00000000      1.00000000      1.00000000      1.00000000      1.00000000      1.00000000      1.00000000      1.00000000      1.00000000
      1.00000000      1.00000000      1.00000000      1.00000000      1.00000000      1.00000000      1.00000000      1.00000000      1.00000000      1.00000000      1.00000000      1.00000000      1.00000000      1.00000000      1.00000000      1.00000000      1.00000000      1.00000000      1.00000000      1.00000000
      1.00000000      1.00000000      1.00000000      1.00000000</v>
    <i name="NUPDOWN">     -1.00000000</i>
    <i type="logical" name="LSORBIT"> F  </i>
    <v name="SAXIS">      0.00000000      0.00000000      1.00000000</v>
    <i type="logical" name="LSPIRAL"> F  </i>
    <v name="QSPIRAL">      0.00000000      0.00000000      0.00000000</v>
    <i type="logical" name="LZEROZ"> F  </i>
   </separator>
   <separator name="electronic exchange-correlation" >
    <i type="logical" name="LASPH"> F  </i>
   </separator>
   <separator name="electronic convergence" >
    <i type="int" name="NELM">    60</i>
    <i type="int" name="NELMDL">    -5</i>
    <i type="int" name="NELMIN">     8</i>
    <i name="ENINI">    400.00000000</i>
    <separator name="electronic convergence detail" >
     <i type="logical" name="LDIAG"> T  </i>
     <i type="logical" name="LSUBROT"> F  </i>
     <i name="WEIMIN">      0.00100000</i>
     <i name="EBREAK">      0.00000000</i>
     <i name="DEPER">      0.30000000</i>
     <i type="int" name="NRMM">     4</i>
     <i name="TIME">      0.40000000</i>
    </separator>
   </separator>
   <separator name="electronic mixer" >
    <i name="AMIX">      0.40000000</i>
    <i name="BMIX">      1.00000000</i>
    <i name="AMIN">      0.10000000</i>
    <i name="AMIX_MAG">      1.60000000</i>
    <i name="BMIX_MAG">      1.00000000</i>
    <separator name="electronic mixer details" >
     <i type="int" name="IMIX">     4</i>
     <i type="logical" name="MIXFIRST"> F  </i>
     <i type="int" name="MAXMIX">   -45</i>
     <i name="WC">    100.00000000</i>
     <i type="int" name="INIMIX">     1</i>
     <i type="int" name="MIXPRE">     1</i>
     <i type="int" name="MREMOVE">     5</i>
    </separator>
   </separator>
   <separator name="electronic dipolcorrection" >
    <i type="logical" name="LDIPOL"> F  </i>
    <i type="logical" name="LMONO"> F  </i>
    <i type="int" name="IDIPOL">     0</i>
    <i name="EPSILON">      1.00000000</i>
    <v name="DIPOL">   -100.00000000   -100.00000000   -100.00000000</v>
    <i name="EFIELD">      0.00000000</i>
    <i type="logical" name="LVACPOTAV"> F  </i>
   </separator>
  </separator>
  <separator name="grids" >
   <i type="int" name="NGX">    70</i>
   <i type="int" name="NGY">    70</i>
   <i type="int" name="NGZ">    70</i>
   <i type="int" name="NGXF">   140</i>
   <i type="int" name="NGYF">   140</i>
   <i type="int" name="NGZF">   140</i>
   <i type="logical" name="ADDGRID"> T  </i>
  </separator>
  <separator name="ionic" >
   <i type="int" name="NSW">    60</i>
   <i type="int" name="IBRION">     2</i>
   <i type="int" name="MDALGO">     0</i>
   <i type="int" name="ISIF">     2</i>
   <i name="PSTRESS">      0.00000000</i>
   <i name="EDIFFG">     -0.01000000</i>
   <i type="int" name="NFREE">     1</i>
   <i name="POTIM">      0.50000000</i>
   <i name="SMASS">     -3.00000000</i>
   <i name="SCALEE">      1.00000000</i>
  </separator>
  <separator name="ionic md" >
   <i name="TEBEG">      0.00010000</i>
   <i name="TEEND">      0.00010000</i>
   <i type="int" name="NBLOCK">     1</i>
   <i type="int" name="KBLOCK">    60</i>
   <i type="int" name="NPACO">   256</i>
   <i name="APACO">     10.00000000</i>
  </separator>
  <separator name="symmetry" >
   <i type="int" name="ISYM">     2</i>
   <i name="SYMPREC">      0.00001000</i>
  </separator>
  <separator name="dos" >
   <i type="int" name="LORBIT">     0</i>
   <v name="RWIGS">     -1.00000000</v>
   <i type="int" name="NEDOS">   301</i>
   <i name="EMIN">     10.00000000</i>
   <i name="EMAX">    -10.00000000</i>
   <i name="EFERMI">      0.00000000</i>
  </separator>
  <separator name="writing" >
   <i type="int" name="NWRITE">     2</i>
   <i type="logical" name="LWAVE"> F  </i>
   <i type="logical" name="LDOWNSAMPLE"> F  </i>
   <i type="logical" name="LCHARG"> F  </i>
   <i type="logical" name="LPARD"> F  </i>
   <i type="logical" name="LVTOT"> F  </i>
   <i type="logical" name="LVHAR"> F  </i>
   <i type="logical" name="LELF"> F  </i>
   <i type="logical" name="LOPTICS"> F  </i>
   <v name="STM">      0.00000000      0.00000000      0.00000000      0.00000000      0.00000000      0.00000000      0.00000000</v>
  </separator>
  <separator name="performance" >
   <i type="int" name="NPAR">     2</i>
   <i type="int" name="NSIM">     4</i>
   <i type="int" name="NBLK">    -1</i>
   <i type="logical" name="LPLANE"> T  </i>
   <i type="logical" name="LSCALAPACK"> T  </i>
   <i type="logical" name="LSCAAWARE"> F  </i>
   <i type="logical" name="LSCALU"> F  </i>
   <i type="logical" name="LASYNC"> F  </i>
   <i type="logical" name="LORBITALREAL"> F  </i>
  </separator>
  <separator name="miscellaneous" >
   <i type="int" name="IDIOT">     3</i>
   <i type="int" name="PHON_NSTRUCT">    -1</i>
   <i type="logical" name="LMUSIC"> F  </i>
   <v name="POMASS">     28.08500000</v>
   <v name="DARWINR">      0.00000000</v>
   <v name="DARWINV">      1.00000000</v>
   <i type="logical" name="LCORR"> T  </i>
  </separator>
  <i type="logical" name="GGA_COMPAT"> F  </i>
  <i type="logical" name="LBERRY"> F  </i>
  <i type="int" name="ICORELEVEL">     0</i>
  <i type="logical" name="LDAU"> F  </i>
  <i type="int" name="I_CONSTRAINED_M">     0</i>
  <separator name="electronic exchange-correlation" >
   <i type="string" name="GGA    ">PS</i>
   <i type="string" name="XC_C">1</i>
   <i type="int" name="VOSKOWN">     0</i>
   <i type="logical" name="LHFCALC"> F  </i>
   <i type="string" name="PRECFOCK"></i>
   <i type="logical" name="LSYMGRAD"> F  </i>
   <i type="logical" name="LHFONE"> F  </i>
   <i type="logical" name="LRHFCALC"> F  </i>
   <i type="logical" name="LTHOMAS"> F  </i>
   <i type="logical" name="LMODELHF"> F  </i>
   <i type="logical" name="LFOCKACE"> F  </i>
   <i name="ENCUT4O">     -1.00000000</i>
   <i type="int" name="EXXOEP">     0</i>
   <i type="int" name="FOURORBIT">     0</i>
   <i name="AEXX">      0.00000000</i>
   <i name="HFALPHA">      0.00000000</i>
   <i name="MCALPHA">      0.00000000</i>
   <i name="ALDAX">      1.00000000</i>
   <i name="AGGAX">      1.00000000</i>
   <i name="AMGGAX">      1.00000000</i>
   <i name="ALDAC">      1.00000000</i>
   <i name="AGGAC">      1.00000000</i>
   <i name="AMGGAC">      1.00000000</i>
   <i type="int" name="NKREDX">     1</i>
   <i type="int" name="NKREDY">     1</i>
   <i type="int" name="NKREDZ">     1</i>
   <i type="logical" name="SHIFTRED"> F  </i>
   <i type="logical" name="ODDONLY"> F  </i>
   <i type="logical" name="EVENONLY"> F  </i>
   <i type="int" name="LMAXFOCK">     0</i>
   <i type="int" name="NMAXFOCKAE">     0</i>
   <i type="logical" name="LFOCKAEDFT"> F  </i>
   <i name="HFSCREEN">      0.00000000</i>
   <i name="HFSCREENC">      0.00000000</i>
   <i type="int" name="NBANDSGWLOW">     0</i>
  </separator>
  <separator name="vdW DFT" >
   <i type="logical" name="LUSE_VDW"> F  </i>
   <i type="int" name="IVDW_NL">    -1</i>
   <i type="logical" name="LSPIN_VDW"> F  </i>
   <i name="ZAB_VDW">     -0.84910000</i>
   <i name="GAMMA_VDW">      1.39626340</i>
   <i name="ALPHA_VDW">      0.00000000</i>
   <i name="PARAM1">      0.12340000</i>
   <i name="PARAM2">      1.00000000</i>
   <i name="BPARAM">      6.30000000</i>
   <i name="CPARAM">      0.00930000</i>
  </separator>
  <separator name="model GW" >
   <i type="int" name="MODEL_GW">     0</i>
   <i name="MODEL_EPS0">     10.97496142</i>
   <i name="MODEL_ALPHA">      1.00000000</i>
  </separator>
  <separator name="linear response parameters" >
   <i type="logical" name="LEPSILON"> F  </i>
   <i type="logical" name="LRPA"> F  </i>
   <i type="logical" name="LNABLA"> F  </i>
   <i type="logical" name="LVEL"> F  </i>
   <i name="CSHIFT">      0.10000000</i>
   <i name="OMEGAMAX">     -1.00000000</i>
   <i name="DEG_THRESHOLD">      0.00200000</i>
   <i name="RTIME">     -0.10000000</i>
   <i name="WPLASMAI">      0.00000000</i>
   <v name="DFIELD">      0.00000000      0.00000000      0.00000000</v>
   <v name="WPLASMA">      0.00000000      0.00000000      0.00000000      0.00000000      0.00000000      0.00000000      0.00000000      0.00000000      0.00000000</v>
  </separator>
  <separator name="orbital magnetization" >
   <i type="logical" name="NUCIND"> F  </i>
   <v name="MAGPOS">      0.00000000      0.00000000      0.00000000</v>
   <i type="logical" name="LNICSALL"> T  </i>
   <i type="logical" name="ORBITALMAG"> F  </i>
   <i type="logical" name="LMAGBLOCH"> F  </i>
   <i type="logical" name="LCHIMAG"> F  </i>
   <i type="logical" name="LGAUGE"> T  </i>
   <i type="int" name="MAGATOM">     0</i>
   <v name="MAGDIPOL">      0.00000000      0.00000000      0.00000000</v>
   <v name="AVECCONST">      0.00000000      0.00000000      0.00000000</v>
  </separator>
  <separator name="response functions" >
   <i type="logical" name="LALL_IN_ONE"> F  </i>
   <i type="int" name="IALL_IN_ONE">    -1</i>
   <i type="int" name="NBANDS_WAVE">    -1</i>
   <i type="logical" name="LFINITE_TEMPERATURE"> F  </i>
   <i type="logical" name="LADDER"> F  </i>
   <i type="logical" name="LRPAFORCE"> F  </i>
   <i type="logical" name="LFXC"> F  </i>
   <i type="logical" name="LHARTREE"> T  </i>
   <i type="int" name="IBSE">     0</i>
   <v type="int" name="KPOINT">    -1     0     0     0</v>
   <i type="logical" name="LTCTC"> F  </i>
   <i type="logical" name="LTCTE"> F  </i>
   <i type="logical" name="LTETE"> F  </i>
   <i type="logical" name="LTRIPLET"> F  </i>
   <i type="logical" name="LFXCEPS"> F  </i>
   <i type="logical" name="LFXHEG"> F  </i>
   <i type="int" name="NATURALO">     2</i>
   <i type="logical" name="LHOLEGF"> F  </i>
   <i type="logical" name="L2ORDER"> F  </i>
   <i type="logical" name="LDMP1"> F  </i>
   <i type="logical" name="LMP2LT"> F  </i>
   <i type="logical" name="LSMP2LT"> F  </i>
   <i type="logical" name="LGWLF"> F  </i>
   <i name="ENCUTGW">     -1.60000002</i>
   <i name="ENCUTGWSOFT">     -1.60000002</i>
   <i name="ENCUTLF">     -1.00000000</i>
   <i type="logical" name="ESF_SPLINES"> F  </i>
   <i name="ESF_CONV">      0.01000000</i>
   <i type="int" name="ESF_NINTER">    15</i>
   <i type="int" name="LMAXMP2">    -1</i>
   <i name="SCISSOR">      0.00000000</i>
   <i type="int" name="NOMEGA">     0</i>
   <i type="int" name="NOMEGAR">     0</i>
   <i type="int" name="NBANDSGW">    -1</i>
   <i type="int" name="NBANDSO">    -1</i>
   <i type="int" name="NBANDSV">    -1</i>
   <i type="int" name="NELMGW">     1</i>
   <i type="int" name="NELMHF">     1</i>
   <i type="int" name="DIM">     3</i>
   <i type="int" name="IESPILON">     4</i>
   <i type="int" name="ANTIRES">     0</i>
   <i name="OMEGAMAX">    -30.00000000</i>
   <i name="OMEGAMIN">    -30.00000000</i>
   <i name="OMEGATL">   -200.00000000</i>
   <i type="int" name="OMEGAGRID">     0</i>
   <i name="CSHIFT">     -0.10000000</i>
   <i type="logical" name="LSELFENERGY"> F  </i>
   <i type="logical" name="LSPECTRAL"> F  </i>
   <i type="logical" name="LSPECTRALGW"> F  </i>
   <i type="logical" name="LSINGLES"> F  </i>
   <i type="logical" name="LFERMIGW"> F  </i>
   <i type="logical" name="ODDONLYGW"> F  </i>
   <i type="logical" name="EVENONLYGW"> F  </i>
   <i type="int" name="NKREDLFX">     1</i>
   <i type="int" name="NKREDLFY">     1</i>
   <i type="int" name="NKREDLFZ">     1</i>
   <i type="int" name="MAXMEM">  2800</i>
   <i type="int" name="TELESCOPE">     0</i>
   <i type="int" name="NTAUPAR">    -1</i>
   <i type="int" name="NOMEGAPAR">    -1</i>
   <i name="DAMP_NEWTON">      0.80000001</i>
   <i name="LAMBDA">      1.00000000</i>
  </separator>
  <separator name="External order field" >
   <i name="OFIELD_KAPPA">      0.00000000</i>
   <v name="OFIELD_K">      0.00000000      0.00000000      0.00000000</v>
   <i name="OFIELD_Q6_NEAR">      0.00000000</i>
   <i name="OFIELD_Q6_FAR">      0.00000000</i>
   <i name="OFIELD_A">      0.00000000</i>
  </separator>
  <separator name="optional k-points parameters" >
   <i type="int" name="KPOINTS_OPT_MODE">     1</i>
   <i type="logical" name="LKPOINTS_OPT"> F  </i>
  </separator>
 </parameters>
 <atominfo>
  <atoms>      64 </atoms>
  <types>       1 </types>
  <array name="atoms" >
   <dimension dim="1">ion</dimension>
   <field type="string">element</field>
   <field type="int">atomtype</field>
   <set>
    <rc><c>Si</c><c>   1</c></rc>
    <rc><c>Si</c><c>   1</c></rc>
    <rc><c>Si</c><c>   1</c></rc>
    <rc><c>Si</c><c>   1</c></rc>
    <rc><c>Si</c><c>   1</c></rc>
    <rc><c>Si</c><c>   1</c></rc>
    <rc><c>Si</c><c>   1</c></rc>
    <rc><c>Si</c><c>   1</c></rc>
    <rc><c>Si</c><c>   1</c></rc>
    <rc><c>Si</c><c>   1</c></rc>
    <rc><c>Si</c><c>   1</c></rc>
    <rc><c>Si</c><c>   1</c></rc>
    <rc><c>Si</c><c>   1</c></rc>
    <rc><c>Si</c><c>   1</c></rc>
    <rc><c>Si</c><c>   1</c></rc>
    <rc><c>Si</c><c>   1</c></rc>
    <rc><c>Si</c><c>   1</c></rc>
    <rc><c>Si</c><c>   1</c></rc>
    <rc><c>Si</c><c>   1</c></rc>
    <rc><c>Si</c><c>   1</c></rc>
    <rc><c>Si</c><c>   1</c></rc>
    <rc><c>Si</c><c>   1</c></rc>
    <rc><c>Si</c><c>   1</c></rc>
    <rc><c>Si</c><c>   1</c></rc>
    <rc><c>Si</c><c>   1</c></rc>
    <rc><c>Si</c><c>   1</c></rc>
    <rc><c>Si</c><c>   1</c></rc>
    <rc><c>Si</c><c>   1</c></rc>
    <rc><c>Si</c><c>   1</c></rc>
    <rc><c>Si</c><c>   1</c></rc>
    <rc><c>Si</c><c>   1</c></rc>
    <rc><c>Si</c><c>   1</c></rc>
    <rc><c>Si</c><c>   1</c></rc>
    <rc><c>Si</c><c>   1</c></rc>
    <rc><c>Si</c><c>   1</c></rc>
    <rc><c>Si</c><c>   1</c></rc>
    <rc><c>Si</c><c>   1</c></rc>
    <rc><c>Si</c><c>   1</c></rc>
    <rc><c>Si</c><c>   1</c></rc>
    <rc><c>Si</c><c>   1</c></rc>
    <rc><c>Si</c><c>   1</c></rc>
    <rc><c>Si</c><c>   1</c></rc>
    <rc><c>Si</c><c>   1</c></rc>
    <rc><c>Si</c><c>   1</c></rc>
    <rc><c>Si</c><c>   1</c></rc>
    <rc><c>Si</c><c>   1</c></rc>
    <rc><c>Si</c><c>   1</c></rc>
    <rc><c>Si</c><c>   1</c></rc>
    <rc><c>Si</c><c>   1</c></rc>
    <rc><c>Si</c><c>   1</c></rc>
    <rc><c>Si</c><c>   1</c></rc>
    <rc><c>Si</c><c>   1</c></rc>
    <rc><c>Si</c><c>   1</c></rc>
    <rc><c>Si</c><c>   1</c></rc>
    <rc><c>Si</c><c>   1</c></rc>
    <rc><c>Si</c><c>   1</c></rc>
    <rc><c>Si</c><c>   1</c></rc>
    <rc><c>Si</c><c>   1</c></rc>
    <rc><c>Si</c><c>   1</c></rc>
    <rc><c>Si</c><c>   1</c></rc>
    <rc><c>Si</c><c>   1</c></rc>
    <rc><c>Si</c><c>   1</c></rc>
    <rc><c>Si</c><c>   1</c></rc>
    <rc><c>Si</c><c>   1</c></rc>
   </set>
  </array>
  <array name="atomtypes" >
   <dimension dim="1">type</dimension>
   <field type="int">atomspertype</field>
   <field type="string">element</field>
   <field>mass</field>
   <field>valence</field>
   <field type="string">pseudopotential</field>
   <set>
    <rc><c>  64</c><c>Si</c><c>     28.08500000</c><c>      4.00000000</c><c>  PAW_PBE Si 05Jan2001                  </c></rc>
   </set>
  </array>
 </atominfo>
 <structure name="initialpos" >
  <crystal>
   <varray name="basis" >
    <v>      10.50413255      -0.02639200       0.00000000 </v>
    <v>      -0.02639200      10.55691756       0.00000000 </v>
    <v>       0.00000000       0.00000000      10.55691756 </v>
   </varray>
   <i name="volume">   1170.66255104 </i>
   <varray name="rec_basis" >
    <v>       0.09520122       0.00023800       0.00000000 </v>
    <v>       0.00023800       0.09472521       0.00000000 </v>
    <v>       0.00000000       0.00000000       0.09472462 </v>
   </varray>
  </crystal>
  <varray name="positions" >
   <v>       0.00000000       0.00000000       0.00000000 </v>
   <v>       0.00000000       0.00000000       0.50000000 </v>
   <v>       0.00000000       0.50000000       0.00000000 </v>
   <v>       0.00000000       0.50000000       0.50000000 </v>
   <v>       0.50000000       0.00000000       0.00000000 </v>
   <v>       0.50000000       0.00000000       0.50000000 </v>
   <v>       0.50000000       0.50000000       0.00000000 </v>
   <v>       0.50000000       0.50000000       0.50000000 </v>
   <v>       0.37500000       0.37500000       0.12500000 </v>
   <v>       0.37500000       0.37500000       0.62500000 </v>
   <v>       0.37500000       0.87500000       0.12500000 </v>
   <v>       0.37500000       0.87500000       0.62500000 </v>
   <v>       0.87500000       0.37500000       0.12500000 </v>
   <v>       0.87500000       0.37500000       0.62500000 </v>
   <v>       0.87500000       0.87500000       0.12500000 </v>
   <v>       0.87500000       0.87500000       0.62500000 </v>
   <v>       0.00000000       0.25000000       0.25000000 </v>
   <v>       0.00000000       0.25000000       0.75000000 </v>
   <v>       0.00000000       0.75000000       0.25000000 </v>
   <v>       0.00000000       0.75000000       0.75000000 </v>
   <v>       0.50000000       0.25000000       0.25000000 </v>
   <v>       0.50000000       0.25000000       0.75000000 </v>
   <v>       0.50000000       0.75000000       0.25000000 </v>
   <v>       0.50000000       0.75000000       0.75000000 </v>
   <v>       0.37500000       0.12500000       0.37500000 </v>
   <v>       0.37500000       0.12500000       0.87500000 </v>
   <v>       0.37500000       0.62500000       0.37500000 </v>
   <v>       0.37500000       0.62500000       0.87500000 </v>
   <v>       0.87500000       0.12500000       0.37500000 </v>
   <v>       0.87500000       0.12500000       0.87500000 </v>
   <v>       0.87500000       0.62500000       0.37500000 </v>
   <v>       0.87500000       0.62500000       0.87500000 </v>
   <v>       0.25000000       0.00000000       0.25000000 </v>
   <v>       0.25000000       0.00000000       0.75000000 </v>
   <v>       0.25000000       0.50000000       0.25000000 </v>
   <v>       0.25000000       0.50000000       0.75000000 </v>
   <v>       0.75000000       0.00000000       0.25000000 </v>
   <v>       0.75000000       0.00000000       0.75000000 </v>
   <v>       0.75000000       0.50000000       0.25000000 </v>
   <v>       0.75000000       0.50000000       0.75000000 </v>
   <v>       0.12500000       0.37500000       0.37500000 </v>
   <v>       0.12500000       0.37500000       0.87500000 </v>
   <v>       0.12500000       0.87500000       0.37500000 </v>
   <v>       0.12500000       0.87500000       0.87500000 </v>
   <v>       0.62500000       0.37500000       0.37500000 </v>
   <v>       0.62500000       0.37500000       0.87500000 </v>
   <v>       0.62500000       0.87500000       0.37500000 </v>
   <v>       0.62500000       0.87500000       0.87500000 </v>
   <v>       0.25000000       0.25000000       0.00000000 </v>
   <v>       0.25000000       0.25000000       0.50000000 </v>
   <v>       0.25000000       0.75000000       0.00000000 </v>
   <v>       0.25000000       0.75000000       0.50000000 </v>
   <v>       0.75000000       0.25000000       0.00000000 </v>
   <v>       0.75000000       0.25000000       0.50000000 </v>
   <v>       0.75000000       0.75000000       0.00000000 </v>
   <v>       0.75000000       0.75000000       0.50000000 </v>
   <v>       0.12500000       0.12500000       0.12500000 </v>
   <v>       0.12500000       0.12500000       0.62500000 </v>
   <v>       0.12500000       0.62500000       0.12500000 </v>
   <v>       0.12500000       0.62500000       0.62500000 </v>
   <v>       0.62500000       0.12500000       0.12500000 </v>
   <v>       0.62500000       0.12500000       0.62500000 </v>
   <v>       0.62500000       0.62500000       0.12500000 </v>
   <v>       0.62500000       0.62500000       0.62500000 </v>
  </varray>
 </structure>
 <calculation>
  <scstep>
   <time name="dav">    1.23    1.34</time>
   <time name="total">    1.40    1.52</time>
   <energy>
    <i name="alphaZ">    117.78303119 </i>
    <i name="ewald">  -7536.60657322 </i>
    <i name="hartreedc">   -310.19287466 </i>
    <i name="XCdc">   -547.76427934 </i>
    <i name="pawpsdc">   5598.62625415 </i>
    <i name="pawaedc">  -4492.17844134 </i>
    <i name="eentropy">      0.00130301 </i>
    <i name="bandstr">   1184.04185406 </i>
    <i name="atom">   6564.79586099 </i>
    <i name="e_fr_energy">    578.50613484 </i>
    <i name="e_wo_entrp">    578.50483183 </i>
    <i name="e_0_energy">    578.50570050 </i>
   </energy>
  </scstep>
  <scstep>
   <time name="dav">    1.35    1.36</time>
   <time name="total">    1.35    1.36</time>
   <energy>
    <i name="e_fr_energy">   -308.33513036 </i>
    <i name="e_wo_entrp">   -308.33034646 </i>
    <i name="e_0_energy">   -308.33353573 </i>
   </energy>
  </scstep>
  <scstep>
   <time name="dav">    1.34    1.35</time>
   <time name="total">    1.34    1.35</time>
   <energy>
    <i name="e_fr_energy">   -371.60286945 </i>
    <i name="e_wo_entrp">   -371.61034712 </i>
    <i name="e_0_energy">   -371.60536201 </i>
   </energy>
  </scstep>
  <scstep>
   <time name="dav">    1.31    1.33</time>
   <time name="total">    1.32    1.33</time>
   <energy>
    <i name="e_fr_energy">   -373.19716208 </i>
    <i name="e_wo_entrp">   -373.20511309 </i>
    <i name="e_0_energy">   -373.19981242 </i>
   </energy>
  </scstep>
  <scstep>
   <time name="dav">    1.30    1.31</time>
   <time name="total">    1.55    1.57</time>
   <energy>
    <i name="e_fr_energy">   -373.24279505 </i>
    <i name="e_wo_entrp">   -373.25075617 </i>
    <i name="e_0_energy">   -373.24544876 </i>
   </energy>
  </scstep>
  <scstep>
   <time name="diag">    0.13    0.13</time>
   <time name="diis">    0.69    0.70</time>
   <time name="orth">    0.02    0.02</time>
   <time name="total">    1.23    1.26</time>
   <energy>
    <i name="e_fr_energy">   -366.79340190 </i>
    <i name="e_wo_entrp">   -366.81566411 </i>
    <i name="e_0_energy">   -366.80082264 </i>
   </energy>
  </scstep>
  <scstep>
   <time name="diag">    0.14    0.14</time>
   <time name="diis">    0.70    0.70</time>
   <time name="orth">    0.02    0.02</time>
   <time name="total">    1.24    1.26</time>
   <energy>
    <i name="e_fr_energy">   -364.03668744 </i>
    <i name="e_wo_entrp">   -364.05896332 </i>
    <i name="e_0_energy">   -364.04411273 </i>
   </energy>
  </scstep>
  <scstep>
   <time name="diag">    0.13    0.13</time>
   <time name="diis">    0.72    0.72</time>
   <time name="orth">    0.02    0.02</time>
   <time name="total">    1.27    1.28</time>
   <energy>
    <i name="e_fr_energy">   -364.06640578 </i>
    <i name="e_wo_entrp">   -364.09578728 </i>
    <i name="e_0_energy">   -364.07619961 </i>
   </energy>
  </scstep>
  <scstep>
   <time name="diag">    0.13    0.13</time>
   <time name="diis">    0.71    0.72</time>
   <time name="orth">    0.02    0.02</time>
   <time name="total">    1.26    1.27</time>
   <energy>
    <i name="e_fr_energy">   -364.09119626 </i>
    <i name="e_wo_entrp">   -364.11887224 </i>
    <i name="e_0_energy">   -364.10042159 </i>
   </energy>
  </scstep>
  <scstep>
   <time name="diag">    0.13    0.13</time>
   <time name="diis">    0.72    0.72</time>
   <time name="orth">    0.02    0.02</time>
   <time name="total">    1.26    1.28</time>
   <energy>
    <i name="e_fr_energy">   -364.09602163 </i>
    <i name="e_wo_entrp">   -364.12359166 </i>
    <i name="e_0_energy">   -364.10521164 </i>
   </energy>
  </scstep>
  <scstep>
   <time name="diag">    0.13    0.13</time>
   <time name="diis">    0.69    0.69</time>
   <time name="orth">    0.02    0.02</time>
   <time name="total">    1.24    1.26</time>
   <energy>
    <i name="e_fr_energy">   -364.09056821 </i>
    <i name="e_wo_entrp">   -364.11999950 </i>
    <i name="e_0_energy">   -364.10037864 </i>
   </energy>
  </scstep>
  <scstep>
   <time name="diag">    0.14    0.15</time>
   <time name="diis">    0.71    0.71</time>
   <time name="orth">    0.02    0.02</time>
   <time name="total">    1.28    1.31</time>
   <energy>
    <i name="e_fr_energy">   -364.09074667 </i>
    <i name="e_wo_entrp">   -364.12021817 </i>
    <i name="e_0_energy">   -364.10057050 </i>
   </energy>
  </scstep>
  <scstep>
   <time name="diag">    0.13    0.13</time>
   <time name="diis">    0.73    0.73</time>
   <time name="orth">    0.02    0.02</time>
   <time name="total">    1.27    1.29</time>
   <energy>
    <i name="e_fr_energy">   -364.09082019 </i>
    <i name="e_wo_entrp">   -364.12029796 </i>
    <i name="e_0_energy">   -364.10064611 </i>
   </energy>
  </scstep>
  <scstep>
   <time name="diag">    0.13    0.13</time>
   <time name="diis">    0.69    0.69</time>
   <time name="orth">    0.02    0.02</time>
   <time name="total">    1.23    1.25</time>
   <energy>
    <i name="e_fr_energy">   -364.09074868 </i>
    <i name="e_wo_entrp">   -364.12027676 </i>
    <i name="e_0_energy">   -364.10059137 </i>
   </energy>
  </scstep>
  <scstep>
   <time name="diag">    0.13    0.13</time>
   <time name="diis">    0.70    0.70</time>
   <time name="orth">    0.02    0.02</time>
   <time name="total">    1.25    1.26</time>
   <energy>
    <i name="e_fr_energy">   -364.09088017 </i>
    <i name="e_wo_entrp">   -364.12046828 </i>
    <i name="e_0_energy">   -364.10074287 </i>
   </energy>
  </scstep>
  <scstep>
   <time name="diag">    0.13    0.13</time>
   <time name="diis">    0.70    0.70</time>
   <time name="orth">    0.02    0.02</time>
   <time name="total">    1.25    1.26</time>
   <energy>
    <i name="e_fr_energy">   -364.09093984 </i>
    <i name="e_wo_entrp">   -364.12051511 </i>
    <i name="e_0_energy">   -364.10079826 </i>
   </energy>
  </scstep>
  <scstep>
   <time name="diag">    0.13    0.13</time>
   <time name="diis">    0.69    0.70</time>
   <time name="orth">    0.02    0.02</time>
   <time name="total">    1.25    1.26</time>
   <energy>
    <i name="e_fr_energy">   -364.09095921 </i>
    <i name="e_wo_entrp">   -364.12056167 </i>
    <i name="e_0_energy">   -364.10082669 </i>
   </energy>
  </scstep>
  <scstep>
   <time name="diag">    0.13    0.13</time>
   <time name="diis">    0.66    0.66</time>
   <time name="orth">    0.02    0.02</time>
   <time name="total">    1.21    1.23</time>
   <energy>
    <i name="e_fr_energy">   -364.09096949 </i>
    <i name="e_wo_entrp">   -364.12058467 </i>
    <i name="e_0_energy">   -364.10084121 </i>
   </energy>
  </scstep>
  <scstep>
   <time name="diag">    0.13    0.13</time>
   <time name="diis">    0.44    0.45</time>
   <time name="orth">    0.02    0.02</time>
   <time name="total">    0.99    1.01</time>
   <energy>
    <i name="e_fr_energy">   -364.09097075 </i>
    <i name="e_wo_entrp">   -364.12058812 </i>
    <i name="e_0_energy">   -364.10084320 </i>
   </energy>
  </scstep>
  <scstep>
   <time name="diag">    0.13    0.13</time>
   <time name="diis">    0.44    0.44</time>
   <time name="orth">    0.02    0.02</time>
   <time name="total">    0.75    0.76</time>
   <energy>
    <i name="alphaZ">    117.78303119 </i>
    <i name="ewald">  -7536.60657322 </i>
    <i name="hartreedc">   -435.04658109 </i>
    <i name="XCdc">   -526.50086136 </i>
    <i name="pawpsdc">  33835.68150593 </i>
    <i name="pawaedc"> -32738.53425410 </i>
    <i name="eentropy">      0.02961787 </i>
    <i name="bandstr">    354.30728277 </i>
    <i name="atom">   6564.79586099 </i>
    <i name="e_fr_energy">   -364.09097102 </i>
    <i name="e_wo_entrp">   -364.12058889 </i>
    <i name="e_0_energy">   -364.10084364 </i>
   </energy>
  </scstep>
  <structure>
   <crystal>
    <varray name="basis" >
     <v>      10.50413255      -0.02639200       0.00000000 </v>
     <v>      -0.02639200      10.55691756       0.00000000 </v>
     <v>       0.00000000       0.00000000      10.55691756 </v>
    </varray>
    <i name="volume">   1170.66255104 </i>
    <varray name="rec_basis" >
     <v>       0.09520122       0.00023800       0.00000000 </v>
     <v>       0.00023800       0.09472521       0.00000000 </v>
     <v>       0.00000000       0.00000000       0.09472462 </v>
    </varray>
   </crystal>
   <varray name="positions" >
    <v>       0.00000000       0.00000000       0.00000000 </v>
    <v>       0.00000000       0.00000000       0.50000000 </v>
    <v>       0.00000000       0.50000000       0.00000000 </v>
    <v>       0.00000000       0.50000000       0.50000000 </v>
    <v>       0.50000000       0.00000000       0.00000000 </v>
    <v>       0.50000000       0.00000000       0.50000000 </v>
    <v>       0.50000000       0.50000000       0.00000000 </v>
    <v>       0.50000000       0.50000000       0.50000000 </v>
    <v>       0.37500000       0.37500000       0.12500000 </v>
    <v>       0.37500000       0.37500000       0.62500000 </v>
    <v>       0.37500000       0.87500000       0.12500000 </v>
    <v>       0.37500000       0.87500000       0.62500000 </v>
    <v>       0.87500000       0.37500000       0.12500000 </v>
    <v>       0.87500000       0.37500000       0.62500000 </v>
    <v>       0.87500000       0.87500000       0.12500000 </v>
    <v>       0.87500000       0.87500000       0.62500000 </v>
    <v>       0.00000000       0.25000000       0.25000000 </v>
    <v>       0.00000000       0.25000000       0.75000000 </v>
    <v>       0.00000000       0.75000000       0.25000000 </v>
    <v>       0.00000000       0.75000000       0.75000000 </v>
    <v>       0.50000000       0.25000000       0.25000000 </v>
    <v>       0.50000000       0.25000000       0.75000000 </v>
    <v>       0.50000000       0.75000000       0.25000000 </v>
    <v>       0.50000000       0.75000000       0.75000000 </v>
    <v>       0.37500000       0.12500000       0.37500000 </v>
    <v>       0.37500000       0.12500000       0.87500000 </v>
    <v>       0.37500000       0.62500000       0.37500000 </v>
    <v>       0.37500000       0.62500000       0.87500000 </v>
    <v>       0.87500000       0.12500000       0.37500000 </v>
    <v>       0.87500000       0.12500000       0.87500000 </v>
    <v>       0.87500000       0.62500000       0.37500000 </v>
    <v>       0.87500000       0.62500000       0.87500000 </v>
    <v>       0.25000000       0.00000000       0.25000000 </v>
    <v>       0.25000000       0.00000000       0.75000000 </v>
    <v>       0.25000000       0.50000000       0.25000000 </v>
    <v>       0.25000000       0.50000000       0.75000000 </v>
    <v>       0.75000000       0.00000000       0.25000000 </v>
    <v>       0.75000000       0.00000000       0.75000000 </v>
    <v>       0.75000000       0.50000000       0.25000000 </v>
    <v>       0.75000000       0.50000000       0.75000000 </v>
    <v>       0.12500000       0.37500000       0.37500000 </v>
    <v>       0.12500000       0.37500000       0.87500000 </v>
    <v>       0.12500000       0.87500000       0.37500000 </v>
    <v>       0.12500000       0.87500000       0.87500000 </v>
    <v>       0.62500000       0.37500000       0.37500000 </v>
    <v>       0.62500000       0.37500000       0.87500000 </v>
    <v>       0.62500000       0.87500000       0.37500000 </v>
    <v>       0.62500000       0.87500000       0.87500000 </v>
    <v>       0.25000000       0.25000000       0.00000000 </v>
    <v>       0.25000000       0.25000000       0.50000000 </v>
    <v>       0.25000000       0.75000000       0.00000000 </v>
    <v>       0.25000000       0.75000000       0.50000000 </v>
    <v>       0.75000000       0.25000000       0.00000000 </v>
    <v>       0.75000000       0.25000000       0.50000000 </v>
    <v>       0.75000000       0.75000000       0.00000000 </v>
    <v>       0.75000000       0.75000000       0.50000000 </v>
    <v>       0.12500000       0.12500000       0.12500000 </v>
    <v>       0.12500000       0.12500000       0.62500000 </v>
    <v>       0.12500000       0.62500000       0.12500000 </v>
    <v>       0.12500000       0.62500000       0.62500000 </v>
    <v>       0.62500000       0.12500000       0.12500000 </v>
    <v>       0.62500000       0.12500000       0.62500000 </v>
    <v>       0.62500000       0.62500000       0.12500000 </v>
    <v>       0.62500000       0.62500000       0.62500000 </v>
   </varray>
  </structure>
  <varray name="forces" >
   <v>      -0.00000000      -0.00000000      -0.07247225 </v>
   <v>      -0.00000000       0.00000000      -0.07247225 </v>
   <v>      -0.00000000       0.00000000      -0.07247225 </v>
   <v>       0.00000000       0.00000000      -0.07247225 </v>
   <v>       0.00000000      -0.00000000      -0.07247225 </v>
   <v>       0.00000000      -0.00000000      -0.07247225 </v>
   <v>      -0.00000000       0.00000000      -0.07247225 </v>
   <v>       0.00000000      -0.00000000      -0.07247225 </v>
   <v>       0.00000000       0.00000000       0.07247225 </v>
   <v>      -0.00000000       0.00000000       0.07247225 </v>
   <v>      -0.00000000      -0.00000000       0.07247225 </v>
   <v>       0.00000000      -0.00000000       0.07247225 </v>
   <v>       0.00000000       0.00000000       0.07247225 </v>
   <v>      -0.00000000       0.00000000       0.07247225 </v>
   <v>      -0.00000000      -0.00000000       0.07247225 </v>
   <v>      -0.00000000      -0.00000000       0.07247225 </v>
   <v>      -0.00000000       0.00000000      -0.07247225 </v>
   <v>       0.00000000       0.00000000      -0.07247225 </v>
   <v>      -0.00000000      -0.00000000      -0.07247225 </v>
   <v>       0.00000000      -0.00000000      -0.07247225 </v>
   <v>      -0.00000000       0.00000000      -0.07247225 </v>
   <v>       0.00000000       0.00000000      -0.07247225 </v>
   <v>      -0.00000000      -0.00000000      -0.07247225 </v>
   <v>       0.00000000      -0.00000000      -0.07247225 </v>
   <v>       0.00000000      -0.00000000       0.07247225 </v>
   <v>       0.00000000      -0.00000000       0.07247225 </v>
   <v>      -0.00000000       0.00000000       0.07247225 </v>
   <v>       0.00000000       0.00000000       0.07247225 </v>
   <v>      -0.00000000      -0.00000000       0.07247225 </v>
   <v>       0.00000000      -0.00000000       0.07247225 </v>
   <v>      -0.00000000       0.00000000       0.07247225 </v>
   <v>       0.00000000       0.00000000       0.07247225 </v>
   <v>       0.00000000      -0.00000000      -0.07247225 </v>
   <v>       0.00000000      -0.00000000      -0.07247225 </v>
   <v>      -0.00000000       0.00000000      -0.07247225 </v>
   <v>      -0.00000000       0.00000000      -0.07247225 </v>
   <v>       0.00000000      -0.00000000      -0.07247225 </v>
   <v>      -0.00000000       0.00000000      -0.07247225 </v>
   <v>      -0.00000000       0.00000000      -0.07247225 </v>
   <v>       0.00000000       0.00000000      -0.07247225 </v>
   <v>       0.00000000      -0.00000000       0.07247225 </v>
   <v>       0.00000000       0.00000000       0.07247225 </v>
   <v>       0.00000000      -0.00000000       0.07247225 </v>
   <v>       0.00000000      -0.00000000       0.07247225 </v>
   <v>       0.00000000       0.00000000       0.07247225 </v>
   <v>      -0.00000000       0.00000000       0.07247225 </v>
   <v>      -0.00000000      -0.00000000       0.07247225 </v>
   <v>      -0.00000000      -0.00000000       0.07247225 </v>
   <v>       0.00000000       0.00000000      -0.07247225 </v>
   <v>       0.00000000       0.00000000      -0.07247225 </v>
   <v>      -0.00000000      -0.00000000      -0.07247225 </v>
   <v>      -0.00000000      -0.00000000      -0.07247225 </v>
   <v>       0.00000000       0.00000000      -0.07247225 </v>
   <v>      -0.00000000       0.00000000      -0.07247225 </v>
   <v>       0.00000000      -0.00000000      -0.07247225 </v>
   <v>       0.00000000      -0.00000000      -0.07247225 </v>
   <v>       0.00000000      -0.00000000       0.07247225 </v>
   <v>      -0.00000000      -0.00000000       0.07247225 </v>
   <v>      -0.00000000       0.00000000       0.07247225 </v>
   <v>       0.00000000       0.00000000       0.07247225 </v>
   <v>      -0.00000000      -0.00000000       0.07247225 </v>
   <v>       0.00000000      -0.00000000       0.07247225 </v>
   <v>      -0.00000000       0.00000000       0.07247225 </v>
   <v>      -0.00000000       0.00000000       0.07247225 </v>
  </varray>
  <varray name="stress" >
   <v>     109.05053146       6.58861103       0.00000000 </v>
   <v>       6.58861103     105.17229983       0.00000000 </v>
   <v>       0.00000000       0.00000000     105.12673520 </v>
  </varray>
  <energy>
   <i name="e_fr_energy">   -364.09097102 </i>
   <i name="e_wo_entrp">   -364.12058889 </i>
   <i name="e_0_energy">   -364.10084364 </i>
  </energy>
  <time name="totalsc">   28.61   29.10</time>
 </calculation>
 <calculation>
  <scstep>
   <time name="dav">    1.32    1.33</time>
   <time name="total">    1.71    1.72</time>
   <energy>
    <i name="alphaZ">    117.78303119 </i>
    <i name="ewald">  -7536.67937982 </i>
    <i name="hartreedc">   -435.00489133 </i>
    <i name="XCdc">   -526.50256569 </i>
    <i name="pawpsdc">  33838.92774276 </i>
    <i name="pawaedc"> -32741.78036127 </i>
    <i name="eentropy">      0.02723455 </i>
    <i name="bandstr">    354.33952888 </i>
    <i name="atom">   6564.79586099 </i>
    <i name="e_fr_energy">   -364.09379974 </i>
    <i name="e_wo_entrp">   -364.12103429 </i>
    <i name="e_0_energy">   -364.10287792 </i>
   </energy>
  </scstep>
  <scstep>
   <time name="diag">    0.13    0.13</time>
   <time name="diis">    0.69    0.70</time>
   <time name="orth">    0.02    0.02</time>
   <time name="total">    1.25    1.26</time>
   <energy>
    <i name="e_fr_energy">   -364.09482402 </i>
    <i name="e_wo_entrp">   -364.12209115 </i>
    <i name="e_0_energy">   -364.10391307 </i>
   </energy>
  </scstep>
  <scstep>
   <time name="diag">    0.13    0.13</time>
   <time name="diis">    0.70    0.71</time>
   <time name="orth">    0.02    0.02</time>
   <time name="total">    1.25    1.27</time>
   <energy>
    <i name="e_fr_energy">   -364.09492857 </i>
    <i name="e_wo_entrp">   -364.12231675 </i>
    <i name="e_0_energy">   -364.10405797 </i>
   </energy>
  </scstep>
  <scstep>
   <time name="diag">    0.13    0.13</time>
   <time name="diis">    0.68    0.70</time>
   <time name="orth">    0.02    0.03</time>
   <time name="total">    1.22    1.27</time>
   <energy>
    <i name="e_fr_energy">   -364.09492059 </i>
    <i name="e_wo_entrp">   -364.12239439 </i>
    <i name="e_0_energy">   -364.10407853 </i>
   </energy>
  </scstep>
  <scstep>
   <time name="diag">    0.13    0.13</time>
   <time name="diis">    0.71    0.72</time>
   <time name="orth">    0.02    0.02</time>
   <time name="total">    1.26    1.28</time>
   <energy>
    <i name="e_fr_energy">   -364.09492256 </i>
    <i name="e_wo_entrp">   -364.12242425 </i>
    <i name="e_0_energy">   -364.10408979 </i>
   </energy>
  </scstep>
  <scstep>
   <time name="diag">    0.13    0.13</time>
   <time name="diis">    0.62    0.62</time>
   <time name="orth">    0.02    0.02</time>
   <time name="total">    1.17    1.19</time>
   <energy>
    <i name="e_fr_energy">   -364.09492347 </i>
    <i name="e_wo_entrp">   -364.12242377 </i>
    <i name="e_0_energy">   -364.10409024 </i>
   </energy>
  </scstep>
  <scstep>
   <time name="diag">    0.13    0.13</time>
   <time name="diis">    0.46    0.47</time>
   <time name="orth">    0.02    0.02</time>
   <time name="total">    1.01    1.03</time>
   <energy>
    <i name="e_fr_energy">   -364.09492359 </i>
    <i name="e_wo_entrp">   -364.12242290 </i>
    <i name="e_0_energy">   -364.10409003 </i>
   </energy>
  </scstep>
  <scstep>
   <time name="diag">    0.13    0.13</time>
   <time name="diis">    0.42    0.43</time>
   <time name="orth">    0.02    0.02</time>
   <time name="total">    0.73    0.75</time>
   <energy>
    <i name="alphaZ">    117.78303119 </i>
    <i name="ewald">  -7536.67937982 </i>
    <i name="hartreedc">   -434.96783344 </i>
    <i name="XCdc">   -526.50768759 </i>
    <i name="pawpsdc">  33832.90319177 </i>
    <i name="pawaedc"> -32735.75339611 </i>
    <i name="eentropy">      0.02749954 </i>
    <i name="bandstr">    354.30378987 </i>
    <i name="atom">   6564.79586099 </i>
    <i name="e_fr_energy">   -364.09492361 </i>
    <i name="e_wo_entrp">   -364.12242314 </i>
    <i name="e_0_energy">   -364.10409012 </i>
   </energy>
  </scstep>
  <structure>
   <crystal>
    <varray name="basis" >
     <v>      10.50413255      -0.02639200       0.00000000 </v>
     <v>      -0.02639200      10.55691756       0.00000000 </v>
     <v>       0.00000000       0.00000000      10.55691756 </v>
    </varray>
    <i name="volume">   1170.66255104 </i>
    <varray name="rec_basis" >
     <v>       0.09520122       0.00023800       0.00000000 </v>
     <v>       0.00023800       0.09472521       0.00000000 </v>
     <v>       0.00000000       0.00000000       0.09472462 </v>
    </varray>
   </crystal>
   <varray name="positions" >
    <v>       1.00000000       1.00000000       0.99966882 </v>
    <v>       1.00000000       0.00000000       0.49966882 </v>
    <v>       1.00000000       0.50000000       0.99966882 </v>
    <v>       0.00000000       0.50000000       0.49966882 </v>
    <v>       0.50000000       1.00000000       0.99966882 </v>
    <v>       0.50000000       1.00000000       0.49966882 </v>
    <v>       0.50000000       0.50000000       0.99966882 </v>
    <v>       0.50000000       0.50000000       0.49966882 </v>
    <v>       0.37500000       0.37500000       0.12533118 </v>
    <v>       0.37500000       0.37500000       0.62533118 </v>
    <v>       0.37500000       0.87500000       0.12533118 </v>
    <v>       0.37500000       0.87500000       0.62533118 </v>
    <v>       0.87500000       0.37500000       0.12533118 </v>
    <v>       0.87500000       0.37500000       0.62533118 </v>
    <v>       0.87500000       0.87500000       0.12533118 </v>
    <v>       0.87500000       0.87500000       0.62533118 </v>
    <v>       1.00000000       0.25000000       0.24966882 </v>
    <v>       0.00000000       0.25000000       0.74966882 </v>
    <v>       1.00000000       0.75000000       0.24966882 </v>
    <v>       0.00000000       0.75000000       0.74966882 </v>
    <v>       0.50000000       0.25000000       0.24966882 </v>
    <v>       0.50000000       0.25000000       0.74966882 </v>
    <v>       0.50000000       0.75000000       0.24966882 </v>
    <v>       0.50000000       0.75000000       0.74966882 </v>
    <v>       0.37500000       0.12500000       0.37533118 </v>
    <v>       0.37500000       0.12500000       0.87533118 </v>
    <v>       0.37500000       0.62500000       0.37533118 </v>
    <v>       0.37500000       0.62500000       0.87533118 </v>
    <v>       0.87500000       0.12500000       0.37533118 </v>
    <v>       0.87500000       0.12500000       0.87533118 </v>
    <v>       0.87500000       0.62500000       0.37533118 </v>
    <v>       0.87500000       0.62500000       0.87533118 </v>
    <v>       0.25000000       1.00000000       0.24966882 </v>
    <v>       0.25000000       1.00000000       0.74966882 </v>
    <v>       0.25000000       0.50000000       0.24966882 </v>
    <v>       0.25000000       0.50000000       0.74966882 </v>
    <v>       0.75000000       1.00000000       0.24966882 </v>
    <v>       0.75000000       0.00000000       0.74966882 </v>
    <v>       0.75000000       0.50000000       0.24966882 </v>
    <v>       0.75000000       0.50000000       0.74966882 </v>
    <v>       0.12500000       0.37500000       0.37533118 </v>
    <v>       0.12500000       0.37500000       0.87533118 </v>
    <v>       0.12500000       0.87500000       0.37533118 </v>
    <v>       0.12500000       0.87500000       0.87533118 </v>
    <v>       0.62500000       0.37500000       0.37533118 </v>
    <v>       0.62500000       0.37500000       0.87533118 </v>
    <v>       0.62500000       0.87500000       0.37533118 </v>
    <v>       0.62500000       0.87500000       0.87533118 </v>
    <v>       0.25000000       0.25000000       0.99966882 </v>
    <v>       0.25000000       0.25000000       0.49966882 </v>
    <v>       0.25000000       0.75000000       0.99966882 </v>
    <v>       0.25000000       0.75000000       0.49966882 </v>
    <v>       0.75000000       0.25000000       0.99966882 </v>
    <v>       0.75000000       0.25000000       0.49966882 </v>
    <v>       0.75000000       0.75000000       0.99966882 </v>
    <v>       0.75000000       0.75000000       0.49966882 </v>
    <v>       0.12500000       0.12500000       0.12533118 </v>
    <v>       0.12500000       0.12500000       0.62533118 </v>
    <v>       0.12500000       0.62500000       0.12533118 </v>
    <v>       0.12500000       0.62500000       0.62533118 </v>
    <v>       0.62500000       0.12500000       0.12533118 </v>
    <v>       0.62500000       0.12500000       0.62533118 </v>
    <v>       0.62500000       0.62500000       0.12533118 </v>
    <v>       0.62500000       0.62500000       0.62533118 </v>
   </varray>
  </structure>
  <varray name="forces" >
   <v>       0.00000000       0.00000000       0.03744872 </v>
   <v>       0.00000000       0.00000000       0.03744872 </v>
   <v>      -0.00000000      -0.00000000       0.03744872 </v>
   <v>      -0.00000000      -0.00000000       0.03744872 </v>
   <v>       0.00000000       0.00000000       0.03744872 </v>
   <v>      -0.00000000       0.00000000       0.03744872 </v>
   <v>      -0.00000000      -0.00000000       0.03744872 </v>
   <v>      -0.00000000      -0.00000000       0.03744872 </v>
   <v>       0.00000000       0.00000000      -0.03744872 </v>
   <v>      -0.00000000      -0.00000000      -0.03744872 </v>
   <v>       0.00000000       0.00000000      -0.03744872 </v>
   <v>       0.00000000      -0.00000000      -0.03744872 </v>
   <v>      -0.00000000      -0.00000000      -0.03744872 </v>
   <v>       0.00000000       0.00000000      -0.03744872 </v>
   <v>       0.00000000      -0.00000000      -0.03744872 </v>
   <v>       0.00000000      -0.00000000      -0.03744872 </v>
   <v>      -0.00000000      -0.00000000       0.03744872 </v>
   <v>      -0.00000000      -0.00000000       0.03744872 </v>
   <v>       0.00000000       0.00000000       0.03744872 </v>
   <v>       0.00000000       0.00000000       0.03744872 </v>
   <v>       0.00000000      -0.00000000       0.03744872 </v>
   <v>      -0.00000000       0.00000000       0.03744872 </v>
   <v>       0.00000000      -0.00000000       0.03744872 </v>
   <v>       0.00000000      -0.00000000       0.03744872 </v>
   <v>      -0.00000000      -0.00000000      -0.03744872 </v>
   <v>      -0.00000000      -0.00000000      -0.03744872 </v>
   <v>       0.00000000       0.00000000      -0.03744872 </v>
   <v>       0.00000000       0.00000000      -0.03744872 </v>
   <v>      -0.00000000      -0.00000000      -0.03744872 </v>
   <v>      -0.00000000      -0.00000000      -0.03744872 </v>
   <v>       0.00000000       0.00000000      -0.03744872 </v>
   <v>       0.00000000       0.00000000      -0.03744872 </v>
   <v>       0.00000000       0.00000000       0.03744872 </v>
   <v>       0.00000000       0.00000000       0.03744872 </v>
   <v>       0.00000000      -0.00000000       0.03744872 </v>
   <v>      -0.00000000       0.00000000       0.03744872 </v>
   <v>      -0.00000000       0.00000000       0.03744872 </v>
   <v>       0.00000000       0.00000000       0.03744872 </v>
   <v>      -0.00000000      -0.00000000       0.03744872 </v>
   <v>      -0.00000000      -0.00000000       0.03744872 </v>
   <v>      -0.00000000      -0.00000000      -0.03744872 </v>
   <v>      -0.00000000      -0.00000000      -0.03744872 </v>
   <v>      -0.00000000      -0.00000000      -0.03744872 </v>
   <v>       0.00000000       0.00000000      -0.03744872 </v>
   <v>      -0.00000000      -0.00000000      -0.03744872 </v>
   <v>      -0.00000000       0.00000000      -0.03744872 </v>
   <v>       0.00000000      -0.00000000      -0.03744872 </v>
   <v>       0.00000000      -0.00000000      -0.03744872 </v>
   <v>      -0.00000000      -0.00000000       0.03744872 </v>
   <v>      -0.00000000      -0.00000000       0.03744872 </v>
   <v>      -0.00000000       0.00000000       0.03744872 </v>
   <v>       0.00000000      -0.00000000       0.03744872 </v>
   <v>      -0.00000000      -0.00000000       0.03744872 </v>
   <v>      -0.00000000      -0.00000000       0.03744872 </v>
   <v>       0.00000000       0.00000000       0.03744872 </v>
   <v>      -0.00000000      -0.00000000       0.03744872 </v>
   <v>      -0.00000000      -0.00000000      -0.03744872 </v>
   <v>      -0.00000000      -0.00000000      -0.03744872 </v>
   <v>       0.00000000       0.00000000      -0.03744872 </v>
   <v>       0.00000000       0.00000000      -0.03744872 </v>
   <v>      -0.00000000      -0.00000000      -0.03744872 </v>
   <v>      -0.00000000      -0.00000000      -0.03744872 </v>
   <v>       0.00000000       0.00000000      -0.03744872 </v>
   <v>       0.00000000       0.00000000      -0.03744872 </v>
  </varray>
  <varray name="stress" >
   <v>     108.98968456       2.13584303       0.00000000 </v>
   <v>       2.13584301     105.14522355       0.00000000 </v>
   <v>       0.00000000       0.00000000     105.05795813 </v>
  </varray>
  <energy>
   <i name="e_fr_energy">   -364.09492361 </i>
   <i name="e_wo_entrp">   -364.12242314 </i>
   <i name="e_0_energy">   -364.10409012 </i>
  </energy>
  <time name="totalsc">   13.28   13.51</time>
 </calculation>
 <calculation>
  <scstep>
   <time name="dav">    1.27    1.28</time>
   <time name="total">    1.65    1.67</time>
   <energy>
    <i name="alphaZ">    117.78303119 </i>
    <i name="ewald">  -7536.65936745 </i>
    <i name="hartreedc">   -434.97990337 </i>
    <i name="XCdc">   -526.50711330 </i>
    <i name="pawpsdc">  33832.81195258 </i>
    <i name="pawaedc"> -32735.66215334 </i>
    <i name="eentropy">      0.02854882 </i>
    <i name="bandstr">    354.29293455 </i>
    <i name="atom">   6564.79586099 </i>
    <i name="e_fr_energy">   -364.09620933 </i>
    <i name="e_wo_entrp">   -364.12475815 </i>
    <i name="e_0_energy">   -364.10572560 </i>
   </energy>
  </scstep>
  <scstep>
   <time name="diag">    0.13    0.13</time>
   <time name="diis">    0.73    0.74</time>
   <time name="orth">    0.02    0.02</time>
   <time name="total">    1.28    1.30</time>
   <energy>
    <i name="e_fr_energy">   -364.09632416 </i>
    <i name="e_wo_entrp">   -364.12486366 </i>
    <i name="e_0_energy">   -364.10583732 </i>
   </energy>
  </scstep>
  <scstep>
   <time name="diag">    0.13    0.13</time>
   <time name="diis">    0.71    0.71</time>
   <time name="orth">    0.02    0.02</time>
   <time name="total">    1.25    1.28</time>
   <energy>
    <i name="e_fr_energy">   -364.09633562 </i>
    <i name="e_wo_entrp">   -364.12484380 </i>
    <i name="e_0_energy">   -364.10583835 </i>
   </energy>
  </scstep>
  <scstep>
   <time name="diag">    0.13    0.13</time>
   <time name="diis">    0.69    0.69</time>
   <time name="orth">    0.02    0.02</time>
   <time name="total">    1.24    1.26</time>
   <energy>
    <i name="e_fr_energy">   -364.09633482 </i>
    <i name="e_wo_entrp">   -364.12482123 </i>
    <i name="e_0_energy">   -364.10583029 </i>
   </energy>
  </scstep>
  <scstep>
   <time name="diag">    0.13    0.13</time>
   <time name="diis">    0.53    0.54</time>
   <time name="orth">    0.02    0.02</time>
   <time name="total">    1.09    1.09</time>
   <energy>
    <i name="e_fr_energy">   -364.09633501 </i>
    <i name="e_wo_entrp">   -364.12481407 </i>
    <i name="e_0_energy">   -364.10582803 </i>
   </energy>
  </scstep>
  <scstep>
   <time name="diag">    0.13    0.13</time>
   <time name="diis">    0.45    0.45</time>
   <time name="orth">    0.02    0.02</time>
   <time name="total">    1.00    1.01</time>
   <energy>
    <i name="e_fr_energy">   -364.09633508 </i>
    <i name="e_wo_entrp">   -364.12481463 </i>
    <i name="e_0_energy">   -364.10582827 </i>
   </energy>
  </scstep>
  <scstep>
   <time name="diag">    0.13    0.13</time>
   <time name="diis">    0.40    0.40</time>
   <time name="orth">    0.02    0.02</time>
   <time name="total">    0.96    0.96</time>
   <energy>
    <i name="e_fr_energy">   -364.09633510 </i>
    <i name="e_wo_entrp">   -364.12481493 </i>
    <i name="e_0_energy">   -364.10582838 </i>
   </energy>
  </scstep>
  <scstep>
   <time name="diag">    0.13    0.13</time>
   <time name="diis">    0.35    0.35</time>
   <time name="orth">    0.02    0.02</time>
   <time name="total">    0.65    0.67</time>
   <energy>
    <i name="alphaZ">    117.78303119 </i>
    <i name="ewald">  -7536.65936745 </i>
    <i name="hartreedc">   -434.99524077 </i>
    <i name="XCdc">   -526.50515016 </i>
    <i name="pawpsdc">  33834.52666170 </i>
    <i name="pawaedc"> -32737.37767765 </i>
    <i name="eentropy">      0.02847978 </i>
    <i name="bandstr">    354.30706726 </i>
    <i name="atom">   6564.79586099 </i>
    <i name="e_fr_energy">   -364.09633511 </i>
    <i name="e_wo_entrp">   -364.12481489 </i>
    <i name="e_0_energy">   -364.10582837 </i>
   </energy>
  </scstep>
  <structure>
   <crystal>
    <varray name="basis" >
     <v>      10.50413255      -0.02639200       0.00000000 </v>
     <v>      -0.02639200      10.55691756       0.00000000 </v>
     <v>       0.00000000       0.00000000      10.55691756 </v>
    </varray>
    <i name="volume">   1170.66255104 </i>
    <varray name="rec_basis" >
     <v>       0.09520122       0.00023800       0.00000000 </v>
     <v>       0.00023800       0.09472521       0.00000000 </v>
     <v>       0.00000000       0.00000000       0.09472462 </v>
    </varray>
   </crystal>
   <varray name="positions" >
    <v>       0.00000000       0.00000000       0.99978103 </v>
    <v>       0.00000000       0.00000000       0.49978103 </v>
    <v>       0.00000000       0.50000000       0.99978103 </v>
    <v>       0.00000000       0.50000000       0.49978103 </v>
    <v>       0.50000000       0.00000000       0.99978103 </v>
    <v>       0.50000000       0.00000000       0.49978103 </v>
    <v>       0.50000000       0.50000000       0.99978103 </v>
    <v>       0.50000000       0.50000000       0.49978103 </v>
    <v>       0.37500000       0.37500000       0.12521897 </v>
    <v>       0.37500000       0.37500000       0.62521897 </v>
    <v>       0.37500000       0.87500000       0.12521897 </v>
    <v>       0.37500000       0.87500000       0.62521897 </v>
    <v>       0.87500000       0.37500000       0.12521897 </v>
    <v>       0.87500000       0.37500000       0.62521897 </v>
    <v>       0.87500000       0.87500000       0.12521897 </v>
    <v>       0.87500000       0.87500000       0.62521897 </v>
    <v>       0.00000000       0.25000000       0.24978103 </v>
    <v>       0.00000000       0.25000000       0.74978103 </v>
    <v>       0.00000000       0.75000000       0.24978103 </v>
    <v>       0.00000000       0.75000000       0.74978103 </v>
    <v>       0.50000000       0.25000000       0.24978103 </v>
    <v>       0.50000000       0.25000000       0.74978103 </v>
    <v>       0.50000000       0.75000000       0.24978103 </v>
    <v>       0.50000000       0.75000000       0.74978103 </v>
    <v>       0.37500000       0.12500000       0.37521897 </v>
    <v>       0.37500000       0.12500000       0.87521897 </v>
    <v>       0.37500000       0.62500000       0.37521897 </v>
    <v>       0.37500000       0.62500000       0.87521897 </v>
    <v>       0.87500000       0.12500000       0.37521897 </v>
    <v>       0.87500000       0.12500000       0.87521897 </v>
    <v>       0.87500000       0.62500000       0.37521897 </v>
    <v>       0.87500000       0.62500000       0.87521897 </v>
    <v>       0.25000000       0.00000000       0.24978103 </v>
    <v>       0.25000000       0.00000000       0.74978103 </v>
    <v>       0.25000000       0.50000000       0.24978103 </v>
    <v>       0.25000000       0.50000000       0.74978103 </v>
    <v>       0.75000000       0.00000000       0.24978103 </v>
    <v>       0.75000000       0.00000000       0.74978103 </v>
    <v>       0.75000000       0.50000000       0.24978103 </v>
    <v>       0.75000000       0.50000000       0.74978103 </v>
    <v>       0.12500000       0.37500000       0.37521897 </v>
    <v>       0.12500000       0.37500000       0.87521897 </v>
    <v>       0.12500000       0.87500000       0.37521897 </v>
    <v>       0.12500000       0.87500000       0.87521897 </v>
    <v>       0.62500000       0.37500000       0.37521897 </v>
    <v>       0.62500000       0.37500000       0.87521897 </v>
    <v>       0.62500000       0.87500000       0.37521897 </v>
    <v>       0.62500000       0.87500000       0.87521897 </v>
    <v>       0.25000000       0.25000000       0.99978103 </v>
    <v>       0.25000000       0.25000000       0.49978103 </v>
    <v>       0.25000000       0.75000000       0.99978103 </v>
    <v>       0.25000000       0.75000000       0.49978103 </v>
    <v>       0.75000000       0.25000000       0.99978103 </v>
    <v>       0.75000000       0.25000000       0.49978103 </v>
    <v>       0.75000000       0.75000000       0.99978103 </v>
    <v>       0.75000000       0.75000000       0.49978103 </v>
    <v>       0.12500000       0.12500000       0.12521897 </v>
    <v>       0.12500000       0.12500000       0.62521897 </v>
    <v>       0.12500000       0.62500000       0.12521897 </v>
    <v>       0.12500000       0.62500000       0.62521897 </v>
    <v>       0.62500000       0.12500000       0.12521897 </v>
    <v>       0.62500000       0.12500000       0.62521897 </v>
    <v>       0.62500000       0.62500000       0.12521897 </v>
    <v>       0.62500000       0.62500000       0.62521897 </v>
   </varray>
  </structure>
  <varray name="forces" >
   <v>       0.00000000      -0.00000000       0.00011572 </v>
   <v>       0.00000000      -0.00000000       0.00011572 </v>
   <v>       0.00000000       0.00000000       0.00011572 </v>
   <v>      -0.00000000       0.00000000       0.00011572 </v>
   <v>       0.00000000      -0.00000000       0.00011572 </v>
   <v>       0.00000000      -0.00000000       0.00011572 </v>
   <v>       0.00000000       0.00000000       0.00011572 </v>
   <v>      -0.00000000       0.00000000       0.00011572 </v>
   <v>      -0.00000000      -0.00000000      -0.00011572 </v>
   <v>       0.00000000       0.00000000      -0.00011572 </v>
   <v>       0.00000000      -0.00000000      -0.00011572 </v>
   <v>      -0.00000000      -0.00000000      -0.00011572 </v>
   <v>      -0.00000000      -0.00000000      -0.00011572 </v>
   <v>       0.00000000       0.00000000      -0.00011572 </v>
   <v>      -0.00000000      -0.00000000      -0.00011572 </v>
   <v>       0.00000000       0.00000000      -0.00011572 </v>
   <v>       0.00000000       0.00000000       0.00011572 </v>
   <v>      -0.00000000       0.00000000       0.00011572 </v>
   <v>       0.00000000       0.00000000       0.00011572 </v>
   <v>       0.00000000      -0.00000000       0.00011572 </v>
   <v>       0.00000000       0.00000000       0.00011572 </v>
   <v>       0.00000000       0.00000000       0.00011572 </v>
   <v>       0.00000000       0.00000000       0.00011572 </v>
   <v>       0.00000000       0.00000000       0.00011572 </v>
   <v>       0.00000000      -0.00000000      -0.00011572 </v>
   <v>       0.00000000      -0.00000000      -0.00011572 </v>
   <v>      -0.00000000       0.00000000      -0.00011572 </v>
   <v>      -0.00000000       0.00000000      -0.00011572 </v>
   <v>       0.00000000      -0.00000000      -0.00011572 </v>
   <v>       0.00000000      -0.00000000      -0.00011572 </v>
   <v>      -0.00000000       0.00000000      -0.00011572 </v>
   <v>      -0.00000000       0.00000000      -0.00011572 </v>
   <v>      -0.00000000      -0.00000000       0.00011572 </v>
   <v>       0.00000000      -0.00000000       0.00011572 </v>
   <v>      -0.00000000       0.00000000       0.00011572 </v>
   <v>      -0.00000000       0.00000000       0.00011572 </v>
   <v>      -0.00000000      -0.00000000       0.00011572 </v>
   <v>       0.00000000      -0.00000000       0.00011572 </v>
   <v>      -0.00000000       0.00000000       0.00011572 </v>
   <v>      -0.00000000       0.00000000       0.00011572 </v>
   <v>      -0.00000000       0.00000000      -0.00011572 </v>
   <v>       0.00000000      -0.00000000      -0.00011572 </v>
   <v>       0.00000000       0.00000000      -0.00011572 </v>
   <v>       0.00000000       0.00000000      -0.00011572 </v>
   <v>       0.00000000       0.00000000      -0.00011572 </v>
   <v>       0.00000000      -0.00000000      -0.00011572 </v>
   <v>      -0.00000000       0.00000000      -0.00011572 </v>
   <v>      -0.00000000       0.00000000      -0.00011572 </v>
   <v>       0.00000000       0.00000000       0.00011572 </v>
   <v>      -0.00000000      -0.00000000       0.00011572 </v>
   <v>       0.00000000       0.00000000       0.00011572 </v>
   <v>       0.00000000      -0.00000000       0.00011572 </v>
   <v>      -0.00000000      -0.00000000       0.00011572 </v>
   <v>       0.00000000       0.00000000       0.00011572 </v>
   <v>      -0.00000000       0.00000000       0.00011572 </v>
   <v>       0.00000000       0.00000000       0.00011572 </v>
   <v>       0.00000000      -0.00000000      -0.00011572 </v>
   <v>       0.00000000      -0.00000000      -0.00011572 </v>
   <v>      -0.00000000       0.00000000      -0.00011572 </v>
   <v>      -0.00000000       0.00000000      -0.00011572 </v>
   <v>       0.00000000      -0.00000000      -0.00011572 </v>
   <v>       0.00000000      -0.00000000      -0.00011572 </v>
   <v>      -0.00000000       0.00000000      -0.00011572 </v>
   <v>      -0.00000000       0.00000000      -0.00011572 </v>
  </varray>
  <varray name="stress" >
   <v>     109.00520706       3.64989350       0.00000000 </v>
   <v>       3.64989351     105.14983306       0.00000000 </v>
   <v>       0.00000000       0.00000000     105.07502086 </v>
  </varray>
  <energy>
   <i name="e_fr_energy">   -364.09633511 </i>
   <i name="e_wo_entrp">   -364.12481489 </i>
   <i name="e_0_energy">   -364.10582837 </i>
  </energy>
  <time name="totalsc">   12.69   12.84</time>
  <eigenvalues>
   <array>
    <dimension dim="1">band</dimension>
    <dimension dim="2">kpoint</dimension>
    <dimension dim="3">spin</dimension>
    <field>eigene</field>
    <field>occ</field>
    <set>
     <set comment="spin 1">
      <set comment="kpoint 1">
       <r>   -5.8935    1.0000 </r>
       <r>   -4.7241    1.0000 </r>
       <r>   -4.7241    1.0000 </r>
       <r>   -4.7240    1.0000 </r>
       <r>   -4.7240    1.0000 </r>
       <r>   -4.7138    1.0000 </r>
       <r>   -4.7137    1.0000 </r>
       <r>   -3.6715    1.0000 </r>
       <r>   -3.6715    1.0000 </r>
       <r>   -3.6667    1.0000 </r>
       <r>   -3.6667    1.0000 </r>
       <r>   -3.6667    1.0000 </r>
       <r>   -3.6667    1.0000 </r>
       <r>   -3.6591    1.0000 </r>
       <r>   -3.6591    1.0000 </r>
       <r>   -3.6591    1.0000 </r>
       <r>   -3.6591    1.0000 </r>
       <r>   -3.6466    1.0000 </r>
       <r>   -3.6466    1.0000 </r>
       <r>   -3.3163    1.0000 </r>
       <r>   -3.3163    1.0000 </r>
       <r>   -3.2907    1.0000 </r>
       <r>   -3.2907    1.0000 </r>
       <r>   -1.4112    1.0000 </r>
       <r>   -1.4048    1.0000 </r>
       <r>   -1.4048    1.0000 </r>
       <r>   -1.3988    1.0000 </r>
       <r>   -1.3710    1.0000 </r>
       <r>   -1.3710    1.0000 </r>
       <r>   -1.1975    1.0000 </r>
       <r>   -1.1975    1.0000 </r>
       <r>   -1.1862    1.0000 </r>
       <r>   -1.1861    1.0000 </r>
       <r>   -1.1733    1.0000 </r>
       <r>   -1.1733    1.0000 </r>
       <r>   -1.1733    1.0000 </r>
       <r>   -1.1733    1.0000 </r>
       <r>   -1.1716    1.0000 </r>
       <r>   -1.1716    1.0000 </r>
       <r>   -1.1606    1.0000 </r>
       <r>   -1.1606    1.0000 </r>
       <r>   -0.7324    1.0000 </r>
       <r>   -0.7324    1.0000 </r>
       <r>   -0.7171    1.0000 </r>
       <r>   -0.7171    1.0000 </r>
       <r>    1.0585    1.0000 </r>
       <r>    1.0585    1.0000 </r>
       <r>    1.0644    1.0000 </r>
       <r>    1.0644    1.0000 </r>
       <r>    1.0644    1.0000 </r>
       <r>    1.0644    1.0000 </r>
       <r>    1.0704    1.0000 </r>
       <r>    1.0705    1.0000 </r>
       <r>    1.0850    1.0000 </r>
       <r>    1.0850    1.0000 </r>
       <r>    1.0850    1.0000 </r>
       <r>    1.0850    1.0000 </r>
       <r>    2.4252    1.0000 </r>
       <r>    2.4252    1.0000 </r>
       <r>    2.4287    1.0000 </r>
       <r>    2.4287    1.0000 </r>
       <r>    2.4361    1.0000 </r>
       <r>    2.4361    1.0000 </r>
       <r>    2.4361    1.0000 </r>
       <r>    2.4361    1.0000 </r>
       <r>    2.4398    1.0000 </r>
       <r>    2.4398    1.0000 </r>
       <r>    2.4436    1.0000 </r>
       <r>    2.4436    1.0000 </r>
       <r>    2.5647    1.0000 </r>
       <r>    2.5647    1.0000 </r>
       <r>    2.5699    1.0000 </r>
       <r>    2.5699    1.0000 </r>
       <r>    2.5699    1.0000 </r>
       <r>    2.5699    1.0000 </r>
       <r>    2.5745    1.0000 </r>
       <r>    2.5746    1.0000 </r>
       <r>    2.6003    1.0000 </r>
       <r>    2.6003    1.0000 </r>
       <r>    2.6003    1.0000 </r>
       <r>    2.6003    1.0000 </r>
       <r>    3.2216    1.0000 </r>
       <r>    3.2216    1.0000 </r>
       <r>    3.2219    1.0000 </r>
       <r>    3.2219    1.0000 </r>
       <r>    3.2616    1.0000 </r>
       <r>    3.2616    1.0000 </r>
       <r>    3.5985    1.0000 </r>
       <r>    3.5985    1.0000 </r>
       <r>    3.6023    1.0000 </r>
       <r>    3.6403    1.0000 </r>
       <r>    3.6403    1.0000 </r>
       <r>    3.6786    1.0000 </r>
       <r>    4.6364    1.0000 </r>
       <r>    4.6364    1.0000 </r>
       <r>    4.6408    1.0000 </r>
       <r>    4.6408    1.0000 </r>
       <r>    4.6409    1.0000 </r>
       <r>    4.6409    1.0000 </r>
       <r>    4.6676    1.0000 </r>
       <r>    4.6676    1.0000 </r>
       <r>    4.6789    1.0000 </r>
       <r>    4.6789    1.0000 </r>
       <r>    4.7103    1.0000 </r>
       <r>    4.7103    1.0000 </r>
       <r>    5.2759    1.0000 </r>
       <r>    5.2759    1.0000 </r>
       <r>    5.2759    1.0000 </r>
       <r>    5.2759    1.0000 </r>
       <r>    5.2916    1.0000 </r>
       <r>    5.2916    1.0000 </r>
       <r>    5.3194    1.0000 </r>
       <r>    5.3194    1.0000 </r>
       <r>    5.3194    1.0000 </r>
       <r>    5.3194    1.0000 </r>
       <r>    5.3477    1.0000 </r>
       <r>    5.3477    1.0000 </r>
       <r>    5.4248    1.0000 </r>
       <r>    5.4248    1.0000 </r>
       <r>    5.4461    1.0000 </r>
       <r>    5.4461    1.0000 </r>
       <r>    5.4703    1.0000 </r>
       <r>    5.4703    1.0000 </r>
       <r>    5.5133    1.0000 </r>
       <r>    5.5133    1.0000 </r>
       <r>    6.7167    1.0311 </r>
       <r>    6.7346    1.0232 </r>
       <r>    6.7897    0.9623 </r>
       <r>    7.1128   -0.0129 </r>
       <r>    7.1128   -0.0129 </r>
       <r>    7.1137   -0.0136 </r>
       <r>    7.1550   -0.0335 </r>
       <r>    7.1550   -0.0335 </r>
       <r>    7.1965   -0.0341 </r>
       <r>    7.6585   -0.0000 </r>
       <r>    7.6585   -0.0000 </r>
       <r>    7.6993   -0.0000 </r>
       <r>    7.6993   -0.0000 </r>
       <r>    7.6997   -0.0000 </r>
       <r>    7.6997   -0.0000 </r>
       <r>    8.5047   -0.0000 </r>
       <r>    8.5047   -0.0000 </r>
       <r>    8.5571   -0.0000 </r>
       <r>    8.5571   -0.0000 </r>
       <r>    9.1052   -0.0000 </r>
       <r>    9.1052   -0.0000 </r>
       <r>    9.1052   -0.0000 </r>
       <r>    9.1052   -0.0000 </r>
       <r>    9.1256   -0.0000 </r>
       <r>    9.1256   -0.0000 </r>
       <r>    9.1544   -0.0000 </r>
       <r>    9.1544   -0.0000 </r>
       <r>    9.1544   -0.0000 </r>
       <r>    9.1544   -0.0000 </r>
       <r>    9.1834   -0.0000 </r>
       <r>    9.1834   -0.0000 </r>
       <r>    9.2612   -0.0000 </r>
       <r>    9.2980   -0.0000 </r>
       <r>    9.3215   -0.0000 </r>
       <r>    9.7034   -0.0000 </r>
       <r>    9.7071   -0.0000 </r>
       <r>    9.7111   -0.0000 </r>
      </set>
      <set comment="kpoint 2">
       <r>   -5.5960    1.0000 </r>
       <r>   -5.5960    1.0000 </r>
       <r>   -4.4570    1.0000 </r>
       <r>   -4.4570    1.0000 </r>
       <r>   -4.4506    1.0000 </r>
       <r>   -4.4506    1.0000 </r>
       <r>   -4.4506    1.0000 </r>
       <r>   -4.4506    1.0000 </r>
       <r>   -4.4441    1.0000 </r>
       <r>   -4.4441    1.0000 </r>
       <r>   -3.5145    1.0000 </r>
       <r>   -3.5145    1.0000 </r>
       <r>   -3.5145    1.0000 </r>
       <r>   -3.5145    1.0000 </r>
       <r>   -3.4989    1.0000 </r>
       <r>   -3.4989    1.0000 </r>
       <r>   -3.4988    1.0000 </r>
       <r>   -3.4988    1.0000 </r>
       <r>   -3.2812    1.0000 </r>
       <r>   -3.2812    1.0000 </r>
       <r>   -2.4840    1.0000 </r>
       <r>   -2.4840    1.0000 </r>
       <r>   -2.4678    1.0000 </r>
       <r>   -2.4678    1.0000 </r>
       <r>   -2.4678    1.0000 </r>
       <r>   -2.4678    1.0000 </r>
       <r>   -2.4516    1.0000 </r>
       <r>   -2.4516    1.0000 </r>
       <r>   -1.3117    1.0000 </r>
       <r>   -1.3117    1.0000 </r>
       <r>   -1.3102    1.0000 </r>
       <r>   -1.3102    1.0000 </r>
       <r>   -1.2934    1.0000 </r>
       <r>   -1.2934    1.0000 </r>
       <r>   -1.2916    1.0000 </r>
       <r>   -1.2916    1.0000 </r>
       <r>   -0.0616    1.0000 </r>
       <r>   -0.0616    1.0000 </r>
       <r>   -0.0593    1.0000 </r>
       <r>   -0.0593    1.0000 </r>
       <r>   -0.0593    1.0000 </r>
       <r>   -0.0593    1.0000 </r>
       <r>   -0.0572    1.0000 </r>
       <r>   -0.0572    1.0000 </r>
       <r>   -0.0367    1.0000 </r>
       <r>   -0.0367    1.0000 </r>
       <r>   -0.0367    1.0000 </r>
       <r>   -0.0367    1.0000 </r>
       <r>   -0.0138    1.0000 </r>
       <r>   -0.0138    1.0000 </r>
       <r>   -0.0138    1.0000 </r>
       <r>   -0.0138    1.0000 </r>
       <r>    0.8807    1.0000 </r>
       <r>    0.8807    1.0000 </r>
       <r>    2.0236    1.0000 </r>
       <r>    2.0236    1.0000 </r>
       <r>    2.0262    1.0000 </r>
       <r>    2.0262    1.0000 </r>
       <r>    2.0262    1.0000 </r>
       <r>    2.0262    1.0000 </r>
       <r>    2.0287    1.0000 </r>
       <r>    2.0287    1.0000 </r>
       <r>    2.3358    1.0000 </r>
       <r>    2.3358    1.0000 </r>
       <r>    2.3442    1.0000 </r>
       <r>    2.3442    1.0000 </r>
       <r>    2.3443    1.0000 </r>
       <r>    2.3443    1.0000 </r>
       <r>    2.3537    1.0000 </r>
       <r>    2.3537    1.0000 </r>
       <r>    2.9279    1.0000 </r>
       <r>    2.9279    1.0000 </r>
       <r>    2.9511    1.0000 </r>
       <r>    2.9511    1.0000 </r>
       <r>    2.9558    1.0000 </r>
       <r>    2.9558    1.0000 </r>
       <r>    2.9792    1.0000 </r>
       <r>    2.9792    1.0000 </r>
       <r>    3.7218    1.0000 </r>
       <r>    3.7218    1.0000 </r>
       <r>    3.7302    1.0000 </r>
       <r>    3.7302    1.0000 </r>
       <r>    3.7303    1.0000 </r>
       <r>    3.7303    1.0000 </r>
       <r>    3.7378    1.0000 </r>
       <r>    3.7378    1.0000 </r>
       <r>    3.8640    1.0000 </r>
       <r>    3.8640    1.0000 </r>
       <r>    3.8640    1.0000 </r>
       <r>    3.8640    1.0000 </r>
       <r>    3.8743    1.0000 </r>
       <r>    3.8743    1.0000 </r>
       <r>    3.8947    1.0000 </r>
       <r>    3.8947    1.0000 </r>
       <r>    3.8947    1.0000 </r>
       <r>    3.8947    1.0000 </r>
       <r>    3.9152    1.0000 </r>
       <r>    3.9152    1.0000 </r>
       <r>    4.0940    1.0000 </r>
       <r>    4.0940    1.0000 </r>
       <r>    4.0940    1.0000 </r>
       <r>    4.0940    1.0000 </r>
       <r>    4.1362    1.0000 </r>
       <r>    4.1362    1.0000 </r>
       <r>    4.1362    1.0000 </r>
       <r>    4.1362    1.0000 </r>
       <r>    5.1797    1.0000 </r>
       <r>    5.1797    1.0000 </r>
       <r>    5.1953    1.0000 </r>
       <r>    5.1953    1.0000 </r>
       <r>    5.1953    1.0000 </r>
       <r>    5.1953    1.0000 </r>
       <r>    5.2113    1.0000 </r>
       <r>    5.2113    1.0000 </r>
       <r>    5.3463    1.0000 </r>
       <r>    5.3463    1.0000 </r>
       <r>    5.3463    1.0000 </r>
       <r>    5.3463    1.0000 </r>
       <r>    5.3600    1.0000 </r>
       <r>    5.3600    1.0000 </r>
       <r>    5.3600    1.0000 </r>
       <r>    5.3600    1.0000 </r>
       <r>    5.5044    1.0000 </r>
       <r>    5.5044    1.0000 </r>
       <r>    5.8254    1.0000 </r>
       <r>    5.8254    1.0000 </r>
       <r>    5.8277    1.0000 </r>
       <r>    5.8277    1.0000 </r>
       <r>    7.0588    0.0634 </r>
       <r>    7.0588    0.0634 </r>
       <r>    7.9675   -0.0000 </r>
       <r>    7.9675   -0.0000 </r>
       <r>    8.5167   -0.0000 </r>
       <r>    8.5167   -0.0000 </r>
       <r>    8.5616   -0.0000 </r>
       <r>    8.5616   -0.0000 </r>
       <r>    8.5733   -0.0000 </r>
       <r>    8.5733   -0.0000 </r>
       <r>    8.6184   -0.0000 </r>
       <r>    8.6184   -0.0000 </r>
       <r>    8.6545   -0.0000 </r>
       <r>    8.6545   -0.0000 </r>
       <r>    9.1446   -0.0000 </r>
       <r>    9.1446   -0.0000 </r>
       <r>    9.1599   -0.0000 </r>
[...]
      </set>
     </set>
    </set>
   </array>
  </eigenvalues>
  <separator name="orbital magnetization" >
   <v name="MAGDIPOLOUT">      0.00000000      0.00000000      0.00000000</v>
  </separator>
  <dos>
   <i name="efermi">      6.93106155 </i>
   <total>
    <array>
     <dimension dim="1">gridpoints</dimension>
     <dimension dim="2">spin</dimension>
     <field>energy</field>
     <field>total</field>
     <field>integrated</field>
     <set>
      <set comment="spin 1">
       <r>    -7.8935     0.0000     0.0000 </r>
       <r>    -7.8263     0.0000     0.0000 </r>
       <r>    -7.7592     0.0000     0.0000 </r>
       <r>    -7.6920     0.0000     0.0000 </r>
       <r>    -7.6248     0.0000     0.0000 </r>
       <r>    -7.5576    -0.0000    -0.0000 </r>
       <r>    -7.4905    -0.0000    -0.0000 </r>
       <r>    -7.4233    -0.0000    -0.0000 </r>
       <r>    -7.3561    -0.0000    -0.0000 </r>
       <r>    -7.2889    -0.0000    -0.0000 </r>
       <r>    -7.2217    -0.0000    -0.0000 </r>
       <r>    -7.1546    -0.0000    -0.0000 </r>
       <r>    -7.0874    -0.0000    -0.0000 </r>
       <r>    -7.0202    -0.0000    -0.0000 </r>
       <r>    -6.9530    -0.0000    -0.0000 </r>
       <r>    -6.8859    -0.0000    -0.0000 </r>
       <r>    -6.8187    -0.0000    -0.0000 </r>
       <r>    -6.7515    -0.0000    -0.0000 </r>
       <r>    -6.6843    -0.0000    -0.0000 </r>
       <r>    -6.6172    -0.0000    -0.0000 </r>
       <r>    -6.5500    -0.0001    -0.0000 </r>
       <r>    -6.4828    -0.0004    -0.0000 </r>
       <r>    -6.4156    -0.0021    -0.0002 </r>
       <r>    -6.3485    -0.0085    -0.0007 </r>
       <r>    -6.2813    -0.0251    -0.0024 </r>
       <r>    -6.2141    -0.0504    -0.0058 </r>
       <r>    -6.1469    -0.0524    -0.0093 </r>
       <r>    -6.0797     0.0395    -0.0067 </r>
       <r>    -6.0126     0.2653     0.0111 </r>
       <r>    -5.9454     0.5284     0.0466 </r>
       <r>    -5.8782     0.6898     0.0930 </r>
       <r>    -5.8110     0.9283     0.1553 </r>
       <r>    -5.7439     1.7993     0.2762 </r>
       <r>    -5.6767     3.4769     0.5098 </r>
       <r>    -5.6095     5.0929     0.8519 </r>
       <r>    -5.5423     5.7011     1.2349 </r>
       <r>    -5.4752     5.9621     1.6354 </r>
       <r>    -5.4080     7.5406     2.1419 </r>
       <r>    -5.3408    10.3186     2.8351 </r>
       <r>    -5.2736    11.8586     3.6317 </r>
       <r>    -5.2065    10.7109     4.3512 </r>
       <r>    -5.1393     8.5599     4.9263 </r>
       <r>    -5.0721     7.6216     5.4383 </r>
       <r>    -5.0049     7.5400     5.9448 </r>
       <r>    -4.9377     6.6576     6.3920 </r>
       <r>    -4.8706     5.0014     6.7280 </r>
       <r>    -4.8034     4.0006     6.9967 </r>
       <r>    -4.7362     4.1861     7.2779 </r>
       <r>    -4.6690     5.3692     7.6386 </r>
       <r>    -4.6019     8.5178     8.2108 </r>
       <r>    -4.5347    14.6097     9.1922 </r>
       <r>    -4.4675    21.4347    10.6321 </r>
       <r>    -4.4003    25.0120    12.3124 </r>
       <r>    -4.3332    25.0535    13.9954 </r>
       <r>    -4.2660    24.9884    15.6740 </r>
       <r>    -4.1988    25.5089    17.3876 </r>
       <r>    -4.1316    22.8875    18.9251 </r>
       <r>    -4.0645    15.2224    19.9477 </r>
       <r>    -3.9973     5.9397    20.3467 </r>
       <r>    -3.9301    -0.3027    20.3264 </r>
       <r>    -3.8629    -1.7754    20.2071 </r>
       <r>    -3.7957     0.9958    20.2740 </r>
       <r>    -3.7286     7.1668    20.7554 </r>
       <r>    -3.6614    15.6135    21.8043 </r>
       <r>    -3.5942    24.1398    23.4259 </r>
       <r>    -3.5270    29.5267    25.4094 </r>
       <r>    -3.4599    29.1954    27.3706 </r>
       <r>    -3.3927    23.6490    28.9593 </r>
       <r>    -3.3255    16.6940    30.0807 </r>
       <r>    -3.2583    12.7367    30.9364 </r>
       <r>    -3.1912    14.3351    31.8993 </r>
       <r>    -3.1240    21.2334    33.3257 </r>
       <r>    -3.0568    30.1294    35.3497 </r>
       <r>    -2.9896    36.4388    37.7975 </r>
       <r>    -2.9225    37.8016    40.3369 </r>
       <r>    -2.8553    35.5449    42.7247 </r>
       <r>    -2.7881    32.3166    44.8956 </r>
       <r>    -2.7209    29.1098    46.8511 </r>
       <r>    -2.6537    25.8959    48.5907 </r>
       <r>    -2.5866    24.0347    50.2053 </r>
       <r>    -2.5194    24.5940    51.8574 </r>
       <r>    -2.4522    24.7937    53.5230 </r>
       <r>    -2.3850    20.4664    54.8978 </r>
       <r>    -2.3179    11.9288    55.6992 </r>
       <r>    -2.2507     3.7564    55.9515 </r>
       <r>    -2.1835    -0.7316    55.9024 </r>
       <r>    -2.1163    -1.9114    55.7740 </r>
       <r>    -2.0492    -1.4283    55.6780 </r>
       <r>    -1.9820     0.3532    55.7017 </r>
       <r>    -1.9148     3.9913    55.9699 </r>
       <r>    -1.8476     8.7808    56.5597 </r>
       <r>    -1.7805    11.9126    57.3600 </r>
       <r>    -1.7133    10.8069    58.0859 </r>
       <r>    -1.6461     6.1381    58.4983 </r>
       <r>    -1.5789     1.7238    58.6141 </r>
       <r>    -1.5117     1.7212    58.7297 </r>
       <r>    -1.4446     8.1782    59.2791 </r>
       <r>    -1.3774    19.6850    60.6014 </r>
       <r>    -1.3102    31.1144    62.6916 </r>
       <r>    -1.2430    36.0804    65.1153 </r>
       <r>    -1.1759    31.5924    67.2376 </r>
       <r>    -1.1087    20.4567    68.6118 </r>
       <r>    -1.0415     8.8957    69.2094 </r>
       <r>    -0.9743     2.2710    69.3619 </r>
       <r>    -0.9072     2.5396    69.5325 </r>
       <r>    -0.8400     7.7565    70.0536 </r>
       <r>    -0.7728    13.1269    70.9354 </r>
       <r>    -0.7056    14.4605    71.9068 </r>
       <r>    -0.6385    12.4347    72.7421 </r>
       <r>    -0.5713    12.1781    73.5602 </r>
       <r>    -0.5041    16.6763    74.6805 </r>
       <r>    -0.4369    21.8191    76.1462 </r>
       <r>    -0.3697    20.8048    77.5438 </r>
       <r>    -0.3026    13.4465    78.4471 </r>
       <r>    -0.2354     8.6003    79.0248 </r>
       <r>    -0.1682    16.0659    80.1041 </r>
       <r>    -0.1010    36.1107    82.5299 </r>
       <r>    -0.0339    57.1653    86.3700 </r>
       <r>     0.0333    64.9186    90.7310 </r>
       <r>     0.1005    54.4705    94.3902 </r>
       <r>     0.1677    33.2263    96.6222 </r>
       <r>     0.2348    12.8810    97.4875 </r>
       <r>     0.3020     0.4642    97.5187 </r>
       <r>     0.3692    -3.3468    97.2939 </r>
       <r>     0.4364    -0.3030    97.2735 </r>
       <r>     0.5035     7.9211    97.8056 </r>
       <r>     0.5707    18.0559    99.0185 </r>
       <r>     0.6379    24.4060   100.6581 </r>
       <r>     0.7051    23.0520   102.2066 </r>
       <r>     0.7723    16.0121   103.2822 </r>
       <r>     0.8394     9.0117   103.8876 </r>
       <r>     0.9066     6.4548   104.3212 </r>
       <r>     0.9738     9.9595   104.9903 </r>
       <r>     1.0410    18.7800   106.2518 </r>
       <r>     1.1081    28.8290   108.1885 </r>
       <r>     1.1753    33.4906   110.4383 </r>
       <r>     1.2425    28.7811   112.3717 </r>
       <r>     1.3097    17.4789   113.5458 </r>
       <r>     1.3768     6.3997   113.9757 </r>
       <r>     1.4440     0.0666   113.9802 </r>
       <r>     1.5112    -1.7999   113.8593 </r>
       <r>     1.5784    -1.8022   113.7382 </r>
       <r>     1.6455    -1.7549   113.6204 </r>
       <r>     1.7127    -1.4874   113.5204 </r>
       <r>     1.7799     0.9514   113.5843 </r>
       <r>     1.8471     7.8567   114.1121 </r>
       <r>     1.9143    18.9668   115.3863 </r>
       <r>     1.9814    29.4069   117.3617 </r>
       <r>     2.0486    32.4465   119.5413 </r>
       <r>     2.1158    26.4078   121.3153 </r>
       <r>     2.1830    18.0315   122.5266 </r>
       <r>     2.2501    16.4810   123.6338 </r>
       <r>     2.3173    23.7404   125.2286 </r>
       <r>     2.3845    33.0155   127.4464 </r>
       <r>     2.4517    36.8051   129.9189 </r>
       <r>     2.5188    33.6661   132.1804 </r>
       <r>     2.5860    26.4773   133.9591 </r>
       <r>     2.6532    18.7249   135.2170 </r>
       <r>     2.7204    15.4195   136.2528 </r>
       <r>     2.7875    23.2997   137.8180 </r>
       <r>     2.8547    44.5738   140.8123 </r>
       <r>     2.9219    70.4804   145.5469 </r>
       <r>     2.9891    84.8233   151.2450 </r>
       <r>     3.0563    77.0966   156.4241 </r>
       <r>     3.1234    52.2664   159.9352 </r>
       <r>     3.1906    25.5524   161.6517 </r>
       <r>     3.2578     8.0509   162.1925 </r>
       <r>     3.3250     0.1157   162.2003 </r>
       <r>     3.3921    -2.6633   162.0214 </r>
       <r>     3.4593    -1.5325   161.9184 </r>
       <r>     3.5265     6.3640   162.3460 </r>
       <r>     3.5937    22.7312   163.8730 </r>
       <r>     3.6608    43.1018   166.7684 </r>
       <r>     3.7280    58.6971   170.7114 </r>
       <r>     3.7952    64.2626   175.0284 </r>
       <r>     3.8624    62.2612   179.2109 </r>
       <r>     3.9295    58.5222   183.1422 </r>
       <r>     3.9967    55.8088   186.8912 </r>
       <r>     4.0639    52.5099   190.4187 </r>
       <r>     4.1311    47.0637   193.5802 </r>
       <r>     4.1983    42.5616   196.4394 </r>
       <r>     4.2654    43.5359   199.3640 </r>
       <r>     4.3326    47.3672   202.5459 </r>
       <r>     4.3998    44.8701   205.5601 </r>
       <r>     4.4670    32.4066   207.7371 </r>
       <r>     4.5341    17.8858   208.9386 </r>
       <r>     4.6013    11.7738   209.7295 </r>
       <r>     4.6685    16.4813   210.8367 </r>
       <r>     4.7357    26.4808   212.6156 </r>
       <r>     4.8028    35.2435   214.9831 </r>
       <r>     4.8700    39.9326   217.6656 </r>
       <r>     4.9372    40.9535   220.4167 </r>
       <r>     5.0044    39.5464   223.0733 </r>
       <r>     5.0715    37.2737   225.5772 </r>
       <r>     5.1387    36.5319   228.0313 </r>
       <r>     5.2059    39.1352   230.6603 </r>
       <r>     5.2731    44.2793   233.6348 </r>
       <r>     5.3403    48.5684   236.8975 </r>
       <r>     5.4074    47.7186   240.1030 </r>
       <r>     5.4746    39.2158   242.7374 </r>
       <r>     5.5418    24.9825   244.4157 </r>
       <r>     5.6090    11.1353   245.1637 </r>
       <r>     5.6761     4.1205   245.4405 </r>
       <r>     5.7433     6.5369   245.8796 </r>
       <r>     5.8105    15.4565   246.9179 </r>
       <r>     5.8777    23.9508   248.5269 </r>
       <r>     5.9448    25.6438   250.2495 </r>
       <r>     6.0120    19.4529   251.5563 </r>
       <r>     6.0792     9.8085   252.2152 </r>
       <r>     6.1464     2.1600   252.3603 </r>
       <r>     6.2135    -0.8602   252.3025 </r>
       <r>     6.2807     0.6169   252.3440 </r>
       <r>     6.3479     5.0953   252.6863 </r>
       <r>     6.4151     9.9421   253.3541 </r>
       <r>     6.4823    12.0572   254.1641 </r>
       <r>     6.5494    10.2575   254.8531 </r>
       <r>     6.6166     6.4805   255.2885 </r>
       <r>     6.6838     3.5214   255.5250 </r>
       <r>     6.7510     2.2079   255.6734 </r>
       <r>     6.8181     1.6558   255.7846 </r>
       <r>     6.8853     1.5383   255.8879 </r>
       <r>     6.9525     2.8544   256.0797 </r>
       <r>     7.0197     6.2268   256.4980 </r>
       <r>     7.0868    10.1232   257.1780 </r>
       <r>     7.1540    11.6700   257.9620 </r>
       <r>     7.2212     9.4769   258.5986 </r>
       <r>     7.2884     4.9970   258.9343 </r>
       <r>     7.3555     0.8943   258.9943 </r>
       <r>     7.4227    -0.9800   258.9285 </r>
       <r>     7.4899     0.3021   258.9488 </r>
       <r>     7.5571     5.0312   259.2868 </r>
       <r>     7.6243    11.6595   260.0700 </r>
       <r>     7.6914    16.2893   261.1643 </r>
       <r>     7.7586    15.9568   262.2362 </r>
       <r>     7.8258    12.9080   263.1033 </r>
       <r>     7.8930    13.2054   263.9904 </r>
       <r>     7.9601    19.5416   265.3031 </r>
       <r>     8.0273    26.9581   267.1141 </r>
       <r>     8.0945    27.6538   268.9718 </r>
       <r>     8.1617    19.3946   270.2746 </r>
       <r>     8.2288     7.6018   270.7853 </r>
       <r>     8.2960     0.3855   270.8112 </r>
       <r>     8.3632     3.6066   271.0535 </r>
       <r>     8.4304    18.3596   272.2868 </r>
       <r>     8.4975    38.6712   274.8846 </r>
       <r>     8.5647    52.5213   278.4128 </r>
       <r>     8.6319    50.3841   281.7974 </r>
       <r>     8.6991    34.3901   284.1076 </r>
       <r>     8.7663    16.8814   285.2417 </r>
       <r>     8.8334     9.7014   285.8934 </r>
       <r>     8.9006    16.0822   286.9737 </r>
       <r>     8.9678    32.0122   289.1242 </r>
       <r>     9.0350    52.4878   292.6501 </r>
       <r>     9.1021    73.1371   297.5632 </r>
       <r>     9.1693    86.3235   303.3621 </r>
       <r>     9.2365    82.6782   308.9161 </r>
       <r>     9.3037    61.3804   313.0395 </r>
       <r>     9.3708    34.4188   315.3516 </r>
       <r>     9.4380    15.9933   316.4260 </r>
       <r>     9.5052    10.6784   317.1433 </r>
       <r>     9.5724    14.0188   318.0850 </r>
       <r>     9.6395    19.7207   319.4098 </r>
       <r>     9.7067    22.9231   320.9497 </r>
       <r>     9.7739    20.6786   322.3388 </r>
       <r>     9.8411    13.5769   323.2509 </r>
       <r>     9.9083     5.6116   323.6278 </r>
       <r>     9.9754     0.5012   323.6615 </r>
       <r>    10.0426    -1.0684   323.5897 </r>
       <r>    10.1098    -0.4962   323.5564 </r>
       <r>    10.1770     0.7497   323.6068 </r>
       <r>    10.2441     1.7548   323.7246 </r>
       <r>    10.3113     2.0120   323.8598 </r>
       <r>    10.3785     1.5078   323.9611 </r>
       <r>    10.4457     0.7116   324.0089 </r>
       <r>    10.5128     0.1287   324.0175 </r>
       <r>    10.5800    -0.0935   324.0113 </r>
       <r>    10.6472    -0.0974   324.0047 </r>
       <r>    10.7144    -0.0487   324.0014 </r>
       <r>    10.7815    -0.0165   324.0003 </r>
       <r>    10.8487    -0.0041   324.0001 </r>
       <r>    10.9159    -0.0008   324.0000 </r>
       <r>    10.9831    -0.0001   324.0000 </r>
       <r>    11.0503    -0.0000   324.0000 </r>
       <r>    11.1174    -0.0000   324.0000 </r>
       <r>    11.1846    -0.0000   324.0000 </r>
       <r>    11.2518    -0.0000   324.0000 </r>
       <r>    11.3190    -0.0000   324.0000 </r>
       <r>    11.3861    -0.0000   324.0000 </r>
       <r>    11.4533    -0.0000   324.0000 </r>
       <r>    11.5205    -0.0000   324.0000 </r>
       <r>    11.5877     0.0000   324.0000 </r>
       <r>    11.6548     0.0000   324.0000 </r>
       <r>    11.7220     0.0000   324.0000 </r>
       <r>    11.7892     0.0000   324.0000 </r>
       <r>    11.8564     0.0000   324.0000 </r>
       <r>    11.9235     0.0000   324.0000 </r>
       <r>    11.9907     0.0000   324.0000 </r>
       <r>    12.0579     0.0000   324.0000 </r>
       <r>    12.1251     0.0000   324.0000 </r>
       <r>    12.1923     0.0000   324.0000 </r>
       <r>    12.2594     0.0000   324.0000 </r>
      </set>
     </set>
    </array>
   </total>
  </dos>
 </calculation>
 <structure name="finalpos" >
  <crystal>
   <varray name="basis" >
    <v>      10.50413255      -0.02639200       0.00000000 </v>
    <v>      -0.02639200      10.55691756       0.00000000 </v>
    <v>       0.00000000       0.00000000      10.55691756 </v>
   </varray>
   <i name="volume">   1170.66255104 </i>
   <varray name="rec_basis" >
    <v>       0.09520122       0.00023800       0.00000000 </v>
    <v>       0.00023800       0.09472521       0.00000000 </v>
    <v>       0.00000000       0.00000000       0.09472462 </v>
   </varray>
  </crystal>
  <varray name="positions" >
   <v>       0.00000000       0.00000000       0.99978103 </v>
   <v>       0.00000000       0.00000000       0.49978103 </v>
   <v>       0.00000000       0.50000000       0.99978103 </v>
   <v>       0.00000000       0.50000000       0.49978103 </v>
   <v>       0.50000000       0.00000000       0.99978103 </v>
   <v>       0.50000000       0.00000000       0.49978103 </v>
   <v>       0.50000000       0.50000000       0.99978103 </v>
   <v>       0.50000000       0.50000000       0.49978103 </v>
   <v>       0.37500000       0.37500000       0.12521897 </v>
   <v>       0.37500000       0.37500000       0.62521897 </v>
   <v>       0.37500000       0.87500000       0.12521897 </v>
   <v>       0.37500000       0.87500000       0.62521897 </v>
   <v>       0.87500000       0.37500000       0.12521897 </v>
   <v>       0.87500000       0.37500000       0.62521897 </v>
   <v>       0.87500000       0.87500000       0.12521897 </v>
   <v>       0.87500000       0.87500000       0.62521897 </v>
   <v>       0.00000000       0.25000000       0.24978103 </v>
   <v>       0.00000000       0.25000000       0.74978103 </v>
   <v>       0.00000000       0.75000000       0.24978103 </v>
   <v>       0.00000000       0.75000000       0.74978103 </v>
   <v>       0.50000000       0.25000000       0.24978103 </v>
   <v>       0.50000000       0.25000000       0.74978103 </v>
   <v>       0.50000000       0.75000000       0.24978103 </v>
   <v>       0.50000000       0.75000000       0.74978103 </v>
   <v>       0.37500000       0.12500000       0.37521897 </v>
   <v>       0.37500000       0.12500000       0.87521897 </v>
   <v>       0.37500000       0.62500000       0.37521897 </v>
   <v>       0.37500000       0.62500000       0.87521897 </v>
   <v>       0.87500000       0.12500000       0.37521897 </v>
   <v>       0.87500000       0.12500000       0.87521897 </v>
   <v>       0.87500000       0.62500000       0.37521897 </v>
   <v>       0.87500000       0.62500000       0.87521897 </v>
   <v>       0.25000000       0.00000000       0.24978103 </v>
   <v>       0.25000000       0.00000000       0.74978103 </v>
   <v>       0.25000000       0.50000000       0.24978103 </v>
   <v>       0.25000000       0.50000000       0.74978103 </v>
   <v>       0.75000000       0.00000000       0.24978103 </v>
   <v>       0.75000000       0.00000000       0.74978103 </v>
   <v>       0.75000000       0.50000000       0.24978103 </v>
   <v>       0.75000000       0.50000000       0.74978103 </v>
   <v>       0.12500000       0.37500000       0.37521897 </v>
   <v>       0.12500000       0.37500000       0.87521897 </v>
   <v>       0.12500000       0.87500000       0.37521897 </v>
   <v>       0.12500000       0.87500000       0.87521897 </v>
   <v>       0.62500000       0.37500000       0.37521897 </v>
   <v>       0.62500000       0.37500000       0.87521897 </v>
   <v>       0.62500000       0.87500000       0.37521897 </v>
   <v>       0.62500000       0.87500000       0.87521897 </v>
   <v>       0.25000000       0.25000000       0.99978103 </v>
   <v>       0.25000000       0.25000000       0.49978103 </v>
   <v>       0.25000000       0.75000000       0.99978103 </v>
   <v>       0.25000000       0.75000000       0.49978103 </v>
   <v>       0.75000000       0.25000000       0.99978103 </v>
   <v>       0.75000000       0.25000000       0.49978103 </v>
   <v>       0.75000000       0.75000000       0.99978103 </v>
   <v>       0.75000000       0.75000000       0.49978103 </v>
   <v>       0.12500000       0.12500000       0.12521897 </v>
   <v>       0.12500000       0.12500000       0.62521897 </v>
   <v>       0.12500000       0.62500000       0.12521897 </v>
   <v>       0.12500000       0.62500000       0.62521897 </v>
   <v>       0.62500000       0.12500000       0.12521897 </v>
   <v>       0.62500000       0.12500000       0.62521897 </v>
   <v>       0.62500000       0.62500000       0.12521897 </v>
   <v>       0.62500000       0.62500000       0.62521897 </v>
  </varray>
 </structure>
</modeling>
