Si64                                    
           1
    10.504133   -0.026392    0.000000
    -0.026392   10.556918    0.000000
     0.000000    0.000000   10.556918
   Si
    64
Direct configuration=     1
   0.00000000  0.00000000  0.00000000
   0.00000000  0.00000000  0.50000000
   0.00000000  0.50000000  0.00000000
   0.00000000  0.50000000  0.50000000
   0.50000000  0.00000000  0.00000000
   0.50000000  0.00000000  0.50000000
   0.50000000  0.50000000  0.00000000
   0.50000000  0.50000000  0.50000000
   0.37500000  0.37500000  0.12500000
   0.37500000  0.37500000  0.62500000
   0.37500000  0.87500000  0.12500000
   0.37500000  0.87500000  0.62500000
   0.87500000  0.37500000  0.12500000
   0.87500000  0.37500000  0.62500000
   0.87500000  0.87500000  0.12500000
   0.87500000  0.87500000  0.62500000
   0.00000000  0.25000000  0.25000000
   0.00000000  0.25000000  0.75000000
   0.00000000  0.75000000  0.25000000
   0.00000000  0.75000000  0.75000000
   0.50000000  0.25000000  0.25000000
   0.50000000  0.25000000  0.75000000
   0.50000000  0.75000000  0.25000000
   0.50000000  0.75000000  0.75000000
   0.37500000  0.12500000  0.37500000
   0.37500000  0.12500000  0.87500000
   0.37500000  0.62500000  0.37500000
   0.37500000  0.62500000  0.87500000
   0.87500000  0.12500000  0.37500000
   0.87500000  0.12500000  0.87500000
   0.87500000  0.62500000  0.37500000
   0.87500000  0.62500000  0.87500000
   0.25000000  0.00000000  0.25000000
   0.25000000  0.00000000  0.75000000
   0.25000000  0.50000000  0.25000000
   0.25000000  0.50000000  0.75000000
   0.75000000  0.00000000  0.25000000
   0.75000000  0.00000000  0.75000000
   0.75000000  0.50000000  0.25000000
   0.75000000  0.50000000  0.75000000
   0.12500000  0.37500000  0.37500000
   0.12500000  0.37500000  0.87500000
   0.12500000  0.87500000  0.37500000
   0.12500000  0.87500000  0.87500000
   0.62500000  0.37500000  0.37500000
   0.62500000  0.37500000  0.87500000
   0.62500000  0.87500000  0.37500000
   0.62500000  0.87500000  0.87500000
   0.25000000  0.25000000  0.00000000
   0.25000000  0.25000000  0.50000000
   0.25000000  0.75000000  0.00000000
   0.25000000  0.75000000  0.50000000
   0.75000000  0.25000000  0.00000000
   0.75000000  0.25000000  0.50000000
   0.75000000  0.75000000  0.00000000
   0.75000000  0.75000000  0.50000000
   0.12500000  0.12500000  0.12500000
   0.12500000  0.12500000  0.62500000
   0.12500000  0.62500000  0.12500000
   0.12500000  0.62500000  0.62500000
   0.62500000  0.12500000  0.12500000
   0.62500000  0.12500000  0.62500000
   0.62500000  0.62500000  0.12500000
   0.62500000  0.62500000  0.62500000
Direct configuration=     2
   1.00000000  1.00000000  0.99966882
   1.00000000  0.00000000  0.49966882
   1.00000000  0.50000000  0.99966882
   0.00000000  0.50000000  0.49966882
   0.50000000  1.00000000  0.99966882
   0.50000000  1.00000000  0.49966882
   0.50000000  0.50000000  0.99966882
   0.50000000  0.50000000  0.49966882
   0.37500000  0.37500000  0.12533118
   0.37500000  0.37500000  0.62533118
   0.37500000  0.87500000  0.12533118
   0.37500000  0.87500000  0.62533118
   0.87500000  0.37500000  0.12533118
   0.87500000  0.37500000  0.62533118
   0.87500000  0.87500000  0.12533118
   0.87500000  0.87500000  0.62533118
   1.00000000  0.25000000  0.24966882
   0.00000000  0.25000000  0.74966882
   1.00000000  0.75000000  0.24966882
   0.00000000  0.75000000  0.74966882
   0.50000000  0.25000000  0.24966882
   0.50000000  0.25000000  0.74966882
   0.50000000  0.75000000  0.24966882
   0.50000000  0.75000000  0.74966882
   0.37500000  0.12500000  0.37533118
   0.37500000  0.12500000  0.87533118
   0.37500000  0.62500000  0.37533118
   0.37500000  0.62500000  0.87533118
   0.87500000  0.12500000  0.37533118
   0.87500000  0.12500000  0.87533118
   0.87500000  0.62500000  0.37533118
   0.87500000  0.62500000  0.87533118
   0.25000000  1.00000000  0.24966882
   0.25000000  1.00000000  0.74966882
   0.25000000  0.50000000  0.24966882
   0.25000000  0.50000000  0.74966882
   0.75000000  1.00000000  0.24966882
   0.75000000  0.00000000  0.74966882
   0.75000000  0.50000000  0.24966882
   0.75000000  0.50000000  0.74966882
   0.12500000  0.37500000  0.37533118
   0.12500000  0.37500000  0.87533118
   0.12500000  0.87500000  0.37533118
   0.12500000  0.87500000  0.87533118
   0.62500000  0.37500000  0.37533118
   0.62500000  0.37500000  0.87533118
   0.62500000  0.87500000  0.37533118
   0.62500000  0.87500000  0.87533118
   0.25000000  0.25000000  0.99966882
   0.25000000  0.25000000  0.49966882
   0.25000000  0.75000000  0.99966882
   0.25000000  0.75000000  0.49966882
   0.75000000  0.25000000  0.99966882
   0.75000000  0.25000000  0.49966882
   0.75000000  0.75000000  0.99966882
   0.75000000  0.75000000  0.49966882
   0.12500000  0.12500000  0.12533118
   0.12500000  0.12500000  0.62533118
   0.12500000  0.62500000  0.12533118
   0.12500000  0.62500000  0.62533118
   0.62500000  0.12500000  0.12533118
   0.62500000  0.12500000  0.62533118
   0.62500000  0.62500000  0.12533118
   0.62500000  0.62500000  0.62533118
Direct configuration=     3
   0.00000000  0.00000000  0.99978103
   0.00000000  0.00000000  0.49978103
   0.00000000  0.50000000  0.99978103
   0.00000000  0.50000000  0.49978103
   0.50000000  0.00000000  0.99978103
   0.50000000  0.00000000  0.49978103
   0.50000000  0.50000000  0.99978103
   0.50000000  0.50000000  0.49978103
   0.37500000  0.37500000  0.12521897
   0.37500000  0.37500000  0.62521897
   0.37500000  0.87500000  0.12521897
   0.37500000  0.87500000  0.62521897
   0.87500000  0.37500000  0.12521897
   0.87500000  0.37500000  0.62521897
   0.87500000  0.87500000  0.12521897
   0.87500000  0.87500000  0.62521897
   0.00000000  0.25000000  0.24978103
   0.00000000  0.25000000  0.74978103
   0.00000000  0.75000000  0.24978103
   0.00000000  0.75000000  0.74978103
   0.50000000  0.25000000  0.24978103
   0.50000000  0.25000000  0.74978103
   0.50000000  0.75000000  0.24978103
   0.50000000  0.75000000  0.74978103
   0.37500000  0.12500000  0.37521897
   0.37500000  0.12500000  0.87521897
   0.37500000  0.62500000  0.37521897
   0.37500000  0.62500000  0.87521897
   0.87500000  0.12500000  0.37521897
   0.87500000  0.12500000  0.87521897
   0.87500000  0.62500000  0.37521897
   0.87500000  0.62500000  0.87521897
   0.25000000  0.00000000  0.24978103
   0.25000000  0.00000000  0.74978103
   0.25000000  0.50000000  0.24978103
   0.25000000  0.50000000  0.74978103
   0.75000000  0.00000000  0.24978103
   0.75000000  0.00000000  0.74978103
   0.75000000  0.50000000  0.24978103
   0.75000000  0.50000000  0.74978103
   0.12500000  0.37500000  0.37521897
   0.12500000  0.37500000  0.87521897
   0.12500000  0.87500000  0.37521897
   0.12500000  0.87500000  0.87521897
   0.62500000  0.37500000  0.37521897
   0.62500000  0.37500000  0.87521897
   0.62500000  0.87500000  0.37521897
   0.62500000  0.87500000  0.87521897
   0.25000000  0.25000000  0.99978103
   0.25000000  0.25000000  0.49978103
   0.25000000  0.75000000  0.99978103
   0.25000000  0.75000000  0.49978103
   0.75000000  0.25000000  0.99978103
   0.75000000  0.25000000  0.49978103
   0.75000000  0.75000000  0.99978103
   0.75000000  0.75000000  0.49978103
   0.12500000  0.12500000  0.12521897
   0.12500000  0.12500000  0.62521897
   0.12500000  0.62500000  0.12521897
   0.12500000  0.62500000  0.62521897
   0.62500000  0.12500000  0.12521897
   0.62500000  0.12500000  0.62521897
   0.62500000  0.62500000  0.12521897
   0.62500000  0.62500000  0.62521897
