 vasp.6.4.3 19Mar24 (build Oct 21 2024 22:36:34) complex                        
  
 executed on             LinuxIFC date 2024.11.01  22:47:32
 running   96 mpi-ranks, on    1 nodes
 distrk:  each k-point on   24 cores,    4 groups
 distr:  one band on NCORE=  12 cores,    2 groups


--------------------------------------------------------------------------------------------------------


 INCAR:
   SYSTEM = Si64
   ISTART = 0
   ICHARG = 2
   LREAL = Auto
   PREC = Accurate
   LWAVE = .False.
   LCHARG = .False.
   ADDGRID = .True.
   ENCUT = 400
   GGA = PS
   GGA_COMPAT = .FALSE.
   ISMEAR = 1
   SIGMA = 0.2
   NELM = 60
   NELMIN = 8
   EDIFF = 1e-06
   EDIFFG = -0.01
   NSW = 60
   IBRION = 2
   ISIF = 2
   KPAR = 4
   NPAR = 2
   ALGO = Fast

 POTCAR:    PAW_PBE Si 05Jan2001                  
 POTCAR:    PAW_PBE Si 05Jan2001                  
   VRHFIN =Si: s2p2                                                                                 
   LEXCH  = PE                                                                                      
   EATOM  =   103.0669 eV,    7.5752 Ry                                                             
                                                                                                    
   TITEL  = PAW_PBE Si 05Jan2001                                                                    
   LULTRA =        F    use ultrasoft PP ?                                                          
   IUNSCR =        1    unscreen: 0-lin 1-nonlin 2-no                                               
   RPACOR =    1.500    partial core radius                                                         
   POMASS =   28.085; ZVAL   =    4.000    mass and valenz                                          
   RCORE  =    1.900    outmost cutoff radius                                                       
   RWIGS  =    2.480; RWIGS  =    1.312    wigner-seitz radius (au A)                               
   ENMAX  =  245.345; ENMIN  =  184.009 eV                                                          
   ICORE  =        2    local potential                                                             
   LCOR   =        T    correct aug charges                                                         
   LPAW   =        T    paw PP                                                                      
   EAUG   =  322.069                                                                                
   DEXC   =    0.000                                                                                
   RMAX   =    1.950    core radius for proj-oper                                                   
   RAUG   =    1.300    factor for augmentation sphere                                              
   RDEP   =    1.993    radius for radial grids                                                     
   RDEPT  =    1.837    core radius for aug-charge                                                  
                                                                                                    
   Atomic configuration                                                                             
    6 entries                                                                                       
     n  l   j            E        occ.                                                              
     1  0  0.50     -1785.8828   2.0000                                                             
     2  0  0.50      -139.4969   2.0000                                                             
     2  1  1.50       -95.5546   6.0000                                                             
     3  0  0.50       -10.8127   2.0000                                                             
     3  1  0.50        -4.0811   2.0000                                                             
     3  2  1.50        -4.0817   0.0000                                                             
   Description                                                                                      
     l       E           TYP  RCUT    TYP  RCUT                                                     
     0    -10.8127223     23  1.900                                                                 
     0     -7.6451159     23  1.900                                                                 
     1     -4.0811372     23  1.900                                                                 
     1      2.4879257     23  1.900                                                                 
     2     -4.0817478      7  1.900                                                                 
  local pseudopotential read in
  partial core-charges read in
  partial kinetic energy density read in
  atomic valenz-charges read in
  non local Contribution for L=           0  read in
    real space projection operators read in
  non local Contribution for L=           0  read in
    real space projection operators read in
  non local Contribution for L=           1  read in
    real space projection operators read in
  non local Contribution for L=           1  read in
    real space projection operators read in
    PAW grid and wavefunctions read in
 
   number of l-projection  operators is LMAX  =           4
   number of lm-projection operators is LMMAX =           8
 
 Optimization of the real space projectors (new method)

 maximal supplied QI-value         = 19.84
 optimisation between [QCUT,QGAM] = [ 10.12, 20.44] = [ 28.68,116.96] Ry 
 Optimized for a Real-space Cutoff    1.38 Angstroem

   l    n(q)    QCUT    max X(q) W(low)/X(q) W(high)/X(q)  e(spline) 
   0      8    10.119   159.560    0.58E-04    0.11E-03    0.54E-07
   0      8    10.119   115.863    0.56E-04    0.11E-03    0.54E-07
   1      8    10.119    88.339    0.22E-03    0.17E-03    0.19E-06
   1      8    10.119    48.592    0.22E-03    0.17E-03    0.18E-06
 -----------------------------------------------------------------------------
|                                                                             |
|               ----> ADVICE to this user running VASP <----                  |
|                                                                             |
|     You enforced a specific xc type in the INCAR file but a different       |
|     type was found in the POTCAR file.                                      |
|     I HOPE YOU KNOW WHAT YOU ARE DOING!                                     |
|                                                                             |
 -----------------------------------------------------------------------------

  PAW_PBE Si 05Jan2001                  :
 energy of atom  1       EATOM= -103.0669
 kinetic energy error for atom=    0.0012 (will be added to EATOM!!)
 
 
 POSCAR: Si8
  positions in direct lattice
  velocities in cartesian coordinates


 exchange-correlation table for PS
   RHO(1)=    0.500       N(1)  =     2000
   RHO(2)=  100.500       N(2)  =     4000
 


--------------------------------------------------------------------------------------------------------


 ion  position               nearest neighbor table
   1  0.000  0.000  0.000-  15 2.32  57 2.32  44 2.34  30 2.34
   2  0.000  0.000  0.500-  16 2.32  58 2.32  43 2.34  29 2.34
   3  0.000  0.500  0.000-  13 2.32  59 2.32  42 2.34  32 2.34
   4  0.000  0.500  0.500-  14 2.32  60 2.32  41 2.34  31 2.34
   5  0.500  0.000  0.000-  11 2.32  61 2.32  48 2.34  26 2.34
   6  0.500  0.000  0.500-  12 2.32  62 2.32  47 2.34  25 2.34
   7  0.500  0.500  0.000-   9 2.32  63 2.32  46 2.34  28 2.34
   8  0.500  0.500  0.500-  10 2.32  64 2.32  45 2.34  27 2.34
   9  0.375  0.375  0.125-   7 2.32  49 2.32  35 2.34  21 2.34
  10  0.375  0.375  0.625-   8 2.32  50 2.32  36 2.34  22 2.34
  11  0.375  0.875  0.125-   5 2.32  51 2.32  33 2.34  23 2.34
  12  0.375  0.875  0.625-   6 2.32  52 2.32  34 2.34  24 2.34
  13  0.875  0.375  0.125-   3 2.32  53 2.32  39 2.34  17 2.34
  14  0.875  0.375  0.625-   4 2.32  54 2.32  40 2.34  18 2.34
  15  0.875  0.875  0.125-   1 2.32  55 2.32  37 2.34  19 2.34
  16  0.875  0.875  0.625-   2 2.32  56 2.32  38 2.34  20 2.34
  17  0.000  0.250  0.250-  29 2.32  41 2.32  13 2.34  57 2.34
  18  0.000  0.250  0.750-  30 2.32  42 2.32  14 2.34  58 2.34
  19  0.000  0.750  0.250-  31 2.32  43 2.32  15 2.34  59 2.34
  20  0.000  0.750  0.750-  32 2.32  44 2.32  16 2.34  60 2.34
  21  0.500  0.250  0.250-  25 2.32  45 2.32   9 2.34  61 2.34
  22  0.500  0.250  0.750-  26 2.32  46 2.32  10 2.34  62 2.34
  23  0.500  0.750  0.250-  27 2.32  47 2.32  11 2.34  63 2.34
  24  0.500  0.750  0.750-  28 2.32  48 2.32  12 2.34  64 2.34
  25  0.375  0.125  0.375-  21 2.32  33 2.32   6 2.34  50 2.34
  26  0.375  0.125  0.875-  22 2.32  34 2.32   5 2.34  49 2.34
  27  0.375  0.625  0.375-  23 2.32  35 2.32   8 2.34  52 2.34
  28  0.375  0.625  0.875-  24 2.32  36 2.32   7 2.34  51 2.34
  29  0.875  0.125  0.375-  17 2.32  37 2.32   2 2.34  54 2.34
  30  0.875  0.125  0.875-  18 2.32  38 2.32   1 2.34  53 2.34
  31  0.875  0.625  0.375-  19 2.32  39 2.32   4 2.34  56 2.34
  32  0.875  0.625  0.875-  20 2.32  40 2.32   3 2.34  55 2.34
  33  0.250  0.000  0.250-  25 2.32  43 2.32  11 2.34  57 2.34
  34  0.250  0.000  0.750-  26 2.32  44 2.32  12 2.34  58 2.34
  35  0.250  0.500  0.250-  27 2.32  41 2.32   9 2.34  59 2.34
  36  0.250  0.500  0.750-  28 2.32  42 2.32  10 2.34  60 2.34
  37  0.750  0.000  0.250-  29 2.32  47 2.32  15 2.34  61 2.34
  38  0.750  0.000  0.750-  30 2.32  48 2.32  16 2.34  62 2.34
  39  0.750  0.500  0.250-  31 2.32  45 2.32  13 2.34  63 2.34
  40  0.750  0.500  0.750-  32 2.32  46 2.32  14 2.34  64 2.34
  41  0.125  0.375  0.375-  17 2.32  35 2.32   4 2.34  50 2.34
  42  0.125  0.375  0.875-  18 2.32  36 2.32   3 2.34  49 2.34
  43  0.125  0.875  0.375-  19 2.32  33 2.32   2 2.34  52 2.34
  44  0.125  0.875  0.875-  20 2.32  34 2.32   1 2.34  51 2.34
  45  0.625  0.375  0.375-  21 2.32  39 2.32   8 2.34  54 2.34
  46  0.625  0.375  0.875-  22 2.32  40 2.32   7 2.34  53 2.34
  47  0.625  0.875  0.375-  23 2.32  37 2.32   6 2.34  56 2.34
  48  0.625  0.875  0.875-  24 2.32  38 2.32   5 2.34  55 2.34
  49  0.250  0.250  0.000-   9 2.32  57 2.32  42 2.34  26 2.34
  50  0.250  0.250  0.500-  10 2.32  58 2.32  41 2.34  25 2.34
  51  0.250  0.750  0.000-  11 2.32  59 2.32  44 2.34  28 2.34
  52  0.250  0.750  0.500-  12 2.32  60 2.32  43 2.34  27 2.34
  53  0.750  0.250  0.000-  13 2.32  61 2.32  46 2.34  30 2.34
  54  0.750  0.250  0.500-  14 2.32  62 2.32  45 2.34  29 2.34
  55  0.750  0.750  0.000-  15 2.32  63 2.32  48 2.34  32 2.34
  56  0.750  0.750  0.500-  16 2.32  64 2.32  47 2.34  31 2.34
  57  0.125  0.125  0.125-   1 2.32  49 2.32  33 2.34  17 2.34
  58  0.125  0.125  0.625-   2 2.32  50 2.32  34 2.34  18 2.34
  59  0.125  0.625  0.125-   3 2.32  51 2.32  35 2.34  19 2.34
  60  0.125  0.625  0.625-   4 2.32  52 2.32  36 2.34  20 2.34
  61  0.625  0.125  0.125-   5 2.32  53 2.32  37 2.34  21 2.34
  62  0.625  0.125  0.625-   6 2.32  54 2.32  38 2.34  22 2.34
  63  0.625  0.625  0.125-   7 2.32  55 2.32  39 2.34  23 2.34
  64  0.625  0.625  0.625-   8 2.32  56 2.32  40 2.34  24 2.34
 
  LATTYP: Found a simple monoclinic cell.
 ALAT       =    10.6904179180
 B/A-ratio  =     1.0100881628
 C/A-ratio  =     1.0101007887
 COS(beta)  =    -0.0100501928
  
  Lattice vectors:
  
 A1 = (  10.6902815787,  -0.0539910080,   0.0000000000)
 A2 = (   0.0000000000,   0.0000000000, -10.7982645947)
 A3 = (  -0.0539910080,  10.7982645947,   0.0000000000)


Analysis of symmetry for initial positions (statically):
=====================================================================
 Subroutine PRICEL returns following result:
 
  LATTYP: Found a base centered monoclinic cell.
 ALAT       =     5.3452089590
 B/A-ratio  =     1.0100881628
 C/A-ratio  =     0.7071068144
 COS(beta)  =    -0.6999284070
  
  Lattice vectors:
  
 A1 = (  -2.6725703947,   0.0134977520,  -2.6995661487)
 A2 = (  -2.6725703947,   0.0134977520,   2.6995661487)
 A3 = (   2.6590726427,   2.6860683967,   0.0000000000)
 
  32 primitive cells build up your supercell.
 

 Routine SETGRP: Setting up the symmetry group for a 
 simple monoclinic supercell.


 Subroutine GETGRP returns: Found  4 space group operations
 (whereof  2 operations were pure point group operations)
 out of a pool of  4 trial point group operations.


The static configuration has the point symmetry C_2 .
 The point group associated with its full space group is C_2h.


Analysis of symmetry for dynamics (positions and initial velocities):
=====================================================================
 Subroutine PRICEL returns following result:
 
  LATTYP: Found a base centered monoclinic cell.
 ALAT       =     5.3452089590
 B/A-ratio  =     1.0100881628
 C/A-ratio  =     0.7071068144
 COS(beta)  =    -0.6999284070
  
  Lattice vectors:
  
 A1 = (  -2.6725703947,   0.0134977520,  -2.6995661487)
 A2 = (  -2.6725703947,   0.0134977520,   2.6995661487)
 A3 = (   2.6590726427,   2.6860683967,   0.0000000000)
 
  32 primitive cells build up your supercell.
 

 Routine SETGRP: Setting up the symmetry group for a 
 simple monoclinic supercell.


 Subroutine GETGRP returns: Found  4 space group operations
 (whereof  2 operations were pure point group operations)
 out of a pool of  4 trial point group operations.


The dynamic configuration has the point symmetry C_2 .
 The point group associated with its full space group is C_2h.


 Subroutine INISYM returns: Found  4 space group operations
 (whereof  2 operations are pure point group operations),
 and found    32 'primitive' translations


----------------------------------------------------------------------------------------

                                     Primitive cell                                     

  volume of cell :      38.9526

  direct lattice vectors                    reciprocal lattice vectors
    -2.672570395  0.013497752 -2.699566149    -0.186155088  0.184284177 -0.185214947
    -2.672570395  0.013497752  2.699566149    -0.186155088  0.184284177  0.185214947
     2.659072643  2.686068397  0.000000000     0.001870894  0.370439248 -0.000000000

  length of vectors
     3.798746121  3.798746121  3.779633679     0.320809836  0.320809836  0.370443972

  position of ions in fractional coordinates (direct lattice)
     0.000000000  0.000000000  0.000000000
     0.750000000  0.250000000  0.500000000

  ion indices of the primitive-cell ions
   primitive index   ion index
                 1           1
                 2          15

----------------------------------------------------------------------------------------

 
 
 KPOINTS: Automatic mesh                          

Automatic generation of k-mesh.
 Grid dimensions read from file:
 generate k-points for:    2    2    2

 Generating k-lattice:

  Cartesian coordinates                     Fractional coordinates (reciprocal lattice)
     0.046772634  0.000233862  0.000000000     0.500000000 -0.000000000  0.000000000
     0.000233862  0.046304906  0.000000000    -0.000000000  0.500000000  0.000000000
     0.000000000  0.000000000  0.046303737     0.000000000  0.000000000  0.500000000

  Length of vectors
     0.046773219  0.046305496  0.046303737

  Shift w.r.t. Gamma in fractional coordinates (k-lattice)
     0.000000000  0.000000000  0.000000000

 
 Subroutine IBZKPT returns following result:
 ===========================================
 
 Found      8 irreducible k-points:
 
 Following reciprocal coordinates:
            Coordinates               Weight
  0.000000  0.000000  0.000000      1.000000
  0.500000 -0.000000  0.000000      1.000000
 -0.000000  0.500000  0.000000      1.000000
  0.500000  0.500000  0.000000      1.000000
  0.000000  0.000000  0.500000      1.000000
  0.500000 -0.000000  0.500000      1.000000
 -0.000000  0.500000  0.500000      1.000000
  0.500000  0.500000  0.500000      1.000000
 
 Following cartesian coordinates:
            Coordinates               Weight
  0.000000  0.000000  0.000000      1.000000
  0.046773  0.000234  0.000000      1.000000
  0.000234  0.046305  0.000000      1.000000
  0.047007  0.046539  0.000000      1.000000
  0.000000  0.000000  0.046304      1.000000
  0.046773  0.000234  0.046304      1.000000
  0.000234  0.046305  0.046304      1.000000
  0.047007  0.046539  0.046304      1.000000
 


--------------------------------------------------------------------------------------------------------




 Dimension of arrays:
   k-points           NKPTS =      8   k-points in BZ     NKDIM =      8   number of bands    NBANDS=    162
   number of dos      NEDOS =    301   number of ions     NIONS =     64
   non local maximal  LDIM  =      4   non local SUM 2l+1 LMDIM =      8
   total plane-waves  NPLWV = 343000
   max r-space proj   IRMAX =   3082   max aug-charges    IRDMAX=  73794
   dimension x,y,z NGX =    70 NGY =   70 NGZ =   70
   dimension x,y,z NGXF=   140 NGYF=  140 NGZF=  140
   support grid    NGXF=   280 NGYF=  280 NGZF=  280
   ions per type =              64
   NGX,Y,Z   is equivalent  to a cutoff of  10.89, 10.78, 10.78 a.u.
   NGXF,Y,Z  is equivalent  to a cutoff of  21.77, 21.55, 21.55 a.u.

 SYSTEM =  Si64                                    
 POSCAR =  Si8                                     

 Startparameter for this run:
   NWRITE =      2    write-flag & timer
   PREC   = accura    normal or accurate (medium, high low for compatibility)
   ISTART =      0    job   : 0-new  1-cont  2-samecut
   ICHARG =      2    charge: 1-file 2-atom 10-const
   ISPIN  =      1    spin polarized calculation?
   LNONCOLLINEAR =      F non collinear calculations
   LSORBIT =      F    spin-orbit coupling
   INIWAV =      1    electr: 0-lowe 1-rand  2-diag
   LASPH  =      F    aspherical Exc in radial PAW
 Electronic Relaxation 1
   ENCUT  =  400.0 eV  29.40 Ry    5.42 a.u.  17.43 17.61 17.61*2*pi/ulx,y,z
   ENINI  =  400.0     initial cutoff
   ENAUG  =  322.1 eV  augmentation charge cutoff
   NELM   =     60;   NELMIN=  8; NELMDL= -5     # of ELM steps 
   EDIFF  = 0.1E-05   stopping-criterion for ELM
   LREAL  =      T    real-space projection
   NLSPLINE    = F    spline interpolate recip. space projectors
   LCOMPAT=      F    compatible to vasp.4.4
   GGA_COMPAT  = F    GGA compatible to vasp.4.4-vasp.4.6
   LMAXPAW     = -100 max onsite density
   LMAXMIX     =    2 max onsite mixed and CHGCAR
   VOSKOWN=      0    Vosko Wilk Nusair interpolation
   ROPT   =   -0.00025
 Ionic relaxation
   EDIFFG = -.1E-01   stopping-criterion for IOM
   NSW    =     60    number of steps for IOM
   NBLOCK =      1;   KBLOCK =     60    inner block; outer block 
   IBRION =      2    ionic relax: 0-MD 1-quasi-New 2-CG
   NFREE  =      1    steps in history (QN), initial steepest desc. (CG)
   ISIF   =      2    stress and relaxation
   IWAVPR =     11    prediction:  0-non 1-charg 2-wave 3-comb
   ISYM   =      2    0-nonsym 1-usesym 2-fastsym
   LCORR  =      T    Harris-Foulkes like correction to forces

   POTIM  = 0.5000    time-step for ionic-motion
   TEIN   =    0.0    initial temperature
   TEBEG  =    0.0;   TEEND  =   0.0 temperature during run
   SMASS  =  -3.00    Nose mass-parameter (am)
   estimated Nose-frequenzy (Omega)   =  0.10E-29 period in steps = 0.13E+47 mass=  -0.261E-26a.u.
   SCALEE = 1.0000    scale energy and forces
   NPACO  =    256;   APACO  = 10.0  distance and # of slots for P.C.
   PSTRESS=    0.0 pullay stress

  Mass of Ions in am
   POMASS =  28.09
  Ionic Valenz
   ZVAL   =   4.00
  Atomic Wigner-Seitz radii
   RWIGS  =  -1.00
  virtual crystal weights 
   VCA    =   1.00
   NELECT =     256.0000    total number of electrons
   NUPDOWN=      -1.0000    fix difference up-down

 DOS related values:
   EMIN   =  10.00;   EMAX   =-10.00  energy-range for DOS
   EFERMI =   0.00;   METHOD = LEGACY      
   ISMEAR =     1;   SIGMA  =   0.20  broadening in eV -4-tet -1-fermi 0-gaus

 Electronic relaxation 2 (details)
   IALGO  =     68    algorithm
   LDIAG  =      T    sub-space diagonalisation (order eigenvalues)
   LSUBROT=      F    optimize rotation matrix (better conditioning)
   TURBO    =      0    0=normal 1=particle mesh
   IRESTART =      0    0=no restart 2=restart with 2 vectors
   NREBOOT  =      0    no. of reboots
   NMIN     =      0    reboot dimension
   EREF     =   0.00    reference energy to select bands
   IMIX   =      4    mixing-type and parameters
     AMIX     =   0.40;   BMIX     =  1.00
     AMIX_MAG =   1.60;   BMIX_MAG =  1.00
     AMIN     =   0.10
     WC   =   100.;   INIMIX=   1;  MIXPRE=   1;  MAXMIX= -45

 Intra band minimization:
   WEIMIN = 0.0010     energy-eigenvalue tresh-hold
   EBREAK =  0.15E-08  absolut break condition
   DEPER  =   0.30     relativ break condition  

   TIME   =   0.40     timestep for ELM

  volume/ion in A,a.u.               =      19.48       131.43
  Fermi-wavevector in a.u.,A,eV,Ry     =   0.965887  1.825261 12.693376  0.932937
  Thomas-Fermi vector in A             =   2.095641
 
 Write flags
   LWAVE        =      F    write WAVECAR
   LDOWNSAMPLE  =      F    k-point downsampling of WAVECAR
   LCHARG       =      F    write CHGCAR
   LVTOT        =      F    write LOCPOT, total local potential
   LVHAR        =      F    write LOCPOT, Hartree potential only
   WRT_POTENTIAL= false  ! write potential to hdf5 file
   LELF         =      F    write electronic localiz. function (ELF)
   LORBIT       =      0    0 simple, 1 ext, 2 COOP (PROOUT), +10 PAW based schemes


 Dipole corrections
   LMONO      =      F    monopole corrections only (constant potential shift)
   LDIPOL     =      F    correct potential (dipole corrections)
   IDIPOL     =      0    1-x, 2-y, 3-z, 4-all directions 
   EPSILON    =  1.0000000 bulk dielectric constant
   LVACPOTAV  =      F  vacuum potentials using an averaging scheme for the charge density
   VACPOTFLAT =  0.1000000 required flatness to determine vacuum potential
 Exchange correlation treatment:
   GGA     = PS    functional components
   XC_C    = 1    coefficients multiplying the functional components
   LIBXC   =     F    Libxc                    
   VOSKOWN =     0    Vosko Wilk Nusair interpolation
   LHFCALC =     F    Hartree Fock is set to
   LHFONE  =     F    Hartree Fock one center treatment
   AEXX    =    0.0000 exact exchange contribution

 Parameters of functionals:
   PS:
     No parameter
 
 Van der Waals corrections
   IVDW    =     0    specifies the selected vdW correction

 Linear response parameters
   LEPSILON=     F    determine dielectric tensor
   LRPA    =     F    only Hartree local field effects (RPA)
   LNABLA  =     F    use nabla operator in PAW spheres
   LVEL    =     F    velocity operator in full k-point grid
   CSHIFT  =0.1000    complex shift for real part using Kramers Kronig
   OMEGAMAX=  -1.0    maximum frequency
   DEG_THRESHOLD= 0.2000000E-02 threshold for treating states as degnerate
   RTIME   =   -0.100 relaxation time in fs
  (WPLASMAI=    0.000 imaginary part of plasma frequency in eV, 0.658/RTIME)
   DFIELD  = 0.0000000 0.0000000 0.0000000 field for delta impulse in time
 
  Optional k-point grid parameters
   LKPOINTS_OPT  =     F    use optional k-point grid
   KPOINTS_OPT_MODE=     1    mode for optional k-point grid
 
 Orbital magnetization related:
   ORBITALMAG=     F  switch on orbital magnetization
   LCHIMAG   =     F  perturbation theory with respect to B field
   DQ        =  0.001000  dq finite difference perturbation B field
   LLRAUG    =     F  two centre corrections for induced B field
   LBONE     =     F  B-component reconstruction in AE one-centre
   LVGVCALC  =     T  calculate vGv susceptibility
   LVGVAPPL  =     F  apply vGv susceptibility instead of pGv for G=0

 Random number generation:
   RANDOM_GENERATOR = DEFAULT
   PCG_SEED         = not used


--------------------------------------------------------------------------------------------------------


 conjugate gradient relaxation of ions
 charge density and potential will be updated during run
 non-spin polarized calculation
 RMM-DIIS sequential band-by-band and
  variant of blocked Davidson during initial phase
 perform sub-space diagonalisation
    before iterative eigenvector-optimisation
 modified Broyden-mixing scheme, WC =      100.0
 initial mixing is a Kerker type mixing with AMIX =  0.4000 and BMIX =      1.0000
 Hartree-type preconditioning will be used
 using additional bands           34
 real space projection scheme for non local part
 use partial core corrections
 calculate Harris-corrections to forces 
   (improved forces if not selfconsistent)
 use gradient corrections 
 use of overlap-Matrix (Vanderbilt PP)
 Methfessel and Paxton  Order N= 1 SIGMA  =   0.20


--------------------------------------------------------------------------------------------------------


  energy-cutoff  :      400.00
  volume of cell :     1246.48
      direct lattice vectors                 reciprocal lattice vectors
    10.690281579 -0.053991008  0.000000000     0.093545268  0.000467724  0.000000000
    -0.053991008 10.798264595  0.000000000     0.000467724  0.092609812  0.000000000
     0.000000000  0.000000000 10.798264595     0.000000000  0.000000000  0.092607473

  length of vectors
    10.690417918 10.798399571 10.798264595     0.093546437  0.092610993  0.092607473


 
 k-points in units of 2pi/SCALE and weight: Automatic mesh                          
   0.00000000  0.00000000  0.00000000       0.125
   0.04677264  0.00023386  0.00000000       0.125
   0.00023386  0.04630491  0.00000000       0.125
   0.04700650  0.04653877  0.00000000       0.125
   0.00000000  0.00000000  0.04630374       0.125
   0.04677264  0.00023386  0.04630374       0.125
   0.00023386  0.04630491  0.04630374       0.125
   0.04700650  0.04653877  0.04630374       0.125
 
 k-points in reciprocal lattice and weights: Automatic mesh                          
   0.00000000  0.00000000  0.00000000       0.125
   0.50000000 -0.00000000  0.00000000       0.125
  -0.00000000  0.50000000  0.00000000       0.125
   0.50000000  0.50000000  0.00000000       0.125
   0.00000000  0.00000000  0.50000000       0.125
   0.50000000 -0.00000000  0.50000000       0.125
  -0.00000000  0.50000000  0.50000000       0.125
   0.50000000  0.50000000  0.50000000       0.125
 
 position of ions in fractional coordinates (direct lattice) 
   0.00000000  0.00000000  0.00000000
   0.00000000  0.00000000  0.50000000
   0.00000000  0.50000000  0.00000000
   0.00000000  0.50000000  0.50000000
   0.50000000  0.00000000  0.00000000
   0.50000000  0.00000000  0.50000000
   0.50000000  0.50000000  0.00000000
   0.50000000  0.50000000  0.50000000
   0.37500000  0.37500000  0.12500000
   0.37500000  0.37500000  0.62500000
   0.37500000  0.87500000  0.12500000
   0.37500000  0.87500000  0.62500000
   0.87500000  0.37500000  0.12500000
   0.87500000  0.37500000  0.62500000
   0.87500000  0.87500000  0.12500000
   0.87500000  0.87500000  0.62500000
   0.00000000  0.25000000  0.25000000
   0.00000000  0.25000000  0.75000000
   0.00000000  0.75000000  0.25000000
   0.00000000  0.75000000  0.75000000
   0.50000000  0.25000000  0.25000000
   0.50000000  0.25000000  0.75000000
   0.50000000  0.75000000  0.25000000
   0.50000000  0.75000000  0.75000000
   0.37500000  0.12500000  0.37500000
   0.37500000  0.12500000  0.87500000
   0.37500000  0.62500000  0.37500000
   0.37500000  0.62500000  0.87500000
   0.87500000  0.12500000  0.37500000
   0.87500000  0.12500000  0.87500000
   0.87500000  0.62500000  0.37500000
   0.87500000  0.62500000  0.87500000
   0.25000000  0.00000000  0.25000000
   0.25000000  0.00000000  0.75000000
   0.25000000  0.50000000  0.25000000
   0.25000000  0.50000000  0.75000000
   0.75000000  0.00000000  0.25000000
   0.75000000  0.00000000  0.75000000
   0.75000000  0.50000000  0.25000000
   0.75000000  0.50000000  0.75000000
   0.12500000  0.37500000  0.37500000
   0.12500000  0.37500000  0.87500000
   0.12500000  0.87500000  0.37500000
   0.12500000  0.87500000  0.87500000
   0.62500000  0.37500000  0.37500000
   0.62500000  0.37500000  0.87500000
   0.62500000  0.87500000  0.37500000
   0.62500000  0.87500000  0.87500000
   0.25000000  0.25000000  0.00000000
   0.25000000  0.25000000  0.50000000
   0.25000000  0.75000000  0.00000000
   0.25000000  0.75000000  0.50000000
   0.75000000  0.25000000  0.00000000
   0.75000000  0.25000000  0.50000000
   0.75000000  0.75000000  0.00000000
   0.75000000  0.75000000  0.50000000
   0.12500000  0.12500000  0.12500000
   0.12500000  0.12500000  0.62500000
   0.12500000  0.62500000  0.12500000
   0.12500000  0.62500000  0.62500000
   0.62500000  0.12500000  0.12500000
   0.62500000  0.12500000  0.62500000
   0.62500000  0.62500000  0.12500000
   0.62500000  0.62500000  0.62500000
 
 position of ions in cartesian coordinates  (Angst):
   0.00000000  0.00000000  0.00000000
   0.00000000  0.00000000  5.39913230
  -0.02699550  5.39913230  0.00000000
  -0.02699550  5.39913230  5.39913230
   5.34514079 -0.02699550  0.00000000
   5.34514079 -0.02699550  5.39913230
   5.31814529  5.37213679  0.00000000
   5.31814529  5.37213679  5.39913230
   3.98860896  4.02910260  1.34978307
   3.98860896  4.02910260  6.74891537
   3.96161346  9.42823489  1.34978307
   3.96161346  9.42823489  6.74891537
   9.33374975  4.00210709  1.34978307
   9.33374975  4.00210709  6.74891537
   9.30675425  9.40123939  1.34978307
   9.30675425  9.40123939  6.74891537
  -0.01349775  2.69956615  2.69956615
  -0.01349775  2.69956615  8.09869845
  -0.04049326  8.09869845  2.69956615
  -0.04049326  8.09869845  8.09869845
   5.33164304  2.67257064  2.69956615
   5.33164304  2.67257064  8.09869845
   5.30464753  8.07170294  2.69956615
   5.30464753  8.07170294  8.09869845
   4.00210672  1.32953645  4.04934922
   4.00210672  1.32953645  9.44848152
   3.97511121  6.72866874  4.04934922
   3.97511121  6.72866874  9.44848152
   9.34724751  1.30254094  4.04934922
   9.34724751  1.30254094  9.44848152
   9.32025200  6.70167324  4.04934922
   9.32025200  6.70167324  9.44848152
   2.67257039 -0.01349775  2.69956615
   2.67257039 -0.01349775  8.09869845
   2.64557489  5.38563455  2.69956615
   2.64557489  5.38563455  8.09869845
   8.01771118 -0.04049326  2.69956615
   8.01771118 -0.04049326  8.09869845
   7.99071568  5.35863904  2.69956615
   7.99071568  5.35863904  8.09869845
   1.31603857  4.04260035  4.04934922
   1.31603857  4.04260035  9.44848152
   1.28904307  9.44173264  4.04934922
   1.28904307  9.44173264  9.44848152
   6.66117936  4.01560484  4.04934922
   6.66117936  4.01560484  9.44848152
   6.63418385  9.41473714  4.04934922
   6.63418385  9.41473714  9.44848152
   2.65907264  2.68606840  0.00000000
   2.65907264  2.68606840  5.39913230
   2.63207714  8.08520069  0.00000000
   2.63207714  8.08520069  5.39913230
   8.00421343  2.65907289  0.00000000
   8.00421343  2.65907289  5.39913230
   7.97721793  8.05820519  0.00000000
   7.97721793  8.05820519  5.39913230
   1.32953632  1.34303420  1.34978307
   1.32953632  1.34303420  6.74891537
   1.30254082  6.74216650  1.34978307
   1.30254082  6.74216650  6.74891537
   6.67467711  1.31603869  1.34978307
   6.67467711  1.31603869  6.74891537
   6.64768161  6.71517099  1.34978307
   6.64768161  6.71517099  6.74891537
 


--------------------------------------------------------------------------------------------------------


 k-point     1 :   0.0000 0.0000 0.0000  plane waves:   22675
 k-point     2 :   0.5000-0.0000 0.0000  plane waves:   22628
 k-point     3 :  -0.0000 0.5000 0.0000  plane waves:   22624
 k-point     4 :   0.5000 0.5000 0.0000  plane waves:   22644
 k-point     5 :   0.0000 0.0000 0.5000  plane waves:   22644
 k-point     6 :   0.5000-0.0000 0.5000  plane waves:   22648
 k-point     7 :  -0.0000 0.5000 0.5000  plane waves:   22656
 k-point     8 :   0.5000 0.5000 0.5000  plane waves:   22580

 maximum and minimum number of plane-waves per node :      1942     1857

 maximum number of plane-waves:     22675
 maximum index in each direction: 
   IXMAX=   17   IYMAX=   17   IZMAX=   17
   IXMIN=  -17   IYMIN=  -18   IZMIN=  -18


 real space projection operators:
  total allocation   :      11794.50 KBytes
  max/ min on nodes  :       1023.75        852.75


 parallel 3D FFT for wavefunctions:
    minimum data exchange during FFTs selected (reduces bandwidth)
 parallel 3D FFT for charge:
    minimum data exchange during FFTs selected (reduces bandwidth)


 total amount of memory used by VASP MPI-rank0    80073. kBytes
=======================================================================

   base      :      30000. kBytes
   nonlr-proj:       4549. kBytes
   fftplans  :      17993. kBytes
   grid      :       6881. kBytes
   one-center:         18. kBytes
   wavefun   :      20632. kBytes
 
     INWAV:  cpu time      0.0000: real time      0.0000
 Broyden mixing: mesh for mixing (old mesh)
   NGX = 35   NGY = 35   NGZ = 35
  (NGX  =140   NGY  =140   NGZ  =140)
  gives a total of  42875 points

 initial charge density was supplied:
 charge density of overlapping atoms calculated
 number of electron     256.0000000 magnetization 
 keeping initial charge density in first step


--------------------------------------------------------------------------------------------------------


 Maximum index for non-local projection operator          272
 Maximum index for augmentation-charges         3651 (set IRDMAX)


--------------------------------------------------------------------------------------------------------


 First call to EWALD:  gamma=   0.165
 Maximum number of real-space cells 3x 3x 3
 Maximum number of reciprocal cells 3x 3x 3

    FEWALD:  cpu time      0.0063: real time      0.0064


--------------------------------------- Ionic step        1  -------------------------------------------




--------------------------------------- Iteration      1(   1)  ---------------------------------------


    POTLOK:  cpu time      0.0916: real time      0.0992
    SETDIJ:  cpu time      0.0847: real time      0.0863
     EDDAV:  cpu time      1.2601: real time      1.3272
       DOS:  cpu time      0.0113: real time      0.0130
    --------------------------------------------
      LOOP:  cpu time      1.4477: real time      1.5256

 eigenvalue-minimisations  :  2592
 total energy-change (2. order) : 0.5612402E+03  (-0.8414659E+04)
 number of electron     256.0000000 magnetization 
 augmentation part      256.0000000 magnetization 

 Free energy of the ion-electron system (eV)
  ---------------------------------------------------
  alpha Z        PSCENC =       110.61864773
  Ewald energy   TEWEN  =     -7380.57013000
  -Hartree energ DENC   =      -339.11942214
  -exchange      EXHF   =         0.00000000
  -V(xc)+E(xc)   XCENC  =      -555.35607399
  PAW double counting   =      5598.62625415    -4492.17844134
  entropy T*S    EENTRO =         0.01265296
  eigenvalues    EBANDS =      1054.41085292
  atomic energy  EATOM  =      6564.79586099
  Solvation  Ediel_sol  =         0.00000000
  ---------------------------------------------------
  free energy    TOTEN  =       561.24020127 eV

  energy without entropy =      561.22754832  energy(sigma->0) =      561.23598362


--------------------------------------------------------------------------------------------------------




--------------------------------------- Iteration      1(   2)  ---------------------------------------


     EDDAV:  cpu time      1.3369: real time      1.3533
       DOS:  cpu time      0.0010: real time      0.0010
    --------------------------------------------
      LOOP:  cpu time      1.3379: real time      1.3543

 eigenvalue-minimisations  :  3104
 total energy-change (2. order) :-0.8724795E+03  (-0.8278930E+03)
 number of electron     256.0000000 magnetization 
 augmentation part      256.0000000 magnetization 

 Free energy of the ion-electron system (eV)
  ---------------------------------------------------
  alpha Z        PSCENC =       110.61864773
  Ewald energy   TEWEN  =     -7380.57013000
  -Hartree energ DENC   =      -339.11942214
  -exchange      EXHF   =         0.00000000
  -V(xc)+E(xc)   XCENC  =      -555.35607399
  PAW double counting   =      5598.62625415    -4492.17844134
  entropy T*S    EENTRO =         0.01311002
  eigenvalues    EBANDS =       181.93087368
  atomic energy  EATOM  =      6564.79586099
  Solvation  Ediel_sol  =         0.00000000
  ---------------------------------------------------
  free energy    TOTEN  =      -311.23932090 eV

  energy without entropy =     -311.25243092  energy(sigma->0) =     -311.24369090


--------------------------------------------------------------------------------------------------------




--------------------------------------- Iteration      1(   3)  ---------------------------------------


     EDDAV:  cpu time      1.3200: real time      1.3361
       DOS:  cpu time      0.0016: real time      0.0016
    --------------------------------------------
      LOOP:  cpu time      1.3216: real time      1.3377

 eigenvalue-minimisations  :  3144
 total energy-change (2. order) :-0.6210441E+02  (-0.6099056E+02)
 number of electron     256.0000000 magnetization 
 augmentation part      256.0000000 magnetization 

 Free energy of the ion-electron system (eV)
  ---------------------------------------------------
  alpha Z        PSCENC =       110.61864773
  Ewald energy   TEWEN  =     -7380.57013000
  -Hartree energ DENC   =      -339.11942214
  -exchange      EXHF   =         0.00000000
  -V(xc)+E(xc)   XCENC  =      -555.35607399
  PAW double counting   =      5598.62625415    -4492.17844134
  entropy T*S    EENTRO =         0.00781272
  eigenvalues    EBANDS =       119.83175986
  atomic energy  EATOM  =      6564.79586099
  Solvation  Ediel_sol  =         0.00000000
  ---------------------------------------------------
  free energy    TOTEN  =      -373.34373202 eV

  energy without entropy =     -373.35154474  energy(sigma->0) =     -373.34633626


--------------------------------------------------------------------------------------------------------




--------------------------------------- Iteration      1(   4)  ---------------------------------------


     EDDAV:  cpu time      1.3405: real time      1.4022
       DOS:  cpu time      0.0015: real time      0.0015
    --------------------------------------------
      LOOP:  cpu time      1.3420: real time      1.4037

 eigenvalue-minimisations  :  3128
 total energy-change (2. order) :-0.1571627E+01  (-0.1560597E+01)
 number of electron     256.0000000 magnetization 
 augmentation part      256.0000000 magnetization 

 Free energy of the ion-electron system (eV)
  ---------------------------------------------------
  alpha Z        PSCENC =       110.61864773
  Ewald energy   TEWEN  =     -7380.57013000
  -Hartree energ DENC   =      -339.11942214
  -exchange      EXHF   =         0.00000000
  -V(xc)+E(xc)   XCENC  =      -555.35607399
  PAW double counting   =      5598.62625415    -4492.17844134
  entropy T*S    EENTRO =         0.00842639
  eigenvalues    EBANDS =       118.25951888
  atomic energy  EATOM  =      6564.79586099
  Solvation  Ediel_sol  =         0.00000000
  ---------------------------------------------------
  free energy    TOTEN  =      -374.91535934 eV

  energy without entropy =     -374.92378573  energy(sigma->0) =     -374.91816813


--------------------------------------------------------------------------------------------------------




--------------------------------------- Iteration      1(   5)  ---------------------------------------


     EDDAV:  cpu time      1.3298: real time      1.3419
       DOS:  cpu time      0.0014: real time      0.0014
    CHARGE:  cpu time      0.2490: real time      0.2516
    MIXING:  cpu time      0.0076: real time      0.0082
    --------------------------------------------
      LOOP:  cpu time      1.5878: real time      1.6031

 eigenvalue-minimisations  :  3110
 total energy-change (2. order) :-0.4981138E-01  (-0.4970798E-01)
 number of electron     256.0000001 magnetization 
 augmentation part      -15.0278443 magnetization 

 Broyden mixing:
  rms(total) = 0.29152E+01    rms(broyden)= 0.29152E+01
  rms(prec ) = 0.32124E+01
  weight for this iteration     100.00

 Free energy of the ion-electron system (eV)
  ---------------------------------------------------
  alpha Z        PSCENC =       110.61864773
  Ewald energy   TEWEN  =     -7380.57013000
  -Hartree energ DENC   =      -339.11942214
  -exchange      EXHF   =         0.00000000
  -V(xc)+E(xc)   XCENC  =      -555.35607399
  PAW double counting   =      5598.62625415    -4492.17844134
  entropy T*S    EENTRO =         0.00843289
  eigenvalues    EBANDS =       118.20970099
  atomic energy  EATOM  =      6564.79586099
  Solvation  Ediel_sol  =         0.00000000
  ---------------------------------------------------
  free energy    TOTEN  =      -374.96517072 eV

  energy without entropy =     -374.97360361  energy(sigma->0) =     -374.96798168


--------------------------------------------------------------------------------------------------------




--------------------------------------- Iteration      1(   6)  ---------------------------------------


    POTLOK:  cpu time      0.0733: real time      0.0890
    SETDIJ:  cpu time      0.0688: real time      0.0690
    EDDIAG:  cpu time      0.1399: real time      0.1426
  RMM-DIIS:  cpu time      0.6957: real time      0.7002
    ORTHCH:  cpu time      0.0216: real time      0.0216
       DOS:  cpu time      0.0013: real time      0.0013
    CHARGE:  cpu time      0.2327: real time      0.2333
    MIXING:  cpu time      0.0050: real time      0.0068
    --------------------------------------------
      LOOP:  cpu time      1.2383: real time      1.2638

 eigenvalue-minimisations  :  2592
 total energy-change (2. order) : 0.5399392E+01  (-0.2748772E+00)
 number of electron     256.0000001 magnetization 
 augmentation part      -14.8576546 magnetization 

 Broyden mixing:
  rms(total) = 0.17555E+01    rms(broyden)= 0.17555E+01
  rms(prec ) = 0.19244E+01
  weight for this iteration     100.00

 eigenvalues of (default mixing * dielectric matrix)
  average eigenvalue GAMMA=   2.5083
  2.5083

 Free energy of the ion-electron system (eV)
  ---------------------------------------------------
  alpha Z        PSCENC =       110.61864773
  Ewald energy   TEWEN  =     -7380.57013000
  -Hartree energ DENC   =      -386.71545631
  -exchange      EXHF   =         0.00000000
  -V(xc)+E(xc)   XCENC  =      -547.82964525
  PAW double counting   =     12713.33384114   -11610.44159375
  entropy T*S    EENTRO =         0.01045826
  eigenvalues    EBANDS =       167.23223800
  atomic energy  EATOM  =      6564.79586099
  Solvation  Ediel_sol  =         0.00000000
  ---------------------------------------------------
  free energy    TOTEN  =      -369.56577919 eV

  energy without entropy =     -369.57623745  energy(sigma->0) =     -369.56926527


--------------------------------------------------------------------------------------------------------




--------------------------------------- Iteration      1(   7)  ---------------------------------------


    POTLOK:  cpu time      0.0788: real time      0.0873
    SETDIJ:  cpu time      0.0703: real time      0.0704
    EDDIAG:  cpu time      0.1321: real time      0.1324
  RMM-DIIS:  cpu time      0.7081: real time      0.7100
    ORTHCH:  cpu time      0.0211: real time      0.0211
       DOS:  cpu time      0.0013: real time      0.0013
    CHARGE:  cpu time      0.2331: real time      0.2337
    MIXING:  cpu time      0.0051: real time      0.0052
    --------------------------------------------
      LOOP:  cpu time      1.2499: real time      1.2614

 eigenvalue-minimisations  :  2652
 total energy-change (2. order) : 0.2424035E+01  (-0.7034334E+00)
 number of electron     256.0000001 magnetization 
 augmentation part      -14.6181759 magnetization 

 Broyden mixing:
  rms(total) = 0.10265E+00    rms(broyden)= 0.10265E+00
  rms(prec ) = 0.12911E+00
  weight for this iteration     100.00

 eigenvalues of (default mixing * dielectric matrix)
  average eigenvalue GAMMA=   2.2719
  2.2719  2.2719

 Free energy of the ion-electron system (eV)
  ---------------------------------------------------
  alpha Z        PSCENC =       110.61864773
  Ewald energy   TEWEN  =     -7380.57013000
  -Hartree energ DENC   =      -465.27198054
  -exchange      EXHF   =         0.00000000
  -V(xc)+E(xc)   XCENC  =      -534.83252950
  PAW double counting   =     29941.74210539   -28843.78950254
  entropy T*S    EENTRO =         0.03264191
  eigenvalues    EBANDS =       240.13314221
  atomic energy  EATOM  =      6564.79586099
  Solvation  Ediel_sol  =         0.00000000
  ---------------------------------------------------
  free energy    TOTEN  =      -367.14174435 eV

  energy without entropy =     -367.17438626  energy(sigma->0) =     -367.15262499


--------------------------------------------------------------------------------------------------------




--------------------------------------- Iteration      1(   8)  ---------------------------------------


    POTLOK:  cpu time      0.0763: real time      0.0885
    SETDIJ:  cpu time      0.0708: real time      0.0710
    EDDIAG:  cpu time      0.1356: real time      0.1359
  RMM-DIIS:  cpu time      0.7004: real time      0.7025
    ORTHCH:  cpu time      0.0219: real time      0.0220
       DOS:  cpu time      0.0014: real time      0.0015
    CHARGE:  cpu time      0.2351: real time      0.2356
    MIXING:  cpu time      0.0041: real time      0.0041
    --------------------------------------------
      LOOP:  cpu time      1.2456: real time      1.2611

 eigenvalue-minimisations  :  2617
 total energy-change (2. order) :-0.3942790E-01  (-0.6533744E-01)
 number of electron     256.0000001 magnetization 
 augmentation part      -14.6717670 magnetization 

 Broyden mixing:
  rms(total) = 0.50608E-01    rms(broyden)= 0.50608E-01
  rms(prec ) = 0.54082E-01
  weight for this iteration     100.00

 eigenvalues of (default mixing * dielectric matrix)
  average eigenvalue GAMMA=   2.1149
  2.5497  1.8975  1.8975

 Free energy of the ion-electron system (eV)
  ---------------------------------------------------
  alpha Z        PSCENC =       110.61864773
  Ewald energy   TEWEN  =     -7380.57013000
  -Hartree energ DENC   =      -457.45859848
  -exchange      EXHF   =         0.00000000
  -V(xc)+E(xc)   XCENC  =      -535.47319486
  PAW double counting   =     29622.57739634   -28523.67703152
  entropy T*S    EENTRO =         0.03194293
  eigenvalues    EBANDS =       231.97393463
  atomic energy  EATOM  =      6564.79586099
  Solvation  Ediel_sol  =         0.00000000
  ---------------------------------------------------
  free energy    TOTEN  =      -367.18117224 eV

  energy without entropy =     -367.21311517  energy(sigma->0) =     -367.19181989


--------------------------------------------------------------------------------------------------------




--------------------------------------- Iteration      1(   9)  ---------------------------------------


    POTLOK:  cpu time      0.0729: real time      0.0884
    SETDIJ:  cpu time      0.0703: real time      0.0705
    EDDIAG:  cpu time      0.1325: real time      0.1328
  RMM-DIIS:  cpu time      0.7095: real time      0.7115
    ORTHCH:  cpu time      0.0215: real time      0.0216
       DOS:  cpu time      0.0012: real time      0.0012
    CHARGE:  cpu time      0.2323: real time      0.2328
    MIXING:  cpu time      0.0045: real time      0.0045
    --------------------------------------------
      LOOP:  cpu time      1.2448: real time      1.2634

 eigenvalue-minimisations  :  2669
 total energy-change (2. order) :-0.2058233E-01  (-0.1922767E-01)
 number of electron     256.0000001 magnetization 
 augmentation part      -14.6599559 magnetization 

 Broyden mixing:
  rms(total) = 0.58276E-01    rms(broyden)= 0.58276E-01
  rms(prec ) = 0.65588E-01
  weight for this iteration     100.00

 eigenvalues of (default mixing * dielectric matrix)
  average eigenvalue GAMMA=   1.9112
  2.5399  2.3562  2.3562  0.3924

 Free energy of the ion-electron system (eV)
  ---------------------------------------------------
  alpha Z        PSCENC =       110.61864773
  Ewald energy   TEWEN  =     -7380.57013000
  -Hartree energ DENC   =      -460.36889283
  -exchange      EXHF   =         0.00000000
  -V(xc)+E(xc)   XCENC  =      -535.07685397
  PAW double counting   =     29985.89649327   -28887.23556182
  entropy T*S    EENTRO =         0.03229092
  eigenvalues    EBANDS =       234.70639114
  atomic energy  EATOM  =      6564.79586099
  Solvation  Ediel_sol  =         0.00000000
  ---------------------------------------------------
  free energy    TOTEN  =      -367.20175458 eV

  energy without entropy =     -367.23404550  energy(sigma->0) =     -367.21251822


--------------------------------------------------------------------------------------------------------




--------------------------------------- Iteration      1(  10)  ---------------------------------------


    POTLOK:  cpu time      0.0810: real time      0.0883
    SETDIJ:  cpu time      0.0701: real time      0.0702
    EDDIAG:  cpu time      0.1327: real time      0.1330
  RMM-DIIS:  cpu time      0.7211: real time      0.7231
    ORTHCH:  cpu time      0.0215: real time      0.0216
       DOS:  cpu time      0.0012: real time      0.0012
    CHARGE:  cpu time      0.2327: real time      0.2333
    MIXING:  cpu time      0.0047: real time      0.0047
    --------------------------------------------
      LOOP:  cpu time      1.2651: real time      1.2755

 eigenvalue-minimisations  :  2738
 total energy-change (2. order) :-0.3475810E-02  (-0.3340682E-02)
 number of electron     256.0000001 magnetization 
 augmentation part      -14.6665298 magnetization 

 Broyden mixing:
  rms(total) = 0.73923E-01    rms(broyden)= 0.73923E-01
  rms(prec ) = 0.80350E-01
  weight for this iteration     100.00

 eigenvalues of (default mixing * dielectric matrix)
  average eigenvalue GAMMA=   1.5107
  2.6436  2.0334  2.0334  0.5892  0.2537

 Free energy of the ion-electron system (eV)
  ---------------------------------------------------
  alpha Z        PSCENC =       110.61864773
  Ewald energy   TEWEN  =     -7380.57013000
  -Hartree energ DENC   =      -460.41904308
  -exchange      EXHF   =         0.00000000
  -V(xc)+E(xc)   XCENC  =      -535.07098708
  PAW double counting   =     29998.35621159   -28899.69735372
  entropy T*S    EENTRO =         0.03229958
  eigenvalues    EBANDS =       234.74926361
  atomic energy  EATOM  =      6564.79586099
  Solvation  Ediel_sol  =         0.00000000
  ---------------------------------------------------
  free energy    TOTEN  =      -367.20523039 eV

  energy without entropy =     -367.23752997  energy(sigma->0) =     -367.21599691


--------------------------------------------------------------------------------------------------------




--------------------------------------- Iteration      1(  11)  ---------------------------------------


    POTLOK:  cpu time      0.0729: real time      0.0889
    SETDIJ:  cpu time      0.0697: real time      0.0698
    EDDIAG:  cpu time      0.1340: real time      0.1343
  RMM-DIIS:  cpu time      0.6867: real time      0.6887
    ORTHCH:  cpu time      0.0208: real time      0.0209
       DOS:  cpu time      0.0014: real time      0.0014
    CHARGE:  cpu time      0.2330: real time      0.2335
    MIXING:  cpu time      0.0047: real time      0.0047
    --------------------------------------------
      LOOP:  cpu time      1.2231: real time      1.2423

 eigenvalue-minimisations  :  2592
 total energy-change (2. order) : 0.2895268E-02  (-0.1120938E-02)
 number of electron     256.0000001 magnetization 
 augmentation part      -14.6800718 magnetization 

 Broyden mixing:
  rms(total) = 0.72835E-01    rms(broyden)= 0.72835E-01
  rms(prec ) = 0.73526E-01
  weight for this iteration     100.00

 eigenvalues of (default mixing * dielectric matrix)
  average eigenvalue GAMMA=   1.3651
  2.5269  2.5269  1.3846  0.7662  0.7662  0.2199

 Free energy of the ion-electron system (eV)
  ---------------------------------------------------
  alpha Z        PSCENC =       110.61864773
  Ewald energy   TEWEN  =     -7380.57013000
  -Hartree energ DENC   =      -458.10009161
  -exchange      EXHF   =         0.00000000
  -V(xc)+E(xc)   XCENC  =      -535.22910137
  PAW double counting   =     29978.26489622   -28879.35538747
  entropy T*S    EENTRO =         0.03182026
  eigenvalues    EBANDS =       232.34115013
  atomic energy  EATOM  =      6564.79586099
  Solvation  Ediel_sol  =         0.00000000
  ---------------------------------------------------
  free energy    TOTEN  =      -367.20233512 eV

  energy without entropy =     -367.23415538  energy(sigma->0) =     -367.21294188


--------------------------------------------------------------------------------------------------------




--------------------------------------- Iteration      1(  12)  ---------------------------------------


    POTLOK:  cpu time      0.0748: real time      0.0892
    SETDIJ:  cpu time      0.0709: real time      0.0711
    EDDIAG:  cpu time      0.1360: real time      0.1363
  RMM-DIIS:  cpu time      0.6867: real time      0.6886
    ORTHCH:  cpu time      0.0207: real time      0.0207
       DOS:  cpu time      0.0016: real time      0.0016
    CHARGE:  cpu time      0.2347: real time      0.2353
    MIXING:  cpu time      0.0054: real time      0.0054
    --------------------------------------------
      LOOP:  cpu time      1.2309: real time      1.2484

 eigenvalue-minimisations  :  2597
 total energy-change (2. order) :-0.6858657E-04  (-0.1750608E-03)
 number of electron     256.0000001 magnetization 
 augmentation part      -14.6836945 magnetization 

 Broyden mixing:
  rms(total) = 0.76387E-01    rms(broyden)= 0.76387E-01
  rms(prec ) = 0.76894E-01
  weight for this iteration     100.00

 eigenvalues of (default mixing * dielectric matrix)
  average eigenvalue GAMMA=   1.2210
  2.5298  2.5298  1.3996  0.8080  0.8080  0.2347  0.2375

 Free energy of the ion-electron system (eV)
  ---------------------------------------------------
  alpha Z        PSCENC =       110.61864773
  Ewald energy   TEWEN  =     -7380.57013000
  -Hartree energ DENC   =      -457.85756086
  -exchange      EXHF   =         0.00000000
  -V(xc)+E(xc)   XCENC  =      -535.26589931
  PAW double counting   =     29905.28818713   -28806.38499390
  entropy T*S    EENTRO =         0.03179151
  eigenvalues    EBANDS =       232.14169301
  atomic energy  EATOM  =      6564.79586099
  Solvation  Ediel_sol  =         0.00000000
  ---------------------------------------------------
  free energy    TOTEN  =      -367.20240371 eV

  energy without entropy =     -367.23419521  energy(sigma->0) =     -367.21300088


--------------------------------------------------------------------------------------------------------




--------------------------------------- Iteration      1(  13)  ---------------------------------------


    POTLOK:  cpu time      0.0732: real time      0.0896
    SETDIJ:  cpu time      0.0703: real time      0.0705
    EDDIAG:  cpu time      0.1348: real time      0.1351
  RMM-DIIS:  cpu time      0.7247: real time      0.7266
    ORTHCH:  cpu time      0.0214: real time      0.0214
       DOS:  cpu time      0.0013: real time      0.0013
    CHARGE:  cpu time      0.2339: real time      0.2345
    MIXING:  cpu time      0.0052: real time      0.0052
    --------------------------------------------
      LOOP:  cpu time      1.2646: real time      1.2841

 eigenvalue-minimisations  :  2762
 total energy-change (2. order) :-0.6618420E-04  (-0.3467875E-04)
 number of electron     256.0000001 magnetization 
 augmentation part      -14.6840827 magnetization 

 Broyden mixing:
  rms(total) = 0.81408E-01    rms(broyden)= 0.81408E-01
  rms(prec ) = 0.81887E-01
  weight for this iteration     100.00

 eigenvalues of (default mixing * dielectric matrix)
  average eigenvalue GAMMA=   1.5556
  2.6366  2.6366  2.5171  1.8079  1.0607  0.7696  0.7696  0.2464

 Free energy of the ion-electron system (eV)
  ---------------------------------------------------
  alpha Z        PSCENC =       110.61864773
  Ewald energy   TEWEN  =     -7380.57013000
  -Hartree energ DENC   =      -457.90179946
  -exchange      EXHF   =         0.00000000
  -V(xc)+E(xc)   XCENC  =      -535.25870004
  PAW double counting   =     29937.71192809   -28838.80761669
  entropy T*S    EENTRO =         0.03179469
  eigenvalues    EBANDS =       232.17754480
  atomic energy  EATOM  =      6564.79586099
  Solvation  Ediel_sol  =         0.00000000
  ---------------------------------------------------
  free energy    TOTEN  =      -367.20246989 eV

  energy without entropy =     -367.23426458  energy(sigma->0) =     -367.21306812


--------------------------------------------------------------------------------------------------------




--------------------------------------- Iteration      1(  14)  ---------------------------------------


    POTLOK:  cpu time      0.0724: real time      0.0885
    SETDIJ:  cpu time      0.0702: real time      0.0704
    EDDIAG:  cpu time      0.1335: real time      0.1338
  RMM-DIIS:  cpu time      0.6864: real time      0.6884
    ORTHCH:  cpu time      0.0211: real time      0.0212
       DOS:  cpu time      0.0016: real time      0.0016
    CHARGE:  cpu time      0.2334: real time      0.2340
    MIXING:  cpu time      0.0049: real time      0.0049
    --------------------------------------------
      LOOP:  cpu time      1.2236: real time      1.2427

 eigenvalue-minimisations  :  2592
 total energy-change (2. order) : 0.1385580E-03  (-0.1139284E-04)
 number of electron     256.0000001 magnetization 
 augmentation part      -14.6848925 magnetization 

 Broyden mixing:
  rms(total) = 0.60696E-01    rms(broyden)= 0.60696E-01
  rms(prec ) = 0.61295E-01
  weight for this iteration     100.00

 eigenvalues of (default mixing * dielectric matrix)
  average eigenvalue GAMMA=   1.4256
  2.6742  2.4789  2.4789  1.4151  1.0106  1.0106  0.7884  0.7263  0.2472

 Free energy of the ion-electron system (eV)
  ---------------------------------------------------
  alpha Z        PSCENC =       110.61864773
  Ewald energy   TEWEN  =     -7380.57013000
  -Hartree energ DENC   =      -457.59073654
  -exchange      EXHF   =         0.00000000
  -V(xc)+E(xc)   XCENC  =      -535.30086274
  PAW double counting   =     29733.69770622   -28634.82542589
  entropy T*S    EENTRO =         0.03176850
  eigenvalues    EBANDS =       231.94084040
  atomic energy  EATOM  =      6564.79586099
  Solvation  Ediel_sol  =         0.00000000
  ---------------------------------------------------
  free energy    TOTEN  =      -367.20233133 eV

  energy without entropy =     -367.23409983  energy(sigma->0) =     -367.21292083


--------------------------------------------------------------------------------------------------------




--------------------------------------- Iteration      1(  15)  ---------------------------------------


    POTLOK:  cpu time      0.0791: real time      0.0890
    SETDIJ:  cpu time      0.0704: real time      0.0705
    EDDIAG:  cpu time      0.1332: real time      0.1335
  RMM-DIIS:  cpu time      0.6948: real time      0.6970
    ORTHCH:  cpu time      0.0213: real time      0.0213
       DOS:  cpu time      0.0013: real time      0.0013
    CHARGE:  cpu time      0.2339: real time      0.2345
    MIXING:  cpu time      0.0049: real time      0.0049
    --------------------------------------------
      LOOP:  cpu time      1.2388: real time      1.2519

 eigenvalue-minimisations  :  2609
 total energy-change (2. order) :-0.1581052E-03  (-0.6006024E-05)
 number of electron     256.0000001 magnetization 
 augmentation part      -14.6854308 magnetization 

 Broyden mixing:
  rms(total) = 0.54436E-01    rms(broyden)= 0.54436E-01
  rms(prec ) = 0.54935E-01
  weight for this iteration     100.00

 eigenvalues of (default mixing * dielectric matrix)
  average eigenvalue GAMMA=   1.4260
  2.6131  2.6131  2.4288  1.3781  1.3781  1.0960  0.8647  0.8203  0.8203  0.2468

 Free energy of the ion-electron system (eV)
  ---------------------------------------------------
  alpha Z        PSCENC =       110.61864773
  Ewald energy   TEWEN  =     -7380.57013000
  -Hartree energ DENC   =      -457.53073492
  -exchange      EXHF   =         0.00000000
  -V(xc)+E(xc)   XCENC  =      -535.30208582
  PAW double counting   =     29715.11063708   -28616.23210810
  entropy T*S    EENTRO =         0.03173778
  eigenvalues    EBANDS =       231.87568582
  atomic energy  EATOM  =      6564.79586099
  Solvation  Ediel_sol  =         0.00000000
  ---------------------------------------------------
  free energy    TOTEN  =      -367.20248944 eV

  energy without entropy =     -367.23422722  energy(sigma->0) =     -367.21306870


--------------------------------------------------------------------------------------------------------




--------------------------------------- Iteration      1(  16)  ---------------------------------------


    POTLOK:  cpu time      0.0728: real time      0.0889
    SETDIJ:  cpu time      0.0719: real time      0.0720
    EDDIAG:  cpu time      0.1614: real time      0.1674
  RMM-DIIS:  cpu time      0.7088: real time      0.7105
    ORTHCH:  cpu time      0.0211: real time      0.0212
       DOS:  cpu time      0.0013: real time      0.0015
    CHARGE:  cpu time      0.2343: real time      0.2348
    MIXING:  cpu time      0.0064: real time      0.0064
    --------------------------------------------
      LOOP:  cpu time      1.2781: real time      1.3027

 eigenvalue-minimisations  :  2592
 total energy-change (2. order) :-0.1638483E-03  (-0.5091186E-05)
 number of electron     256.0000001 magnetization 
 augmentation part      -14.6847611 magnetization 

 Broyden mixing:
  rms(total) = 0.40760E-01    rms(broyden)= 0.40760E-01
  rms(prec ) = 0.41034E-01
  weight for this iteration     100.00

 eigenvalues of (default mixing * dielectric matrix)
  average eigenvalue GAMMA=   1.4235
  2.6556  2.6556  2.3831  1.3649  1.3649  1.6213  0.8899  0.8899  0.7934  0.7934
  0.2469

 Free energy of the ion-electron system (eV)
  ---------------------------------------------------
  alpha Z        PSCENC =       110.61864773
  Ewald energy   TEWEN  =     -7380.57013000
  -Hartree energ DENC   =      -457.75514726
  -exchange      EXHF   =         0.00000000
  -V(xc)+E(xc)   XCENC  =      -535.28136018
  PAW double counting   =     29689.28758421   -28590.41247904
  entropy T*S    EENTRO =         0.03174501
  eigenvalues    EBANDS =       232.08262526
  atomic energy  EATOM  =      6564.79586099
  Solvation  Ediel_sol  =         0.00000000
  ---------------------------------------------------
  free energy    TOTEN  =      -367.20265329 eV

  energy without entropy =     -367.23439830  energy(sigma->0) =     -367.21323496


--------------------------------------------------------------------------------------------------------




--------------------------------------- Iteration      1(  17)  ---------------------------------------


    POTLOK:  cpu time      0.0778: real time      0.0917
    SETDIJ:  cpu time      0.0702: real time      0.0704
    EDDIAG:  cpu time      0.1336: real time      0.1341
  RMM-DIIS:  cpu time      0.6833: real time      0.6849
    ORTHCH:  cpu time      0.0215: real time      0.0216
       DOS:  cpu time      0.0013: real time      0.0013
    CHARGE:  cpu time      0.2345: real time      0.2351
    MIXING:  cpu time      0.0054: real time      0.0054
    --------------------------------------------
      LOOP:  cpu time      1.2276: real time      1.2445

 eigenvalue-minimisations  :  2592
 total energy-change (2. order) :-0.6359595E-04  (-0.3108182E-05)
 number of electron     256.0000001 magnetization 
 augmentation part      -14.6840515 magnetization 

 Broyden mixing:
  rms(total) = 0.22795E-01    rms(broyden)= 0.22795E-01
  rms(prec ) = 0.22954E-01
  weight for this iteration     100.00

 eigenvalues of (default mixing * dielectric matrix)
  average eigenvalue GAMMA=   1.4760
  2.6248  2.6248  2.4644  1.8081  1.8081  1.6860  0.9997  0.9997  0.8810  0.7843
  0.7843  0.2469

 Free energy of the ion-electron system (eV)
  ---------------------------------------------------
  alpha Z        PSCENC =       110.61864773
  Ewald energy   TEWEN  =     -7380.57013000
  -Hartree energ DENC   =      -457.86601975
  -exchange      EXHF   =         0.00000000
  -V(xc)+E(xc)   XCENC  =      -535.27943689
  PAW double counting   =     29599.46768349   -28500.59765702
  entropy T*S    EENTRO =         0.03174721
  eigenvalues    EBANDS =       232.19658736
  atomic energy  EATOM  =      6564.79586099
  Solvation  Ediel_sol  =         0.00000000
  ---------------------------------------------------
  free energy    TOTEN  =      -367.20271688 eV

  energy without entropy =     -367.23446409  energy(sigma->0) =     -367.21329929


--------------------------------------------------------------------------------------------------------




--------------------------------------- Iteration      1(  18)  ---------------------------------------


    POTLOK:  cpu time      0.0726: real time      0.0887
    SETDIJ:  cpu time      0.0708: real time      0.0710
    EDDIAG:  cpu time      0.1335: real time      0.1340
  RMM-DIIS:  cpu time      0.6835: real time      0.6851
    ORTHCH:  cpu time      0.0214: real time      0.0214
       DOS:  cpu time      0.0014: real time      0.0014
    CHARGE:  cpu time      0.2396: real time      0.2402
    MIXING:  cpu time      0.0051: real time      0.0051
    --------------------------------------------
      LOOP:  cpu time      1.2279: real time      1.2468

 eigenvalue-minimisations  :  2582
 total energy-change (2. order) :-0.1882623E-04  (-0.7599241E-06)
 number of electron     256.0000001 magnetization 
 augmentation part      -14.6838035 magnetization 

 Broyden mixing:
  rms(total) = 0.11731E-01    rms(broyden)= 0.11731E-01
  rms(prec ) = 0.11848E-01
  weight for this iteration     100.00

 eigenvalues of (default mixing * dielectric matrix)
  average eigenvalue GAMMA=   1.4273
  1.9866  1.9866  2.6276  2.6276  2.4578  1.6447  0.9903  0.9903  0.8784  0.7954
  0.7954  0.2469  0.5277

 Free energy of the ion-electron system (eV)
  ---------------------------------------------------
  alpha Z        PSCENC =       110.61864773
  Ewald energy   TEWEN  =     -7380.57013000
  -Hartree energ DENC   =      -457.88470906
  -exchange      EXHF   =         0.00000000
  -V(xc)+E(xc)   XCENC  =      -535.28381309
  PAW double counting   =     29534.38515931   -28435.51674564
  entropy T*S    EENTRO =         0.03174242
  eigenvalues    EBANDS =       232.22125163
  atomic energy  EATOM  =      6564.79586099
  Solvation  Ediel_sol  =         0.00000000
  ---------------------------------------------------
  free energy    TOTEN  =      -367.20273571 eV

  energy without entropy =     -367.23447813  energy(sigma->0) =     -367.21331652


--------------------------------------------------------------------------------------------------------




--------------------------------------- Iteration      1(  19)  ---------------------------------------


    POTLOK:  cpu time      0.0722: real time      0.0889
    SETDIJ:  cpu time      0.0709: real time      0.0710
    EDDIAG:  cpu time      0.1324: real time      0.1329
  RMM-DIIS:  cpu time      0.6098: real time      0.6113
    ORTHCH:  cpu time      0.0207: real time      0.0208
       DOS:  cpu time      0.0016: real time      0.0016
    CHARGE:  cpu time      0.2334: real time      0.2340
    MIXING:  cpu time      0.0059: real time      0.0086
    --------------------------------------------
      LOOP:  cpu time      1.1470: real time      1.1691

 eigenvalue-minimisations  :  2200
 total energy-change (2. order) :-0.1261691E-04  (-0.5062445E-06)
 number of electron     256.0000001 magnetization 
 augmentation part      -14.6835924 magnetization 

 Broyden mixing:
  rms(total) = 0.35108E-02    rms(broyden)= 0.35107E-02
  rms(prec ) = 0.35825E-02
  weight for this iteration     100.00

 eigenvalues of (default mixing * dielectric matrix)
  average eigenvalue GAMMA=   1.7137
  3.7668  3.4875  2.5043  2.5043  2.3950  2.1727  1.1743  1.1743  1.0107  1.0107
  0.9216  0.8113  0.8113  0.2469

 Free energy of the ion-electron system (eV)
  ---------------------------------------------------
  alpha Z        PSCENC =       110.61864773
  Ewald energy   TEWEN  =     -7380.57013000
  -Hartree energ DENC   =      -457.91908408
  -exchange      EXHF   =         0.00000000
  -V(xc)+E(xc)   XCENC  =      -535.28424043
  PAW double counting   =     29494.34901690   -28395.48102350
  entropy T*S    EENTRO =         0.03173817
  eigenvalues    EBANDS =       232.25646590
  atomic energy  EATOM  =      6564.79586099
  Solvation  Ediel_sol  =         0.00000000
  ---------------------------------------------------
  free energy    TOTEN  =      -367.20274833 eV

  energy without entropy =     -367.23448649  energy(sigma->0) =     -367.21332772


--------------------------------------------------------------------------------------------------------




--------------------------------------- Iteration      1(  20)  ---------------------------------------


    POTLOK:  cpu time      0.0974: real time      0.1046
    SETDIJ:  cpu time      0.0757: real time      0.0793
    EDDIAG:  cpu time      0.1415: real time      0.1418
  RMM-DIIS:  cpu time      0.5043: real time      0.5111
    ORTHCH:  cpu time      0.0207: real time      0.0208
       DOS:  cpu time      0.0018: real time      0.0018
    CHARGE:  cpu time      0.2343: real time      0.2354
    MIXING:  cpu time      0.0067: real time      0.0067
    --------------------------------------------
      LOOP:  cpu time      1.0823: real time      1.1014

 eigenvalue-minimisations  :  1803
 total energy-change (2. order) :-0.2648679E-05  (-0.2778168E-06)
 number of electron     256.0000001 magnetization 
 augmentation part      -14.6834972 magnetization 

 Broyden mixing:
  rms(total) = 0.73062E-03    rms(broyden)= 0.73054E-03
  rms(prec ) = 0.74133E-03
  weight for this iteration     100.00

 eigenvalues of (default mixing * dielectric matrix)
  average eigenvalue GAMMA=   2.3940
 15.2023  2.7732  2.7732  2.5684  2.2386  1.8450  1.8450  0.2469  1.0797  1.0797
  1.0527  0.8022  0.8022  0.8721  0.7287

 Free energy of the ion-electron system (eV)
  ---------------------------------------------------
  alpha Z        PSCENC =       110.61864773
  Ewald energy   TEWEN  =     -7380.57013000
  -Hartree energ DENC   =      -457.93826596
  -exchange      EXHF   =         0.00000000
  -V(xc)+E(xc)   XCENC  =      -535.28336560
  PAW double counting   =     29482.85644290   -28383.98750149
  entropy T*S    EENTRO =         0.03173387
  eigenvalues    EBANDS =       232.27382658
  atomic energy  EATOM  =      6564.79586099
  Solvation  Ediel_sol  =         0.00000000
  ---------------------------------------------------
  free energy    TOTEN  =      -367.20275098 eV

  energy without entropy =     -367.23448485  energy(sigma->0) =     -367.21332893


--------------------------------------------------------------------------------------------------------




--------------------------------------- Iteration      1(  21)  ---------------------------------------


    POTLOK:  cpu time      0.0814: real time      0.0884
    SETDIJ:  cpu time      0.0726: real time      0.0727
    EDDIAG:  cpu time      0.1330: real time      0.1335
  RMM-DIIS:  cpu time      0.4461: real time      0.4472
    ORTHCH:  cpu time      0.0213: real time      0.0214
       DOS:  cpu time      0.0014: real time      0.0014
    --------------------------------------------
      LOOP:  cpu time      0.7558: real time      0.7646

 eigenvalue-minimisations  :  1552
 total energy-change (2. order) :-0.5304291E-06  (-0.5216962E-07)
 number of electron     256.0000001 magnetization 
 augmentation part      -14.6834972 magnetization 

 Free energy of the ion-electron system (eV)
  ---------------------------------------------------
  alpha Z        PSCENC =       110.61864773
  Ewald energy   TEWEN  =     -7380.57013000
  -Hartree energ DENC   =      -457.94763191
  -exchange      EXHF   =         0.00000000
  -V(xc)+E(xc)   XCENC  =      -535.28212997
  PAW double counting   =     29486.92944300   -28388.06048519
  entropy T*S    EENTRO =         0.03173374
  eigenvalues    EBANDS =       232.28194010
  atomic energy  EATOM  =      6564.79586099
  Solvation  Ediel_sol  =         0.00000000
  ---------------------------------------------------
  free energy    TOTEN  =      -367.20275151 eV

  energy without entropy =     -367.23448525  energy(sigma->0) =     -367.21332942


--------------------------------------------------------------------------------------------------------




 average (electrostatic) potential at core
  the test charge radii are     0.9892
  (the norm of the test charge is              1.0000)
       1 -82.7202       2 -82.7202       3 -82.7202       4 -82.7202       5 -82.7202
       6 -82.7202       7 -82.7202       8 -82.7202       9 -82.7202      10 -82.7202
      11 -82.7202      12 -82.7202      13 -82.7202      14 -82.7202      15 -82.7202
      16 -82.7202      17 -82.7202      18 -82.7202      19 -82.7202      20 -82.7202
      21 -82.7202      22 -82.7202      23 -82.7202      24 -82.7202      25 -82.7202
      26 -82.7202      27 -82.7202      28 -82.7202      29 -82.7202      30 -82.7202
      31 -82.7202      32 -82.7202      33 -82.7202      34 -82.7202      35 -82.7202
      36 -82.7202      37 -82.7202      38 -82.7202      39 -82.7202      40 -82.7202
      41 -82.7202      42 -82.7202      43 -82.7202      44 -82.7202      45 -82.7202
      46 -82.7202      47 -82.7202      48 -82.7202      49 -82.7202      50 -82.7202
      51 -82.7202      52 -82.7202      53 -82.7202      54 -82.7202      55 -82.7202
      56 -82.7202      57 -82.7202      58 -82.7202      59 -82.7202      60 -82.7202
      61 -82.7202      62 -82.7202      63 -82.7202      64 -82.7202
 
 
 
 E-fermi :   6.3564     XC(G=0):  -9.6586     alpha+bet :-12.3147

 val. band max:        6.1264646729   @ k =   0.0000   0.0000   0.0000
 cond. band min:       6.4711840344   @ k =   0.5000  -0.0000   0.0000
 fundamental gap:      0.3447193615
 Fermi energy:         6.3564061919

 k-point     1 :       0.0000    0.0000    0.0000
  band No.  band energies     occupation 
      1      -6.1084      2.00000
      2      -5.0027      2.00000
      3      -5.0027      2.00000
      4      -5.0025      2.00000
      5      -5.0025      2.00000
      6      -4.9833      2.00000
      7      -4.9833      2.00000
      8      -4.0263      2.00000
      9      -4.0263      2.00000
     10      -4.0100      2.00000
     11      -4.0100      2.00000
     12      -4.0100      2.00000
     13      -4.0100      2.00000
     14      -3.9964      2.00000
     15      -3.9964      2.00000
     16      -3.9964      2.00000
     17      -3.9964      2.00000
     18      -3.9659      2.00000
     19      -3.9659      2.00000
     20      -3.7215      2.00000
     21      -3.7215      2.00000
     22      -3.6524      2.00000
     23      -3.6524      2.00000
     24      -1.9075      2.00000
     25      -1.8661      2.00000
     26      -1.8661      2.00000
     27      -1.8257      2.00000
     28      -1.8039      2.00000
     29      -1.8039      2.00000
     30      -1.7225      2.00000
     31      -1.7225      2.00000
     32      -1.7013      2.00000
     33      -1.7013      2.00000
     34      -1.6553      2.00000
     35      -1.6553      2.00000
     36      -1.6553      2.00000
     37      -1.6553      2.00000
     38      -1.6298      2.00000
     39      -1.6298      2.00000
     40      -1.6092      2.00000
     41      -1.6092      2.00000
     42      -1.0806      2.00000
     43      -1.0806      2.00000
     44      -1.0666      2.00000
     45      -1.0666      2.00000
     46       0.4992      2.00000
     47       0.4992      2.00000
     48       0.5178      2.00000
     49       0.5178      2.00000
     50       0.5178      2.00000
     51       0.5178      2.00000
     52       0.5355      2.00000
     53       0.5355      2.00000
     54       0.5551      2.00000
     55       0.5551      2.00000
     56       0.5551      2.00000
     57       0.5551      2.00000
     58       2.0428      2.00000
     59       2.0428      2.00000
     60       2.0443      2.00000
     61       2.0443      2.00000
     62       2.0487      2.00000
     63       2.0487      2.00000
     64       2.0500      2.00000
     65       2.0500      2.00000
     66       2.0500      2.00000
     67       2.0501      2.00000
     68       2.0508      2.00000
     69       2.0508      2.00000
     70       2.1317      2.00000
     71       2.1317      2.00000
     72       2.1433      2.00000
     73       2.1433      2.00000
     74       2.1433      2.00000
     75       2.1433      2.00000
     76       2.1543      2.00000
     77       2.1543      2.00000
     78       2.2006      2.00000
     79       2.2006      2.00000
     80       2.2006      2.00000
     81       2.2006      2.00000
     82       2.5349      2.00000
     83       2.5350      2.00000
     84       2.5364      2.00000
     85       2.5365      2.00000
     86       2.6091      2.00000
     87       2.6091      2.00000
     88       3.0753      2.00000
     89       3.0753      2.00000
     90       3.0983      2.00000
     91       3.1543      2.00000
     92       3.1543      2.00000
     93       3.2108      2.00000
     94       4.0738      2.00000
     95       4.0738      2.00000
     96       4.0739      2.00000
     97       4.0739      2.00000
     98       4.0852      2.00000
     99       4.0852      2.00000
    100       4.1239      2.00000
    101       4.1239      2.00000
    102       4.1463      2.00000
    103       4.1463      2.00000
    104       4.1862      2.00000
    105       4.1862      2.00000
    106       4.6531      2.00000
    107       4.6531      2.00000
    108       4.6531      2.00000
    109       4.6531      2.00000
    110       4.7082      2.00000
    111       4.7082      2.00000
    112       4.7344      2.00000
    113       4.7344      2.00000
    114       4.7344      2.00000
    115       4.7344      2.00000
    116       4.7617      2.00000
    117       4.7617      2.00000
    118       4.7731      2.00000
    119       4.7731      2.00000
    120       4.8249      2.00000
    121       4.8249      2.00000
    122       4.8734      2.00000
    123       4.8734      2.00000
    124       4.9212      2.00000
    125       4.9212      2.00000
    126       6.0500      2.05241
    127       6.0517      2.05318
    128       6.1265      2.06900
    129       6.5542     -0.04789
    130       6.5542     -0.04789
    131       6.5765     -0.06529
    132       6.6355     -0.06387
    133       6.6355     -0.06387
    134       6.6955     -0.03747
    135       7.0284     -0.00002
    136       7.0284     -0.00002
    137       7.1094     -0.00000
    138       7.1094     -0.00000
    139       7.1096     -0.00000
    140       7.1096     -0.00000
    141       7.5873     -0.00000
    142       7.5873     -0.00000
    143       7.6804     -0.00000
    144       7.6804     -0.00000
    145       8.3897     -0.00000
    146       8.3898     -0.00000
[...]
  0.000   0.000   4.173   0.000   0.000   7.775   0.000   0.000
 -0.001  -0.001   0.000   4.173   0.000   0.000   7.775   0.000
  0.000   0.000   0.000   0.000   4.173   0.000   0.000   7.775
  0.000   0.000   7.775   0.000   0.000  14.495   0.000   0.000
 -0.001  -0.002   0.000   7.775   0.000   0.000  14.495   0.000
  0.000   0.000   0.000   0.000   7.775   0.000   0.000  14.495
 total augmentation occupancy for first ion, spin component:           1
  6.156  -2.405  -0.000   0.027   0.000  -0.000  -0.010  -0.000
 -2.405   1.049   0.000  -0.014   0.000   0.000   0.005  -0.000
 -0.000   0.000   3.044  -0.000   0.005  -0.689   0.000   0.000
  0.027  -0.014  -0.000   3.044   0.000   0.000  -0.689   0.000
  0.000   0.000   0.005   0.000   3.025   0.000   0.000  -0.681
 -0.000   0.000  -0.689   0.000   0.000   0.165  -0.000  -0.000
 -0.010   0.005   0.000  -0.689   0.000  -0.000   0.165  -0.000
 -0.000  -0.000   0.000   0.000  -0.681  -0.000  -0.000   0.163


------------------------ aborting loop because EDIFF is reached ----------------------------------------


    CHARGE:  cpu time      0.2323: real time      0.2356
    FORLOC:  cpu time      0.0202: real time      0.0204
    FORNL :  cpu time      0.6634: real time      0.6801
    STRESS:  cpu time      2.0556: real time      2.1074
    FORCOR:  cpu time      0.0851: real time      0.0867
    FORHAR:  cpu time      0.0334: real time      0.0340
    MIXING:  cpu time      0.0038: real time      0.0039
    OFIELD:  cpu time      0.0000: real time      0.0000

  FORCE on cell =-STRESS in cart. coord.  units (eV):
  Direction    XX          YY          ZZ          XY          YZ          ZX
  --------------------------------------------------------------------------------------
  Alpha Z   110.61865   110.61865   110.61865
  Ewald   -2482.95720 -2448.94320 -2448.89098     7.93231     0.00000     0.00000
  Hartree   148.89346   154.49750   154.44110     4.55137    -0.00000    -0.00000
  E(xc)    -822.90311  -823.19338  -823.19898    -0.06515    -0.00000    -0.00000
  Local    -890.60690  -931.44010  -931.44483   -13.56108    -0.00000    -0.00000
  n-local  2497.98552  2502.84859  2502.93783     0.61266    -0.00000    -0.00000
  augment  -368.84056  -368.81455  -368.81315    -0.39051     0.00000     0.00000
  Kinetic  1836.01760  1826.01175  1825.82615     6.92327    -0.00000     0.00000
  Fock        0.00000     0.00000     0.00000     0.00000     0.00000     0.00000
  -------------------------------------------------------------------------------------
  Total      28.20745    21.58525    21.47580     6.00286     0.00000     0.00000
  in kB      36.25670    27.74480    27.60411     7.71583     0.00000     0.00000
  external pressure =       30.54 kB  Pullay stress =        0.00 kB


 VOLUME and BASIS-vectors are now :
 -----------------------------------------------------------------------------
  energy-cutoff  :      400.00
  volume of cell :     1246.48
      direct lattice vectors                 reciprocal lattice vectors
    10.690281579 -0.053991008  0.000000000     0.093545268  0.000467724  0.000000000
    -0.053991008 10.798264595  0.000000000     0.000467724  0.092609812  0.000000000
     0.000000000  0.000000000 10.798264595     0.000000000  0.000000000  0.092607473

  length of vectors
    10.690417918 10.798399571 10.798264595     0.093546437  0.092610993  0.092607473


 FORCES acting on ions
    electron-ion (+dipol)            ewald-force                    non-local-force                 convergence-correction
 -----------------------------------------------------------------------------------------------
   0.355E-08 0.286E-08 0.858E+00   -.107E-13 0.209E-13 -.609E+00   0.965E-21 -.824E-21 -.249E+00   0.321E-13 -.341E-14 -.911E-05
   0.355E-08 0.286E-08 0.858E+00   -.533E-14 0.111E-13 -.609E+00   -.248E-20 -.870E-20 -.249E+00   -.476E-13 -.348E-13 -.911E-05
   0.355E-08 0.286E-08 0.858E+00   0.711E-14 0.102E-13 -.609E+00   -.330E-20 0.347E-20 -.249E+00   0.109E-13 0.559E-14 -.911E-05
   0.355E-08 0.286E-08 0.858E+00   0.266E-14 0.182E-13 -.609E+00   0.316E-20 -.467E-21 -.249E+00   -.200E-13 0.381E-13 -.911E-05
   0.355E-08 0.286E-08 0.858E+00   0.777E-14 0.142E-13 -.609E+00   -.368E-20 0.486E-20 -.249E+00   -.313E-13 -.172E-13 -.911E-05
   0.355E-08 0.286E-08 0.858E+00   0.115E-13 0.178E-13 -.609E+00   0.313E-20 -.255E-20 -.249E+00   0.438E-13 0.328E-14 -.911E-05
   0.355E-08 0.286E-08 0.858E+00   0.147E-13 0.169E-13 -.609E+00   -.319E-21 0.232E-21 -.249E+00   -.192E-14 0.134E-13 -.911E-05
   0.355E-08 0.286E-08 0.858E+00   -.355E-14 0.107E-13 -.609E+00   -.171E-21 -.843E-20 -.249E+00   0.102E-13 -.235E-14 -.911E-05
   -.163E-08 -.105E-08 -.858E+00   0.111E-13 0.124E-13 0.609E+00   0.327E-20 -.342E-20 0.249E+00   0.172E-13 -.452E-13 0.911E-05
   -.163E-08 -.105E-08 -.858E+00   -.355E-14 0.124E-13 0.609E+00   0.419E-20 0.701E-20 0.249E+00   -.353E-14 0.697E-13 0.911E-05
   -.163E-08 -.105E-08 -.858E+00   0.799E-14 0.129E-13 0.609E+00   0.330E-20 -.178E-20 0.249E+00   0.314E-13 0.397E-13 0.911E-05
   -.163E-08 -.105E-08 -.858E+00   0.000E+00 0.160E-13 0.609E+00   0.214E-21 0.471E-20 0.249E+00   -.228E-13 -.725E-13 0.911E-05
   -.163E-08 -.105E-08 -.858E+00   0.213E-13 0.888E-14 0.609E+00   0.198E-20 0.220E-21 0.249E+00   -.189E-13 -.540E-14 0.911E-05
   -.163E-08 -.105E-08 -.858E+00   0.213E-13 0.142E-13 0.609E+00   -.143E-20 0.679E-20 0.249E+00   0.106E-13 0.397E-13 0.911E-05
   -.163E-08 -.105E-08 -.858E+00   0.107E-13 0.120E-13 0.609E+00   0.321E-21 -.109E-20 0.249E+00   -.272E-13 -.273E-14 0.911E-05
   -.163E-08 -.105E-08 -.858E+00   0.533E-14 0.888E-14 0.609E+00   0.355E-20 0.334E-20 0.249E+00   0.288E-13 -.338E-13 0.911E-05
   0.355E-08 0.286E-08 0.858E+00   0.688E-14 0.777E-14 -.609E+00   0.172E-20 -.369E-20 -.249E+00   0.453E-13 0.132E-13 -.911E-05
   0.355E-08 0.286E-08 0.858E+00   0.155E-13 0.799E-14 -.609E+00   0.420E-20 -.299E-20 -.249E+00   -.629E-13 0.320E-14 -.911E-05
   0.355E-08 0.286E-08 0.858E+00   0.444E-14 -.666E-15 -.609E+00   0.571E-22 0.386E-20 -.249E+00   0.507E-13 -.109E-13 -.911E-05
   0.355E-08 0.286E-08 0.858E+00   0.124E-13 0.488E-14 -.609E+00   0.997E-20 -.162E-20 -.249E+00   -.633E-13 -.359E-14 -.911E-05
   0.355E-08 0.286E-08 0.858E+00   0.229E-13 0.107E-13 -.609E+00   -.176E-20 0.629E-21 -.249E+00   -.467E-13 -.405E-13 -.911E-05
   0.355E-08 0.286E-08 0.858E+00   0.133E-13 0.000E+00 -.609E+00   0.100E-19 -.120E-20 -.249E+00   0.644E-13 0.555E-13 -.911E-05
   0.355E-08 0.286E-08 0.858E+00   0.226E-13 0.178E-14 -.609E+00   0.156E-20 -.506E-20 -.249E+00   -.464E-13 0.360E-13 -.911E-05
   0.355E-08 0.286E-08 0.858E+00   0.000E+00 0.000E+00 -.609E+00   0.514E-20 -.235E-20 -.249E+00   0.606E-13 -.467E-13 -.911E-05
   -.163E-08 -.105E-08 -.858E+00   0.173E-13 0.315E-14 0.609E+00   0.172E-20 -.589E-20 0.249E+00   0.395E-13 0.101E-13 0.911E-05
   -.163E-08 -.105E-08 -.858E+00   0.173E-13 0.693E-14 0.609E+00   0.697E-20 0.115E-20 0.249E+00   -.239E-13 -.144E-13 0.911E-05
   -.163E-08 -.105E-08 -.858E+00   0.142E-13 0.824E-14 0.609E+00   -.118E-19 0.162E-20 0.249E+00   -.598E-14 -.137E-13 0.911E-05
   -.163E-08 -.105E-08 -.858E+00   0.249E-13 -.241E-14 0.609E+00   -.345E-20 0.101E-19 0.249E+00   0.113E-13 0.222E-13 0.911E-05
   -.163E-08 -.105E-08 -.858E+00   0.222E-13 0.580E-14 0.609E+00   -.857E-20 0.713E-20 0.249E+00   -.361E-13 0.247E-14 0.911E-05
   -.163E-08 -.105E-08 -.858E+00   0.187E-13 0.580E-14 0.609E+00   -.784E-21 0.488E-20 0.249E+00   0.281E-13 -.139E-13 0.911E-05
   -.163E-08 -.105E-08 -.858E+00   0.266E-13 0.337E-14 0.609E+00   -.174E-20 -.824E-20 0.249E+00   0.867E-14 -.345E-14 0.911E-05
   -.163E-08 -.105E-08 -.858E+00   0.231E-13 -.180E-15 0.609E+00   0.702E-20 0.167E-20 0.249E+00   -.225E-14 0.253E-13 0.911E-05
   0.355E-08 0.286E-08 0.858E+00   -.315E-13 -.711E-14 -.609E+00   0.363E-20 0.896E-21 -.249E+00   0.107E-12 -.612E-14 -.911E-05
   0.355E-08 0.286E-08 0.858E+00   -.240E-13 -.711E-14 -.609E+00   -.140E-20 0.100E-22 -.249E+00   -.119E-12 -.270E-13 -.911E-05
   0.355E-08 0.286E-08 0.858E+00   -.253E-13 -.555E-14 -.609E+00   -.400E-20 0.507E-20 -.249E+00   0.548E-13 0.814E-14 -.911E-05
   0.355E-08 0.286E-08 0.858E+00   -.346E-13 -.977E-14 -.609E+00   -.866E-20 0.691E-20 -.249E+00   -.688E-13 0.217E-13 -.911E-05
   0.355E-08 0.286E-08 0.858E+00   -.173E-13 -.133E-14 -.609E+00   -.346E-20 0.232E-21 -.249E+00   -.108E-12 -.471E-14 -.911E-05
   0.355E-08 0.286E-08 0.858E+00   -.933E-14 -.444E-14 -.609E+00   -.945E-20 0.940E-20 -.249E+00   0.117E-12 -.228E-13 -.911E-05
   0.355E-08 0.286E-08 0.858E+00   -.280E-13 -.711E-14 -.609E+00   0.653E-20 -.143E-20 -.249E+00   -.580E-13 0.474E-14 -.911E-05
   0.355E-08 0.286E-08 0.858E+00   -.355E-14 0.711E-14 -.609E+00   -.672E-20 -.749E-20 -.249E+00   0.720E-13 0.228E-13 -.911E-05
   -.163E-08 -.105E-08 -.858E+00   -.402E-14 -.755E-14 0.609E+00   0.679E-20 0.837E-21 0.249E+00   0.385E-13 0.457E-13 0.911E-05
   -.163E-08 -.105E-08 -.858E+00   -.140E-13 -.755E-14 0.609E+00   -.236E-20 -.936E-20 0.249E+00   -.504E-13 -.128E-13 0.911E-05
   -.163E-08 -.105E-08 -.858E+00   -.169E-13 0.444E-15 0.609E+00   0.358E-20 -.351E-20 0.249E+00   0.288E-13 -.449E-13 0.911E-05
   -.163E-08 -.105E-08 -.858E+00   -.142E-13 -.311E-14 0.609E+00   0.168E-20 0.856E-21 0.249E+00   -.539E-13 0.461E-14 0.911E-05
   -.163E-08 -.105E-08 -.858E+00   -.353E-13 -.355E-14 0.609E+00   0.140E-20 0.246E-20 0.249E+00   -.412E-13 0.344E-14 0.911E-05
   -.163E-08 -.105E-08 -.858E+00   -.187E-13 -.711E-14 0.609E+00   0.146E-20 0.230E-20 0.249E+00   0.432E-13 0.182E-13 0.911E-05
   -.163E-08 -.105E-08 -.858E+00   -.690E-14 -.355E-14 0.609E+00   0.564E-20 0.157E-20 0.249E+00   -.319E-13 0.138E-14 0.911E-05
   -.163E-08 -.105E-08 -.858E+00   -.105E-13 -.107E-13 0.609E+00   -.655E-20 -.121E-19 0.249E+00   0.437E-13 -.290E-13 0.911E-05
   0.355E-08 0.286E-08 0.858E+00   -.133E-14 -.955E-14 -.609E+00   0.179E-20 -.874E-21 -.249E+00   0.225E-13 -.444E-13 -.911E-05
   0.355E-08 0.286E-08 0.858E+00   -.755E-14 -.622E-14 -.609E+00   0.337E-20 0.417E-20 -.249E+00   -.140E-13 0.609E-13 -.911E-05
   0.355E-08 0.286E-08 0.858E+00   -.115E-13 -.207E-13 -.609E+00   0.507E-20 -.398E-20 -.249E+00   0.316E-13 0.482E-13 -.911E-05
   0.355E-08 0.286E-08 0.858E+00   -.711E-14 -.142E-13 -.609E+00   0.178E-21 0.901E-20 -.249E+00   -.514E-13 -.621E-13 -.911E-05
   0.355E-08 0.286E-08 0.858E+00   -.600E-14 -.129E-13 -.609E+00   0.531E-20 -.420E-20 -.249E+00   -.251E-13 -.210E-13 -.911E-05
   0.355E-08 0.286E-08 0.858E+00   -.400E-14 -.622E-14 -.609E+00   -.328E-20 0.401E-20 -.249E+00   0.191E-13 0.323E-13 -.911E-05
   0.355E-08 0.286E-08 0.858E+00   -.266E-13 -.173E-13 -.609E+00   -.237E-20 -.165E-20 -.249E+00   -.384E-13 0.218E-13 -.911E-05
   0.355E-08 0.286E-08 0.858E+00   -.107E-13 -.178E-13 -.609E+00   0.327E-20 0.133E-20 -.249E+00   0.598E-13 -.299E-13 -.911E-05
   -.163E-08 -.105E-08 -.858E+00   -.103E-13 -.126E-13 0.609E+00   0.159E-20 -.421E-20 0.249E+00   0.112E-12 -.181E-13 0.911E-05
   -.163E-08 -.105E-08 -.858E+00   -.236E-13 -.123E-13 0.609E+00   0.167E-22 -.585E-20 0.249E+00   -.127E-12 0.836E-14 0.911E-05
   -.163E-08 -.105E-08 -.858E+00   0.695E-14 -.180E-13 0.609E+00   -.422E-20 0.483E-20 0.249E+00   0.704E-13 0.286E-13 0.911E-05
   -.163E-08 -.105E-08 -.858E+00   0.786E-14 -.143E-13 0.609E+00   0.405E-20 -.546E-21 0.249E+00   -.942E-13 -.950E-14 0.911E-05
   -.163E-08 -.105E-08 -.858E+00   -.718E-14 -.843E-14 0.609E+00   -.531E-20 0.590E-20 0.249E+00   -.116E-12 -.331E-13 0.911E-05
   -.163E-08 -.105E-08 -.858E+00   -.300E-14 -.797E-14 0.609E+00   0.328E-20 -.230E-20 0.249E+00   0.120E-12 0.266E-13 0.911E-05
   -.163E-08 -.105E-08 -.858E+00   0.636E-14 -.112E-13 0.609E+00   -.188E-20 -.637E-22 0.249E+00   -.746E-13 0.356E-13 0.911E-05
   -.163E-08 -.105E-08 -.858E+00   0.722E-14 -.365E-14 0.609E+00   0.121E-21 -.557E-20 0.249E+00   0.839E-13 -.282E-13 0.911E-05
 -----------------------------------------------------------------------------------------------
   0.614E-07 0.580E-07 -.890E-05   -.239E-13 0.955E-14 0.422E-13   0.321E-19 -.104E-22 0.666E-15   -.139E-13 0.123E-13 0.162E-09
 
 
 POSITION                                       TOTAL-FORCE (eV/Angst)
 -----------------------------------------------------------------------------------
     -0.00000      0.00000     10.79438         0.000000      0.000000     -0.000096
      0.00000      0.00000      5.39524         0.000000     -0.000000     -0.000096
     -0.02700      5.39913     10.79438        -0.000000     -0.000000     -0.000096
     -0.02700      5.39913      5.39524        -0.000000     -0.000000     -0.000096
      5.34514     -0.02700     10.79438         0.000000      0.000000     -0.000096
      5.34514     -0.02700      5.39524         0.000000     -0.000000     -0.000096
      5.31815      5.37214     10.79438        -0.000000     -0.000000     -0.000096
      5.31815      5.37214      5.39524        -0.000000     -0.000000     -0.000096
      3.98861      4.02910      1.35367         0.000000     -0.000000      0.000096
      3.98861      4.02910      6.75280         0.000000      0.000000      0.000096
      3.96161      9.42823      1.35367        -0.000000     -0.000000      0.000096
      3.96161      9.42823      6.75280        -0.000000      0.000000      0.000096
      9.33375      4.00211      1.35367         0.000000      0.000000      0.000096
      9.33375      4.00211      6.75280         0.000000      0.000000      0.000096
      9.30675      9.40124      1.35367        -0.000000      0.000000      0.000096
      9.30675      9.40124      6.75280        -0.000000      0.000000      0.000096
     -0.01350      2.69957      2.69568         0.000000      0.000000     -0.000096
     -0.01350      2.69957      8.09481         0.000000      0.000000     -0.000096
     -0.04049      8.09870      2.69568        -0.000000     -0.000000     -0.000096
     -0.04049      8.09870      8.09481        -0.000000     -0.000000     -0.000096
      5.33164      2.67257      2.69568         0.000000      0.000000     -0.000096
      5.33164      2.67257      8.09481         0.000000      0.000000     -0.000096
      5.30465      8.07170      2.69568        -0.000000     -0.000000     -0.000096
      5.30465      8.07170      8.09481        -0.000000      0.000000     -0.000096
      4.00211      1.32954      4.05324        -0.000000     -0.000000      0.000096
      4.00211      1.32954      9.45237        -0.000000     -0.000000      0.000096
      3.97511      6.72867      4.05324         0.000000     -0.000000      0.000096
      3.97511      6.72867      9.45237         0.000000     -0.000000      0.000096
      9.34725      1.30254      4.05324        -0.000000     -0.000000      0.000096
      9.34725      1.30254      9.45237        -0.000000     -0.000000      0.000096
      9.32025      6.70167      4.05324         0.000000      0.000000      0.000096
      9.32025      6.70167      9.45237         0.000000     -0.000000      0.000096
      2.67257     -0.01350      2.69568         0.000000      0.000000     -0.000096
      2.67257     -0.01350      8.09481         0.000000     -0.000000     -0.000096
      2.64557      5.38563      2.69568        -0.000000     -0.000000     -0.000096
      2.64557      5.38563      8.09481        -0.000000     -0.000000     -0.000096
      8.01771     -0.04049      2.69568         0.000000      0.000000     -0.000096
      8.01771     -0.04049      8.09481         0.000000     -0.000000     -0.000096
      7.99072      5.35864      2.69568        -0.000000     -0.000000     -0.000096
      7.99072      5.35864      8.09481        -0.000000     -0.000000     -0.000096
      1.31604      4.04260      4.05324         0.000000      0.000000      0.000096
      1.31604      4.04260      9.45237         0.000000      0.000000      0.000096
      1.28904      9.44173      4.05324        -0.000000      0.000000      0.000096
      1.28904      9.44173      9.45237        -0.000000      0.000000      0.000096
      6.66118      4.01560      4.05324         0.000000      0.000000      0.000096
      6.66118      4.01560      9.45237         0.000000      0.000000      0.000096
      6.63418      9.41474      4.05324        -0.000000      0.000000      0.000096
      6.63418      9.41474      9.45237        -0.000000     -0.000000      0.000096
      2.65907      2.68607     10.79438         0.000000      0.000000     -0.000096
      2.65907      2.68607      5.39524         0.000000      0.000000     -0.000096
      2.63208      8.08520     10.79438        -0.000000      0.000000     -0.000096
      2.63208      8.08520      5.39524        -0.000000      0.000000     -0.000096
      8.00421      2.65907     10.79438         0.000000      0.000000     -0.000096
      8.00421      2.65907      5.39524         0.000000      0.000000     -0.000096
      7.97722      8.05821     10.79438        -0.000000      0.000000     -0.000096
      7.97722      8.05821      5.39524        -0.000000     -0.000000     -0.000096
      1.32954      1.34303      1.35367        -0.000000     -0.000000      0.000096
      1.32954      1.34303      6.75280        -0.000000     -0.000000      0.000096
      1.30254      6.74217      1.35367         0.000000     -0.000000      0.000096
      1.30254      6.74217      6.75280         0.000000      0.000000      0.000096
      6.67468      1.31604      1.35367        -0.000000     -0.000000      0.000096
      6.67468      1.31604      6.75280        -0.000000     -0.000000      0.000096
      6.64768      6.71517      1.35367         0.000000     -0.000000      0.000096
      6.64768      6.71517      6.75280         0.000000     -0.000000      0.000096
 -----------------------------------------------------------------------------------
    total drift:                                0.000000      0.000000     -0.000009


--------------------------------------------------------------------------------------------------------



  FREE ENERGIE OF THE ION-ELECTRON SYSTEM (eV)
  ---------------------------------------------------
  free  energy   TOTEN  =      -367.21662540 eV

  energy  without entropy=     -367.24685505  energy(sigma->0) =     -367.22670195
 
 d Force = 0.2056758E-02[-0.930E-05, 0.412E-02]  d Energy = 0.2069355E-02-0.126E-04
 d Force =-0.5505214E-01[-0.587E-01,-0.514E-01]  d Ewald  =-0.5504274E-01-0.940E-05


--------------------------------------------------------------------------------------------------------


    POTLOK:  cpu time      0.1390: real time      0.1423


--------------------------------------------------------------------------------------------------------




--------------------------------------------------------------------------------------------------------


  
 reached required accuracy - stopping structural energy minimisation
     LOOP+:  cpu time     12.5283: real time     12.7797
    4ORBIT:  cpu time      0.0000: real time      0.0000

 total amount of memory used by VASP MPI-rank0    80073. kBytes
=======================================================================

   base      :      30000. kBytes
   nonlr-proj:       4549. kBytes
   fftplans  :      17993. kBytes
   grid      :       6881. kBytes
   one-center:         18. kBytes
   wavefun   :      20632. kBytes
 
  
  
 General timing and accounting informations for this job:
 ========================================================
  
                  Total CPU time used (sec):       60.971
                            User time (sec):       57.870
                          System time (sec):        3.101
                         Elapsed time (sec):       64.688
  
                   Maximum memory used (kb):      411152.
                   Average memory used (kb):          N/A
  
                          Minor page faults:        92770
                          Major page faults:            0
                 Voluntary context switches:         9017
