  64  64   0   0
  0.1860214E+02  0.1045769E-08  0.1067109E-08  0.1067056E-08  0.5000000E-15
  1.000000000000000E-004
  CAR 
 Si64                                    
     12.02420476     -7.95278734  301      6.74108451      1.00000000
     -7.953  0.0000E+00  0.0000E+00
     -7.886  0.0000E+00  0.0000E+00
     -7.820  0.0000E+00  0.0000E+00
     -7.753  0.0000E+00  0.0000E+00
     -7.686  0.0000E+00  0.0000E+00
     -7.620  0.0000E+00  0.0000E+00
     -7.553 -0.2183E-28 -0.1454E-29
     -7.487 -0.3840E-26 -0.2572E-27
     -7.420 -0.5423E-24 -0.3637E-25
     -7.353 -0.6121E-22 -0.4112E-23
     -7.287 -0.5520E-20 -0.3717E-21
     -7.220 -0.3976E-18 -0.2684E-19
     -7.154 -0.2286E-16 -0.1549E-17
     -7.087 -0.1018E-14 -0.6931E-16
     -7.021 -0.3705E-13 -0.2536E-14
     -6.954 -0.1075E-11 -0.7412E-13
     -6.887 -0.2480E-10 -0.1726E-11
     -6.821 -0.4544E-09 -0.3198E-10
     -6.754 -0.6595E-08 -0.4712E-09
     -6.688 -0.7564E-07 -0.5508E-08
     -6.621 -0.6827E-06 -0.5097E-07
     -6.554 -0.4822E-05 -0.3721E-06
     -6.488 -0.2642E-04 -0.2131E-05
     -6.421 -0.1106E-03 -0.9499E-05
     -6.355 -0.3449E-03 -0.3247E-04
     -6.288 -0.7548E-03 -0.8273E-04
     -6.221 -0.9641E-03 -0.1469E-03
     -6.155  0.6697E-04 -0.1425E-03
     -6.088  0.3263E-02  0.7479E-04
     -6.022  0.7665E-02  0.5852E-03
     -5.955  0.1090E-01  0.1311E-02
     -5.888  0.1428E-01  0.2262E-02
     -5.822  0.2586E-01  0.3984E-02
     -5.755  0.5108E-01  0.7385E-02
     -5.689  0.7974E-01  0.1270E-01
     -5.622  0.9476E-01  0.1901E-01
     -5.556  0.9982E-01  0.2565E-01
     -5.489  0.1205E+00  0.3367E-01
     -5.422  0.1636E+00  0.4457E-01
     -5.356  0.1962E+00  0.5763E-01
     -5.289  0.1872E+00  0.7010E-01
     -5.223  0.1530E+00  0.8029E-01
     -5.156  0.1313E+00  0.8903E-01
     -5.089  0.1270E+00  0.9749E-01
     -5.023  0.1155E+00  0.1052E+00
     -4.956  0.8981E-01  0.1112E+00
     -4.890  0.6987E-01  0.1158E+00
     -4.823  0.6920E-01  0.1204E+00
     -4.756  0.8784E-01  0.1263E+00
     -4.690  0.1371E+00  0.1354E+00
     -4.623  0.2314E+00  0.1508E+00
     -4.557  0.3435E+00  0.1737E+00
     -4.490  0.4146E+00  0.2013E+00
     -4.424  0.4281E+00  0.2298E+00
     -4.357  0.4261E+00  0.2582E+00
     -4.290  0.4264E+00  0.2866E+00
     -4.224  0.3844E+00  0.3122E+00
     -4.157  0.2682E+00  0.3300E+00
     -4.091  0.1195E+00  0.3380E+00
     -4.024  0.1014E-01  0.3386E+00
     -3.957 -0.2248E-01  0.3372E+00
     -3.891  0.2041E-01  0.3385E+00
     -3.824  0.1241E+00  0.3468E+00
     -3.758  0.2646E+00  0.3644E+00
     -3.691  0.4012E+00  0.3911E+00
     -3.624  0.4831E+00  0.4233E+00
     -3.558  0.4767E+00  0.4550E+00
     -3.491  0.3930E+00  0.4812E+00
     -3.425  0.2873E+00  0.5003E+00
     -3.358  0.2278E+00  0.5155E+00
     -3.291  0.2563E+00  0.5326E+00
     -3.225  0.3664E+00  0.5570E+00
     -3.158  0.5050E+00  0.5906E+00
     -3.092  0.6065E+00  0.6310E+00
     -3.025  0.6370E+00  0.6734E+00
     -2.959  0.6084E+00  0.7139E+00
     -2.892  0.5512E+00  0.7506E+00
     -2.825  0.4875E+00  0.7831E+00
     -2.759  0.4346E+00  0.8120E+00
     -2.692  0.4121E+00  0.8395E+00
     -2.626  0.4156E+00  0.8671E+00
     -2.559  0.3988E+00  0.8937E+00
     -2.492  0.3173E+00  0.9148E+00
     -2.426  0.1863E+00  0.9272E+00
     -2.359  0.6520E-01  0.9316E+00
     -2.293 -0.5114E-02  0.9312E+00
     -2.226 -0.2643E-01  0.9295E+00
     -2.159 -0.1589E-01  0.9284E+00
     -2.093  0.2125E-01  0.9298E+00
     -2.026  0.8452E-01  0.9354E+00
     -1.960  0.1537E+00  0.9457E+00
     -1.893  0.1878E+00  0.9582E+00
     -1.827  0.1599E+00  0.9688E+00
     -1.760  0.9197E-01  0.9750E+00
     -1.693  0.4404E-01  0.9779E+00
     -1.627  0.7135E-01  0.9826E+00
     -1.560  0.1879E+00  0.9952E+00
     -1.494  0.3561E+00  0.1019E+01
     -1.427  0.5019E+00  0.1052E+01
     -1.360  0.5520E+00  0.1089E+01
     -1.294  0.4789E+00  0.1121E+01
     -1.227  0.3203E+00  0.1142E+01
     -1.161  0.1568E+00  0.1153E+01
     -1.094  0.6308E-01  0.1157E+01
     -1.027  0.6513E-01  0.1161E+01
     -0.961  0.1299E+00  0.1170E+01
     -0.894  0.1928E+00  0.1183E+01
     -0.828  0.2081E+00  0.1197E+01
     -0.761  0.1888E+00  0.1209E+01
     -0.694  0.1960E+00  0.1222E+01
     -0.628  0.2668E+00  0.1240E+01
     -0.561  0.3515E+00  0.1263E+01
     -0.495  0.3565E+00  0.1287E+01
     -0.428  0.2696E+00  0.1305E+01
     -0.362  0.2100E+00  0.1319E+01
     -0.295  0.3174E+00  0.1340E+01
     -0.228  0.5989E+00  0.1380E+01
     -0.162  0.9000E+00  0.1440E+01
     -0.095  0.1025E+01  0.1508E+01
     -0.029  0.8910E+00  0.1568E+01
      0.038  0.5770E+00  0.1606E+01
      0.105  0.2479E+00  0.1623E+01
      0.171  0.3259E-01  0.1625E+01
      0.238 -0.2976E-01  0.1623E+01
      0.304  0.3813E-01  0.1625E+01
      0.371  0.1847E+00  0.1638E+01
      0.438  0.3323E+00  0.1660E+01
      0.504  0.3979E+00  0.1686E+01
      0.571  0.3497E+00  0.1709E+01
      0.637  0.2333E+00  0.1725E+01
      0.704  0.1324E+00  0.1734E+01
      0.770  0.1114E+00  0.1741E+01
      0.837  0.1873E+00  0.1754E+01
      0.904  0.3254E+00  0.1775E+01
      0.970  0.4527E+00  0.1806E+01
      1.037  0.4966E+00  0.1839E+01
      1.103  0.4313E+00  0.1867E+01
      1.170  0.2912E+00  0.1887E+01
      1.237  0.1427E+00  0.1896E+01
      1.303  0.3790E-01  0.1899E+01
      1.370 -0.1085E-01  0.1898E+01
      1.436 -0.2345E-01  0.1896E+01
      1.503 -0.2588E-01  0.1895E+01
      1.570 -0.2793E-01  0.1893E+01
      1.636 -0.1318E-01  0.1892E+01
      1.703  0.5414E-01  0.1896E+01
      1.769  0.1953E+00  0.1909E+01
      1.836  0.3738E+00  0.1934E+01
      1.903  0.5019E+00  0.1967E+01
      1.969  0.5203E+00  0.2002E+01
      2.036  0.4660E+00  0.2033E+01
      2.102  0.4310E+00  0.2061E+01
      2.169  0.4582E+00  0.2092E+01
      2.235  0.5095E+00  0.2126E+01
      2.302  0.5278E+00  0.2161E+01
      2.369  0.4921E+00  0.2194E+01
      2.435  0.4128E+00  0.2221E+01
      2.502  0.3246E+00  0.2243E+01
      2.568  0.2941E+00  0.2262E+01
      2.635  0.4004E+00  0.2289E+01
      2.702  0.6672E+00  0.2333E+01
      2.768  0.1007E+01  0.2401E+01
      2.835  0.1253E+01  0.2484E+01
      2.901  0.1265E+01  0.2568E+01
      2.968  0.1028E+01  0.2637E+01
      3.035  0.6566E+00  0.2680E+01
      3.101  0.3062E+00  0.2701E+01
      3.168  0.7489E-01  0.2706E+01
      3.234 -0.2969E-01  0.2704E+01
      3.301 -0.3772E-01  0.2701E+01
      3.368  0.4926E-01  0.2705E+01
      3.434  0.2581E+00  0.2722E+01
      3.501  0.5740E+00  0.2760E+01
      3.567  0.8948E+00  0.2820E+01
      3.634  0.1095E+01  0.2892E+01
      3.700  0.1137E+01  0.2968E+01
      3.767  0.1080E+01  0.3040E+01
      3.834  0.9877E+00  0.3106E+01
      3.900  0.8753E+00  0.3164E+01
      3.967  0.7568E+00  0.3214E+01
      4.033  0.6804E+00  0.3260E+01
      4.100  0.6782E+00  0.3305E+01
      4.167  0.7102E+00  0.3352E+01
      4.233  0.6955E+00  0.3399E+01
      4.300  0.5980E+00  0.3438E+01
      4.366  0.4644E+00  0.3469E+01
      4.433  0.3760E+00  0.3494E+01
      4.500  0.3748E+00  0.3519E+01
      4.566  0.4395E+00  0.3549E+01
      4.633  0.5205E+00  0.3583E+01
      4.699  0.5798E+00  0.3622E+01
      4.766  0.6034E+00  0.3662E+01
      4.832  0.6036E+00  0.3702E+01
      4.899  0.6174E+00  0.3743E+01
      4.966  0.6766E+00  0.3788E+01
      5.032  0.7647E+00  0.3839E+01
      5.099  0.8228E+00  0.3894E+01
      5.165  0.8039E+00  0.3948E+01
      5.232  0.7064E+00  0.3995E+01
      5.299  0.5584E+00  0.4032E+01
      5.365  0.3957E+00  0.4058E+01
      5.432  0.2609E+00  0.4076E+01
      5.498  0.1968E+00  0.4089E+01
      5.565  0.2153E+00  0.4103E+01
      5.632  0.2773E+00  0.4121E+01
      5.698  0.3195E+00  0.4143E+01
      5.765  0.3056E+00  0.4163E+01
      5.831  0.2462E+00  0.4180E+01
      5.898  0.1729E+00  0.4191E+01
      5.965  0.1106E+00  0.4198E+01
      6.031  0.7455E-01  0.4203E+01
      6.098  0.7467E-01  0.4208E+01
      6.164  0.1057E+00  0.4215E+01
      6.231  0.1425E+00  0.4225E+01
      6.297  0.1584E+00  0.4235E+01
      6.364  0.1462E+00  0.4245E+01
      6.431  0.1153E+00  0.4253E+01
      6.497  0.7790E-01  0.4258E+01
      6.564  0.4426E-01  0.4261E+01
      6.630  0.2495E-01  0.4263E+01
      6.697  0.2858E-01  0.4265E+01
      6.764  0.5500E-01  0.4268E+01
      6.830  0.9361E-01  0.4274E+01
      6.897  0.1286E+00  0.4283E+01
      6.963  0.1450E+00  0.4293E+01
      7.030  0.1342E+00  0.4302E+01
      7.097  0.9939E-01  0.4308E+01
      7.163  0.5844E-01  0.4312E+01
      7.230  0.3610E-01  0.4314E+01
      7.296  0.4913E-01  0.4318E+01
      7.363  0.9388E-01  0.4324E+01
      7.429  0.1469E+00  0.4334E+01
      7.496  0.1828E+00  0.4346E+01
      7.563  0.1972E+00  0.4359E+01
      7.629  0.2119E+00  0.4373E+01
      7.696  0.2541E+00  0.4390E+01
      7.762  0.3223E+00  0.4412E+01
      7.829  0.3764E+00  0.4437E+01
      7.896  0.3726E+00  0.4461E+01
      7.962  0.3120E+00  0.4482E+01
      8.029  0.2473E+00  0.4499E+01
      8.095  0.2385E+00  0.4515E+01
      8.162  0.3015E+00  0.4535E+01
      8.229  0.3979E+00  0.4561E+01
      8.295  0.4798E+00  0.4593E+01
      8.362  0.5284E+00  0.4628E+01
      8.428  0.5416E+00  0.4664E+01
      8.495  0.5149E+00  0.4699E+01
      8.562  0.4666E+00  0.4730E+01
      8.628  0.4515E+00  0.4760E+01
      8.695  0.5183E+00  0.4794E+01
      8.761  0.6633E+00  0.4838E+01
      8.828  0.8379E+00  0.4894E+01
      8.894  0.9866E+00  0.4960E+01
      8.961  0.1071E+01  0.5031E+01
      9.028  0.1074E+01  0.5103E+01
      9.094  0.9955E+00  0.5169E+01
      9.161  0.8389E+00  0.5225E+01
      9.227  0.6257E+00  0.5267E+01
      9.294  0.4143E+00  0.5294E+01
      9.361  0.2823E+00  0.5313E+01
      9.427  0.2587E+00  0.5330E+01
      9.494  0.2889E+00  0.5349E+01
      9.560  0.2878E+00  0.5369E+01
      9.627  0.2202E+00  0.5383E+01
      9.694  0.1183E+00  0.5391E+01
      9.760  0.3527E-01  0.5394E+01
      9.827 -0.2758E-02  0.5393E+01
      9.893 -0.2530E-02  0.5393E+01
      9.960  0.1484E-01  0.5394E+01
     10.027  0.2967E-01  0.5396E+01
     10.093  0.3141E-01  0.5398E+01
     10.160  0.2145E-01  0.5400E+01
     10.226  0.8774E-02  0.5400E+01
     10.293  0.7098E-03  0.5400E+01
     10.359 -0.1781E-02  0.5400E+01
     10.426 -0.1446E-02  0.5400E+01
     10.493 -0.6584E-03  0.5400E+01
     10.559 -0.2092E-03  0.5400E+01
     10.626 -0.4945E-04  0.5400E+01
     10.692 -0.8936E-05  0.5400E+01
     10.759 -0.1253E-05  0.5400E+01
     10.826 -0.1375E-06  0.5400E+01
     10.892 -0.1188E-07  0.5400E+01
     10.959 -0.8115E-09  0.5400E+01
     11.025 -0.4391E-10  0.5400E+01
     11.092 -0.1887E-11  0.5400E+01
     11.159 -0.6449E-13  0.5400E+01
     11.225 -0.1751E-14  0.5400E+01
     11.292 -0.4168E-16  0.5400E+01
     11.358  0.0000E+00  0.5400E+01
     11.425  0.0000E+00  0.5400E+01
     11.491  0.0000E+00  0.5400E+01
     11.558  0.0000E+00  0.5400E+01
     11.625  0.0000E+00  0.5400E+01
     11.691  0.0000E+00  0.5400E+01
     11.758  0.0000E+00  0.5400E+01
     11.824  0.0000E+00  0.5400E+01
     11.891  0.0000E+00  0.5400E+01
     11.958  0.0000E+00  0.5400E+01
     12.024  0.0000E+00  0.5400E+01
