 vasp.6.4.3 19Mar24 (build Oct 21 2024 22:36:34) complex                        
  
 executed on             LinuxIFC date 2024.11.01  22:53:17
 running   96 mpi-ranks, on    1 nodes
 distrk:  each k-point on   24 cores,    4 groups
 distr:  one band on NCORE=  12 cores,    2 groups


--------------------------------------------------------------------------------------------------------


 INCAR:
   SYSTEM = Si64
   ISTART = 0
   ICHARG = 2
   LREAL = Auto
   PREC = Accurate
   LWAVE = .False.
   LCHARG = .False.
   ADDGRID = .True.
   ENCUT = 400
   GGA = PS
   GGA_COMPAT = .FALSE.
   ISMEAR = 1
   SIGMA = 0.2
   NELM = 60
   NELMIN = 8
   EDIFF = 1e-06
   EDIFFG = -0.01
   NSW = 60
   IBRION = 2
   ISIF = 2
   KPAR = 4
   NPAR = 2
   ALGO = Fast

 POTCAR:    PAW_PBE Si 05Jan2001                  
 POTCAR:    PAW_PBE Si 05Jan2001                  
   VRHFIN =Si: s2p2                                                                                 
   LEXCH  = PE                                                                                      
   EATOM  =   103.0669 eV,    7.5752 Ry                                                             
                                                                                                    
   TITEL  = PAW_PBE Si 05Jan2001                                                                    
   LULTRA =        F    use ultrasoft PP ?                                                          
   IUNSCR =        1    unscreen: 0-lin 1-nonlin 2-no                                               
   RPACOR =    1.500    partial core radius                                                         
   POMASS =   28.085; ZVAL   =    4.000    mass and valenz                                          
   RCORE  =    1.900    outmost cutoff radius                                                       
   RWIGS  =    2.480; RWIGS  =    1.312    wigner-seitz radius (au A)                               
   ENMAX  =  245.345; ENMIN  =  184.009 eV                                                          
   ICORE  =        2    local potential                                                             
   LCOR   =        T    correct aug charges                                                         
   LPAW   =        T    paw PP                                                                      
   EAUG   =  322.069                                                                                
   DEXC   =    0.000                                                                                
   RMAX   =    1.950    core radius for proj-oper                                                   
   RAUG   =    1.300    factor for augmentation sphere                                              
   RDEP   =    1.993    radius for radial grids                                                     
   RDEPT  =    1.837    core radius for aug-charge                                                  
                                                                                                    
   Atomic configuration                                                                             
    6 entries                                                                                       
     n  l   j            E        occ.                                                              
     1  0  0.50     -1785.8828   2.0000                                                             
     2  0  0.50      -139.4969   2.0000                                                             
     2  1  1.50       -95.5546   6.0000                                                             
     3  0  0.50       -10.8127   2.0000                                                             
     3  1  0.50        -4.0811   2.0000                                                             
     3  2  1.50        -4.0817   0.0000                                                             
   Description                                                                                      
     l       E           TYP  RCUT    TYP  RCUT                                                     
     0    -10.8127223     23  1.900                                                                 
     0     -7.6451159     23  1.900                                                                 
     1     -4.0811372     23  1.900                                                                 
     1      2.4879257     23  1.900                                                                 
     2     -4.0817478      7  1.900                                                                 
  local pseudopotential read in
  partial core-charges read in
  partial kinetic energy density read in
  atomic valenz-charges read in
  non local Contribution for L=           0  read in
    real space projection operators read in
  non local Contribution for L=           0  read in
    real space projection operators read in
  non local Contribution for L=           1  read in
    real space projection operators read in
  non local Contribution for L=           1  read in
    real space projection operators read in
    PAW grid and wavefunctions read in
 
   number of l-projection  operators is LMAX  =           4
   number of lm-projection operators is LMMAX =           8
 
 Optimization of the real space projectors (new method)

 maximal supplied QI-value         = 19.84
 optimisation between [QCUT,QGAM] = [ 10.12, 20.44] = [ 28.68,116.96] Ry 
 Optimized for a Real-space Cutoff    1.38 Angstroem

   l    n(q)    QCUT    max X(q) W(low)/X(q) W(high)/X(q)  e(spline) 
   0      8    10.119   159.560    0.58E-04    0.11E-03    0.54E-07
   0      8    10.119   115.863    0.56E-04    0.11E-03    0.54E-07
   1      8    10.119    88.339    0.22E-03    0.17E-03    0.19E-06
   1      8    10.119    48.592    0.22E-03    0.17E-03    0.18E-06
 -----------------------------------------------------------------------------
|                                                                             |
|               ----> ADVICE to this user running VASP <----                  |
|                                                                             |
|     You enforced a specific xc type in the INCAR file but a different       |
|     type was found in the POTCAR file.                                      |
|     I HOPE YOU KNOW WHAT YOU ARE DOING!                                     |
|                                                                             |
 -----------------------------------------------------------------------------

  PAW_PBE Si 05Jan2001                  :
 energy of atom  1       EATOM= -103.0669
 kinetic energy error for atom=    0.0012 (will be added to EATOM!!)
 
 
 POSCAR: Si8
  positions in direct lattice
  velocities in cartesian coordinates


 exchange-correlation table for PS
   RHO(1)=    0.500       N(1)  =     2000
   RHO(2)=  100.500       N(2)  =     4000
 


--------------------------------------------------------------------------------------------------------


 ion  position               nearest neighbor table
   1  0.000  0.000  0.000-  15 2.28  57 2.28  44 2.31  30 2.31
   2  0.000  0.000  0.500-  16 2.28  58 2.28  43 2.31  29 2.31
   3  0.000  0.500  0.000-  13 2.28  59 2.28  42 2.31  32 2.31
   4  0.000  0.500  0.500-  14 2.28  60 2.28  41 2.31  31 2.31
   5  0.500  0.000  0.000-  11 2.28  61 2.28  48 2.31  26 2.31
   6  0.500  0.000  0.500-  12 2.28  62 2.28  47 2.31  25 2.31
   7  0.500  0.500  0.000-   9 2.28  63 2.28  46 2.31  28 2.31
   8  0.500  0.500  0.500-  10 2.28  64 2.28  45 2.31  27 2.31
   9  0.375  0.375  0.125-   7 2.28  49 2.28  35 2.31  21 2.31
  10  0.375  0.375  0.625-   8 2.28  50 2.28  36 2.31  22 2.31
  11  0.375  0.875  0.125-   5 2.28  51 2.28  33 2.31  23 2.31
  12  0.375  0.875  0.625-   6 2.28  52 2.28  34 2.31  24 2.31
  13  0.875  0.375  0.125-   3 2.28  53 2.28  39 2.31  17 2.31
  14  0.875  0.375  0.625-   4 2.28  54 2.28  40 2.31  18 2.31
  15  0.875  0.875  0.125-   1 2.28  55 2.28  37 2.31  19 2.31
  16  0.875  0.875  0.625-   2 2.28  56 2.28  38 2.31  20 2.31
  17  0.000  0.250  0.250-  29 2.28  41 2.28  13 2.31  57 2.31
  18  0.000  0.250  0.750-  30 2.28  42 2.28  14 2.31  58 2.31
  19  0.000  0.750  0.250-  31 2.28  43 2.28  15 2.31  59 2.31
  20  0.000  0.750  0.750-  32 2.28  44 2.28  16 2.31  60 2.31
  21  0.500  0.250  0.250-  25 2.28  45 2.28   9 2.31  61 2.31
  22  0.500  0.250  0.750-  26 2.28  46 2.28  10 2.31  62 2.31
  23  0.500  0.750  0.250-  27 2.28  47 2.28  11 2.31  63 2.31
  24  0.500  0.750  0.750-  28 2.28  48 2.28  12 2.31  64 2.31
  25  0.375  0.125  0.375-  21 2.28  33 2.28   6 2.31  50 2.31
  26  0.375  0.125  0.875-  22 2.28  34 2.28   5 2.31  49 2.31
  27  0.375  0.625  0.375-  23 2.28  35 2.28   8 2.31  52 2.31
  28  0.375  0.625  0.875-  24 2.28  36 2.28   7 2.31  51 2.31
  29  0.875  0.125  0.375-  17 2.28  37 2.28   2 2.31  54 2.31
  30  0.875  0.125  0.875-  18 2.28  38 2.28   1 2.31  53 2.31
  31  0.875  0.625  0.375-  19 2.28  39 2.28   4 2.31  56 2.31
  32  0.875  0.625  0.875-  20 2.28  40 2.28   3 2.31  55 2.31
  33  0.250  0.000  0.250-  25 2.28  43 2.28  11 2.31  57 2.31
  34  0.250  0.000  0.750-  26 2.28  44 2.28  12 2.31  58 2.31
  35  0.250  0.500  0.250-  27 2.28  41 2.28   9 2.31  59 2.31
  36  0.250  0.500  0.750-  28 2.28  42 2.28  10 2.31  60 2.31
  37  0.750  0.000  0.250-  29 2.28  47 2.28  15 2.31  61 2.31
  38  0.750  0.000  0.750-  30 2.28  48 2.28  16 2.31  62 2.31
  39  0.750  0.500  0.250-  31 2.28  45 2.28  13 2.31  63 2.31
  40  0.750  0.500  0.750-  32 2.28  46 2.28  14 2.31  64 2.31
  41  0.125  0.375  0.375-  17 2.28  35 2.28   4 2.31  50 2.31
  42  0.125  0.375  0.875-  18 2.28  36 2.28   3 2.31  49 2.31
  43  0.125  0.875  0.375-  19 2.28  33 2.28   2 2.31  52 2.31
  44  0.125  0.875  0.875-  20 2.28  34 2.28   1 2.31  51 2.31
  45  0.625  0.375  0.375-  21 2.28  39 2.28   8 2.31  54 2.31
  46  0.625  0.375  0.875-  22 2.28  40 2.28   7 2.31  53 2.31
  47  0.625  0.875  0.375-  23 2.28  37 2.28   6 2.31  56 2.31
  48  0.625  0.875  0.875-  24 2.28  38 2.28   5 2.31  55 2.31
  49  0.250  0.250  0.000-   9 2.28  57 2.28  42 2.31  26 2.31
  50  0.250  0.250  0.500-  10 2.28  58 2.28  41 2.31  25 2.31
  51  0.250  0.750  0.000-  11 2.28  59 2.28  44 2.31  28 2.31
  52  0.250  0.750  0.500-  12 2.28  60 2.28  43 2.31  27 2.31
  53  0.750  0.250  0.000-  13 2.28  61 2.28  46 2.31  30 2.31
  54  0.750  0.250  0.500-  14 2.28  62 2.28  45 2.31  29 2.31
  55  0.750  0.750  0.000-  15 2.28  63 2.28  48 2.31  32 2.31
  56  0.750  0.750  0.500-  16 2.28  64 2.28  47 2.31  31 2.31
  57  0.125  0.125  0.125-   1 2.28  49 2.28  33 2.31  17 2.31
  58  0.125  0.125  0.625-   2 2.28  50 2.28  34 2.31  18 2.31
  59  0.125  0.625  0.125-   3 2.28  51 2.28  35 2.31  19 2.31
  60  0.125  0.625  0.625-   4 2.28  52 2.28  36 2.31  20 2.31
  61  0.625  0.125  0.125-   5 2.28  53 2.28  37 2.31  21 2.31
  62  0.625  0.125  0.625-   6 2.28  54 2.28  38 2.31  22 2.31
  63  0.625  0.625  0.125-   7 2.28  55 2.28  39 2.31  23 2.31
  64  0.625  0.625  0.625-   8 2.28  56 2.28  40 2.31  24 2.31
 
  LATTYP: Found a simple monoclinic cell.
 ALAT       =    10.4576899509
 B/A-ratio  =     1.0203550331
 C/A-ratio  =     1.0204060500
 COS(beta)  =    -0.0202021049
  
  Lattice vectors:
  
 A1 = (  10.4571455443,  -0.1067060158,   0.0000000000)
 A2 = (   0.0000000000,   0.0000000000, -10.6705565758)
 A3 = (  -0.1067060158,  10.6705565758,   0.0000000000)


Analysis of symmetry for initial positions (statically):
=====================================================================
 Subroutine PRICEL returns following result:
 
  LATTYP: Found a base centered monoclinic cell.
 ALAT       =     5.2288449754
 B/A-ratio  =     1.0203550331
 C/A-ratio  =     0.7071067470
 COS(beta)  =    -0.6925302679
  
  Lattice vectors:
  
 A1 = (  -2.6142863861,   0.0266765039,  -2.6676391440)
 A2 = (  -2.6142863861,   0.0266765039,   2.6676391440)
 A3 = (   2.5876098821,   2.6409626400,   0.0000000000)
 
  32 primitive cells build up your supercell.
 

 Routine SETGRP: Setting up the symmetry group for a 
 simple monoclinic supercell.


 Subroutine GETGRP returns: Found  4 space group operations
 (whereof  2 operations were pure point group operations)
 out of a pool of  4 trial point group operations.


The static configuration has the point symmetry C_2 .
 The point group associated with its full space group is C_2h.


Analysis of symmetry for dynamics (positions and initial velocities):
=====================================================================
 Subroutine PRICEL returns following result:
 
  LATTYP: Found a base centered monoclinic cell.
 ALAT       =     5.2288449754
 B/A-ratio  =     1.0203550331
 C/A-ratio  =     0.7071067470
 COS(beta)  =    -0.6925302679
  
  Lattice vectors:
  
 A1 = (  -2.6142863861,   0.0266765039,  -2.6676391440)
 A2 = (  -2.6142863861,   0.0266765039,   2.6676391440)
 A3 = (   2.5876098821,   2.6409626400,   0.0000000000)
 
  32 primitive cells build up your supercell.
 

 Routine SETGRP: Setting up the symmetry group for a 
 simple monoclinic supercell.


 Subroutine GETGRP returns: Found  4 space group operations
 (whereof  2 operations were pure point group operations)
 out of a pool of  4 trial point group operations.


The dynamic configuration has the point symmetry C_2 .
 The point group associated with its full space group is C_2h.


 Subroutine INISYM returns: Found  4 space group operations
 (whereof  2 operations are pure point group operations),
 and found    32 'primitive' translations


----------------------------------------------------------------------------------------

                                     Primitive cell                                     

  volume of cell :      37.2043

  direct lattice vectors                    reciprocal lattice vectors
    -2.614286386  0.026676504 -2.667639144    -0.189363529  0.185538004 -0.187431648
    -2.614286386  0.026676504  2.667639144    -0.189363529  0.185538004  0.187431648
     2.587609882  2.640962640  0.000000000     0.003825542  0.374901551 -0.000000000

  length of vectors
     3.735171154  3.735171154  3.697351561     0.324674482  0.324674482  0.374921068

  position of ions in fractional coordinates (direct lattice)
     0.000000000  0.000000000  0.000000000
     0.750000000  0.250000000  0.500000000

  ion indices of the primitive-cell ions
   primitive index   ion index
                 1           1
                 2          15

----------------------------------------------------------------------------------------

 
 
 KPOINTS: Automatic mesh                          

Automatic generation of k-mesh.
 Grid dimensions read from file:
 generate k-points for:    2    2    2

 Generating k-lattice:

  Cartesian coordinates                     Fractional coordinates (reciprocal lattice)
     0.047819075  0.000478193  0.000000000     0.500000000  0.000000000  0.000000000
     0.000478193  0.046862694  0.000000000     0.000000000  0.500000000  0.000000000
     0.000000000  0.000000000  0.046857912     0.000000000  0.000000000  0.500000000

  Length of vectors
     0.047821466  0.046865134  0.046857912

  Shift w.r.t. Gamma in fractional coordinates (k-lattice)
     0.000000000  0.000000000  0.000000000

 
 Subroutine IBZKPT returns following result:
 ===========================================
 
 Found      8 irreducible k-points:
 
 Following reciprocal coordinates:
            Coordinates               Weight
  0.000000  0.000000  0.000000      1.000000
  0.500000 -0.000000  0.000000      1.000000
 -0.000000  0.500000  0.000000      1.000000
  0.500000  0.500000  0.000000      1.000000
  0.000000  0.000000  0.500000      1.000000
  0.500000 -0.000000  0.500000      1.000000
 -0.000000  0.500000  0.500000      1.000000
  0.500000  0.500000  0.500000      1.000000
 
 Following cartesian coordinates:
            Coordinates               Weight
  0.000000  0.000000  0.000000      1.000000
  0.047819  0.000478  0.000000      1.000000
  0.000478  0.046863  0.000000      1.000000
  0.048297  0.047341  0.000000      1.000000
  0.000000  0.000000  0.046858      1.000000
  0.047819  0.000478  0.046858      1.000000
  0.000478  0.046863  0.046858      1.000000
  0.048297  0.047341  0.046858      1.000000
 


--------------------------------------------------------------------------------------------------------




 Dimension of arrays:
   k-points           NKPTS =      8   k-points in BZ     NKDIM =      8   number of bands    NBANDS=    162
   number of dos      NEDOS =    301   number of ions     NIONS =     64
   non local maximal  LDIM  =      4   non local SUM 2l+1 LMDIM =      8
   total plane-waves  NPLWV = 343000
   max r-space proj   IRMAX =   3225   max aug-charges    IRDMAX=  77253
   dimension x,y,z NGX =    70 NGY =   70 NGZ =   70
   dimension x,y,z NGXF=   140 NGYF=  140 NGZF=  140
   support grid    NGXF=   280 NGYF=  280 NGZF=  280
   ions per type =              64
   NGX,Y,Z   is equivalent  to a cutoff of  11.13, 10.91, 10.91 a.u.
   NGXF,Y,Z  is equivalent  to a cutoff of  22.26, 21.81, 21.81 a.u.

 SYSTEM =  Si64                                    
 POSCAR =  Si8                                     

 Startparameter for this run:
   NWRITE =      2    write-flag & timer
   PREC   = accura    normal or accurate (medium, high low for compatibility)
   ISTART =      0    job   : 0-new  1-cont  2-samecut
   ICHARG =      2    charge: 1-file 2-atom 10-const
   ISPIN  =      1    spin polarized calculation?
   LNONCOLLINEAR =      F non collinear calculations
   LSORBIT =      F    spin-orbit coupling
   INIWAV =      1    electr: 0-lowe 1-rand  2-diag
   LASPH  =      F    aspherical Exc in radial PAW
 Electronic Relaxation 1
   ENCUT  =  400.0 eV  29.40 Ry    5.42 a.u.  17.05 17.40 17.40*2*pi/ulx,y,z
   ENINI  =  400.0     initial cutoff
   ENAUG  =  322.1 eV  augmentation charge cutoff
   NELM   =     60;   NELMIN=  8; NELMDL= -5     # of ELM steps 
   EDIFF  = 0.1E-05   stopping-criterion for ELM
   LREAL  =      T    real-space projection
   NLSPLINE    = F    spline interpolate recip. space projectors
   LCOMPAT=      F    compatible to vasp.4.4
   GGA_COMPAT  = F    GGA compatible to vasp.4.4-vasp.4.6
   LMAXPAW     = -100 max onsite density
   LMAXMIX     =    2 max onsite mixed and CHGCAR
   VOSKOWN=      0    Vosko Wilk Nusair interpolation
   ROPT   =   -0.00025
 Ionic relaxation
   EDIFFG = -.1E-01   stopping-criterion for IOM
   NSW    =     60    number of steps for IOM
   NBLOCK =      1;   KBLOCK =     60    inner block; outer block 
   IBRION =      2    ionic relax: 0-MD 1-quasi-New 2-CG
   NFREE  =      1    steps in history (QN), initial steepest desc. (CG)
   ISIF   =      2    stress and relaxation
   IWAVPR =     11    prediction:  0-non 1-charg 2-wave 3-comb
   ISYM   =      2    0-nonsym 1-usesym 2-fastsym
   LCORR  =      T    Harris-Foulkes like correction to forces

   POTIM  = 0.5000    time-step for ionic-motion
   TEIN   =    0.0    initial temperature
   TEBEG  =    0.0;   TEEND  =   0.0 temperature during run
   SMASS  =  -3.00    Nose mass-parameter (am)
   estimated Nose-frequenzy (Omega)   =  0.10E-29 period in steps = 0.13E+47 mass=  -0.250E-26a.u.
   SCALEE = 1.0000    scale energy and forces
   NPACO  =    256;   APACO  = 10.0  distance and # of slots for P.C.
   PSTRESS=    0.0 pullay stress

  Mass of Ions in am
   POMASS =  28.09
  Ionic Valenz
   ZVAL   =   4.00
  Atomic Wigner-Seitz radii
   RWIGS  =  -1.00
  virtual crystal weights 
   VCA    =   1.00
   NELECT =     256.0000    total number of electrons
   NUPDOWN=      -1.0000    fix difference up-down

 DOS related values:
   EMIN   =  10.00;   EMAX   =-10.00  energy-range for DOS
   EFERMI =   0.00;   METHOD = LEGACY      
   ISMEAR =     1;   SIGMA  =   0.20  broadening in eV -4-tet -1-fermi 0-gaus

 Electronic relaxation 2 (details)
   IALGO  =     68    algorithm
   LDIAG  =      T    sub-space diagonalisation (order eigenvalues)
   LSUBROT=      F    optimize rotation matrix (better conditioning)
   TURBO    =      0    0=normal 1=particle mesh
   IRESTART =      0    0=no restart 2=restart with 2 vectors
   NREBOOT  =      0    no. of reboots
   NMIN     =      0    reboot dimension
   EREF     =   0.00    reference energy to select bands
   IMIX   =      4    mixing-type and parameters
     AMIX     =   0.40;   BMIX     =  1.00
     AMIX_MAG =   1.60;   BMIX_MAG =  1.00
     AMIN     =   0.10
     WC   =   100.;   INIMIX=   1;  MIXPRE=   1;  MAXMIX= -45

 Intra band minimization:
   WEIMIN = 0.0010     energy-eigenvalue tresh-hold
   EBREAK =  0.15E-08  absolut break condition
   DEPER  =   0.30     relativ break condition  

   TIME   =   0.40     timestep for ELM

  volume/ion in A,a.u.               =      18.60       125.53
  Fermi-wavevector in a.u.,A,eV,Ry     =   0.980785  1.853415 13.087978  0.961939
  Thomas-Fermi vector in A             =   2.111742
 
 Write flags
   LWAVE        =      F    write WAVECAR
   LDOWNSAMPLE  =      F    k-point downsampling of WAVECAR
   LCHARG       =      F    write CHGCAR
   LVTOT        =      F    write LOCPOT, total local potential
   LVHAR        =      F    write LOCPOT, Hartree potential only
   WRT_POTENTIAL= false  ! write potential to hdf5 file
   LELF         =      F    write electronic localiz. function (ELF)
   LORBIT       =      0    0 simple, 1 ext, 2 COOP (PROOUT), +10 PAW based schemes


 Dipole corrections
   LMONO      =      F    monopole corrections only (constant potential shift)
   LDIPOL     =      F    correct potential (dipole corrections)
   IDIPOL     =      0    1-x, 2-y, 3-z, 4-all directions 
   EPSILON    =  1.0000000 bulk dielectric constant
   LVACPOTAV  =      F  vacuum potentials using an averaging scheme for the charge density
   VACPOTFLAT =  0.1000000 required flatness to determine vacuum potential
 Exchange correlation treatment:
   GGA     = PS    functional components
   XC_C    = 1    coefficients multiplying the functional components
   LIBXC   =     F    Libxc                    
   VOSKOWN =     0    Vosko Wilk Nusair interpolation
   LHFCALC =     F    Hartree Fock is set to
   LHFONE  =     F    Hartree Fock one center treatment
   AEXX    =    0.0000 exact exchange contribution

 Parameters of functionals:
   PS:
     No parameter
 
 Van der Waals corrections
   IVDW    =     0    specifies the selected vdW correction

 Linear response parameters
   LEPSILON=     F    determine dielectric tensor
   LRPA    =     F    only Hartree local field effects (RPA)
   LNABLA  =     F    use nabla operator in PAW spheres
   LVEL    =     F    velocity operator in full k-point grid
   CSHIFT  =0.1000    complex shift for real part using Kramers Kronig
   OMEGAMAX=  -1.0    maximum frequency
   DEG_THRESHOLD= 0.2000000E-02 threshold for treating states as degnerate
   RTIME   =   -0.100 relaxation time in fs
  (WPLASMAI=    0.000 imaginary part of plasma frequency in eV, 0.658/RTIME)
   DFIELD  = 0.0000000 0.0000000 0.0000000 field for delta impulse in time
 
  Optional k-point grid parameters
   LKPOINTS_OPT  =     F    use optional k-point grid
   KPOINTS_OPT_MODE=     1    mode for optional k-point grid
 
 Orbital magnetization related:
   ORBITALMAG=     F  switch on orbital magnetization
   LCHIMAG   =     F  perturbation theory with respect to B field
   DQ        =  0.001000  dq finite difference perturbation B field
   LLRAUG    =     F  two centre corrections for induced B field
   LBONE     =     F  B-component reconstruction in AE one-centre
   LVGVCALC  =     T  calculate vGv susceptibility
   LVGVAPPL  =     F  apply vGv susceptibility instead of pGv for G=0

 Random number generation:
   RANDOM_GENERATOR = DEFAULT
   PCG_SEED         = not used


--------------------------------------------------------------------------------------------------------


 conjugate gradient relaxation of ions
 charge density and potential will be updated during run
 non-spin polarized calculation
 RMM-DIIS sequential band-by-band and
  variant of blocked Davidson during initial phase
 perform sub-space diagonalisation
    before iterative eigenvector-optimisation
 modified Broyden-mixing scheme, WC =      100.0
 initial mixing is a Kerker type mixing with AMIX =  0.4000 and BMIX =      1.0000
 Hartree-type preconditioning will be used
 using additional bands           34
 real space projection scheme for non local part
 use partial core corrections
 calculate Harris-corrections to forces 
   (improved forces if not selfconsistent)
 use gradient corrections 
 use of overlap-Matrix (Vanderbilt PP)
 Methfessel and Paxton  Order N= 1 SIGMA  =   0.20


--------------------------------------------------------------------------------------------------------


  energy-cutoff  :      400.00
  volume of cell :     1190.54
      direct lattice vectors                 reciprocal lattice vectors
    10.457145544 -0.106706016  0.000000000     0.095638150  0.000956386  0.000000000
    -0.106706016 10.670556576  0.000000000     0.000956386  0.093725388  0.000000000
     0.000000000  0.000000000 10.670556576     0.000000000  0.000000000  0.093715824

  length of vectors
    10.457689951 10.671090095 10.670556576     0.095642932  0.093730267  0.093715824


 
 k-points in units of 2pi/SCALE and weight: Automatic mesh                          
   0.00000000  0.00000000  0.00000000       0.125
   0.04781908  0.00047819  0.00000000       0.125
   0.00047819  0.04686270  0.00000000       0.125
   0.04829727  0.04734089  0.00000000       0.125
   0.00000000  0.00000000  0.04685792       0.125
   0.04781908  0.00047819  0.04685792       0.125
   0.00047819  0.04686270  0.04685792       0.125
   0.04829727  0.04734089  0.04685792       0.125
 
 k-points in reciprocal lattice and weights: Automatic mesh                          
   0.00000000  0.00000000  0.00000000       0.125
   0.50000000 -0.00000000  0.00000000       0.125
  -0.00000000  0.50000000  0.00000000       0.125
   0.50000000  0.50000000  0.00000000       0.125
   0.00000000  0.00000000  0.50000000       0.125
   0.50000000 -0.00000000  0.50000000       0.125
  -0.00000000  0.50000000  0.50000000       0.125
   0.50000000  0.50000000  0.50000000       0.125
 
 position of ions in fractional coordinates (direct lattice) 
   0.00000000  0.00000000  0.00000000
   0.00000000  0.00000000  0.50000000
   0.00000000  0.50000000  0.00000000
   0.00000000  0.50000000  0.50000000
   0.50000000  0.00000000  0.00000000
   0.50000000  0.00000000  0.50000000
   0.50000000  0.50000000  0.00000000
   0.50000000  0.50000000  0.50000000
   0.37500000  0.37500000  0.12500000
   0.37500000  0.37500000  0.62500000
   0.37500000  0.87500000  0.12500000
   0.37500000  0.87500000  0.62500000
   0.87500000  0.37500000  0.12500000
   0.87500000  0.37500000  0.62500000
   0.87500000  0.87500000  0.12500000
   0.87500000  0.87500000  0.62500000
   0.00000000  0.25000000  0.25000000
   0.00000000  0.25000000  0.75000000
   0.00000000  0.75000000  0.25000000
   0.00000000  0.75000000  0.75000000
   0.50000000  0.25000000  0.25000000
   0.50000000  0.25000000  0.75000000
   0.50000000  0.75000000  0.25000000
   0.50000000  0.75000000  0.75000000
   0.37500000  0.12500000  0.37500000
   0.37500000  0.12500000  0.87500000
   0.37500000  0.62500000  0.37500000
   0.37500000  0.62500000  0.87500000
   0.87500000  0.12500000  0.37500000
   0.87500000  0.12500000  0.87500000
   0.87500000  0.62500000  0.37500000
   0.87500000  0.62500000  0.87500000
   0.25000000  0.00000000  0.25000000
   0.25000000  0.00000000  0.75000000
   0.25000000  0.50000000  0.25000000
   0.25000000  0.50000000  0.75000000
   0.75000000  0.00000000  0.25000000
   0.75000000  0.00000000  0.75000000
   0.75000000  0.50000000  0.25000000
   0.75000000  0.50000000  0.75000000
   0.12500000  0.37500000  0.37500000
   0.12500000  0.37500000  0.87500000
   0.12500000  0.87500000  0.37500000
   0.12500000  0.87500000  0.87500000
   0.62500000  0.37500000  0.37500000
   0.62500000  0.37500000  0.87500000
   0.62500000  0.87500000  0.37500000
   0.62500000  0.87500000  0.87500000
   0.25000000  0.25000000  0.00000000
   0.25000000  0.25000000  0.50000000
   0.25000000  0.75000000  0.00000000
   0.25000000  0.75000000  0.50000000
   0.75000000  0.25000000  0.00000000
   0.75000000  0.25000000  0.50000000
   0.75000000  0.75000000  0.00000000
   0.75000000  0.75000000  0.50000000
   0.12500000  0.12500000  0.12500000
   0.12500000  0.12500000  0.62500000
   0.12500000  0.62500000  0.12500000
   0.12500000  0.62500000  0.62500000
   0.62500000  0.12500000  0.12500000
   0.62500000  0.12500000  0.62500000
   0.62500000  0.62500000  0.12500000
   0.62500000  0.62500000  0.62500000
 
 position of ions in cartesian coordinates  (Angst):
   0.00000000  0.00000000  0.00000000
   0.00000000  0.00000000  5.33527829
  -0.05335301  5.33527829  0.00000000
  -0.05335301  5.33527829  5.33527829
   5.22857277 -0.05335301  0.00000000
   5.22857277 -0.05335301  5.33527829
   5.17521976  5.28192528  0.00000000
   5.17521976  5.28192528  5.33527829
   3.88141482  3.96144396  1.33381957
   3.88141482  3.96144396  6.66909786
   3.82806182  9.29672225  1.33381957
   3.82806182  9.29672225  6.66909786
   9.10998760  3.90809095  1.33381957
   9.10998760  3.90809095  6.66909786
   9.05663459  9.24336924  1.33381957
   9.05663459  9.24336924  6.66909786
  -0.02667650  2.66763914  2.66763914
  -0.02667650  2.66763914  8.00291743
  -0.08002951  8.00291743  2.66763914
  -0.08002951  8.00291743  8.00291743
   5.20189627  2.61428614  2.66763914
   5.20189627  2.61428614  8.00291743
   5.14854326  7.94956442  2.66763914
   5.14854326  7.94956442  8.00291743
   3.90809133  1.29380482  4.00145872
   3.90809133  1.29380482  9.33673700
   3.85473832  6.62908310  4.00145872
   3.85473832  6.62908310  9.33673700
   9.13666410  1.24045181  4.00145872
   9.13666410  1.24045181  9.33673700
   9.08331109  6.57573010  4.00145872
   9.08331109  6.57573010  9.33673700
   2.61428639 -0.02667650  2.66763914
   2.61428639 -0.02667650  8.00291743
   2.56093338  5.30860178  2.66763914
   2.56093338  5.30860178  8.00291743
   7.84285916 -0.08002951  2.66763914
   7.84285916 -0.08002951  8.00291743
   7.78950615  5.25524878  2.66763914
   7.78950615  5.25524878  8.00291743
   1.26712844  3.98812046  4.00145872
   1.26712844  3.98812046  9.33673700
   1.21377543  9.32339875  4.00145872
   1.21377543  9.32339875  9.33673700
   6.49570121  3.93476746  4.00145872
   6.49570121  3.93476746  9.33673700
   6.44234820  9.27004574  4.00145872
   6.44234820  9.27004574  9.33673700
   2.58760988  2.64096264  0.00000000
   2.58760988  2.64096264  5.33527829
   2.53425687  7.97624093  0.00000000
   2.53425687  7.97624093  5.33527829
   7.81618265  2.58760963  0.00000000
   7.81618265  2.58760963  5.33527829
   7.76282965  7.92288792  0.00000000
   7.76282965  7.92288792  5.33527829
   1.29380494  1.32048132  1.33381957
   1.29380494  1.32048132  6.66909786
   1.24045193  6.65575961  1.33381957
   1.24045193  6.65575961  6.66909786
   6.52237771  1.26712831  1.33381957
   6.52237771  1.26712831  6.66909786
   6.46902471  6.60240660  1.33381957
   6.46902471  6.60240660  6.66909786
 


--------------------------------------------------------------------------------------------------------


 k-point     1 :   0.0000 0.0000 0.0000  plane waves:   21643
 k-point     2 :   0.5000-0.0000 0.0000  plane waves:   21620
 k-point     3 :  -0.0000 0.5000 0.0000  plane waves:   21626
 k-point     4 :   0.5000 0.5000 0.0000  plane waves:   21638
 k-point     5 :   0.0000 0.0000 0.5000  plane waves:   21614
 k-point     6 :   0.5000-0.0000 0.5000  plane waves:   21616
 k-point     7 :  -0.0000 0.5000 0.5000  plane waves:   21632
 k-point     8 :   0.5000 0.5000 0.5000  plane waves:   21640

 maximum and minimum number of plane-waves per node :      1823     1787

 maximum number of plane-waves:     21643
 maximum index in each direction: 
   IXMAX=   17   IYMAX=   17   IZMAX=   17
   IXMIN=  -17   IYMIN=  -17   IZMIN=  -17


 real space projection operators:
  total allocation   :      12334.50 KBytes
  max/ min on nodes  :       1065.75        893.75


 parallel 3D FFT for wavefunctions:
    minimum data exchange during FFTs selected (reduces bandwidth)
 parallel 3D FFT for charge:
    minimum data exchange during FFTs selected (reduces bandwidth)


 total amount of memory used by VASP MPI-rank0    78961. kBytes
=======================================================================

   base      :      30000. kBytes
   nonlr-proj:       4765. kBytes
   fftplans  :      17992. kBytes
   grid      :       6881. kBytes
   one-center:         18. kBytes
   wavefun   :      19305. kBytes
 
     INWAV:  cpu time      0.0001: real time      0.0001
 Broyden mixing: mesh for mixing (old mesh)
   NGX = 35   NGY = 35   NGZ = 35
  (NGX  =140   NGY  =140   NGZ  =140)
  gives a total of  42875 points

 initial charge density was supplied:
 charge density of overlapping atoms calculated
 number of electron     256.0000000 magnetization 
 keeping initial charge density in first step


--------------------------------------------------------------------------------------------------------


 Maximum index for non-local projection operator          288
 Maximum index for augmentation-charges         3817 (set IRDMAX)


--------------------------------------------------------------------------------------------------------


 First call to EWALD:  gamma=   0.167
 Maximum number of real-space cells 3x 3x 3
 Maximum number of reciprocal cells 3x 3x 3

    FEWALD:  cpu time      0.0091: real time      0.0091


--------------------------------------- Ionic step        1  -------------------------------------------




--------------------------------------- Iteration      1(   1)  ---------------------------------------


    POTLOK:  cpu time      0.0814: real time      0.0844
    SETDIJ:  cpu time      0.0796: real time      0.0798
     EDDAV:  cpu time      1.2489: real time      1.3080
       DOS:  cpu time      0.0048: real time      0.0049
    --------------------------------------------
      LOOP:  cpu time      1.4147: real time      1.4772

 eigenvalue-minimisations  :  2592
 total energy-change (2. order) : 0.5736138E+03  (-0.8503034E+04)
 number of electron     256.0000000 magnetization 
 augmentation part      256.0000000 magnetization 

 Free energy of the ion-electron system (eV)
  ---------------------------------------------------
  alpha Z        PSCENC =       115.81677638
  Ewald energy   TEWEN  =     -7494.33350985
  -Hartree energ DENC   =      -317.87874477
  -exchange      EXHF   =         0.00000000
  -V(xc)+E(xc)   XCENC  =      -549.83167756
  PAW double counting   =      5598.62625415    -4492.17844134
  entropy T*S    EENTRO =        -0.00347643
  eigenvalues    EBANDS =      1148.60071593
  atomic energy  EATOM  =      6564.79586099
  Solvation  Ediel_sol  =         0.00000000
  ---------------------------------------------------
  free energy    TOTEN  =       573.61375750 eV

  energy without entropy =      573.61723392  energy(sigma->0) =      573.61491631


--------------------------------------------------------------------------------------------------------




--------------------------------------- Iteration      1(   2)  ---------------------------------------


     EDDAV:  cpu time      1.3282: real time      1.3358
       DOS:  cpu time      0.0012: real time      0.0012
    --------------------------------------------
      LOOP:  cpu time      1.3295: real time      1.3370

 eigenvalue-minimisations  :  3090
 total energy-change (2. order) :-0.8824457E+03  (-0.8356191E+03)
 number of electron     256.0000000 magnetization 
 augmentation part      256.0000000 magnetization 

 Free energy of the ion-electron system (eV)
  ---------------------------------------------------
  alpha Z        PSCENC =       115.81677638
  Ewald energy   TEWEN  =     -7494.33350985
  -Hartree energ DENC   =      -317.87874477
  -exchange      EXHF   =         0.00000000
  -V(xc)+E(xc)   XCENC  =      -549.83167756
  PAW double counting   =      5598.62625415    -4492.17844134
  entropy T*S    EENTRO =         0.00973933
  eigenvalues    EBANDS =       266.14184801
  atomic energy  EATOM  =      6564.79586099
  Solvation  Ediel_sol  =         0.00000000
  ---------------------------------------------------
  free energy    TOTEN  =      -308.83189466 eV

  energy without entropy =     -308.84163400  energy(sigma->0) =     -308.83514111


--------------------------------------------------------------------------------------------------------




--------------------------------------- Iteration      1(   3)  ---------------------------------------


     EDDAV:  cpu time      1.3333: real time      1.3848
       DOS:  cpu time      0.0015: real time      0.0015
    --------------------------------------------
      LOOP:  cpu time      1.3348: real time      1.3863

 eigenvalue-minimisations  :  3152
 total energy-change (2. order) :-0.6328872E+02  (-0.6197488E+02)
 number of electron     256.0000000 magnetization 
 augmentation part      256.0000000 magnetization 

 Free energy of the ion-electron system (eV)
  ---------------------------------------------------
  alpha Z        PSCENC =       115.81677638
  Ewald energy   TEWEN  =     -7494.33350985
  -Hartree energ DENC   =      -317.87874477
  -exchange      EXHF   =         0.00000000
  -V(xc)+E(xc)   XCENC  =      -549.83167756
  PAW double counting   =      5598.62625415    -4492.17844134
  entropy T*S    EENTRO =         0.00826719
  eigenvalues    EBANDS =       202.85459724
  atomic energy  EATOM  =      6564.79586099
  Solvation  Ediel_sol  =         0.00000000
  ---------------------------------------------------
  free energy    TOTEN  =      -372.12061757 eV

  energy without entropy =     -372.12888476  energy(sigma->0) =     -372.12337330


--------------------------------------------------------------------------------------------------------




--------------------------------------- Iteration      1(   4)  ---------------------------------------


     EDDAV:  cpu time      1.3366: real time      1.3526
       DOS:  cpu time      0.0013: real time      0.0013
    --------------------------------------------
      LOOP:  cpu time      1.3379: real time      1.3538

 eigenvalue-minimisations  :  3136
 total energy-change (2. order) :-0.1636824E+01  (-0.1624362E+01)
 number of electron     256.0000000 magnetization 
 augmentation part      256.0000000 magnetization 

 Free energy of the ion-electron system (eV)
  ---------------------------------------------------
  alpha Z        PSCENC =       115.81677638
  Ewald energy   TEWEN  =     -7494.33350985
  -Hartree energ DENC   =      -317.87874477
  -exchange      EXHF   =         0.00000000
  -V(xc)+E(xc)   XCENC  =      -549.83167756
  PAW double counting   =      5598.62625415    -4492.17844134
  entropy T*S    EENTRO =         0.00790641
  eigenvalues    EBANDS =       201.21813417
  atomic energy  EATOM  =      6564.79586099
  Solvation  Ediel_sol  =         0.00000000
  ---------------------------------------------------
  free energy    TOTEN  =      -373.75744142 eV

  energy without entropy =     -373.76534783  energy(sigma->0) =     -373.76007689


--------------------------------------------------------------------------------------------------------




--------------------------------------- Iteration      1(   5)  ---------------------------------------


     EDDAV:  cpu time      1.3197: real time      1.3307
       DOS:  cpu time      0.0013: real time      0.0013
    CHARGE:  cpu time      0.2482: real time      0.2499
    MIXING:  cpu time      0.0072: real time      0.0073
    --------------------------------------------
      LOOP:  cpu time      1.5764: real time      1.5891

 eigenvalue-minimisations  :  3120
 total energy-change (2. order) :-0.5044240E-01  (-0.5032476E-01)
 number of electron     256.0000000 magnetization 
 augmentation part      -15.1433586 magnetization 

 Broyden mixing:
  rms(total) = 0.30943E+01    rms(broyden)= 0.30943E+01
  rms(prec ) = 0.34044E+01
  weight for this iteration     100.00

 Free energy of the ion-electron system (eV)
  ---------------------------------------------------
  alpha Z        PSCENC =       115.81677638
  Ewald energy   TEWEN  =     -7494.33350985
  -Hartree energ DENC   =      -317.87874477
  -exchange      EXHF   =         0.00000000
  -V(xc)+E(xc)   XCENC  =      -549.83167756
  PAW double counting   =      5598.62625415    -4492.17844134
  entropy T*S    EENTRO =         0.00790177
  eigenvalues    EBANDS =       201.16769642
  atomic energy  EATOM  =      6564.79586099
  Solvation  Ediel_sol  =         0.00000000
  ---------------------------------------------------
  free energy    TOTEN  =      -373.80788382 eV

  energy without entropy =     -373.81578559  energy(sigma->0) =     -373.81051774


--------------------------------------------------------------------------------------------------------




--------------------------------------- Iteration      1(   6)  ---------------------------------------


    POTLOK:  cpu time      0.0741: real time      0.0887
    SETDIJ:  cpu time      0.0736: real time      0.0738
    EDDIAG:  cpu time      0.1327: real time      0.1331
  RMM-DIIS:  cpu time      0.6970: real time      0.6987
    ORTHCH:  cpu time      0.0197: real time      0.0199
       DOS:  cpu time      0.0012: real time      0.0012
    CHARGE:  cpu time      0.2382: real time      0.2388
    MIXING:  cpu time      0.0067: real time      0.0068
    --------------------------------------------
      LOOP:  cpu time      1.2433: real time      1.2609

 eigenvalue-minimisations  :  2592
 total energy-change (2. order) : 0.6182732E+01  (-0.3284696E+00)
 number of electron     256.0000000 magnetization 
 augmentation part      -14.9532714 magnetization 

 Broyden mixing:
  rms(total) = 0.18680E+01    rms(broyden)= 0.18680E+01
  rms(prec ) = 0.20411E+01
  weight for this iteration     100.00

 eigenvalues of (default mixing * dielectric matrix)
  average eigenvalue GAMMA=   2.5166
  2.5166

 Free energy of the ion-electron system (eV)
  ---------------------------------------------------
  alpha Z        PSCENC =       115.81677638
  Ewald energy   TEWEN  =     -7494.33350985
  -Hartree energ DENC   =      -367.80714715
  -exchange      EXHF   =         0.00000000
  -V(xc)+E(xc)   XCENC  =      -541.92188749
  PAW double counting   =     13409.32012783   -12306.96322637
  entropy T*S    EENTRO =         0.02370890
  eigenvalues    EBANDS =       253.44414491
  atomic energy  EATOM  =      6564.79586099
  Solvation  Ediel_sol  =         0.00000000
  ---------------------------------------------------
  free energy    TOTEN  =      -367.62515185 eV

  energy without entropy =     -367.64886074  energy(sigma->0) =     -367.63305481


--------------------------------------------------------------------------------------------------------




--------------------------------------- Iteration      1(   7)  ---------------------------------------


    POTLOK:  cpu time      0.0781: real time      0.0918
    SETDIJ:  cpu time      0.0725: real time      0.0727
    EDDIAG:  cpu time      0.1368: real time      0.1371
  RMM-DIIS:  cpu time      0.7072: real time      0.7091
    ORTHCH:  cpu time      0.0206: real time      0.0206
       DOS:  cpu time      0.0013: real time      0.0013
    CHARGE:  cpu time      0.2394: real time      0.2399
    MIXING:  cpu time      0.0064: real time      0.0064
    --------------------------------------------
      LOOP:  cpu time      1.2623: real time      1.2790

 eigenvalue-minimisations  :  2644
 total energy-change (2. order) : 0.2661126E+01  (-0.8259141E+00)
 number of electron     256.0000000 magnetization 
 augmentation part      -14.6858976 magnetization 

 Broyden mixing:
  rms(total) = 0.12217E+00    rms(broyden)= 0.12217E+00
  rms(prec ) = 0.15387E+00
  weight for this iteration     100.00

 eigenvalues of (default mixing * dielectric matrix)
  average eigenvalue GAMMA=   2.3172
  2.3172  2.3172

 Free energy of the ion-electron system (eV)
  ---------------------------------------------------
  alpha Z        PSCENC =       115.81677638
  Ewald energy   TEWEN  =     -7494.33350985
  -Hartree energ DENC   =      -449.92556371
  -exchange      EXHF   =         0.00000000
  -V(xc)+E(xc)   XCENC  =      -528.32190273
  PAW double counting   =     32844.14694086   -31747.54716415
  entropy T*S    EENTRO =         0.01717635
  eigenvalues    EBANDS =       330.38735992
  atomic energy  EATOM  =      6564.79586099
  Solvation  Ediel_sol  =         0.00000000
  ---------------------------------------------------
  free energy    TOTEN  =      -364.96402595 eV

  energy without entropy =     -364.98120230  energy(sigma->0) =     -364.96975140


--------------------------------------------------------------------------------------------------------




--------------------------------------- Iteration      1(   8)  ---------------------------------------


    POTLOK:  cpu time      0.0788: real time      0.0923
    SETDIJ:  cpu time      0.0737: real time      0.0738
    EDDIAG:  cpu time      0.1369: real time      0.1372
  RMM-DIIS:  cpu time      0.7074: real time      0.7093
    ORTHCH:  cpu time      0.0201: real time      0.0201
       DOS:  cpu time      0.0016: real time      0.0016
    CHARGE:  cpu time      0.2415: real time      0.2420
    MIXING:  cpu time      0.0051: real time      0.0051
    --------------------------------------------
      LOOP:  cpu time      1.2650: real time      1.2816

 eigenvalue-minimisations  :  2621
 total energy-change (2. order) :-0.3116394E-01  (-0.7870466E-01)
 number of electron     256.0000000 magnetization 
 augmentation part      -14.7473671 magnetization 

 Broyden mixing:
  rms(total) = 0.56608E-01    rms(broyden)= 0.56608E-01
  rms(prec ) = 0.61037E-01
  weight for this iteration     100.00

 eigenvalues of (default mixing * dielectric matrix)
  average eigenvalue GAMMA=   2.0608
  2.5608  1.8108  1.8108

 Free energy of the ion-electron system (eV)
  ---------------------------------------------------
  alpha Z        PSCENC =       115.81677638
  Ewald energy   TEWEN  =     -7494.33350985
  -Hartree energ DENC   =      -439.92311587
  -exchange      EXHF   =         0.00000000
  -V(xc)+E(xc)   XCENC  =      -529.18479110
  PAW double counting   =     32582.52617911   -31484.78039093
  entropy T*S    EENTRO =         0.01994258
  eigenvalues    EBANDS =       320.06785878
  atomic energy  EATOM  =      6564.79586099
  Solvation  Ediel_sol  =         0.00000000
  ---------------------------------------------------
  free energy    TOTEN  =      -364.99518989 eV

  energy without entropy =     -365.01513248  energy(sigma->0) =     -365.00183742


--------------------------------------------------------------------------------------------------------




--------------------------------------- Iteration      1(   9)  ---------------------------------------


    POTLOK:  cpu time      0.0758: real time      0.0880
    SETDIJ:  cpu time      0.0736: real time      0.0738
    EDDIAG:  cpu time      0.1311: real time      0.1314
  RMM-DIIS:  cpu time      0.7172: real time      0.7191
    ORTHCH:  cpu time      0.0199: real time      0.0199
       DOS:  cpu time      0.0015: real time      0.0015
    CHARGE:  cpu time      0.2380: real time      0.2386
    MIXING:  cpu time      0.0063: real time      0.0063
    --------------------------------------------
      LOOP:  cpu time      1.2635: real time      1.2787

 eigenvalue-minimisations  :  2671
 total energy-change (2. order) :-0.2355689E-01  (-0.2331070E-01)
 number of electron     256.0000000 magnetization 
 augmentation part      -14.7310756 magnetization 

 Broyden mixing:
  rms(total) = 0.62727E-01    rms(broyden)= 0.62726E-01
  rms(prec ) = 0.71452E-01
  weight for this iteration     100.00

 eigenvalues of (default mixing * dielectric matrix)
  average eigenvalue GAMMA=   1.6517
  2.5581  1.9380  1.9380  0.1727

 Free energy of the ion-electron system (eV)
  ---------------------------------------------------
  alpha Z        PSCENC =       115.81677638
  Ewald energy   TEWEN  =     -7494.33350985
  -Hartree energ DENC   =      -443.79206567
  -exchange      EXHF   =         0.00000000
  -V(xc)+E(xc)   XCENC  =      -528.67005848
  PAW double counting   =     33085.67042811   -31988.26352661
  entropy T*S    EENTRO =         0.01914218
  eigenvalues    EBANDS =       323.73820618
  atomic energy  EATOM  =      6564.79586099
  Solvation  Ediel_sol  =         0.00000000
  ---------------------------------------------------
  free energy    TOTEN  =      -365.01874678 eV

  energy without entropy =     -365.03788895  energy(sigma->0) =     -365.02512750


--------------------------------------------------------------------------------------------------------




--------------------------------------- Iteration      1(  10)  ---------------------------------------


    POTLOK:  cpu time      0.0796: real time      0.0962
    SETDIJ:  cpu time      0.0716: real time      0.0718
    EDDIAG:  cpu time      0.1307: real time      0.1310
  RMM-DIIS:  cpu time      0.7191: real time      0.7212
    ORTHCH:  cpu time      0.0197: real time      0.0197
       DOS:  cpu time      0.0015: real time      0.0015
    CHARGE:  cpu time      0.2383: real time      0.2388
    MIXING:  cpu time      0.0062: real time      0.0062
    --------------------------------------------
      LOOP:  cpu time      1.2666: real time      1.2863

 eigenvalue-minimisations  :  2705
 total energy-change (2. order) :-0.5287194E-02  (-0.4231706E-02)
 number of electron     256.0000000 magnetization 
 augmentation part      -14.7366863 magnetization 

 Broyden mixing:
  rms(total) = 0.96267E-01    rms(broyden)= 0.96267E-01
  rms(prec ) = 0.10444E+00
  weight for this iteration     100.00

 eigenvalues of (default mixing * dielectric matrix)
  average eigenvalue GAMMA=   1.6721
  2.6963  2.3551  1.7513  0.7789  0.7789

 Free energy of the ion-electron system (eV)
  ---------------------------------------------------
  alpha Z        PSCENC =       115.81677638
  Ewald energy   TEWEN  =     -7494.33350985
  -Hartree energ DENC   =      -444.13463694
  -exchange      EXHF   =         0.00000000
  -V(xc)+E(xc)   XCENC  =      -528.63261464
  PAW double counting   =     33173.99042652   -32076.59526284
  entropy T*S    EENTRO =         0.01903592
  eigenvalues    EBANDS =       324.04989048
  atomic energy  EATOM  =      6564.79586099
  Solvation  Ediel_sol  =         0.00000000
  ---------------------------------------------------
  free energy    TOTEN  =      -365.02403397 eV

  energy without entropy =     -365.04306989  energy(sigma->0) =     -365.03037928


--------------------------------------------------------------------------------------------------------




--------------------------------------- Iteration      1(  11)  ---------------------------------------


    POTLOK:  cpu time      0.0816: real time      0.0958
    SETDIJ:  cpu time      0.0720: real time      0.0722
    EDDIAG:  cpu time      0.1303: real time      0.1306
  RMM-DIIS:  cpu time      0.6926: real time      0.6946
    ORTHCH:  cpu time      0.0203: real time      0.0203
       DOS:  cpu time      0.0012: real time      0.0012
    CHARGE:  cpu time      0.2393: real time      0.2398
    MIXING:  cpu time      0.0056: real time      0.0056
    --------------------------------------------
      LOOP:  cpu time      1.2429: real time      1.2600

 eigenvalue-minimisations  :  2592
 total energy-change (2. order) : 0.5584658E-02  (-0.1682032E-02)
 number of electron     256.0000000 magnetization 
 augmentation part      -14.7525504 magnetization 

 Broyden mixing:
  rms(total) = 0.52138E-01    rms(broyden)= 0.52138E-01
  rms(prec ) = 0.52551E-01
  weight for this iteration     100.00

 eigenvalues of (default mixing * dielectric matrix)
  average eigenvalue GAMMA=   1.5285
  2.6185  2.6185  1.4913  1.3327  0.7799  0.3300

 Free energy of the ion-electron system (eV)
  ---------------------------------------------------
  alpha Z        PSCENC =       115.81677638
  Ewald energy   TEWEN  =     -7494.33350985
  -Hartree energ DENC   =      -441.07173534
  -exchange      EXHF   =         0.00000000
  -V(xc)+E(xc)   XCENC  =      -528.87925363
  PAW double counting   =     32993.29606424   -31895.62812712
  entropy T*S    EENTRO =         0.01997782
  eigenvalues    EBANDS =       320.96549720
  atomic energy  EATOM  =      6564.79586099
  Solvation  Ediel_sol  =         0.00000000
  ---------------------------------------------------
  free energy    TOTEN  =      -365.01844931 eV

  energy without entropy =     -365.03842713  energy(sigma->0) =     -365.02510858


--------------------------------------------------------------------------------------------------------




--------------------------------------- Iteration      1(  12)  ---------------------------------------


    POTLOK:  cpu time      0.0780: real time      0.0952
    SETDIJ:  cpu time      0.0720: real time      0.0722
    EDDIAG:  cpu time      0.1296: real time      0.1300
  RMM-DIIS:  cpu time      0.6937: real time      0.6956
    ORTHCH:  cpu time      0.0198: real time      0.0198
       DOS:  cpu time      0.0016: real time      0.0016
    CHARGE:  cpu time      0.2379: real time      0.2384
    MIXING:  cpu time      0.0065: real time      0.0065
    --------------------------------------------
      LOOP:  cpu time      1.2392: real time      1.2594

 eigenvalue-minimisations  :  2616
 total energy-change (2. order) :-0.2155872E-03  (-0.1937306E-03)
 number of electron     256.0000000 magnetization 
 augmentation part      -14.7552777 magnetization 

 Broyden mixing:
  rms(total) = 0.48390E-01    rms(broyden)= 0.48390E-01
  rms(prec ) = 0.48618E-01
  weight for this iteration     100.00

 eigenvalues of (default mixing * dielectric matrix)
  average eigenvalue GAMMA=   1.4669
  2.6124  2.6124  1.9320  1.0726  0.8634  0.4781  0.6974

 Free energy of the ion-electron system (eV)
  ---------------------------------------------------
  alpha Z        PSCENC =       115.81677638
  Ewald energy   TEWEN  =     -7494.33350985
  -Hartree energ DENC   =      -440.98751363
  -exchange      EXHF   =         0.00000000
  -V(xc)+E(xc)   XCENC  =      -528.89783199
  PAW double counting   =     32912.80286701   -31815.14636178
  entropy T*S    EENTRO =         0.01999187
  eigenvalues    EBANDS =       320.91105611
  atomic energy  EATOM  =      6564.79586099
  Solvation  Ediel_sol  =         0.00000000
  ---------------------------------------------------
  free energy    TOTEN  =      -365.01866490 eV

  energy without entropy =     -365.03865677  energy(sigma->0) =     -365.02532886


--------------------------------------------------------------------------------------------------------




--------------------------------------- Iteration      1(  13)  ---------------------------------------


    POTLOK:  cpu time      0.0865: real time      0.0965
    SETDIJ:  cpu time      0.0722: real time      0.0724
    EDDIAG:  cpu time      0.1311: real time      0.1314
  RMM-DIIS:  cpu time      0.7088: real time      0.7108
    ORTHCH:  cpu time      0.0205: real time      0.0206
       DOS:  cpu time      0.0012: real time      0.0012
    CHARGE:  cpu time      0.2391: real time      0.2397
    MIXING:  cpu time      0.0065: real time      0.0065
    --------------------------------------------
      LOOP:  cpu time      1.2660: real time      1.2791

 eigenvalue-minimisations  :  2692
 total energy-change (2. order) :-0.6665064E-04  (-0.3538316E-04)
 number of electron     256.0000000 magnetization 
 augmentation part      -14.7559239 magnetization 

 Broyden mixing:
  rms(total) = 0.56125E-01    rms(broyden)= 0.56125E-01
  rms(prec ) = 0.56329E-01
  weight for this iteration     100.00

 eigenvalues of (default mixing * dielectric matrix)
  average eigenvalue GAMMA=   1.6977
  2.8057  2.8057  2.3347  2.3347  0.9488  0.9095  0.9095  0.5328

 Free energy of the ion-electron system (eV)
  ---------------------------------------------------
  alpha Z        PSCENC =       115.81677638
  Ewald energy   TEWEN  =     -7494.33350985
  -Hartree energ DENC   =      -441.04124183
  -exchange      EXHF   =         0.00000000
  -V(xc)+E(xc)   XCENC  =      -528.88262849
  PAW double counting   =     32981.31448163   -31883.66125034
  entropy T*S    EENTRO =         0.01999431
  eigenvalues    EBANDS =       320.95278564
  atomic energy  EATOM  =      6564.79586099
  Solvation  Ediel_sol  =         0.00000000
  ---------------------------------------------------
  free energy    TOTEN  =      -365.01873155 eV

  energy without entropy =     -365.03872586  energy(sigma->0) =     -365.02539632


--------------------------------------------------------------------------------------------------------




--------------------------------------- Iteration      1(  14)  ---------------------------------------


    POTLOK:  cpu time      0.0752: real time      0.0888
    SETDIJ:  cpu time      0.0759: real time      0.0761
    EDDIAG:  cpu time      0.1303: real time      0.1306
  RMM-DIIS:  cpu time      0.6871: real time      0.6890
    ORTHCH:  cpu time      0.0199: real time      0.0200
       DOS:  cpu time      0.0012: real time      0.0012
    CHARGE:  cpu time      0.2378: real time      0.2384
    MIXING:  cpu time      0.0067: real time      0.0067
    --------------------------------------------
      LOOP:  cpu time      1.2342: real time      1.2508

 eigenvalue-minimisations  :  2627
 total energy-change (2. order) : 0.1101077E-05  (-0.9985247E-05)
 number of electron     256.0000000 magnetization 
 augmentation part      -14.7558087 magnetization 

 Broyden mixing:
  rms(total) = 0.20916E-01    rms(broyden)= 0.20916E-01
  rms(prec ) = 0.21139E-01
  weight for this iteration     100.00

 eigenvalues of (default mixing * dielectric matrix)
  average eigenvalue GAMMA=   1.5410
  2.6765  2.6765  2.4580  2.1620  0.9713  0.9244  0.9244  0.5378  0.5378

 Free energy of the ion-electron system (eV)
  ---------------------------------------------------
  alpha Z        PSCENC =       115.81677638
  Ewald energy   TEWEN  =     -7494.33350985
  -Hartree energ DENC   =      -440.91997010
  -exchange      EXHF   =         0.00000000
  -V(xc)+E(xc)   XCENC  =      -528.92301760
  PAW double counting   =     32665.82580997   -31568.18961991
  entropy T*S    EENTRO =         0.01999180
  eigenvalues    EBANDS =       320.88894787
  atomic energy  EATOM  =      6564.79586099
  Solvation  Ediel_sol  =         0.00000000
  ---------------------------------------------------
  free energy    TOTEN  =      -365.01873045 eV

  energy without entropy =     -365.03872225  energy(sigma->0) =     -365.02539438


--------------------------------------------------------------------------------------------------------




--------------------------------------- Iteration      1(  15)  ---------------------------------------


    POTLOK:  cpu time      0.0753: real time      0.0885
    SETDIJ:  cpu time      0.0746: real time      0.0748
    EDDIAG:  cpu time      0.1301: real time      0.1303
  RMM-DIIS:  cpu time      0.7124: real time      0.7144
    ORTHCH:  cpu time      0.0197: real time      0.0197
       DOS:  cpu time      0.0013: real time      0.0013
    CHARGE:  cpu time      0.2409: real time      0.2414
    MIXING:  cpu time      0.0064: real time      0.0065
    --------------------------------------------
      LOOP:  cpu time      1.2606: real time      1.2769

 eigenvalue-minimisations  :  2645
 total energy-change (2. order) :-0.3314576E-04  (-0.3885178E-05)
 number of electron     256.0000000 magnetization 
 augmentation part      -14.7560780 magnetization 

 Broyden mixing:
  rms(total) = 0.11888E-01    rms(broyden)= 0.11888E-01
  rms(prec ) = 0.12045E-01
  weight for this iteration     100.00

 eigenvalues of (default mixing * dielectric matrix)
  average eigenvalue GAMMA=   1.5044
  2.7453  2.7453  2.1746  2.1746  0.8817  0.8817  1.0159  1.0159  0.8668  0.5426

 Free energy of the ion-electron system (eV)
  ---------------------------------------------------
  alpha Z        PSCENC =       115.81677638
  Ewald energy   TEWEN  =     -7494.33350985
  -Hartree energ DENC   =      -440.88373291
  -exchange      EXHF   =         0.00000000
  -V(xc)+E(xc)   XCENC  =      -528.92505160
  PAW double counting   =     32621.46266509   -31523.82603465
  entropy T*S    EENTRO =         0.02001695
  eigenvalues    EBANDS =       320.85424601
  atomic energy  EATOM  =      6564.79586099
  Solvation  Ediel_sol  =         0.00000000
  ---------------------------------------------------
  free energy    TOTEN  =      -365.01876360 eV

  energy without entropy =     -365.03878055  energy(sigma->0) =     -365.02543591


--------------------------------------------------------------------------------------------------------




--------------------------------------- Iteration      1(  16)  ---------------------------------------


    POTLOK:  cpu time      0.0827: real time      0.0982
    SETDIJ:  cpu time      0.0723: real time      0.0724
    EDDIAG:  cpu time      0.1342: real time      0.1345
  RMM-DIIS:  cpu time      0.6964: real time      0.6983
    ORTHCH:  cpu time      0.0197: real time      0.0197
       DOS:  cpu time      0.0017: real time      0.0017
    CHARGE:  cpu time      0.2397: real time      0.2403
    MIXING:  cpu time      0.0069: real time      0.0069
    --------------------------------------------
      LOOP:  cpu time      1.2535: real time      1.2721

 eigenvalue-minimisations  :  2593
 total energy-change (2. order) :-0.1789978E-04  (-0.1522695E-05)
 number of electron     256.0000000 magnetization 
 augmentation part      -14.7560003 magnetization 

 Broyden mixing:
  rms(total) = 0.75579E-02    rms(broyden)= 0.75579E-02
  rms(prec ) = 0.76296E-02
  weight for this iteration     100.00

 eigenvalues of (default mixing * dielectric matrix)
  average eigenvalue GAMMA=   1.3859
  2.7497  2.7497  2.1855  2.1855  0.8899  0.8899  1.0084  1.0084  0.8656  0.5398
  0.1730

 Free energy of the ion-electron system (eV)
  ---------------------------------------------------
  alpha Z        PSCENC =       115.81677638
  Ewald energy   TEWEN  =     -7494.33350985
  -Hartree energ DENC   =      -440.93146265
  -exchange      EXHF   =         0.00000000
  -V(xc)+E(xc)   XCENC  =      -528.91893597
  PAW double counting   =     32617.38680186   -31519.75013070
  entropy T*S    EENTRO =         0.02002617
  eigenvalues    EBANDS =       320.89579227
  atomic energy  EATOM  =      6564.79586099
  Solvation  Ediel_sol  =         0.00000000
  ---------------------------------------------------
  free energy    TOTEN  =      -365.01878150 eV

  energy without entropy =     -365.03880767  energy(sigma->0) =     -365.02545689


--------------------------------------------------------------------------------------------------------




--------------------------------------- Iteration      1(  17)  ---------------------------------------


    POTLOK:  cpu time      0.0807: real time      0.0941
    SETDIJ:  cpu time      0.0727: real time      0.0729
    EDDIAG:  cpu time      0.1307: real time      0.1310
  RMM-DIIS:  cpu time      0.6835: real time      0.6854
    ORTHCH:  cpu time      0.0207: real time      0.0207
       DOS:  cpu time      0.0013: real time      0.0013
    CHARGE:  cpu time      0.2397: real time      0.2403
    MIXING:  cpu time      0.0070: real time      0.0070
    --------------------------------------------
      LOOP:  cpu time      1.2363: real time      1.2528

 eigenvalue-minimisations  :  2568
 total energy-change (2. order) :-0.5393145E-05  (-0.7663532E-06)
 number of electron     256.0000000 magnetization 
 augmentation part      -14.7557778 magnetization 

 Broyden mixing:
  rms(total) = 0.15845E-02    rms(broyden)= 0.15844E-02
  rms(prec ) = 0.16041E-02
  weight for this iteration     100.00

 eigenvalues of (default mixing * dielectric matrix)
  average eigenvalue GAMMA=   1.6975
  3.0778  3.0778  2.1326  2.1326  2.4043  2.2618  0.9488  0.9488  0.9640  0.9640
  0.9048  0.5527

 Free energy of the ion-electron system (eV)
  ---------------------------------------------------
  alpha Z        PSCENC =       115.81677638
  Ewald energy   TEWEN  =     -7494.33350985
  -Hartree energ DENC   =      -440.98271200
  -exchange      EXHF   =         0.00000000
  -V(xc)+E(xc)   XCENC  =      -528.91580129
  PAW double counting   =     32591.70082554   -31494.06413927
  entropy T*S    EENTRO =         0.02002996
  eigenvalues    EBANDS =       320.94388266
  atomic energy  EATOM  =      6564.79586099
  Solvation  Ediel_sol  =         0.00000000
  ---------------------------------------------------
  free energy    TOTEN  =      -365.01878689 eV

  energy without entropy =     -365.03881685  energy(sigma->0) =     -365.02546354


--------------------------------------------------------------------------------------------------------




--------------------------------------- Iteration      1(  18)  ---------------------------------------


    POTLOK:  cpu time      0.0794: real time      0.0959
    SETDIJ:  cpu time      0.0721: real time      0.0722
    EDDIAG:  cpu time      0.1306: real time      0.1309
  RMM-DIIS:  cpu time      0.4500: real time      0.4511
    ORTHCH:  cpu time      0.0197: real time      0.0202
       DOS:  cpu time      0.0015: real time      0.0015
    --------------------------------------------
      LOOP:  cpu time      0.7534: real time      0.7719

 eigenvalue-minimisations  :  1577
 total energy-change (2. order) : 0.7848921E-06  (-0.1348352E-06)
 number of electron     256.0000000 magnetization 
 augmentation part      -14.7557778 magnetization 

 Free energy of the ion-electron system (eV)
  ---------------------------------------------------
  alpha Z        PSCENC =       115.81677638
  Ewald energy   TEWEN  =     -7494.33350985
  -Hartree energ DENC   =      -440.98104000
  -exchange      EXHF   =         0.00000000
  -V(xc)+E(xc)   XCENC  =      -528.91746960
  PAW double counting   =     32578.76996081   -31481.13271987
  entropy T*S    EENTRO =         0.02003180
  eigenvalues    EBANDS =       320.94332324
  atomic energy  EATOM  =      6564.79586099
  Solvation  Ediel_sol  =         0.00000000
  ---------------------------------------------------
  free energy    TOTEN  =      -365.01878610 eV

  energy without entropy =     -365.03881790  energy(sigma->0) =     -365.02546337


--------------------------------------------------------------------------------------------------------




 average (electrostatic) potential at core
  the test charge radii are     0.9892
  (the norm of the test charge is              1.0000)
       1 -82.1919       2 -82.1919       3 -82.1919       4 -82.1919       5 -82.1919
       6 -82.1919       7 -82.1919       8 -82.1919       9 -82.1919      10 -82.1919
      11 -82.1919      12 -82.1919      13 -82.1919      14 -82.1919      15 -82.1919
      16 -82.1919      17 -82.1919      18 -82.1919      19 -82.1919      20 -82.1919
      21 -82.1919      22 -82.1919      23 -82.1919      24 -82.1919      25 -82.1919
      26 -82.1919      27 -82.1919      28 -82.1919      29 -82.1919      30 -82.1919
      31 -82.1919      32 -82.1919      33 -82.1919      34 -82.1919      35 -82.1919
      36 -82.1919      37 -82.1919      38 -82.1919      39 -82.1919      40 -82.1919
      41 -82.1919      42 -82.1919      43 -82.1919      44 -82.1919      45 -82.1919
      46 -82.1919      47 -82.1919      48 -82.1919      49 -82.1919      50 -82.1919
      51 -82.1919      52 -82.1919      53 -82.1919      54 -82.1919      55 -82.1919
      56 -82.1919      57 -82.1919      58 -82.1919      59 -82.1919      60 -82.1919
      61 -82.1919      62 -82.1919      63 -82.1919      64 -82.1919
 
 
 
 E-fermi :   6.7261     XC(G=0):  -9.8376     alpha+bet :-12.8934

 val. band max:        6.6678731058   @ k =   0.0000   0.0000   0.0000
 cond. band min:       6.8129270676   @ k =   0.5000  -0.0000   0.0000
 fundamental gap:      0.1450539618
 Fermi energy:         6.7260683949

 k-point     1 :       0.0000    0.0000    0.0000
  band No.  band energies     occupation 
      1      -5.9536      2.00000
      2      -4.8111      2.00000
      3      -4.8111      2.00000
      4      -4.8103      2.00000
      5      -4.8103      2.00000
      6      -4.7696      2.00000
      7      -4.7696      2.00000
      8      -3.8073      2.00000
      9      -3.8073      2.00000
     10      -3.7755      2.00000
     11      -3.7755      2.00000
     12      -3.7755      2.00000
     13      -3.7755      2.00000
     14      -3.7457      2.00000
     15      -3.7457      2.00000
     16      -3.7457      2.00000
     17      -3.7457      2.00000
     18      -3.6820      2.00000
     19      -3.6820      2.00000
     20      -3.4808      2.00000
     21      -3.4808      2.00000
     22      -3.3364      2.00000
     23      -3.3364      2.00000
     24      -1.6439      2.00000
     25      -1.5612      2.00000
     26      -1.5612      2.00000
     27      -1.4824      2.00000
     28      -1.4351      2.00000
     29      -1.4351      2.00000
     30      -1.4280      2.00000
     31      -1.4280      2.00000
     32      -1.3909      2.00000
     33      -1.3909      2.00000
     34      -1.2963      2.00000
     35      -1.2963      2.00000
     36      -1.2963      2.00000
     37      -1.2963      2.00000
     38      -1.2432      2.00000
     39      -1.2432      2.00000
     40      -1.2018      2.00000
     41      -1.2018      2.00000
     42      -0.8315      2.00000
     43      -0.8315      2.00000
     44      -0.8083      2.00000
     45      -0.8083      2.00000
     46       0.8614      2.00000
     47       0.8614      2.00000
     48       0.8967      2.00000
     49       0.8967      2.00000
     50       0.8967      2.00000
     51       0.8967      2.00000
     52       0.9291      2.00000
     53       0.9291      2.00000
     54       0.9781      2.00000
     55       0.9781      2.00000
     56       0.9781      2.00000
     57       0.9781      2.00000
     58       2.3176      2.00000
     59       2.3176      2.00000
     60       2.3219      2.00000
     61       2.3219      2.00000
     62       2.3325      2.00000
     63       2.3325      2.00000
     64       2.3370      2.00000
     65       2.3370      2.00000
     66       2.3370      2.00000
     67       2.3370      2.00000
     68       2.3391      2.00000
     69       2.3391      2.00000
     70       2.4008      2.00000
     71       2.4008      2.00000
     72       2.4270      2.00000
     73       2.4270      2.00000
     74       2.4270      2.00000
     75       2.4270      2.00000
     76       2.4501      2.00000
     77       2.4501      2.00000
     78       2.5476      2.00000
     79       2.5476      2.00000
     80       2.5476      2.00000
     81       2.5476      2.00000
     82       2.9937      2.00000
     83       2.9937      2.00000
     84       3.0003      2.00000
     85       3.0003      2.00000
     86       3.1536      2.00000
     87       3.1536      2.00000
     88       3.3807      2.00000
     89       3.3807      2.00000
     90       3.4269      2.00000
     91       3.5467      2.00000
     92       3.5467      2.00000
     93       3.6684      2.00000
     94       4.4265      2.00000
     95       4.4265      2.00000
     96       4.4266      2.00000
     97       4.4266      2.00000
     98       4.4484      2.00000
     99       4.4484      2.00000
    100       4.5325      2.00000
    101       4.5325      2.00000
    102       4.5770      2.00000
    103       4.5770      2.00000
    104       4.6663      2.00000
    105       4.6663      2.00000
    106       5.0272      2.00000
    107       5.0272      2.00000
    108       5.0272      2.00000
    109       5.0272      2.00000
    110       5.1380      2.00000
    111       5.1380      2.00000
    112       5.1399      2.00000
    113       5.1399      2.00000
    114       5.1964      2.00000
    115       5.1964      2.00000
    116       5.1964      2.00000
    117       5.1964      2.00000
    118       5.2468      2.00000
    119       5.2468      2.00000
    120       5.2577      2.00000
    121       5.2577      2.00000
    122       5.3472      2.00000
    123       5.3472      2.00000
    124       5.4487      2.00000
    125       5.4487      2.00000
    126       6.5086      2.06395
    127       6.5118      2.06209
    128       6.6679      1.47013
    129       6.8846      0.02365
    130       6.8846      0.02365
    131       6.9294     -0.05358
    132       7.0533     -0.04282
    133       7.0533     -0.04282
    134       7.1810     -0.00596
    135       7.4133     -0.00001
    136       7.4133     -0.00001
    137       7.5782     -0.00000
    138       7.5782     -0.00000
    139       7.5796     -0.00000
    140       7.5796     -0.00000
    141       8.1738     -0.00000
    142       8.1738     -0.00000
    143       8.3585     -0.00000
    144       8.3586     -0.00000
    145       8.8210     -0.00000
    146       8.8211     -0.00000
    147       8.8212     -0.00000
    148       8.8236     -0.00000
    149       8.9284     -0.00000
    150       8.9514     -0.00000
    151       8.9525     -0.00000
    152       9.0176     -0.00000
    153       9.0183     -0.00000
    154       9.0192     -0.00000
    155       9.0294     -0.00000
    156       9.0921     -0.00000
    157       9.0980     -0.00000
    158       9.1024     -0.00000
    159       9.2758     -0.00000
    160       9.5383     -0.00000
    161       9.6212     -0.00000
    162       9.6485     -0.00000

 k-point     2 :       0.5000   -0.0000    0.0000
  band No.  band energies     occupation 
      1      -5.6549      2.00000
      2      -5.6549      2.00000
      3      -4.5675      2.00000
      4      -4.5675      2.00000
      5      -4.5371      2.00000
      6      -4.5371      2.00000
      7      -4.5371      2.00000
      8      -4.5371      2.00000
      9      -4.5049      2.00000
     10      -4.5049      2.00000
     11      -3.6568      2.00000
     12      -3.6568      2.00000
     13      -3.6568      2.00000
     14      -3.6568      2.00000
     15      -3.5714      2.00000
     16      -3.5714      2.00000
     17      -3.5714      2.00000
     18      -3.5714      2.00000
     19      -3.3346      2.00000
     20      -3.3346      2.00000
     21      -2.6519      2.00000
     22      -2.6519      2.00000
     23      -2.5627      2.00000
     24      -2.5627      2.00000
     25      -2.5627      2.00000
     26      -2.5627      2.00000
     27      -2.4709      2.00000
     28      -2.4709      2.00000
     29      -1.5472      2.00000
     30      -1.5472      2.00000
     31      -1.5178      2.00000
     32      -1.5178      2.00000
     33      -1.3960      2.00000
     34      -1.3960      2.00000
     35      -1.3702      2.00000
     36      -1.3702      2.00000
     37      -0.2779      2.00000
     38      -0.2779      2.00000
     39      -0.2119      2.00000
     40      -0.2119      2.00000
     41      -0.2119      2.00000
     42      -0.2119      2.00000
     43      -0.1520      2.00000
     44      -0.1520      2.00000
     45      -0.1316      2.00000
     46      -0.1316      2.00000
     47      -0.1316      2.00000
     48      -0.1316      2.00000
     49      -0.1067      2.00000
     50      -0.1067      2.00000
     51      -0.1067      2.00000
     52      -0.1067      2.00000
     53       0.8058      2.00000
     54       0.8058      2.00000
     55       1.8889      2.00000
     56       1.8889      2.00000
     57       1.8914      2.00000
     58       1.8914      2.00000
     59       1.8914      2.00000
     60       1.8914      2.00000
     61       1.8942      2.00000
     62       1.8942      2.00000
     63       2.1388      2.00000
     64       2.1388      2.00000
     65       2.1566      2.00000
     66       2.1566      2.00000
     67       2.1566      2.00000
     68       2.1566      2.00000
     69       2.1834      2.00000
     70       2.1834      2.00000
     71       2.7798      2.00000
     72       2.7798      2.00000
     73       2.8291      2.00000
     74       2.8291      2.00000
     75       2.8661      2.00000
     76       2.8661      2.00000
     77       2.9176      2.00000
     78       2.9176      2.00000
     79       3.5480      2.00000
     80       3.5480      2.00000
     81       3.5956      2.00000
     82       3.5956      2.00000
     83       3.5956      2.00000
     84       3.5956      2.00000
     85       3.6317      2.00000
     86       3.6317      2.00000
     87       3.6469      2.00000
     88       3.6469      2.00000
     89       3.6476      2.00000
     90       3.6476      2.00000
     91       3.7804      2.00000
     92       3.7804      2.00000
     93       3.8223      2.00000
     94       3.8223      2.00000
     95       3.8223      2.00000
     96       3.8223      2.00000
     97       3.8628      2.00000
     98       3.8628      2.00000
     99       3.9830      2.00000
    100       3.9830      2.00000
    101       3.9830      2.00000
    102       3.9830      2.00000
    103       4.0944      2.00000
    104       4.0944      2.00000
    105       4.0944      2.00000
    106       4.0944      2.00000
    107       5.0430      2.00000
    108       5.0430      2.00000
    109       5.0430      2.00000
    110       5.0430      2.00000
    111       5.0465      2.00000
    112       5.0465      2.00000
    113       5.0479      2.00000
    114       5.0479      2.00000
    115       5.0700      2.00000
    116       5.0700      2.00000
    117       5.0700      2.00000
    118       5.0700      2.00000
    119       5.1422      2.00000
    120       5.1422      2.00000
    121       5.1422      2.00000
    122       5.1422      2.00000
    123       5.3724      2.00000
    124       5.3724      2.00000
    125       5.6106      2.00000
    126       5.6106      2.00000
    127       5.6179      2.00000
    128       5.6179      2.00000
    129       6.8129      0.33619
    130       6.8129      0.33619
    131       7.7804     -0.00000
    132       7.7804     -0.00000
    133       8.3204     -0.00000
    134       8.3205     -0.00000
    135       8.4190     -0.00000
    136       8.4192     -0.00000
    137       8.4719     -0.00000
    138       8.4719     -0.00000
    139       8.4938     -0.00000
    140       8.4939     -0.00000
    141       8.6481     -0.00000
    142       8.6485     -0.00000
    143       8.8162     -0.00000
    144       8.8163     -0.00000
    145       8.8172     -0.00000
    146       8.8207     -0.00000
    147       8.9244     -0.00000
    148       8.9253     -0.00000
    149       8.9274     -0.00000
    150       8.9306     -0.00000
    151       8.9632     -0.00000
    152       8.9742     -0.00000
    153       9.0352     -0.00000
    154       9.0377     -0.00000
    155       9.0400     -0.00000
    156       9.0518     -0.00000
    157       9.1410     -0.00000
    158       9.1667     -0.00000
    159       9.2228     -0.00000
    160       9.2693     -0.00000
    161       9.3300     -0.00000
    162       9.3628     -0.00000

 k-point     3 :      -0.0000    0.5000    0.0000
  band No.  band energies     occupation 
[...]
  0.000   0.000   4.168   0.000   0.000   7.764   0.000   0.000
 -0.001  -0.002   0.000   4.168   0.000   0.000   7.764   0.000
  0.000   0.000   0.000   0.000   4.168   0.000   0.000   7.764
  0.000   0.000   7.764   0.000   0.000  14.474   0.000   0.000
 -0.002  -0.003   0.000   7.764   0.000   0.000  14.474   0.000
  0.000   0.000   0.000   0.000   7.764   0.000   0.000  14.474
 total augmentation occupancy for first ion, spin component:           1
  6.569  -2.637   0.000   0.052   0.000  -0.000  -0.020  -0.000
 -2.637   1.166  -0.000  -0.027   0.000   0.000   0.010   0.000
  0.000  -0.000   3.228   0.000   0.000  -0.745  -0.000   0.003
  0.052  -0.027   0.000   3.229   0.000   0.000  -0.745  -0.000
  0.000   0.000   0.000   0.000   3.185   0.003  -0.000  -0.729
 -0.000   0.000  -0.745   0.000   0.003   0.181   0.000  -0.001
 -0.020   0.010   0.000  -0.745  -0.000  -0.000   0.182   0.000
 -0.000   0.000   0.003  -0.000  -0.729  -0.001   0.000   0.177


------------------------ aborting loop because EDIFF is reached ----------------------------------------


    CHARGE:  cpu time      0.2493: real time      0.2503
    FORLOC:  cpu time      0.0233: real time      0.0233
    FORNL :  cpu time      0.6932: real time      0.6954
    STRESS:  cpu time      2.1692: real time      2.1764
    FORCOR:  cpu time      0.0861: real time      0.0863
    FORHAR:  cpu time      0.0348: real time      0.0349
    MIXING:  cpu time      0.0041: real time      0.0041
    OFIELD:  cpu time      0.0000: real time      0.0000

  FORCE on cell =-STRESS in cart. coord.  units (eV):
  Direction    XX          YY          ZZ          XY          YZ          ZX
  --------------------------------------------------------------------------------------
  Alpha Z   115.81678   115.81678   115.81678
  Ewald   -2544.69219 -2475.30191 -2475.21971     8.55955    -0.00000    -0.00000
  Hartree   139.70089   150.43917   150.20993     8.25446    -0.00000    -0.00000
  E(xc)    -831.83731  -832.49946  -832.52815     0.02221    -0.00000    -0.00000
  Local    -843.03620  -925.55265  -925.60988   -18.38733    -0.00000     0.00000
  n-local  2525.87171  2536.74740  2537.22228    -1.13783     0.00000    -0.00000
  augment  -370.00396  -370.06376  -370.10364    -0.60044     0.00000     0.00000
  Kinetic  1877.97651  1858.75678  1858.38095    14.28950    -0.00001    -0.00000
  Fock        0.00000     0.00000     0.00000     0.00000     0.00000     0.00000
  -------------------------------------------------------------------------------------
  Total      69.79622    58.34236    58.16855    11.00013     0.00000     0.00000
  in kB      93.92896    78.51481    78.28090    14.80353     0.00000     0.00000
  external pressure =       83.57 kB  Pullay stress =        0.00 kB


 VOLUME and BASIS-vectors are now :
 -----------------------------------------------------------------------------
  energy-cutoff  :      400.00
  volume of cell :     1190.54
      direct lattice vectors                 reciprocal lattice vectors
    10.457145544 -0.106706016  0.000000000     0.095638150  0.000956386  0.000000000
    -0.106706016 10.670556576  0.000000000     0.000956386  0.093725388  0.000000000
     0.000000000  0.000000000 10.670556576     0.000000000  0.000000000  0.093715824

  length of vectors
    10.457689951 10.671090095 10.670556576     0.095642932  0.093730267  0.093715824


 FORCES acting on ions
    electron-ion (+dipol)            ewald-force                    non-local-force                 convergence-correction
 -----------------------------------------------------------------------------------------------
   -.117E-08 -.121E-08 0.166E+01   0.200E-14 -.910E-14 -.118E+01   0.234E-20 0.364E-21 -.482E+00   -.229E-13 0.435E-13 -.256E-04
   -.117E-08 -.121E-08 0.166E+01   0.266E-14 -.977E-14 -.118E+01   -.189E-20 0.173E-20 -.482E+00   -.632E-14 0.889E-13 -.256E-04
   -.117E-08 -.121E-08 0.166E+01   -.107E-13 -.666E-14 -.118E+01   -.275E-21 0.111E-21 -.482E+00   -.442E-13 -.457E-13 -.256E-04
   -.117E-08 -.121E-08 0.166E+01   -.711E-14 -.577E-14 -.118E+01   -.102E-20 0.455E-21 -.482E+00   0.201E-13 -.104E-12 -.256E-04
   -.117E-08 -.121E-08 0.166E+01   0.160E-13 -.666E-14 -.118E+01   -.104E-20 0.186E-20 -.482E+00   0.214E-13 0.501E-13 -.256E-04
   -.117E-08 -.121E-08 0.166E+01   0.711E-14 -.107E-13 -.118E+01   -.188E-20 0.166E-20 -.482E+00   0.502E-14 -.674E-14 -.256E-04
   -.117E-08 -.121E-08 0.166E+01   0.888E-14 -.111E-13 -.118E+01   0.302E-20 0.318E-20 -.482E+00   0.466E-13 -.438E-13 -.256E-04
   -.117E-08 -.121E-08 0.166E+01   0.711E-14 -.107E-13 -.118E+01   -.410E-21 0.183E-20 -.482E+00   -.284E-13 -.686E-14 -.256E-04
   0.307E-08 0.277E-08 -.166E+01   0.102E-13 0.933E-14 0.118E+01   0.106E-20 0.570E-22 0.482E+00   0.111E-12 -.367E-13 0.256E-04
   0.307E-08 0.277E-08 -.166E+01   0.160E-13 0.533E-14 0.118E+01   0.102E-20 -.198E-21 0.482E+00   -.953E-13 0.240E-14 0.256E-04
   0.307E-08 0.277E-08 -.166E+01   0.111E-13 0.444E-14 0.118E+01   0.217E-20 -.185E-20 0.482E+00   0.825E-13 0.341E-13 0.256E-04
   0.307E-08 0.277E-08 -.166E+01   0.107E-13 0.355E-14 0.118E+01   0.382E-21 -.145E-20 0.482E+00   -.790E-14 -.244E-13 0.256E-04
   0.307E-08 0.277E-08 -.166E+01   -.266E-14 -.222E-14 0.118E+01   0.195E-21 -.170E-20 0.482E+00   -.123E-12 -.810E-13 0.256E-04
   0.307E-08 0.277E-08 -.166E+01   -.355E-14 -.178E-14 0.118E+01   0.190E-21 -.378E-21 0.482E+00   0.104E-12 0.193E-14 0.256E-04
   0.307E-08 0.277E-08 -.166E+01   0.222E-13 0.844E-14 0.118E+01   0.441E-20 -.218E-20 0.482E+00   -.939E-13 0.738E-13 0.256E-04
   0.307E-08 0.277E-08 -.166E+01   0.178E-13 0.711E-14 0.118E+01   0.199E-21 -.178E-20 0.482E+00   0.106E-13 -.128E-13 0.256E-04
   -.117E-08 -.121E-08 0.166E+01   -.666E-15 -.178E-14 -.118E+01   0.496E-21 0.561E-21 -.482E+00   -.149E-12 0.535E-13 -.256E-04
   -.117E-08 -.121E-08 0.166E+01   -.102E-13 -.111E-13 -.118E+01   0.220E-20 0.107E-20 -.482E+00   0.110E-12 -.126E-13 -.256E-04
   -.117E-08 -.121E-08 0.166E+01   0.000E+00 -.133E-13 -.118E+01   0.180E-20 -.122E-20 -.482E+00   -.583E-13 -.525E-13 -.256E-04
   -.117E-08 -.121E-08 0.166E+01   0.355E-14 -.115E-13 -.118E+01   -.509E-22 -.109E-20 -.482E+00   0.190E-13 0.231E-13 -.256E-04
   -.117E-08 -.121E-08 0.166E+01   0.111E-13 -.755E-14 -.118E+01   0.581E-21 -.443E-21 -.482E+00   0.152E-12 0.450E-13 -.256E-04
   -.117E-08 -.121E-08 0.166E+01   0.111E-13 -.799E-14 -.118E+01   -.149E-21 -.222E-20 -.482E+00   -.114E-12 -.283E-13 -.256E-04
   -.117E-08 -.121E-08 0.166E+01   -.142E-13 -.222E-14 -.118E+01   0.123E-21 -.899E-21 -.482E+00   0.642E-13 -.418E-13 -.256E-04
   -.117E-08 -.121E-08 0.166E+01   0.000E+00 -.142E-13 -.118E+01   0.297E-20 -.229E-21 -.482E+00   -.308E-13 0.208E-13 -.256E-04
   0.307E-08 0.277E-08 -.166E+01   0.124E-13 -.486E-14 0.118E+01   -.137E-20 0.650E-21 0.482E+00   0.126E-13 0.581E-13 0.256E-04
   0.307E-08 0.277E-08 -.166E+01   -.178E-14 -.286E-14 0.118E+01   0.120E-20 0.111E-20 0.482E+00   0.152E-13 -.484E-14 0.256E-04
   0.307E-08 0.277E-08 -.166E+01   0.711E-14 0.104E-13 0.118E+01   -.367E-21 0.278E-20 0.482E+00   -.630E-14 -.573E-13 0.256E-04
   0.307E-08 0.277E-08 -.166E+01   0.000E+00 0.844E-14 0.118E+01   -.180E-20 0.124E-20 0.482E+00   0.677E-13 0.163E-14 0.256E-04
   0.307E-08 0.277E-08 -.166E+01   0.120E-13 -.576E-14 0.118E+01   -.705E-21 0.223E-20 0.482E+00   -.205E-13 0.153E-12 0.256E-04
   0.307E-08 0.277E-08 -.166E+01   0.120E-13 -.176E-14 0.118E+01   -.229E-20 0.214E-20 0.482E+00   -.395E-14 -.423E-13 0.256E-04
   0.307E-08 0.277E-08 -.166E+01   0.107E-13 0.688E-14 0.118E+01   -.126E-20 0.235E-21 0.482E+00   -.281E-14 -.154E-12 0.256E-04
   0.307E-08 0.277E-08 -.166E+01   -.355E-14 0.558E-14 0.118E+01   0.301E-21 0.911E-21 0.482E+00   -.665E-13 0.485E-13 0.256E-04
   -.117E-08 -.121E-08 0.166E+01   -.158E-13 -.511E-14 -.118E+01   0.137E-20 0.207E-20 -.482E+00   0.813E-15 0.108E-12 -.256E-04
   -.117E-08 -.121E-08 0.166E+01   -.164E-13 0.355E-14 -.118E+01   -.232E-20 0.592E-21 -.482E+00   0.459E-13 -.264E-13 -.256E-04
   -.117E-08 -.121E-08 0.166E+01   0.933E-14 0.200E-14 -.118E+01   -.148E-20 0.226E-20 -.482E+00   -.140E-13 -.120E-12 -.256E-04
   -.117E-08 -.121E-08 0.166E+01   -.888E-14 0.755E-14 -.118E+01   -.677E-21 0.192E-20 -.482E+00   0.434E-13 0.255E-13 -.256E-04
   -.117E-08 -.121E-08 0.166E+01   -.133E-13 -.488E-14 -.118E+01   -.115E-20 0.126E-20 -.482E+00   0.142E-14 0.203E-12 -.256E-04
   -.117E-08 -.121E-08 0.166E+01   -.977E-14 0.533E-14 -.118E+01   -.126E-20 0.333E-20 -.482E+00   -.384E-13 -.116E-12 -.256E-04
   -.117E-08 -.121E-08 0.166E+01   -.142E-13 -.133E-14 -.118E+01   0.680E-21 0.177E-20 -.482E+00   0.701E-14 -.201E-12 -.256E-04
   -.117E-08 -.121E-08 0.166E+01   -.107E-13 0.355E-14 -.118E+01   -.226E-20 -.308E-21 -.482E+00   -.277E-13 0.106E-12 -.256E-04
   0.307E-08 0.277E-08 -.166E+01   -.251E-14 0.355E-14 0.118E+01   0.147E-20 0.114E-20 0.482E+00   -.126E-12 -.701E-13 0.256E-04
   0.307E-08 0.277E-08 -.166E+01   -.340E-14 0.711E-14 0.118E+01   0.322E-21 -.383E-21 0.482E+00   0.983E-13 -.932E-14 0.256E-04
   0.307E-08 0.277E-08 -.166E+01   0.103E-14 0.533E-14 0.118E+01   0.252E-21 -.192E-20 0.482E+00   -.221E-13 0.576E-13 0.256E-04
   0.307E-08 0.277E-08 -.166E+01   -.253E-14 0.533E-14 0.118E+01   0.190E-20 -.225E-20 0.482E+00   0.529E-13 0.243E-14 0.256E-04
   0.307E-08 0.277E-08 -.166E+01   0.110E-13 0.178E-14 0.118E+01   -.195E-22 -.331E-20 0.482E+00   0.116E-12 -.852E-13 0.256E-04
   0.307E-08 0.277E-08 -.166E+01   0.146E-13 0.124E-13 0.118E+01   0.115E-20 0.424E-21 0.482E+00   -.113E-12 0.419E-13 0.256E-04
   0.307E-08 0.277E-08 -.166E+01   -.103E-13 0.142E-13 0.118E+01   0.183E-20 0.315E-21 0.482E+00   0.255E-13 0.787E-13 0.256E-04
   0.307E-08 0.277E-08 -.166E+01   -.627E-14 0.107E-13 0.118E+01   -.269E-21 -.176E-20 0.482E+00   -.733E-13 -.592E-13 0.256E-04
   -.117E-08 -.121E-08 0.166E+01   -.231E-13 -.311E-14 -.118E+01   0.409E-20 0.627E-21 -.482E+00   0.959E-13 0.175E-13 -.256E-04
   -.117E-08 -.121E-08 0.166E+01   -.164E-13 0.133E-14 -.118E+01   0.594E-21 -.276E-21 -.482E+00   -.966E-13 0.158E-13 -.256E-04
   -.117E-08 -.121E-08 0.166E+01   -.111E-13 -.289E-14 -.118E+01   -.224E-21 -.197E-20 -.482E+00   0.912E-13 -.197E-13 -.256E-04
   -.117E-08 -.121E-08 0.166E+01   -.151E-13 0.000E+00 -.118E+01   0.154E-20 -.166E-20 -.482E+00   0.335E-14 -.889E-14 -.256E-04
   -.117E-08 -.121E-08 0.166E+01   -.666E-14 -.222E-14 -.118E+01   -.385E-21 0.320E-21 -.482E+00   -.924E-13 0.362E-13 -.256E-04
   -.117E-08 -.121E-08 0.166E+01   -.129E-13 -.533E-14 -.118E+01   0.430E-21 -.170E-20 -.482E+00   0.101E-12 -.104E-13 -.256E-04
   -.117E-08 -.121E-08 0.166E+01   0.977E-14 -.102E-13 -.118E+01   0.397E-20 -.146E-20 -.482E+00   -.922E-13 -.469E-13 -.256E-04
   -.117E-08 -.121E-08 0.166E+01   0.355E-14 0.355E-14 -.118E+01   -.184E-20 -.176E-20 -.482E+00   0.480E-14 0.244E-13 -.256E-04
   0.307E-08 0.277E-08 -.166E+01   0.157E-13 0.607E-14 0.118E+01   -.218E-20 0.170E-20 0.482E+00   -.498E-13 0.108E-12 0.256E-04
   0.307E-08 0.277E-08 -.166E+01   0.197E-13 0.123E-13 0.118E+01   0.132E-20 -.320E-21 0.482E+00   0.210E-13 0.879E-14 0.256E-04
   0.307E-08 0.277E-08 -.166E+01   -.141E-13 0.217E-13 0.118E+01   0.193E-20 0.175E-20 0.482E+00   -.104E-13 -.112E-12 0.256E-04
   0.307E-08 0.277E-08 -.166E+01   -.295E-14 0.224E-13 0.118E+01   -.155E-20 -.185E-21 0.482E+00   0.311E-13 -.255E-14 0.256E-04
   0.307E-08 0.277E-08 -.166E+01   -.194E-15 0.198E-14 0.118E+01   0.156E-21 0.198E-20 0.482E+00   0.542E-13 0.135E-12 0.256E-04
   0.307E-08 0.277E-08 -.166E+01   -.103E-14 0.157E-13 0.118E+01   0.201E-21 0.106E-20 0.482E+00   -.425E-13 -.776E-13 0.256E-04
   0.307E-08 0.277E-08 -.166E+01   -.239E-14 0.175E-13 0.118E+01   -.142E-20 0.162E-20 0.482E+00   0.784E-14 -.141E-12 0.256E-04
   0.307E-08 0.277E-08 -.166E+01   -.323E-14 0.108E-13 0.118E+01   0.183E-20 0.198E-20 0.482E+00   -.449E-13 0.878E-13 0.256E-04
 -----------------------------------------------------------------------------------------------
   0.606E-07 0.499E-07 -.398E-04   0.187E-13 0.708E-13 -.517E-13   0.182E-19 0.154E-19 -.583E-14   -.744E-13 -.106E-12 0.180E-09
 
 
 POSITION                                       TOTAL-FORCE (eV/Angst)
 -----------------------------------------------------------------------------------
      0.00000      0.00000     10.66140         0.000000     -0.000000      0.000196
      0.00000      0.00000      5.32612         0.000000     -0.000000      0.000196
     -0.05335      5.33528     10.66140         0.000000      0.000000      0.000196
     -0.05335      5.33528      5.32612        -0.000000      0.000000      0.000196
      5.22857     -0.05335     10.66140        -0.000000     -0.000000      0.000196
      5.22857     -0.05335      5.32612         0.000000     -0.000000      0.000196
      5.17522      5.28193     10.66140        -0.000000      0.000000      0.000196
      5.17522      5.28193      5.32612        -0.000000      0.000000      0.000196
      3.88141      3.96144      1.34297        -0.000000     -0.000000     -0.000196
      3.88141      3.96144      6.67825        -0.000000      0.000000     -0.000196
      3.82806      9.29672      1.34297        -0.000000      0.000000     -0.000196
      3.82806      9.29672      6.67825         0.000000      0.000000     -0.000196
      9.10999      3.90809      1.34297         0.000000      0.000000     -0.000196
      9.10999      3.90809      6.67825        -0.000000     -0.000000     -0.000196
      9.05663      9.24337      1.34297         0.000000     -0.000000     -0.000196
      9.05663      9.24337      6.67825         0.000000     -0.000000     -0.000196
     -0.02668      2.66764      2.65848        -0.000000      0.000000      0.000196
     -0.02668      2.66764      7.99376         0.000000      0.000000      0.000196
     -0.08003      8.00292      2.65848        -0.000000      0.000000      0.000196
     -0.08003      8.00292      7.99376        -0.000000      0.000000      0.000196
      5.20190      2.61429      2.65848        -0.000000     -0.000000      0.000196
      5.20190      2.61429      7.99376        -0.000000     -0.000000      0.000196
      5.14854      7.94956      2.65848         0.000000      0.000000      0.000196
      5.14854      7.94956      7.99376         0.000000     -0.000000      0.000196
      3.90809      1.29380      4.01061         0.000000      0.000000     -0.000196
      3.90809      1.29380      9.34589         0.000000      0.000000     -0.000196
      3.85474      6.62908      4.01061        -0.000000     -0.000000     -0.000196
      3.85474      6.62908      9.34589         0.000000     -0.000000     -0.000196
      9.13666      1.24045      4.01061        -0.000000      0.000000     -0.000196
      9.13666      1.24045      9.34589        -0.000000      0.000000     -0.000196
      9.08331      6.57573      4.01061         0.000000     -0.000000     -0.000196
      9.08331      6.57573      9.34589         0.000000     -0.000000     -0.000196
      2.61429     -0.02668      2.65848         0.000000     -0.000000      0.000196
      2.61429     -0.02668      7.99376         0.000000     -0.000000      0.000196
      2.56093      5.30860      2.65848         0.000000      0.000000      0.000196
      2.56093      5.30860      7.99376         0.000000      0.000000      0.000196
      7.84286     -0.08003      2.65848         0.000000     -0.000000      0.000196
      7.84286     -0.08003      7.99376         0.000000     -0.000000      0.000196
      7.78951      5.25525      2.65848        -0.000000      0.000000      0.000196
      7.78951      5.25525      7.99376         0.000000      0.000000      0.000196
      1.26713      3.98812      4.01061        -0.000000      0.000000     -0.000196
      1.26713      3.98812      9.34589        -0.000000     -0.000000     -0.000196
      1.21378      9.32340      4.01061         0.000000      0.000000     -0.000196
      1.21378      9.32340      9.34589        -0.000000      0.000000     -0.000196
      6.49570      3.93477      4.01061        -0.000000      0.000000     -0.000196
      6.49570      3.93477      9.34589        -0.000000      0.000000     -0.000196
      6.44235      9.27005      4.01061         0.000000     -0.000000     -0.000196
      6.44235      9.27005      9.34589        -0.000000     -0.000000     -0.000196
      2.58761      2.64096     10.66140         0.000000      0.000000      0.000196
      2.58761      2.64096      5.32612        -0.000000     -0.000000      0.000196
      2.53426      7.97624     10.66140        -0.000000      0.000000      0.000196
      2.53426      7.97624      5.32612         0.000000     -0.000000      0.000196
      7.81618      2.58761     10.66140         0.000000     -0.000000      0.000196
      7.81618      2.58761      5.32612        -0.000000     -0.000000      0.000196
      7.76283      7.92289     10.66140        -0.000000      0.000000      0.000196
      7.76283      7.92289      5.32612         0.000000      0.000000      0.000196
      1.29380      1.32048      1.34297         0.000000     -0.000000     -0.000196
      1.29380      1.32048      6.67825         0.000000     -0.000000     -0.000196
      1.24045      6.65576      1.34297         0.000000     -0.000000     -0.000196
      1.24045      6.65576      6.67825         0.000000     -0.000000     -0.000196
      6.52238      1.26713      1.34297         0.000000      0.000000     -0.000196
      6.52238      1.26713      6.67825        -0.000000      0.000000     -0.000196
      6.46902      6.60241      1.34297         0.000000     -0.000000     -0.000196
      6.46902      6.60241      6.67825        -0.000000      0.000000     -0.000196
 -----------------------------------------------------------------------------------
    total drift:                                0.000000      0.000000     -0.000040


--------------------------------------------------------------------------------------------------------



  FREE ENERGIE OF THE ION-ELECTRON SYSTEM (eV)
  ---------------------------------------------------
  free  energy   TOTEN  =      -365.09908878 eV

  energy  without entropy=     -365.11312668  energy(sigma->0) =     -365.10376808
 
 d Force = 0.1610776E-01[ 0.513E-04, 0.322E-01]  d Energy = 0.1615327E-01-0.455E-04
 d Force =-0.2797959E+00[-0.308E+00,-0.251E+00]  d Ewald  =-0.2797837E+00-0.123E-04


--------------------------------------------------------------------------------------------------------


    POTLOK:  cpu time      0.1457: real time      0.1462


--------------------------------------------------------------------------------------------------------




--------------------------------------------------------------------------------------------------------


  
 reached required accuracy - stopping structural energy minimisation
     LOOP+:  cpu time     13.0803: real time     13.3172
    4ORBIT:  cpu time      0.0000: real time      0.0000

 total amount of memory used by VASP MPI-rank0    78961. kBytes
=======================================================================

   base      :      30000. kBytes
   nonlr-proj:       4765. kBytes
   fftplans  :      17992. kBytes
   grid      :       6881. kBytes
   one-center:         18. kBytes
   wavefun   :      19305. kBytes
 
  
  
 General timing and accounting informations for this job:
 ========================================================
  
                  Total CPU time used (sec):       58.791
                            User time (sec):       55.542
                          System time (sec):        3.249
                         Elapsed time (sec):       62.407
  
                   Maximum memory used (kb):      402552.
                   Average memory used (kb):          N/A
  
                          Minor page faults:        92721
                          Major page faults:            0
                 Voluntary context switches:         8596
