Si64                                    
           1
    10.457146   -0.106706    0.000000
    -0.106706   10.670557    0.000000
     0.000000    0.000000   10.670557
   Si
    64
Direct configuration=     1
   0.00000000  0.00000000  0.00000000
   0.00000000  0.00000000  0.50000000
   0.00000000  0.50000000  0.00000000
   0.00000000  0.50000000  0.50000000
   0.50000000  0.00000000  0.00000000
   0.50000000  0.00000000  0.50000000
   0.50000000  0.50000000  0.00000000
   0.50000000  0.50000000  0.50000000
   0.37500000  0.37500000  0.12500000
   0.37500000  0.37500000  0.62500000
   0.37500000  0.87500000  0.12500000
   0.37500000  0.87500000  0.62500000
   0.87500000  0.37500000  0.12500000
   0.87500000  0.37500000  0.62500000
   0.87500000  0.87500000  0.12500000
   0.87500000  0.87500000  0.62500000
   0.00000000  0.25000000  0.25000000
   0.00000000  0.25000000  0.75000000
   0.00000000  0.75000000  0.25000000
   0.00000000  0.75000000  0.75000000
   0.50000000  0.25000000  0.25000000
   0.50000000  0.25000000  0.75000000
   0.50000000  0.75000000  0.25000000
   0.50000000  0.75000000  0.75000000
   0.37500000  0.12500000  0.37500000
   0.37500000  0.12500000  0.87500000
   0.37500000  0.62500000  0.37500000
   0.37500000  0.62500000  0.87500000
   0.87500000  0.12500000  0.37500000
   0.87500000  0.12500000  0.87500000
   0.87500000  0.62500000  0.37500000
   0.87500000  0.62500000  0.87500000
   0.25000000  0.00000000  0.25000000
   0.25000000  0.00000000  0.75000000
   0.25000000  0.50000000  0.25000000
   0.25000000  0.50000000  0.75000000
   0.75000000  0.00000000  0.25000000
   0.75000000  0.00000000  0.75000000
   0.75000000  0.50000000  0.25000000
   0.75000000  0.50000000  0.75000000
   0.12500000  0.37500000  0.37500000
   0.12500000  0.37500000  0.87500000
   0.12500000  0.87500000  0.37500000
   0.12500000  0.87500000  0.87500000
   0.62500000  0.37500000  0.37500000
   0.62500000  0.37500000  0.87500000
   0.62500000  0.87500000  0.37500000
   0.62500000  0.87500000  0.87500000
   0.25000000  0.25000000  0.00000000
   0.25000000  0.25000000  0.50000000
   0.25000000  0.75000000  0.00000000
   0.25000000  0.75000000  0.50000000
   0.75000000  0.25000000  0.00000000
   0.75000000  0.25000000  0.50000000
   0.75000000  0.75000000  0.00000000
   0.75000000  0.75000000  0.50000000
   0.12500000  0.12500000  0.12500000
   0.12500000  0.12500000  0.62500000
   0.12500000  0.62500000  0.12500000
   0.12500000  0.62500000  0.62500000
   0.62500000  0.12500000  0.12500000
   0.62500000  0.12500000  0.62500000
   0.62500000  0.62500000  0.12500000
   0.62500000  0.62500000  0.62500000
Direct configuration=     2
   1.00000000  1.00000000  0.99875850
   1.00000000  1.00000000  0.49875850
   0.00000000  0.50000000  0.99875850
   0.00000000  0.50000000  0.49875850
   0.50000000  1.00000000  0.99875850
   0.50000000  0.00000000  0.49875850
   0.50000000  0.50000000  0.99875850
   0.50000000  0.50000000  0.49875850
   0.37500000  0.37500000  0.12624150
   0.37500000  0.37500000  0.62624150
   0.37500000  0.87500000  0.12624150
   0.37500000  0.87500000  0.62624150
   0.87500000  0.37500000  0.12624150
   0.87500000  0.37500000  0.62624150
   0.87500000  0.87500000  0.12624150
   0.87500000  0.87500000  0.62624150
   1.00000000  0.25000000  0.24875850
   0.00000000  0.25000000  0.74875850
   0.00000000  0.75000000  0.24875850
   0.00000000  0.75000000  0.74875850
   0.50000000  0.25000000  0.24875850
   0.50000000  0.25000000  0.74875850
   0.50000000  0.75000000  0.24875850
   0.50000000  0.75000000  0.74875850
   0.37500000  0.12500000  0.37624150
   0.37500000  0.12500000  0.87624150
   0.37500000  0.62500000  0.37624150
   0.37500000  0.62500000  0.87624150
   0.87500000  0.12500000  0.37624150
   0.87500000  0.12500000  0.87624150
   0.87500000  0.62500000  0.37624150
   0.87500000  0.62500000  0.87624150
   0.25000000  0.00000000  0.24875850
   0.25000000  0.00000000  0.74875850
   0.25000000  0.50000000  0.24875850
   0.25000000  0.50000000  0.74875850
   0.75000000  0.00000000  0.24875850
   0.75000000  0.00000000  0.74875850
   0.75000000  0.50000000  0.24875850
   0.75000000  0.50000000  0.74875850
   0.12500000  0.37500000  0.37624150
   0.12500000  0.37500000  0.87624150
   0.12500000  0.87500000  0.37624150
   0.12500000  0.87500000  0.87624150
   0.62500000  0.37500000  0.37624150
   0.62500000  0.37500000  0.87624150
   0.62500000  0.87500000  0.37624150
   0.62500000  0.87500000  0.87624150
   0.25000000  0.25000000  0.99875850
   0.25000000  0.25000000  0.49875850
   0.25000000  0.75000000  0.99875850
   0.25000000  0.75000000  0.49875850
   0.75000000  0.25000000  0.99875850
   0.75000000  0.25000000  0.49875850
   0.75000000  0.75000000  0.99875850
   0.75000000  0.75000000  0.49875850
   0.12500000  0.12500000  0.12624150
   0.12500000  0.12500000  0.62624150
   0.12500000  0.62500000  0.12624150
   0.12500000  0.62500000  0.62624150
   0.62500000  0.12500000  0.12624150
   0.62500000  0.12500000  0.62624150
   0.62500000  0.62500000  0.12624150
   0.62500000  0.62500000  0.62624150
Direct configuration=     3
   0.00000000  0.00000000  0.99914209
   0.00000000  0.00000000  0.49914209
   0.00000000  0.50000000  0.99914209
   0.00000000  0.50000000  0.49914209
   0.50000000  0.00000000  0.99914209
   0.50000000  0.00000000  0.49914209
   0.50000000  0.50000000  0.99914209
   0.50000000  0.50000000  0.49914209
   0.37500000  0.37500000  0.12585791
   0.37500000  0.37500000  0.62585791
   0.37500000  0.87500000  0.12585791
   0.37500000  0.87500000  0.62585791
   0.87500000  0.37500000  0.12585791
   0.87500000  0.37500000  0.62585791
   0.87500000  0.87500000  0.12585791
   0.87500000  0.87500000  0.62585791
   0.00000000  0.25000000  0.24914209
   0.00000000  0.25000000  0.74914209
   0.00000000  0.75000000  0.24914209
   0.00000000  0.75000000  0.74914209
   0.50000000  0.25000000  0.24914209
   0.50000000  0.25000000  0.74914209
   0.50000000  0.75000000  0.24914209
   0.50000000  0.75000000  0.74914209
   0.37500000  0.12500000  0.37585791
   0.37500000  0.12500000  0.87585791
   0.37500000  0.62500000  0.37585791
   0.37500000  0.62500000  0.87585791
   0.87500000  0.12500000  0.37585791
   0.87500000  0.12500000  0.87585791
   0.87500000  0.62500000  0.37585791
   0.87500000  0.62500000  0.87585791
   0.25000000  0.00000000  0.24914209
   0.25000000  0.00000000  0.74914209
   0.25000000  0.50000000  0.24914209
   0.25000000  0.50000000  0.74914209
   0.75000000  0.00000000  0.24914209
   0.75000000  0.00000000  0.74914209
   0.75000000  0.50000000  0.24914209
   0.75000000  0.50000000  0.74914209
   0.12500000  0.37500000  0.37585791
   0.12500000  0.37500000  0.87585791
   0.12500000  0.87500000  0.37585791
   0.12500000  0.87500000  0.87585791
   0.62500000  0.37500000  0.37585791
   0.62500000  0.37500000  0.87585791
   0.62500000  0.87500000  0.37585791
   0.62500000  0.87500000  0.87585791
   0.25000000  0.25000000  0.99914209
   0.25000000  0.25000000  0.49914209
   0.25000000  0.75000000  0.99914209
   0.25000000  0.75000000  0.49914209
   0.75000000  0.25000000  0.99914209
   0.75000000  0.25000000  0.49914209
   0.75000000  0.75000000  0.99914209
   0.75000000  0.75000000  0.49914209
   0.12500000  0.12500000  0.12585791
   0.12500000  0.12500000  0.62585791
   0.12500000  0.62500000  0.12585791
   0.12500000  0.62500000  0.62585791
   0.62500000  0.12500000  0.12585791
   0.62500000  0.12500000  0.62585791
   0.62500000  0.62500000  0.12585791
   0.62500000  0.62500000  0.62585791
