   8   8   0   0
  0.5643294E+01  0.3560745E-09  0.3560745E-09  0.3560745E-09  0.5000000E-15
  1.000000000000000E-004
  CAR 
 C8                                      
     23.42389163    -13.75254337  301      9.69621481      1.00000000
    -13.753  0.0000E+00  0.0000E+00
    -13.629  0.0000E+00  0.0000E+00
    -13.505  0.0000E+00  0.0000E+00
    -13.381 -0.3120E-32 -0.3867E-33
    -13.257 -0.5138E-28 -0.6367E-29
    -13.133 -0.3958E-24 -0.4906E-25
    -13.009 -0.1429E-20 -0.1771E-21
    -12.885 -0.2351E-17 -0.2915E-18
    -12.761 -0.1850E-14 -0.2295E-15
    -12.637 -0.6822E-12 -0.8477E-13
    -12.513 -0.1175E-09 -0.1464E-10
    -12.389 -0.9407E-08 -0.1180E-08
    -12.265 -0.3469E-06 -0.4417E-07
    -12.142 -0.5762E-05 -0.7582E-06
    -12.018 -0.4020E-04 -0.5740E-05
    -11.894 -0.8087E-04 -0.1576E-04
    -11.770  0.2488E-03  0.1506E-04
    -11.646  0.1406E-02  0.1893E-03
    -11.522  0.2915E-02  0.5505E-03
    -11.398  0.4060E-02  0.1054E-02
    -11.274  0.4858E-02  0.1656E-02
    -11.150  0.5587E-02  0.2348E-02
    -11.026  0.6087E-02  0.3102E-02
    -10.902  0.6769E-02  0.3941E-02
    -10.778  0.7308E-02  0.4847E-02
    -10.655  0.7543E-02  0.5782E-02
    -10.531  0.8277E-02  0.6807E-02
    -10.407  0.8901E-02  0.7910E-02
    -10.283  0.8707E-02  0.8989E-02
    -10.159  0.9317E-02  0.1014E-01
    -10.035  0.1050E-01  0.1145E-01
     -9.911  0.1009E-01  0.1270E-01
     -9.787  0.1006E-01  0.1394E-01
     -9.663  0.1125E-01  0.1534E-01
     -9.539  0.1175E-01  0.1679E-01
     -9.415  0.1177E-01  0.1825E-01
     -9.291  0.1165E-01  0.1969E-01
     -9.167  0.1175E-01  0.2115E-01
     -9.044  0.1342E-01  0.2281E-01
     -8.920  0.1416E-01  0.2457E-01
     -8.796  0.1246E-01  0.2611E-01
     -8.672  0.1258E-01  0.2767E-01
     -8.548  0.1476E-01  0.2950E-01
     -8.424  0.1521E-01  0.3139E-01
     -8.300  0.1465E-01  0.3320E-01
     -8.176  0.1465E-01  0.3502E-01
     -8.052  0.1496E-01  0.3687E-01
     -7.928  0.1521E-01  0.3875E-01
     -7.804  0.1631E-01  0.4078E-01
     -7.680  0.1746E-01  0.4294E-01
     -7.556  0.1732E-01  0.4509E-01
     -7.433  0.1575E-01  0.4704E-01
     -7.309  0.1544E-01  0.4895E-01
     -7.185  0.1873E-01  0.5127E-01
     -7.061  0.2033E-01  0.5379E-01
     -6.937  0.1817E-01  0.5604E-01
     -6.813  0.1812E-01  0.5829E-01
     -6.689  0.1906E-01  0.6065E-01
     -6.565  0.1943E-01  0.6306E-01
     -6.441  0.2066E-01  0.6562E-01
     -6.317  0.2096E-01  0.6822E-01
     -6.193  0.2307E-01  0.7108E-01
     -6.069  0.2478E-01  0.7415E-01
     -5.945  0.2373E-01  0.7709E-01
     -5.822  0.2317E-01  0.7996E-01
     -5.698  0.2447E-01  0.8299E-01
     -5.574  0.2647E-01  0.8627E-01
     -5.450  0.2623E-01  0.8952E-01
     -5.326  0.2174E-01  0.9222E-01
     -5.202  0.2119E-01  0.9484E-01
     -5.078  0.2383E-01  0.9779E-01
     -4.954  0.1982E-01  0.1003E+00
     -4.830  0.1785E-01  0.1025E+00
     -4.706  0.2229E-01  0.1052E+00
     -4.582  0.2265E-01  0.1080E+00
     -4.458  0.1900E-01  0.1104E+00
     -4.335  0.1590E-01  0.1124E+00
     -4.211  0.1663E-01  0.1144E+00
     -4.087  0.1794E-01  0.1166E+00
     -3.963  0.1576E-01  0.1186E+00
     -3.839  0.1462E-01  0.1204E+00
     -3.715  0.1571E-01  0.1223E+00
     -3.591  0.1755E-01  0.1245E+00
     -3.467  0.1885E-01  0.1269E+00
     -3.343  0.1738E-01  0.1290E+00
     -3.219  0.1478E-01  0.1308E+00
     -3.095  0.1539E-01  0.1328E+00
     -2.971  0.2026E-01  0.1353E+00
     -2.847  0.2112E-01  0.1379E+00
     -2.724  0.1908E-01  0.1402E+00
     -2.600  0.1737E-01  0.1424E+00
     -2.476  0.1658E-01  0.1445E+00
     -2.352  0.1917E-01  0.1468E+00
     -2.228  0.1980E-01  0.1493E+00
     -2.104  0.2147E-01  0.1519E+00
     -1.980  0.3328E-01  0.1561E+00
     -1.856  0.4673E-01  0.1619E+00
     -1.732  0.4801E-01  0.1678E+00
     -1.608  0.3709E-01  0.1724E+00
     -1.484  0.2720E-01  0.1758E+00
     -1.360  0.2642E-01  0.1790E+00
     -1.236  0.2939E-01  0.1827E+00
     -1.113  0.3340E-01  0.1868E+00
     -0.989  0.3220E-01  0.1908E+00
     -0.865  0.2280E-01  0.1936E+00
     -0.741  0.1867E-01  0.1960E+00
     -0.617  0.1977E-01  0.1984E+00
     -0.493  0.1820E-01  0.2007E+00
     -0.369  0.1862E-01  0.2030E+00
     -0.245  0.2396E-01  0.2059E+00
     -0.121  0.2368E-01  0.2089E+00
      0.003  0.1723E-01  0.2110E+00
      0.127  0.1618E-01  0.2130E+00
      0.251  0.1584E-01  0.2150E+00
      0.375  0.1561E-01  0.2169E+00
      0.498  0.2197E-01  0.2196E+00
      0.622  0.3017E-01  0.2234E+00
      0.746  0.3051E-01  0.2272E+00
      0.870  0.2759E-01  0.2306E+00
      0.994  0.3129E-01  0.2345E+00
      1.118  0.3590E-01  0.2389E+00
      1.242  0.3578E-01  0.2433E+00
      1.366  0.3472E-01  0.2476E+00
      1.490  0.3402E-01  0.2519E+00
      1.614  0.3295E-01  0.2559E+00
      1.738  0.3177E-01  0.2599E+00
      1.862  0.3417E-01  0.2641E+00
      1.985  0.3988E-01  0.2690E+00
      2.109  0.3833E-01  0.2738E+00
      2.233  0.3136E-01  0.2777E+00
      2.357  0.2995E-01  0.2814E+00
      2.481  0.3606E-01  0.2859E+00
      2.605  0.4564E-01  0.2915E+00
      2.729  0.4443E-01  0.2970E+00
      2.853  0.3322E-01  0.3011E+00
      2.977  0.3513E-01  0.3055E+00
      3.101  0.4790E-01  0.3114E+00
      3.225  0.4861E-01  0.3175E+00
      3.349  0.4472E-01  0.3230E+00
      3.473  0.4799E-01  0.3289E+00
      3.596  0.5349E-01  0.3356E+00
      3.720  0.5846E-01  0.3428E+00
      3.844  0.5469E-01  0.3496E+00
      3.968  0.4718E-01  0.3554E+00
      4.092  0.4708E-01  0.3613E+00
      4.216  0.5091E-01  0.3676E+00
      4.340  0.5423E-01  0.3743E+00
      4.464  0.5561E-01  0.3812E+00
      4.588  0.4674E-01  0.3870E+00
      4.712  0.4020E-01  0.3920E+00
      4.836  0.4903E-01  0.3980E+00
      4.960  0.5664E-01  0.4051E+00
      5.084  0.4893E-01  0.4111E+00
      5.207  0.4111E-01  0.4162E+00
      5.331  0.4347E-01  0.4216E+00
      5.455  0.4894E-01  0.4277E+00
      5.579  0.5142E-01  0.4340E+00
      5.703  0.4454E-01  0.4396E+00
      5.827  0.3941E-01  0.4444E+00
      5.951  0.4306E-01  0.4498E+00
      6.075  0.4816E-01  0.4558E+00
      6.199  0.4803E-01  0.4617E+00
      6.323  0.4113E-01  0.4668E+00
      6.447  0.3728E-01  0.4714E+00
      6.571  0.4280E-01  0.4767E+00
      6.694  0.4794E-01  0.4827E+00
      6.818  0.4241E-01  0.4879E+00
      6.942  0.3447E-01  0.4922E+00
      7.066  0.3285E-01  0.4963E+00
      7.190  0.3160E-01  0.5002E+00
      7.314  0.2733E-01  0.5036E+00
      7.438  0.2445E-01  0.5066E+00
      7.562  0.2371E-01  0.5095E+00
      7.686  0.2059E-01  0.5121E+00
      7.810  0.1875E-01  0.5144E+00
      7.934  0.1876E-01  0.5167E+00
      8.058  0.1770E-01  0.5189E+00
      8.182  0.1577E-01  0.5209E+00
      8.305  0.1365E-01  0.5226E+00
      8.429  0.1264E-01  0.5241E+00
      8.553  0.1281E-01  0.5257E+00
      8.677  0.1174E-01  0.5272E+00
      8.801  0.9643E-02  0.5284E+00
      8.925  0.8463E-02  0.5294E+00
      9.049  0.8341E-02  0.5305E+00
      9.173  0.7277E-02  0.5314E+00
      9.297  0.5847E-02  0.5321E+00
      9.421  0.4689E-02  0.5327E+00
      9.545  0.3513E-02  0.5331E+00
      9.669  0.1711E-02  0.5333E+00
      9.793  0.2916E-03  0.5334E+00
      9.916 -0.8865E-04  0.5333E+00
     10.040 -0.4699E-04  0.5333E+00
     10.164 -0.7530E-05  0.5333E+00
     10.288 -0.5202E-06  0.5333E+00
     10.412 -0.1629E-07  0.5333E+00
     10.536 -0.2342E-09  0.5333E+00
     10.660 -0.1556E-11  0.5333E+00
     10.784 -0.4788E-14  0.5333E+00
     10.908 -0.6784E-17  0.5333E+00
     11.032  0.0000E+00  0.5333E+00
     11.156  0.0000E+00  0.5333E+00
     11.280  0.0000E+00  0.5333E+00
     11.404  0.0000E+00  0.5333E+00
     11.527  0.0000E+00  0.5333E+00
     11.651  0.0000E+00  0.5333E+00
     11.775  0.0000E+00  0.5333E+00
     11.899  0.0000E+00  0.5333E+00
     12.023  0.0000E+00  0.5333E+00
     12.147 -0.1380E-31  0.5333E+00
     12.271 -0.2200E-27  0.5333E+00
     12.395 -0.1620E-23  0.5333E+00
     12.519 -0.5513E-20  0.5333E+00
     12.643 -0.8402E-17  0.5333E+00
     12.767 -0.6035E-14  0.5333E+00
     12.891 -0.1992E-11  0.5333E+00
     13.014 -0.3013E-09  0.5333E+00
     13.138 -0.2080E-07  0.5333E+00
     13.262 -0.6524E-06  0.5333E+00
     13.386 -0.9233E-05  0.5333E+00
     13.510 -0.5724E-04  0.5333E+00
     13.634 -0.1218E-03  0.5333E+00
     13.758  0.2725E-03  0.5333E+00
     13.882  0.2164E-02  0.5336E+00
     14.006  0.5240E-02  0.5343E+00
     14.130  0.6658E-02  0.5351E+00
     14.254  0.7114E-02  0.5360E+00
     14.378  0.1128E-01  0.5374E+00
     14.502  0.1604E-01  0.5394E+00
     14.625  0.1561E-01  0.5413E+00
     14.749  0.1291E-01  0.5429E+00
     14.873  0.1774E-01  0.5451E+00
     14.997  0.2645E-01  0.5484E+00
     15.121  0.2692E-01  0.5517E+00
     15.245  0.2484E-01  0.5548E+00
     15.369  0.2538E-01  0.5579E+00
     15.493  0.2613E-01  0.5612E+00
     15.617  0.3042E-01  0.5649E+00
     15.741  0.3627E-01  0.5694E+00
     15.865  0.3580E-01  0.5739E+00
     15.989  0.3267E-01  0.5779E+00
     16.113  0.3242E-01  0.5819E+00
     16.236  0.3326E-01  0.5860E+00
     16.360  0.3417E-01  0.5903E+00
     16.484  0.3923E-01  0.5951E+00
     16.608  0.4477E-01  0.6007E+00
     16.732  0.4425E-01  0.6062E+00
     16.856  0.4361E-01  0.6116E+00
     16.980  0.4290E-01  0.6169E+00
     17.104  0.4172E-01  0.6221E+00
     17.228  0.4682E-01  0.6279E+00
     17.352  0.5417E-01  0.6346E+00
     17.476  0.5539E-01  0.6414E+00
     17.600  0.5389E-01  0.6481E+00
     17.724  0.5951E-01  0.6555E+00
     17.847  0.6939E-01  0.6641E+00
     17.971  0.7557E-01  0.6735E+00
     18.095  0.7302E-01  0.6825E+00
     18.219  0.6396E-01  0.6904E+00
     18.343  0.5898E-01  0.6977E+00
     18.467  0.6144E-01  0.7054E+00
     18.591  0.6509E-01  0.7134E+00
     18.715  0.6247E-01  0.7212E+00
     18.839  0.5533E-01  0.7280E+00
     18.963  0.5261E-01  0.7345E+00
     19.087  0.4732E-01  0.7404E+00
     19.211  0.3897E-01  0.7452E+00
     19.334  0.4135E-01  0.7504E+00
     19.458  0.5039E-01  0.7566E+00
     19.582  0.4989E-01  0.7628E+00
     19.706  0.4136E-01  0.7679E+00
     19.830  0.4190E-01  0.7731E+00
     19.954  0.4194E-01  0.7783E+00
     20.078  0.3471E-01  0.7826E+00
     20.202  0.2773E-01  0.7860E+00
     20.326  0.2422E-01  0.7890E+00
     20.450  0.2190E-01  0.7918E+00
     20.574  0.1966E-01  0.7942E+00
     20.698  0.1850E-01  0.7965E+00
     20.822  0.1370E-01  0.7982E+00
     20.945  0.6059E-02  0.7989E+00
     21.069  0.1934E-02  0.7992E+00
     21.193  0.1479E-02  0.7994E+00
     21.317  0.1694E-02  0.7996E+00
     21.441  0.2169E-02  0.7998E+00
     21.565  0.1344E-02  0.8000E+00
     21.689  0.1407E-03  0.8000E+00
     21.813 -0.1012E-03  0.8000E+00
     21.937 -0.2686E-04  0.8000E+00
     22.061 -0.2261E-05  0.8000E+00
     22.185 -0.7781E-07  0.8000E+00
     22.309 -0.1171E-08  0.8000E+00
     22.433 -0.7918E-11  0.8000E+00
     22.556 -0.2436E-13  0.8000E+00
     22.680 -0.3472E-16  0.8000E+00
     22.804  0.0000E+00  0.8000E+00
     22.928  0.0000E+00  0.8000E+00
     23.052  0.0000E+00  0.8000E+00
     23.176  0.0000E+00  0.8000E+00
     23.300  0.0000E+00  0.8000E+00
     23.424  0.0000E+00  0.8000E+00
