    8    8   60    1
  0.5643294E+01  0.3560745E-09  0.3560745E-09  0.3560745E-09  0.5000000E-15
  1.000000000000000E-004
  CAR 
 C8                                      
     32    165     24
 
  0.0000000E+00  0.0000000E+00  0.0000000E+00  0.2035416E-03
      1        -11.752543   1.000000
      2         -3.069766   1.000000
      3         -3.069766   1.000000
      4         -3.069766   1.000000
      5         -3.069766   1.000000
      6         -3.069766   1.000000
      7         -3.069766   1.000000
      8          3.390956   1.000000
      9          3.390956   1.000000
     10          3.390956   1.000000
     11          3.390956   1.000000
     12          3.390956   1.000000
     13          3.390956   1.000000
     14          9.659280   0.653367
     15          9.659280   0.653367
     16          9.659280   0.653367
     17         14.407326   0.000000
     18         14.407326   0.000000
     19         14.407326   0.000000
     20         14.407326   0.000000
     21         14.407326   0.000000
     22         14.407359   0.000000
     23         15.235621   0.000000
     24         15.235621   0.000000
 
  0.5882353E-01  0.1169078E-33  0.0000000E+00  0.1221250E-02
      1        -11.720676   1.000000
      2         -3.992038   1.000000
      3         -3.049422   1.000000
      4         -3.049422   1.000000
      5         -3.049422   1.000000
      6         -3.049422   1.000000
      7         -2.117467   1.000000
      8          3.319688   1.000000
      9          3.319688   1.000000
     10          3.319688   1.000000
     11          3.319688   1.000000
     12          3.422002   1.000000
     13          3.422002   1.000000
     14          9.525337   1.002683
     15          9.525337   1.002683
     16          9.579854   0.911681
     17         14.153942   0.000000
     18         14.539221   0.000000
     19         14.539221   0.000000
     20         14.539221   0.000000
     21         14.539230   0.000000
     22         14.735206   0.000000
     23         15.210034   0.000000
     24         15.396859   0.000000
 
  0.1176471E+00 -0.1082575E-33  0.0000000E+00  0.1221250E-02
      1        -11.625088   1.000000
      2         -4.878276   1.000000
      3         -2.989557   1.000000
      4         -2.989557   1.000000
      5         -2.989557   1.000000
      6         -2.989557   1.000000
      7         -1.142096   1.000000
      8          3.118814   1.000000
      9          3.118814   1.000000
     10          3.118814   1.000000
     11          3.118814   1.000000
     12          3.514985   1.000000
     13          3.514985   1.000000
     14          9.165470   1.000567
     15          9.165470   1.000567
     16          9.346870   1.016560
     17         13.969653   0.000000
     18         14.921955   0.000000
     19         14.921955   0.000000
     20         14.921955   0.000000
     21         14.921979   0.000000
     22         15.135117   0.000000
     23         15.142392   0.000000
     24         15.838829   0.000000
 
  0.1764706E+00 -0.6154326E-32  0.0000000E+00  0.1221250E-02
      1        -11.465953   1.000000
      2         -5.723376   1.000000
      3         -2.893982   1.000000
      4         -2.893982   1.000000
      5         -2.893982   1.000000
      6         -2.893982   1.000000
      7         -0.151804   1.000000
      8          2.821729   1.000000
      9          2.821729   1.000000
     10          2.821729   1.000000
     11          2.821729   1.000000
     12          3.669419   1.000000
     13          3.669419   1.000000
     14          8.663436   1.000000
     15          8.663436   1.000000
     16          8.973017   1.000002
     17         13.849251   0.000000
     18         15.017734   0.000000
     19         15.522137   0.000000
     20         15.522137   0.000000
     21         15.522137   0.000000
     22         15.522180   0.000000
     23         15.634014   0.000000
     24         16.477037   0.000000
 
  0.2352941E+00 -0.2165150E-33  0.0000000E+00  0.1221250E-02
      1        -11.243656   1.000000
      2         -6.522822   1.000000
      3         -2.769355   1.000000
      4         -2.769355   1.000000
      5         -2.769355   1.000000
      6         -2.769355   1.000000
      7          0.845109   1.000000
      8          2.471332   1.000000
      9          2.471332   1.000000
     10          2.471332   1.000000
     11          2.471332   1.000000
     12          3.884508   1.000000
     13          3.884508   1.000000
     14          8.091195   1.000000
     15          8.091195   1.000000
     16          8.475625   1.000000
     17         13.787640   0.000000
     18         14.867431   0.000000
     19         16.214233   0.000000
     20         16.297244   0.000000
     21         16.297244   0.000000
     22         16.297244   0.000000
     23         16.297355   0.000000
     24         17.237295   0.000000
 
  0.2941176E+00 -0.7344431E-32  0.0000000E+00  0.1221250E-02
      1        -10.958525   1.000000
      2         -7.273400   1.000000
      3         -2.627197   1.000000
      4         -2.627197   1.000000
      5         -2.627197   1.000000
      6         -2.627197   1.000000
      7          1.839078   1.000000
      8          2.111678   1.000000
      9          2.111678   1.000000
     10          2.111678   1.000000
     11          2.111678   1.000000
     12          4.159053   1.000000
     13          4.159053   1.000000
     14          7.495782   1.000000
     15          7.495782   1.000000
     16          7.872794   1.000000
     17         13.779380   0.000000
     18         14.695726   0.000000
     19         16.885442   0.000000
     20         17.202892   0.000000
     21         17.202892   0.000000
     22         17.202892   0.000000
     23         17.202916   0.000000
     24         18.071244   0.000000
 
  0.3529412E+00 -0.3406260E-32  0.0000000E+00  0.1221250E-02
      1        -10.611101   1.000000
      2         -7.971942   1.000000
      3         -2.484657   1.000000
      4         -2.484657   1.000000
      5         -2.484657   1.000000
      6         -2.484657   1.000000
      7          1.785615   1.000000
      8          1.785615   1.000000
      9          1.785615   1.000000
     10          1.785615   1.000000
     11          2.820013   1.000000
     12          4.491335   1.000000
     13          4.491335   1.000000
     14          6.905926   1.000000
     15          6.905926   1.000000
     16          7.181037   1.000000
     17         13.819179   0.000000
     18         14.514435   0.000000
     19         17.646573   0.000000
     20         18.194253   0.000000
     21         18.194253   0.000000
     22         18.194253   0.000000
     23         18.194614   0.000000
     24         18.947912   0.000000
 
  0.4117647E+00  0.3955472E-32  0.0000000E+00  0.1221250E-02
      1        -10.202105   1.000000
      2         -8.615975   1.000000
      3         -2.365348   1.000000
      4         -2.365348   1.000000
      5         -2.365348   1.000000
      6         -2.365348   1.000000
      7          1.534722   1.000000
      8          1.534722   1.000000
      9          1.534722   1.000000
     10          1.534722   1.000000
     11          3.777863   1.000000
     12          4.879103   1.000000
     13          4.879103   1.000000
     14          6.339468   1.000000
     15          6.339468   1.000000
     16          6.414431   1.000000
     17         13.901276   0.000000
     18         14.334590   0.000000
     19         18.490952   0.000000
     20         19.211190   0.000000
     21         19.211190   0.000000
     22         19.211190   0.000000
     23         19.211442   0.000000
     24         19.846463   0.000000
 
  0.4705882E+00 -0.4330299E-33  0.0000000E+00  0.1221250E-02
      1         -9.732418   1.000000
      2         -9.203151   1.000000
      3         -2.296056   1.000000
      4         -2.296056   1.000000
      5         -2.296056   1.000000
      6         -2.296056   1.000000
      7          1.396915   1.000000
      8          1.396915   1.000000
      9          1.396915   1.000000
     10          1.396915   1.000000
     11          4.702743   1.000000
     12          5.319339   1.000000
     13          5.319339   1.000000
     14          5.584855   1.000000
     15          5.807983   1.000000
     16          5.807983   1.000000
     17         14.019589   0.000000
     18         14.166612   0.000000
     19         19.402397   0.000000
     20         20.086115   0.000000
     21         20.086117   0.000000
     22         20.086137   0.000000
     23         20.086350   0.000000
     24         20.356897   0.000000
 
  0.5882353E-01  0.5882353E-01  0.0000000E+00  0.2442499E-02
      1        -11.688780   1.000000
      2         -3.968701   1.000000
      3         -3.968701   1.000000
      4         -3.046586   1.000000
      5         -3.012544   1.000000
      6         -2.101380   1.000000
      7         -2.101380   1.000000
      8          3.064906   1.000000
      9          3.345968   1.000000
     10          3.345968   1.000000
     11          3.356805   1.000000
     12          3.356805   1.000000
     13          3.444182   1.000000
     14          9.287532   1.006931
     15          9.394247   1.027210
     16          9.620084   0.797719
     17         14.288217   0.000000
     18         14.288218   0.000000
     19         14.459196   0.000000
     20         14.864128   0.000000
     21         14.864231   0.000000
     22         14.871562   0.000000
     23         15.300413   0.000000
     24         15.441794   0.000000
 
  0.1176471E+00  0.5882353E-01  0.0000000E+00  0.4884999E-02
      1        -11.593230   1.000000
      2         -4.852798   1.000000
      3         -3.899484   1.000000
      4         -3.007431   1.000000
      5         -2.935116   1.000000
      6         -2.054959   1.000000
      7         -1.132348   1.000000
      8          2.712786   1.000000
      9          3.131312   1.000000
     10          3.173796   1.000000
     11          3.426209   1.000000
     12          3.435058   1.000000
     13          3.457811   1.000000
     14          8.865204   1.000000
     15          9.040427   1.000018
     16          9.484694   1.030119
     17         14.105888   0.000000
     18         14.642030   0.000000
     19         14.677340   0.000000
     20         15.239087   0.000000
     21         15.263268   0.000000
     22         15.268055   0.000000
     23         15.424942   0.000000
     24         15.840836   0.000000
 
  0.1764706E+00  0.5882353E-01  0.0000000E+00  0.4884999E-02
      1        -11.434225   1.000000
      2         -5.696283   1.000000
      3         -3.786846   1.000000
      4         -2.938613   1.000000
      5         -2.818671   1.000000
      6         -1.983692   1.000000
      7         -0.151203   1.000000
      8          2.306258   1.000000
      9          2.812263   1.000000
     10          2.906085   1.000000
     11          3.279371   1.000000
     12          3.586217   1.000000
     13          3.623297   1.000000
     14          8.335337   1.000000
     15          8.544909   1.000000
     16          9.175402   1.000718
     17         13.987083   0.000000
     18         15.072469   0.000000
     19         15.150902   0.000000
     20         15.286453   0.000000
     21         15.755876   0.000000
     22         15.828062   0.000000
     23         16.159134   0.000000
     24         16.470657   0.000000
 
  0.2352941E+00  0.5882353E-01  0.0000000E+00  0.4884999E-02
      1        -11.211971   1.000000
      2         -6.494709   1.000000
      3         -3.635629   1.000000
      4         -2.851319   1.000000
      5         -2.667219   1.000000
      6         -1.897752   1.000000
      7          0.831627   1.000000
      8          1.889997   1.000000
      9          2.431418   1.000000
     10          2.597654   1.000000
     11          3.037260   1.000000
     12          3.798440   1.000000
     13          3.854250   1.000000
     14          7.745850   1.000000
     15          7.978296   1.000000
     16          8.724814   1.000000
     17         13.926604   0.000000
     18         15.003041   0.000000
     19         15.714925   0.000000
     20         16.071725   0.000000
     21         16.331794   0.000000
     22         16.589293   0.000000
     23         17.032561   0.000000
     24         17.228469   0.000000
 
  0.2941176E+00  0.5882353E-01  0.0000000E+00  0.4884999E-02
      1        -10.926951   1.000000
      2         -7.244311   1.000000
      3         -3.453188   1.000000
      4         -2.762697   1.000000
      5         -2.487751   1.000000
      6         -1.813615   1.000000
      7          1.507955   1.000000
      8          1.803155   1.000000
      9          2.030685   1.000000
     10          2.295854   1.000000
     11          2.742314   1.000000
     12          4.070375   1.000000
     13          4.152681   1.000000
     14          7.129058   1.000000
     15          7.387472   1.000000
     16          8.164696   1.000000
     17         13.919281   0.000000
     18         14.833027   0.000000
     19         16.524288   0.000000
     20         16.989801   0.000000
     21         16.998141   0.000000
     22         17.476912   0.000000
     23         18.052055   0.000000
     24         18.061334   0.000000
 
  0.3529412E+00  0.5882353E-01  0.0000000E+00  0.4884999E-02
      1        -10.579679   1.000000
      2         -7.942186   1.000000
      3         -3.251485   1.000000
      4         -2.697195   1.000000
      5         -2.291808   1.000000
      6         -1.753680   1.000000
      7          1.203596   1.000000
      8          1.648551   1.000000
      9          2.047592   1.000000
     10          2.437734   1.000000
     11          2.747162   1.000000
     12          4.400188   1.000000
     13          4.522854   1.000000
     14          6.501677   1.000000
     15          6.801380   1.000000
     16          7.524966   1.000000
     17         13.959633   0.000000
     18         14.653003   0.000000
     19         17.452371   0.000000
     20         17.753913   0.000000
     21         17.999591   0.000000
     22         18.438088   0.000000
     23         18.899713   0.000000
     24         18.939406   0.000000
 
  0.4117647E+00  0.5882353E-01  0.0000000E+00  0.4884999E-02
      1        -10.170875   1.000000
      2         -8.585619   1.000000
      3         -3.048451   1.000000
      4         -2.682767   1.000000
      5         -2.096246   1.000000
      6         -1.743144   1.000000
      7          1.017552   1.000000
      8          1.321608   1.000000
      9          1.894911   1.000000
     10          2.164739   1.000000
     11          3.642471   1.000000
     12          4.785550   1.000000
     13          4.973307   1.000000
     14          5.864282   1.000000
     15          6.238109   1.000000
     16          6.838670   1.000000
     17         14.042044   0.000000
     18         14.474145   0.000000
     19         18.444494   0.000000
     20         18.592431   0.000000
     21         19.056427   0.000000
     22         19.378687   0.000000
     23         19.772955   0.000000
     24         19.840477   0.000000
 
  0.4705882E+00  0.5882353E-01  0.0000000E+00  0.4884999E-02
      1         -9.701434   1.000000
      2         -9.172640   1.000000
      3         -2.868603   1.000000
      4         -2.740050   1.000000
      5         -1.923931   1.000000
      6         -1.800067   1.000000
      7          0.977604   1.000000
      8          1.086436   1.000000
      9          1.865499   1.000000
     10          1.962460   1.000000
     11          4.463666   1.000000
     12          5.197131   1.000000
     13          5.223347   1.000000
     14          5.516095   1.000000
     15          5.709426   1.000000
     16          6.150409   1.000000
     17         14.160105   0.000000
     18         14.306852   0.000000
     19         19.400818   0.000000
     20         19.497316   0.000000
     21         19.921478   0.000000
     22         20.082263   0.000000
     23         20.451615   0.000000
     24         20.664351   0.000000
 
  0.1176471E+00  0.1176471E+00  0.0000000E+00  0.2442499E-02
      1        -11.497838   1.000000
      2         -4.776855   1.000000
      3         -4.776855   1.000000
      4         -2.995144   1.000000
      5         -2.841186   1.000000
      6         -1.105292   1.000000
      7         -1.105292   1.000000
      8          2.250803   1.000000
      9          3.209394   1.000000
     10          3.209394   1.000000
     11          3.298815   1.000000
     12          3.298815   1.000000
     13          3.602674   1.000000
     14          8.376680   1.000000
     15          8.700722   1.000000
     16          9.500459   1.022782
     17         14.500183   0.000000
     18         14.500183   0.000000
     19         14.614022   0.000000
     20         15.493594   0.000000
     21         15.633821   0.000000
     22         15.633823   0.000000
     23         15.966466   0.000000
     24         16.240851   0.000000
 
  0.1764706E+00  0.1176471E+00  0.0000000E+00  0.4884999E-02
      1        -11.338985   1.000000
      2         -5.615525   1.000000
      3         -4.652273   1.000000
      4         -2.963469   1.000000
      5         -2.706943   1.000000
      6         -1.069457   1.000000
      7         -0.152982   1.000000
      8          1.777902   1.000000
      9          2.873332   1.000000
     10          3.071444   1.000000
     11          3.351407   1.000000
     12          3.497613   1.000000
     13          3.636883   1.000000
     14          7.810031   1.000000
     15          8.220546   1.000000
     16          9.324789   1.012334
     17         14.385263   0.000000
     18         14.846105   0.000000
     19         15.115908   0.000000
     20         15.491504   0.000000
     21         16.110915   0.000000
     22         16.209092   0.000000
     23         16.481741   0.000000
     24         16.709940   0.000000
 
  0.2352941E+00  0.1176471E+00  0.0000000E+00  0.4884999E-02
      1        -11.117020   1.000000
      2         -6.410358   1.000000
      3         -4.482195   1.000000
      4         -2.929801   1.000000
      5         -2.534388   1.000000
      6         -1.039483   1.000000
      7          0.786257   1.000000
      8          1.338737   1.000000
      9          2.469839   1.000000
     10          2.821634   1.000000
     11          3.542954   1.000000
     12          3.555748   1.000000
     13          3.776093   1.000000
     14          7.202204   1.000000
     15          7.667435   1.000000
     16          8.976548   1.000002
     17         14.327618   0.000000
     18         15.320573   0.000000
     19         15.371901   0.000000
     20         15.908238   0.000000
     21         16.674406   0.000000
     22         16.952381   0.000000
     23         17.211494   0.000000
     24         17.311811   0.000000
 
  0.2941176E+00  0.1176471E+00  0.0000000E+00  0.4884999E-02
      1        -10.832324   1.000000
      2         -7.157322   1.000000
      3         -4.271726   1.000000
      4         -2.918806   1.000000
      5         -2.327776   1.000000
      6         -1.036352   1.000000
      7          0.978203   1.000000
      8          1.692447   1.000000
      9          2.039672   1.000000
     10          2.599357   1.000000
     11          3.354331   1.000000
     12          3.820625   1.000000
     13          4.142959   1.000000
     14          6.576785   1.000000
     15          7.087776   1.000000
     16          8.488750   1.000000
     17         14.322021   0.000000
     18         15.214785   0.000000
     19         15.999513   0.000000
     20         16.833909   0.000000
     21         17.326688   0.000000
     22         17.814859   0.000000
     23         18.008999   0.000000
     24         18.037771   0.000000
 
  0.3529412E+00  0.1176471E+00  0.0000000E+00  0.4884999E-02
      1        -10.485487   1.000000
      2         -7.853067   1.000000
      3         -4.029169   1.000000
      4         -2.959551   1.000000
      5         -2.094543   1.000000
      6         -1.083387   1.000000
      7          0.739130   1.000000
      8          1.618157   1.000000
      9          2.450585   1.000000
     10          2.542826   1.000000
     11          3.112684   1.000000
     12          4.143903   1.000000
     13          4.608366   1.000000
     14          5.947223   1.000000
     15          6.510960   1.000000
     16          7.895972   1.000000
     17         14.363178   0.000000
     18         15.042769   0.000000
     19         16.834657   0.000000
     20         17.853322   0.000000
     21         18.066816   0.000000
     22         18.728482   0.000000
     23         18.769917   0.000000
     24         18.916806   0.000000
 
  0.4117647E+00  0.1176471E+00  0.0000000E+00  0.4884999E-02
      1        -10.077269   1.000000
      2         -8.494949   1.000000
      3         -3.766478   1.000000
      4         -3.073728   1.000000
      5         -1.845994   1.000000
      6         -1.196392   1.000000
      7          0.651899   1.000000
      8          1.236985   1.000000
      9          2.406402   1.000000
     10          2.859773   1.000000
     11          3.320111   1.000000
     12          4.522961   1.000000
     13          5.175930   1.000000
     14          5.317893   1.000000
     15          5.955624   1.000000
     16          7.231398   1.000000
     17         14.445206   0.000000
     18         14.869424   0.000000
     19         17.772234   0.000000
     20         18.888070   0.000000
     21         18.929166   0.000000
     22         19.516195   0.000000
     23         19.570383   0.000000
     24         19.822981   0.000000
 
  0.4705882E+00  0.1176471E+00  0.0000000E+00  0.4884999E-02
      1         -9.608678   1.000000
      2         -9.080746   1.000000
      3         -3.502238   1.000000
      4         -3.261681   1.000000
      5         -1.598515   1.000000
      6         -1.373943   1.000000
      7          0.721413   1.000000
      8          0.927145   1.000000
      9          2.473394   1.000000
     10          2.634673   1.000000
     11          4.026133   1.000000
     12          4.683240   1.000000
     13          4.954455   1.000000
     14          5.433998   1.000000
     15          5.829080   1.000000
     16          6.529236   1.000000
     17         14.561852   0.000000
     18         14.705964   0.000000
     19         18.739022   0.000000
     20         19.539596   0.000000
     21         19.774142   0.000000
     22         20.015110   0.000000
     23         20.392689   0.000000
     24         20.739488   0.000000
 
  0.1764706E+00  0.1764706E+00  0.0000000E+00  0.2442499E-02
      1        -11.180465   1.000000
      2         -5.482295   1.000000
      3         -5.482295   1.000000
      4         -2.985448   1.000000
      5         -2.555811   1.000000
      6         -0.168977   1.000000
      7         -0.168977   1.000000
      8          1.281952   1.000000
      9          3.001685   1.000000
     10          3.001685   1.000000
     11          3.326643   1.000000
     12          3.326643   1.000000
     13          3.862857   1.000000
     14          7.223879   1.000000
     15          7.757694   1.000000
     16          9.294188   1.007736
     17         14.869526   0.000000
     18         15.005636   0.000000
     19         15.005636   0.000000
     20         15.813999   0.000000
     21         16.669800   0.000000
     22         16.669802   0.000000
     23         16.672496   0.000000
     24         17.013241   0.000000
 
  0.2352941E+00  0.1764706E+00  0.0000000E+00  0.4884999E-02
      1        -10.958915   1.000000
      2         -6.270706   1.000000
      3         -5.298719   1.000000
      4         -3.029668   1.000000
      5         -2.365271   1.000000
      6         -0.217653   1.000000
      7          0.695797   1.000000
      8          0.864178   1.000000
      9          2.580796   1.000000
     10          3.157081   1.000000
     11          3.194623   1.000000
     12          3.683079   1.000000
     13          3.946825   1.000000
     14          6.609116   1.000000
     15          7.220148   1.000000
     16          9.075982   1.000052
     17         14.950791   0.000000
     18         15.148043   0.000000
     19         15.802146   0.000000
     20         15.863734   0.000000
     21         17.213905   0.000000
     22         17.240185   0.000000
     23         17.390695   0.000000
     24         17.441292   0.000000
 
  0.2941176E+00  0.1764706E+00  0.0000000E+00  0.4884999E-02
      1        -10.674831   1.000000
      2         -7.012934   1.000000
      3         -5.068627   1.000000
      4         -3.125868   1.000000
      5         -2.137442   1.000000
      6         -0.319361   1.000000
      7          0.569202   1.000000
      8          1.502445   1.000000
      9          2.128928   1.000000
     10          3.035858   1.000000
     11          3.449605   1.000000
     12          3.903233   1.000000
     13          4.151214   1.000000
     14          5.984969   1.000000
     15          6.653614   1.000000
     16          8.689493   1.000000
     17         14.945983   0.000000
     18         15.661433   0.000000
     19         15.764707   0.000000
     20         16.730659   0.000000
     21         17.843542   0.000000
     22         17.977400   0.000000
     23         18.021607   0.000000
     24         18.218580   0.000000
 
  0.3529412E+00  0.1764706E+00  0.0000000E+00  0.4884999E-02
      1        -10.328776   1.000000
      2         -7.705172   1.000000
      3         -4.797414   1.000000
      4         -3.296729   1.000000
      5         -1.876844   1.000000
      6         -0.486886   1.000000
      7          0.429707   1.000000
      8          1.679567   1.000000
      9          2.237718   1.000000
     10          2.996391   1.000000
     11          3.763970   1.000000
     12          3.765040   1.000000
     13          4.730701   1.000000
     14          5.363170   1.000000
     15          6.087886   1.000000
     16          8.166321   1.000000
     17         14.985927   0.000000
     18         15.620434   0.000000
     19         16.369181   0.000000
     20         17.752730   0.000000
     21         18.557663   0.000000
     22         18.597842   0.000000
     23         18.891042   0.000000
     24         19.053490   0.000000
 
  0.4117647E+00  0.1764706E+00  0.0000000E+00  0.4884999E-02
      1         -9.921648   1.000000
      2         -8.344364   1.000000
      3         -4.493561   1.000000
      4         -3.543302   1.000000
      5         -1.590971   1.000000
      6         -0.717263   1.000000
      7          0.452552   1.000000
      8          1.260740   1.000000
      9          2.907508   1.000000
     10          3.048626   1.000000
     11          3.572580   1.000000
     12          4.134678   1.000000
     13          4.749233   1.000000
     14          5.400170   1.000000
     15          5.542199   1.000000
     16          7.540800   1.000000
     17         15.064779   0.000000
     18         15.464065   0.000000
     19         17.219565   0.000000
     20         18.833456   0.000000
     21         19.278346   0.000000
     22         19.348494   0.000000
     23         19.531845   0.000000
     24         19.801319   0.000000
 
  0.4705882E+00  0.1764706E+00  0.0000000E+00  0.4884999E-02
      1         -9.454252   1.000000
      2         -8.927977   1.000000
      3         -4.169501   1.000000
      4         -3.844061   1.000000
      5         -1.291015   1.000000
      6         -0.992855   1.000000
      7          0.618847   1.000000
      8          0.898236   1.000000
      9          3.180259   1.000000
     10          3.365594   1.000000
     11          3.534203   1.000000
     12          4.142361   1.000000
     13          4.558036   1.000000
     14          5.029316   1.000000
     15          6.120213   1.000000
     16          6.846981   1.000000
     17         15.176065   0.000000
     18         15.312160   0.000000
     19         18.149708   0.000000
     20         19.050372   0.000000
     21         19.936528   0.000000
     22         19.997013   0.000000
     23         20.191571   0.000000
     24         20.743646   0.000000
 
  0.2352941E+00  0.2352941E+00  0.0000000E+00  0.2442499E-02
      1        -10.737996   1.000000
      2         -6.077533   1.000000
      3         -6.077533   1.000000
      4         -3.181288   1.000000
      5         -2.157572   1.000000
      6          0.512112   1.000000
      7          0.544718   1.000000
      8          0.544718   1.000000
      9          2.759785   1.000000
     10          2.759785   1.000000
     11          3.615658   1.000000
     12          3.615658   1.000000
     13          4.218447   1.000000
     14          5.995679   1.000000
     15          6.696935   1.000000
     16          8.995066   1.000004
     17         15.220819   0.000000
     18         15.748224   0.000000
     19         15.748224   0.000000
     20         16.258923   0.000000
     21         17.478024   0.000000
     22         17.667023   0.000000
     23         17.906969   0.000000
     24         17.906969   0.000000
 
  0.2941176E+00  0.2352941E+00  0.0000000E+00  0.4884999E-02
      1        -10.454804   1.000000
      2         -6.812574   1.000000
      3         -5.833328   1.000000
      4         -3.408358   1.000000
      5         -1.911437   1.000000
      6          0.317145   1.000000
      7          0.325321   1.000000