       N       E                     dE             d eps       ncg     rms          rms(c)
DAV:   1     0.678383608021E+02    0.67838E+02   -0.17911E+04  7920   0.131E+03
DAV:   2    -0.724489016259E+02   -0.14029E+03   -0.13653E+03 10704   0.231E+02
DAV:   3    -0.753181232831E+02   -0.28692E+01   -0.28660E+01 11040   0.360E+01
DAV:   4    -0.753365018705E+02   -0.18379E-01   -0.18374E-01 10356   0.291E+00
DAV:   5    -0.753367511676E+02   -0.24930E-03   -0.24926E-03 10872   0.315E-01    0.112E+01
RMM:   6    -0.733817267242E+02    0.19550E+01   -0.12115E+00  7920   0.640E+00    0.664E+00
RMM:   7    -0.727262593050E+02    0.65547E+00   -0.19271E+00  7920   0.856E+00    0.144E+00
RMM:   8    -0.727407551881E+02   -0.14496E-01   -0.10940E-01  7927   0.248E+00    0.244E-01
RMM:   9    -0.727418303165E+02   -0.10751E-02   -0.20378E-02  7929   0.961E-01    0.126E-01
RMM:  10    -0.727419773526E+02   -0.14704E-03   -0.29280E-03  7927   0.361E-01    0.395E-02
RMM:  11    -0.727420397715E+02   -0.62419E-04   -0.65999E-04  7987   0.151E-01    0.936E-03
RMM:  12    -0.727420504243E+02   -0.10653E-04   -0.99042E-05  7889   0.621E-02    0.145E-02
RMM:  13    -0.727420553190E+02   -0.48948E-05   -0.24849E-05  7563   0.247E-02    0.436E-03
RMM:  14    -0.727420548745E+02    0.44456E-06   -0.35963E-06  5989   0.106E-02
   1 F= -.72742055E+02 E0= -.72742233E+02  d E =-.727421E+02
       N       E                     dE             d eps       ncg     rms          rms(c)
DAV:   1    -0.727482671142E+02   -0.62118E-02   -0.49852E-01  8904   0.511E+00    0.615E-01
RMM:   2    -0.727427024615E+02    0.55647E-02   -0.66821E-03  7920   0.532E-01    0.350E-01
RMM:   3    -0.727403709668E+02    0.23315E-02   -0.51707E-03  7920   0.433E-01    0.272E-02
RMM:   4    -0.727404067998E+02   -0.35833E-04   -0.35535E-04  7920   0.147E-01    0.280E-02
RMM:   5    -0.727404047045E+02    0.20952E-05   -0.28953E-05  7925   0.372E-02    0.629E-03
RMM:   6    -0.727404039700E+02    0.73448E-06   -0.33587E-06  6097   0.123E-02    0.403E-03
RMM:   7    -0.727404037807E+02    0.18939E-06   -0.10113E-06  5348   0.570E-03    0.681E-04
RMM:   8    -0.727404037649E+02    0.15734E-07   -0.17842E-07  4925   0.247E-03
   2 F= -.72740404E+02 E0= -.72740586E+02  d E =0.165111E-02
       N       E                     dE             d eps       ncg     rms          rms(c)
DAV:   1    -0.727500924509E+02   -0.96887E-02   -0.14272E-01  9768   0.275E+00    0.330E-01
RMM:   2    -0.727485159677E+02    0.15765E-02   -0.19848E-03  7920   0.287E-01    0.188E-01
RMM:   3    -0.727478728576E+02    0.64311E-03   -0.14885E-03  7920   0.234E-01    0.145E-02
RMM:   4    -0.727478849741E+02   -0.12116E-04   -0.10401E-04  7926   0.795E-02    0.147E-02
RMM:   5    -0.727478847429E+02    0.23113E-06   -0.83463E-06  7579   0.200E-02    0.293E-03
RMM:   6    -0.727478849860E+02   -0.24306E-06   -0.98281E-07  5341   0.652E-03    0.182E-03
RMM:   7    -0.727478851131E+02   -0.12707E-06   -0.27507E-07  5071   0.301E-03    0.317E-04
RMM:   8    -0.727478851272E+02   -0.14102E-07   -0.44693E-08  3333   0.136E-03
   3 F= -.72747885E+02 E0= -.72748065E+02  d E =-.583025E-02
