 vasp.6.4.3 19Mar24 (build Oct 21 2024 22:36:34) complex                        
  
 executed on             LinuxIFC date 2024.12.26  00:32:25
 running   96 mpi-ranks, on    1 nodes
 distrk:  each k-point on   12 cores,    8 groups
 distr:  one band on NCORE=   1 cores,   12 groups


--------------------------------------------------------------------------------------------------------


 INCAR:
   SYSTEM = C8
   ISTART = 0
   ICHARG = 2
   LREAL = Auto
   PREC = Normal
   LWAVE = .False.
   LCHARG = .False.
   ADDGRID = .True.
   ENCUT = 520
   ISMEAR = 1
   SIGMA = 0.2
   NELM = 60
   NELMIN = 8
   EDIFF = 1e-06
   EDIFFG = -0.01
   NSW = 60
   IBRION = 2
   PSTRESS = 0.0
   ISIF = 3
   KPAR = 8
   ALGO = Fast

 POTCAR:    PAW_PBE C 08Apr2002                   
 -----------------------------------------------------------------------------
|                                                                             |
|           W    W    AA    RRRRR   N    N  II  N    N   GGGG   !!!           |
|           W    W   A  A   R    R  NN   N  II  NN   N  G    G  !!!           |
|           W    W  A    A  R    R  N N  N  II  N N  N  G       !!!           |
|           W WW W  AAAAAA  RRRRR   N  N N  II  N  N N  G  GGG   !            |
|           WW  WW  A    A  R   R   N   NN  II  N   NN  G    G                |
|           W    W  A    A  R    R  N    N  II  N    N   GGGG   !!!           |
|                                                                             |
|     For optimal performance we recommend to set                             |
|       NCORE = 2 up to number-of-cores-per-socket                            |
|     NCORE specifies how many cores store one orbital (NPAR=cpu/NCORE).      |
|     This setting can greatly improve the performance of VASP for DFT.       |
|     The default, NCORE=1 might be grossly inefficient on modern             |
|     multi-core architectures or massively parallel machines. Do your        |
|     own testing! More info at https://www.vasp.at/wiki/index.php/NCORE      |
|     Unfortunately you need to use the default for GW and RPA                |
|     calculations (for HF NCORE is supported but not extensively tested      |
|     yet).                                                                   |
|                                                                             |
 -----------------------------------------------------------------------------

 POTCAR:    PAW_PBE C 08Apr2002                   
   VRHFIN =C: s2p2                                                                                  
   LEXCH  = PE                                                                                      
   EATOM  =   147.1560 eV,   10.8157 Ry                                                             
                                                                                                    
   TITEL  = PAW_PBE C 08Apr2002                                                                     
   LULTRA =        F    use ultrasoft PP ?                                                          
   IUNSCR =        1    unscreen: 0-lin 1-nonlin 2-no                                               
   RPACOR =    1.200    partial core radius                                                         
   POMASS =   12.011; ZVAL   =    4.000    mass and valenz                                          
   RCORE  =    1.500    outmost cutoff radius                                                       
   RWIGS  =    1.630; RWIGS  =    0.863    wigner-seitz radius (au A)                               
   ENMAX  =  400.000; ENMIN  =  300.000 eV                                                          
   ICORE  =        2    local potential                                                             
   LCOR   =        T    correct aug charges                                                         
   LPAW   =        T    paw PP                                                                      
   EAUG   =  644.873                                                                                
   DEXC   =    0.000                                                                                
   RMAX   =    1.529    core radius for proj-oper                                                   
   RAUG   =    1.300    factor for augmentation sphere                                              
   RDEP   =    1.501    radius for radial grids                                                     
   RDEPT  =    1.300    core radius for aug-charge                                                  
                                                                                                    
   Atomic configuration                                                                             
    4 entries                                                                                       
     n  l   j            E        occ.                                                              
     1  0  0.50      -273.3789   2.0000                                                             
     2  0  0.50       -13.7508   2.0000                                                             
     2  1  0.50        -5.2854   2.0000                                                             
     3  2  1.50        -5.4423   0.0000                                                             
   Description                                                                                      
     l       E           TYP  RCUT    TYP  RCUT                                                     
     0    -13.7508458     23  1.200                                                                 
     0     -8.2022199     23  1.200                                                                 
     1     -5.2854383     23  1.500                                                                 
     1     34.0145650     23  1.500                                                                 
     2     -5.4423304      7  1.500                                                                 
  local pseudopotential read in
  partial core-charges read in
  partial kinetic energy density read in
  atomic valenz-charges read in
  non local Contribution for L=           0  read in
    real space projection operators read in
  non local Contribution for L=           0  read in
    real space projection operators read in
  non local Contribution for L=           1  read in
    real space projection operators read in
  non local Contribution for L=           1  read in
    real space projection operators read in
    PAW grid and wavefunctions read in
 
   number of l-projection  operators is LMAX  =           4
   number of lm-projection operators is LMMAX =           8
 
 -----------------------------------------------------------------------------
|                                                                             |
|               ----> ADVICE to this user running VASP <----                  |
|                                                                             |
|     You have a (more or less) 'small supercell' and for smaller cells       |
|     it is recommended to use the reciprocal-space projection scheme!        |
|     The real-space optimization is not efficient for small cells and it     |
|     is also less accurate ...                                               |
|     Therefore, set LREAL=.FALSE. in the INCAR file.                         |
|                                                                             |
 -----------------------------------------------------------------------------

 Optimization of the real space projectors (new method)

 maximal supplied QI-value         = 25.13
 optimisation between [QCUT,QGAM] = [ 11.56, 23.12] = [ 37.43,149.72] Ry 
 Optimized for a Real-space Cutoff    1.04 Angstroem

   l    n(q)    QCUT    max X(q) W(low)/X(q) W(high)/X(q)  e(spline) 
   0      7    11.561   115.676    0.20E-03    0.60E-03    0.21E-06
   0      7    11.561    87.132    0.20E-03    0.59E-03    0.21E-06
   1      7    11.561     4.429    0.23E-03    0.35E-03    0.15E-06
   1      7    11.561     2.733    0.18E-03    0.25E-03    0.12E-06
  PAW_PBE C 08Apr2002                   :
 energy of atom  1       EATOM= -147.1560
 kinetic energy error for atom=    0.0071 (will be added to EATOM!!)
 
 
 POSCAR: C8
  positions in direct lattice
  No initial velocities read in


 exchange-correlation table for PE
   RHO(1)=    0.500       N(1)  =     2000
   RHO(2)=  100.500       N(2)  =     4000
 


--------------------------------------------------------------------------------------------------------


 ion  position               nearest neighbor table
   1  0.000  0.000  0.500-   4 1.54   6 1.54   8 1.54   2 1.54
   2  0.250  0.250  0.750-   3 1.54   5 1.54   7 1.54   1 1.54
   3  0.000  0.500  0.000-   2 1.54   6 1.54   8 1.54   4 1.54
   4  0.250  0.750  0.250-   1 1.54   5 1.54   7 1.54   3 1.54
   5  0.500  0.000  0.000-   2 1.54   4 1.54   8 1.54   6 1.54
   6  0.750  0.250  0.250-   1 1.54   3 1.54   7 1.54   5 1.54
   7  0.500  0.500  0.500-   2 1.54   4 1.54   6 1.54   8 1.54
   8  0.750  0.750  0.750-   1 1.54   3 1.54   5 1.54   7 1.54
 
  LATTYP: Found a simple cubic cell.
 ALAT       =     3.5607451203
  
  Lattice vectors:
  
 A1 = (   3.5607451203,   0.0000000000,   0.0000000000)
 A2 = (   0.0000000000,   3.5607451203,   0.0000000000)
 A3 = (   0.0000000000,   0.0000000000,   3.5607451203)


Analysis of symmetry for initial positions (statically):
=====================================================================
 Subroutine PRICEL returns following result:
 
  LATTYP: Found a face centered cubic cell.
 ALAT       =     3.5607451203
  
  Lattice vectors:
  
 A1 = (   1.7803725602,  -1.7803725602,   0.0000000000)
 A2 = (   1.7803725602,   0.0000000000,   1.7803725602)
 A3 = (   0.0000000000,  -1.7803725602,   1.7803725602)
 
   4 primitive cells build up your supercell.
 

 Routine SETGRP: Setting up the symmetry group for a 
 simple cubic supercell.


 Subroutine GETGRP returns: Found 48 space group operations
 (whereof 24 operations were pure point group operations)
 out of a pool of 48 trial point group operations.


The static configuration has the point symmetry T_d .
 The point group associated with its full space group is O_h .


Analysis of symmetry for dynamics (positions and initial velocities):
=====================================================================
 Subroutine PRICEL returns following result:
 
  LATTYP: Found a face centered cubic cell.
 ALAT       =     3.5607451203
  
  Lattice vectors:
  
 A1 = (   1.7803725602,  -1.7803725602,   0.0000000000)
 A2 = (   1.7803725602,   0.0000000000,   1.7803725602)
 A3 = (   0.0000000000,  -1.7803725602,   1.7803725602)
 
   4 primitive cells build up your supercell.
 

 Routine SETGRP: Setting up the symmetry group for a 
 simple cubic supercell.


 Subroutine GETGRP returns: Found 48 space group operations
 (whereof 24 operations were pure point group operations)
 out of a pool of 48 trial point group operations.


The dynamic configuration has the point symmetry T_d .
 The point group associated with its full space group is O_h .


 Subroutine INISYM returns: Found 48 space group operations
 (whereof 24 operations are pure point group operations),
 and found     4 'primitive' translations


----------------------------------------------------------------------------------------

                                     Primitive cell                                     

  volume of cell :      11.2866

  direct lattice vectors                    reciprocal lattice vectors
     1.780372560 -1.780372560  0.000000000     0.280840096 -0.280840096 -0.280840096
     1.780372560  0.000000000  1.780372560     0.280840096  0.280840096  0.280840096
     0.000000000 -1.780372560  1.780372560    -0.280840096 -0.280840096  0.280840096

  length of vectors
     2.517827021  2.517827021  2.517827021     0.486429314  0.486429314  0.486429314

  position of ions in fractional coordinates (direct lattice)
     0.500000000  0.500000000  0.500000000
     0.250000000  0.250000000  0.250000000

  ion indices of the primitive-cell ions
   primitive index   ion index
                 1           1
                 2           2

----------------------------------------------------------------------------------------

 
 
 KPOINTS: Automatic mesh                          

Automatic generation of k-mesh.
 Grid dimensions read from file:
 generate k-points for:   17   17   17

 Generating k-lattice:

  Cartesian coordinates                     Fractional coordinates (reciprocal lattice)
     0.016520006 -0.000000000  0.000000000     0.058823529 -0.000000000  0.000000000
     0.000000000  0.016520006  0.000000000     0.000000000  0.058823529  0.000000000
    -0.000000000 -0.000000000  0.016520006     0.000000000  0.000000000  0.058823529

  Length of vectors
     0.016520006  0.016520006  0.016520006

  Shift w.r.t. Gamma in fractional coordinates (k-lattice)
     0.000000000  0.000000000  0.000000000

 
 Subroutine IBZKPT returns following result:
 ===========================================
 
 Found    165 irreducible k-points:
 
 Following reciprocal coordinates:
            Coordinates               Weight
  0.000000  0.000000  0.000000      1.000000
  0.058824  0.000000  0.000000      6.000000
  0.117647 -0.000000  0.000000      6.000000
  0.176471 -0.000000  0.000000      6.000000
  0.235294 -0.000000  0.000000      6.000000
  0.294118 -0.000000  0.000000      6.000000
  0.352941 -0.000000  0.000000      6.000000
  0.411765  0.000000  0.000000      6.000000
  0.470588 -0.000000  0.000000      6.000000
  0.058824  0.058824  0.000000     12.000000
  0.117647  0.058824  0.000000     24.000000
  0.176471  0.058824  0.000000     24.000000
  0.235294  0.058824  0.000000     24.000000
  0.294118  0.058824  0.000000     24.000000
  0.352941  0.058824  0.000000     24.000000
  0.411765  0.058824  0.000000     24.000000
  0.470588  0.058824  0.000000     24.000000
  0.117647  0.117647  0.000000     12.000000
  0.176471  0.117647  0.000000     24.000000
  0.235294  0.117647  0.000000     24.000000
  0.294118  0.117647  0.000000     24.000000
  0.352941  0.117647  0.000000     24.000000
  0.411765  0.117647  0.000000     24.000000
  0.470588  0.117647  0.000000     24.000000
  0.176471  0.176471  0.000000     12.000000
  0.235294  0.176471  0.000000     24.000000
  0.294118  0.176471  0.000000     24.000000
  0.352941  0.176471  0.000000     24.000000
  0.411765  0.176471  0.000000     24.000000
  0.470588  0.176471  0.000000     24.000000
  0.235294  0.235294  0.000000     12.000000
  0.294118  0.235294  0.000000     24.000000
  0.352941  0.235294  0.000000     24.000000
  0.411765  0.235294  0.000000     24.000000
  0.470588  0.235294  0.000000     24.000000
  0.294118  0.294118  0.000000     12.000000
  0.352941  0.294118  0.000000     24.000000
  0.411765  0.294118  0.000000     24.000000
  0.470588  0.294118  0.000000     24.000000
  0.352941  0.352941  0.000000     12.000000
  0.411765  0.352941  0.000000     24.000000
  0.470588  0.352941  0.000000     24.000000
  0.411765  0.411765  0.000000     12.000000
  0.470588  0.411765  0.000000     24.000000
  0.470588  0.470588  0.000000     12.000000
  0.058824  0.058824  0.058824      8.000000
  0.117647  0.058824  0.058824     24.000000
  0.176471  0.058824  0.058824     24.000000
  0.235294  0.058824  0.058824     24.000000
  0.294118  0.058824  0.058824     24.000000
  0.352941  0.058824  0.058824     24.000000
  0.411765  0.058824  0.058824     24.000000
  0.470588  0.058824  0.058824     24.000000
  0.117647  0.117647  0.058824     24.000000
  0.176471  0.117647  0.058824     48.000000
  0.235294  0.117647  0.058824     48.000000
  0.294118  0.117647  0.058824     48.000000
  0.352941  0.117647  0.058824     48.000000
  0.411765  0.117647  0.058824     48.000000
  0.470588  0.117647  0.058824     48.000000
  0.176471  0.176471  0.058824     24.000000
  0.235294  0.176471  0.058824     48.000000
  0.294118  0.176471  0.058824     48.000000
  0.352941  0.176471  0.058824     48.000000
  0.411765  0.176471  0.058824     48.000000
  0.470588  0.176471  0.058824     48.000000
  0.235294  0.235294  0.058824     24.000000
  0.294118  0.235294  0.058824     48.000000
  0.352941  0.235294  0.058824     48.000000
  0.411765  0.235294  0.058824     48.000000
  0.470588  0.235294  0.058824     48.000000
  0.294118  0.294118  0.058824     24.000000
  0.352941  0.294118  0.058824     48.000000
  0.411765  0.294118  0.058824     48.000000
  0.470588  0.294118  0.058824     48.000000
  0.352941  0.352941  0.058824     24.000000
  0.411765  0.352941  0.058824     48.000000
  0.470588  0.352941  0.058824     48.000000
  0.411765  0.411765  0.058824     24.000000
  0.470588  0.411765  0.058824     48.000000
  0.470588  0.470588  0.058824     24.000000
  0.117647  0.117647  0.117647      8.000000
  0.176471  0.117647  0.117647     24.000000
  0.235294  0.117647  0.117647     24.000000
  0.294118  0.117647  0.117647     24.000000
  0.352941  0.117647  0.117647     24.000000
  0.411765  0.117647  0.117647     24.000000
  0.470588  0.117647  0.117647     24.000000
  0.176471  0.176471  0.117647     24.000000
  0.235294  0.176471  0.117647     48.000000
  0.294118  0.176471  0.117647     48.000000
  0.352941  0.176471  0.117647     48.000000
  0.411765  0.176471  0.117647     48.000000
  0.470588  0.176471  0.117647     48.000000
  0.235294  0.235294  0.117647     24.000000
  0.294118  0.235294  0.117647     48.000000
  0.352941  0.235294  0.117647     48.000000
  0.411765  0.235294  0.117647     48.000000
  0.470588  0.235294  0.117647     48.000000
  0.294118  0.294118  0.117647     24.000000
  0.352941  0.294118  0.117647     48.000000
  0.411765  0.294118  0.117647     48.000000
  0.470588  0.294118  0.117647     48.000000
  0.352941  0.352941  0.117647     24.000000
  0.411765  0.352941  0.117647     48.000000
  0.470588  0.352941  0.117647     48.000000
  0.411765  0.411765  0.117647     24.000000
  0.470588  0.411765  0.117647     48.000000
  0.470588  0.470588  0.117647     24.000000
  0.176471  0.176471  0.176471      8.000000
  0.235294  0.176471  0.176471     24.000000
  0.294118  0.176471  0.176471     24.000000
  0.352941  0.176471  0.176471     24.000000
  0.411765  0.176471  0.176471     24.000000
  0.470588  0.176471  0.176471     24.000000
  0.235294  0.235294  0.176471     24.000000
  0.294118  0.235294  0.176471     48.000000
  0.352941  0.235294  0.176471     48.000000
  0.411765  0.235294  0.176471     48.000000
  0.470588  0.235294  0.176471     48.000000
  0.294118  0.294118  0.176471     24.000000
  0.352941  0.294118  0.176471     48.000000
  0.411765  0.294118  0.176471     48.000000
  0.470588  0.294118  0.176471     48.000000
  0.352941  0.352941  0.176471     24.000000
  0.411765  0.352941  0.176471     48.000000
  0.470588  0.352941  0.176471     48.000000
  0.411765  0.411765  0.176471     24.000000
  0.470588  0.411765  0.176471     48.000000
  0.470588  0.470588  0.176471     24.000000
  0.235294  0.235294  0.235294      8.000000
  0.294118  0.235294  0.235294     24.000000
  0.352941  0.235294  0.235294     24.000000
  0.411765  0.235294  0.235294     24.000000
  0.470588  0.235294  0.235294     24.000000
  0.294118  0.294118  0.235294     24.000000
  0.352941  0.294118  0.235294     48.000000
  0.411765  0.294118  0.235294     48.000000
  0.470588  0.294118  0.235294     48.000000
  0.352941  0.352941  0.235294     24.000000
  0.411765  0.352941  0.235294     48.000000
  0.470588  0.352941  0.235294     48.000000
  0.411765  0.411765  0.235294     24.000000
  0.470588  0.411765  0.235294     48.000000
  0.470588  0.470588  0.235294     24.000000
  0.294118  0.294118  0.294118      8.000000
  0.352941  0.294118  0.294118     24.000000
  0.411765  0.294118  0.294118     24.000000
  0.470588  0.294118  0.294118     24.000000
  0.352941  0.352941  0.294118     24.000000
  0.411765  0.352941  0.294118     48.000000
  0.470588  0.352941  0.294118     48.000000
  0.411765  0.411765  0.294118     24.000000
  0.470588  0.411765  0.294118     48.000000
  0.470588  0.470588  0.294118     24.000000
  0.352941  0.352941  0.352941      8.000000
  0.411765  0.352941  0.352941     24.000000
  0.470588  0.352941  0.352941     24.000000
  0.411765  0.411765  0.352941     24.000000
  0.470588  0.411765  0.352941     48.000000
  0.470588  0.470588  0.352941     24.000000
  0.411765  0.411765  0.411765      8.000000
  0.470588  0.411765  0.411765     24.000000
  0.470588  0.470588  0.411765     24.000000
  0.470588  0.470588  0.470588      8.000000
 
 Following cartesian coordinates:
            Coordinates               Weight
  0.000000  0.000000  0.000000      1.000000
  0.016520 -0.000000  0.000000      6.000000
  0.033040 -0.000000  0.000000      6.000000
  0.049560 -0.000000  0.000000      6.000000
  0.066080 -0.000000  0.000000      6.000000
  0.082600 -0.000000  0.000000      6.000000
  0.099120 -0.000000  0.000000      6.000000
  0.115640 -0.000000  0.000000      6.000000
  0.132160 -0.000000  0.000000      6.000000
  0.016520  0.016520  0.000000     12.000000
  0.033040  0.016520  0.000000     24.000000
  0.049560  0.016520  0.000000     24.000000
  0.066080  0.016520  0.000000     24.000000
  0.082600  0.016520  0.000000     24.000000
  0.099120  0.016520  0.000000     24.000000
  0.115640  0.016520  0.000000     24.000000
  0.132160  0.016520  0.000000     24.000000
  0.033040  0.033040  0.000000     12.000000
  0.049560  0.033040  0.000000     24.000000
  0.066080  0.033040  0.000000     24.000000
  0.082600  0.033040  0.000000     24.000000
  0.099120  0.033040  0.000000     24.000000
  0.115640  0.033040  0.000000     24.000000
  0.132160  0.033040  0.000000     24.000000
  0.049560  0.049560  0.000000     12.000000
  0.066080  0.049560  0.000000     24.000000
  0.082600  0.049560  0.000000     24.000000
  0.099120  0.049560  0.000000     24.000000
  0.115640  0.049560  0.000000     24.000000
  0.132160  0.049560  0.000000     24.000000
  0.066080  0.066080  0.000000     12.000000
  0.082600  0.066080  0.000000     24.000000
  0.099120  0.066080  0.000000     24.000000
  0.115640  0.066080  0.000000     24.000000
  0.132160  0.066080  0.000000     24.000000
  0.082600  0.082600  0.000000     12.000000
  0.099120  0.082600  0.000000     24.000000
  0.115640  0.082600  0.000000     24.000000
  0.132160  0.082600  0.000000     24.000000
  0.099120  0.099120  0.000000     12.000000
  0.115640  0.099120  0.000000     24.000000
  0.132160  0.099120  0.000000     24.000000
  0.115640  0.115640  0.000000     12.000000
  0.132160  0.115640  0.000000     24.000000
  0.132160  0.132160  0.000000     12.000000
  0.016520  0.016520  0.016520      8.000000
  0.033040  0.016520  0.016520     24.000000
  0.049560  0.016520  0.016520     24.000000
  0.066080  0.016520  0.016520     24.000000
  0.082600  0.016520  0.016520     24.000000
  0.099120  0.016520  0.016520     24.000000
  0.115640  0.016520  0.016520     24.000000
  0.132160  0.016520  0.016520     24.000000
  0.033040  0.033040  0.016520     24.000000
  0.049560  0.033040  0.016520     48.000000
  0.066080  0.033040  0.016520     48.000000
  0.082600  0.033040  0.016520     48.000000
  0.099120  0.033040  0.016520     48.000000
  0.115640  0.033040  0.016520     48.000000
  0.132160  0.033040  0.016520     48.000000
  0.049560  0.049560  0.016520     24.000000
  0.066080  0.049560  0.016520     48.000000
  0.082600  0.049560  0.016520     48.000000
  0.099120  0.049560  0.016520     48.000000
  0.115640  0.049560  0.016520     48.000000
  0.132160  0.049560  0.016520     48.000000
  0.066080  0.066080  0.016520     24.000000
  0.082600  0.066080  0.016520     48.000000
  0.099120  0.066080  0.016520     48.000000
  0.115640  0.066080  0.016520     48.000000
  0.132160  0.066080  0.016520     48.000000
  0.082600  0.082600  0.016520     24.000000
  0.099120  0.082600  0.016520     48.000000
  0.115640  0.082600  0.016520     48.000000
  0.132160  0.082600  0.016520     48.000000
  0.099120  0.099120  0.016520     24.000000
  0.115640  0.099120  0.016520     48.000000
  0.132160  0.099120  0.016520     48.000000
  0.115640  0.115640  0.016520     24.000000
  0.132160  0.115640  0.016520     48.000000
  0.132160  0.132160  0.016520     24.000000
  0.033040  0.033040  0.033040      8.000000
  0.049560  0.033040  0.033040     24.000000
  0.066080  0.033040  0.033040     24.000000
  0.082600  0.033040  0.033040     24.000000
  0.099120  0.033040  0.033040     24.000000
  0.115640  0.033040  0.033040     24.000000
  0.132160  0.033040  0.033040     24.000000
  0.049560  0.049560  0.033040     24.000000
  0.066080  0.049560  0.033040     48.000000
  0.082600  0.049560  0.033040     48.000000
  0.099120  0.049560  0.033040     48.000000
  0.115640  0.049560  0.033040     48.000000
  0.132160  0.049560  0.033040     48.000000
  0.066080  0.066080  0.033040     24.000000
  0.082600  0.066080  0.033040     48.000000
  0.099120  0.066080  0.033040     48.000000
  0.115640  0.066080  0.033040     48.000000
  0.132160  0.066080  0.033040     48.000000
  0.082600  0.082600  0.033040     24.000000
  0.099120  0.082600  0.033040     48.000000
  0.115640  0.082600  0.033040     48.000000
  0.132160  0.082600  0.033040     48.000000
  0.099120  0.099120  0.033040     24.000000
  0.115640  0.099120  0.033040     48.000000
  0.132160  0.099120  0.033040     48.000000
  0.115640  0.115640  0.033040     24.000000
  0.132160  0.115640  0.033040     48.000000
  0.132160  0.132160  0.033040     24.000000
  0.049560  0.049560  0.049560      8.000000
  0.066080  0.049560  0.049560     24.000000
  0.082600  0.049560  0.049560     24.000000
  0.099120  0.049560  0.049560     24.000000
  0.115640  0.049560  0.049560     24.000000
  0.132160  0.049560  0.049560     24.000000
  0.066080  0.066080  0.049560     24.000000
  0.082600  0.066080  0.049560     48.000000
  0.099120  0.066080  0.049560     48.000000
  0.115640  0.066080  0.049560     48.000000
  0.132160  0.066080  0.049560     48.000000
  0.082600  0.082600  0.049560     24.000000
  0.099120  0.082600  0.049560     48.000000
  0.115640  0.082600  0.049560     48.000000
  0.132160  0.082600  0.049560     48.000000
  0.099120  0.099120  0.049560     24.000000
  0.115640  0.099120  0.049560     48.000000
  0.132160  0.099120  0.049560     48.000000
  0.115640  0.115640  0.049560     24.000000
  0.132160  0.115640  0.049560     48.000000
  0.132160  0.132160  0.049560     24.000000
  0.066080  0.066080  0.066080      8.000000
  0.082600  0.066080  0.066080     24.000000
  0.099120  0.066080  0.066080     24.000000
  0.115640  0.066080  0.066080     24.000000
  0.132160  0.066080  0.066080     24.000000
  0.082600  0.082600  0.066080     24.000000
  0.099120  0.082600  0.066080     48.000000
  0.115640  0.082600  0.066080     48.000000
  0.132160  0.082600  0.066080     48.000000
  0.099120  0.099120  0.066080     24.000000
  0.115640  0.099120  0.066080     48.000000
  0.132160  0.099120  0.066080     48.000000
  0.115640  0.115640  0.066080     24.000000
  0.132160  0.115640  0.066080     48.000000
  0.132160  0.132160  0.066080     24.000000
  0.082600  0.082600  0.082600      8.000000
  0.099120  0.082600  0.082600     24.000000
  0.115640  0.082600  0.082600     24.000000
  0.132160  0.082600  0.082600     24.000000
  0.099120  0.099120  0.082600     24.000000
  0.115640  0.099120  0.082600     48.000000
  0.132160  0.099120  0.082600     48.000000
  0.115640  0.115640  0.082600     24.000000
  0.132160  0.115640  0.082600     48.000000
  0.132160  0.132160  0.082600     24.000000
  0.099120  0.099120  0.099120      8.000000
  0.115640  0.099120  0.099120     24.000000
  0.132160  0.099120  0.099120     24.000000
  0.115640  0.115640  0.099120     24.000000
  0.132160  0.115640  0.099120     48.000000
  0.132160  0.132160  0.099120     24.000000
  0.115640  0.115640  0.115640      8.000000
  0.132160  0.115640  0.115640     24.000000
  0.132160  0.132160  0.115640     24.000000
  0.132160  0.132160  0.132160      8.000000
 


--------------------------------------------------------------------------------------------------------




 Dimension of arrays:
   k-points           NKPTS =    165   k-points in BZ     NKDIM =    165   number of bands    NBANDS=     24
   number of dos      NEDOS =    301   number of ions     NIONS =      8
   non local maximal  LDIM  =      4   non local SUM 2l+1 LMDIM =      8
   total plane-waves  NPLWV =   8000
   max r-space proj   IRMAX =    895   max aug-charges    IRDMAX=  16927
   dimension x,y,z NGX =    20 NGY =   20 NGZ =   20
   dimension x,y,z NGXF=    40 NGYF=   40 NGZF=   40
   support grid    NGXF=    80 NGYF=   80 NGZF=   80
   ions per type =               8
   NGX,Y,Z   is equivalent  to a cutoff of   9.34,  9.34,  9.34 a.u.
   NGXF,Y,Z  is equivalent  to a cutoff of  18.68, 18.68, 18.68 a.u.

 SYSTEM =  C8                                      
 POSCAR =  C8                                      

 Startparameter for this run:
   NWRITE =      2    write-flag & timer
   PREC   = normal    normal or accurate (medium, high low for compatibility)
   ISTART =      0    job   : 0-new  1-cont  2-samecut
   ICHARG =      2    charge: 1-file 2-atom 10-const
   ISPIN  =      1    spin polarized calculation?
   LNONCOLLINEAR =      F non collinear calculations
   LSORBIT =      F    spin-orbit coupling
   INIWAV =      1    electr: 0-lowe 1-rand  2-diag
   LASPH  =      F    aspherical Exc in radial PAW
 Electronic Relaxation 1
   ENCUT  =  520.0 eV  38.22 Ry    6.18 a.u.   6.62  6.62  6.62*2*pi/ulx,y,z
   ENINI  =  520.0     initial cutoff
   ENAUG  =  644.9 eV  augmentation charge cutoff
   NELM   =     60;   NELMIN=  8; NELMDL= -5     # of ELM steps 
   EDIFF  = 0.1E-05   stopping-criterion for ELM
   LREAL  =      T    real-space projection
   NLSPLINE    = F    spline interpolate recip. space projectors
   LCOMPAT=      F    compatible to vasp.4.4
   GGA_COMPAT  = T    GGA compatible to vasp.4.4-vasp.4.6
   LMAXPAW     = -100 max onsite density
   LMAXMIX     =    2 max onsite mixed and CHGCAR
   VOSKOWN=      0    Vosko Wilk Nusair interpolation
   ROPT   =   -0.00050
 Ionic relaxation
   EDIFFG = -.1E-01   stopping-criterion for IOM
   NSW    =     60    number of steps for IOM
   NBLOCK =      1;   KBLOCK =     60    inner block; outer block 
   IBRION =      2    ionic relax: 0-MD 1-quasi-New 2-CG
   NFREE  =      1    steps in history (QN), initial steepest desc. (CG)
   ISIF   =      3    stress and relaxation
   IWAVPR =     11    prediction:  0-non 1-charg 2-wave 3-comb
   ISYM   =      2    0-nonsym 1-usesym 2-fastsym
   LCORR  =      T    Harris-Foulkes like correction to forces

   POTIM  = 0.5000    time-step for ionic-motion
   TEIN   =    0.0    initial temperature
   TEBEG  =    0.0;   TEEND  =   0.0 temperature during run
   SMASS  =  -3.00    Nose mass-parameter (am)
   estimated Nose-frequenzy (Omega)   =  0.10E-29 period in steps = 0.13E+47 mass=  -0.290E-27a.u.
   SCALEE = 1.0000    scale energy and forces
   NPACO  =    256;   APACO  = 10.0  distance and # of slots for P.C.
   PSTRESS=    0.0 pullay stress

  Mass of Ions in am
   POMASS =  12.01
  Ionic Valenz
   ZVAL   =   4.00
  Atomic Wigner-Seitz radii
   RWIGS  =  -1.00
  virtual crystal weights 
   VCA    =   1.00
   NELECT =      32.0000    total number of electrons
   NUPDOWN=      -1.0000    fix difference up-down

 DOS related values:
   EMIN   =  10.00;   EMAX   =-10.00  energy-range for DOS
   EFERMI =   0.00;   METHOD = LEGACY      
   ISMEAR =     1;   SIGMA  =   0.20  broadening in eV -4-tet -1-fermi 0-gaus

 Electronic relaxation 2 (details)
   IALGO  =     68    algorithm
   LDIAG  =      T    sub-space diagonalisation (order eigenvalues)
   LSUBROT=      F    optimize rotation matrix (better conditioning)
   TURBO    =      0    0=normal 1=particle mesh
   IRESTART =      0    0=no restart 2=restart with 2 vectors
   NREBOOT  =      0    no. of reboots
   NMIN     =      0    reboot dimension
   EREF     =   0.00    reference energy to select bands
   IMIX   =      4    mixing-type and parameters
     AMIX     =   0.40;   BMIX     =  1.00
     AMIX_MAG =   1.60;   BMIX_MAG =  1.00
     AMIN     =   0.10
     WC   =   100.;   INIMIX=   1;  MIXPRE=   1;  MAXMIX= -45

 Intra band minimization:
   WEIMIN = 0.0010     energy-eigenvalue tresh-hold
   EBREAK =  0.10E-07  absolut break condition
   DEPER  =   0.30     relativ break condition  

   TIME   =   0.40     timestep for ELM

  volume/ion in A,a.u.               =       5.64        38.08
  Fermi-wavevector in a.u.,A,eV,Ry     =   1.459656  2.758350 28.988525  2.130596
  Thomas-Fermi vector in A             =   2.576198
 
 Write flags
   LWAVE        =      F    write WAVECAR
   LDOWNSAMPLE  =      F    k-point downsampling of WAVECAR
   LCHARG       =      F    write CHGCAR
   LVTOT        =      F    write LOCPOT, total local potential
   LVHAR        =      F    write LOCPOT, Hartree potential only
   WRT_POTENTIAL= false  ! write potential to hdf5 file
   LELF         =      F    write electronic localiz. function (ELF)
   LORBIT       =      0    0 simple, 1 ext, 2 COOP (PROOUT), +10 PAW based schemes


 Dipole corrections
   LMONO      =      F    monopole corrections only (constant potential shift)
   LDIPOL     =      F    correct potential (dipole corrections)
   IDIPOL     =      0    1-x, 2-y, 3-z, 4-all directions 
   EPSILON    =  1.0000000 bulk dielectric constant
   LVACPOTAV  =      F  vacuum potentials using an averaging scheme for the charge density
   VACPOTFLAT =  0.1000000 required flatness to determine vacuum potential
 Exchange correlation treatment:
   GGA     = PE    functional components
   XC_C    = 1    coefficients multiplying the functional components
   LIBXC   =     F    Libxc                    
   VOSKOWN =     0    Vosko Wilk Nusair interpolation
   LHFCALC =     F    Hartree Fock is set to
   LHFONE  =     F    Hartree Fock one center treatment
   AEXX    =    0.0000 exact exchange contribution

 Parameters of functionals:
   PE:
     No parameter
 
 Van der Waals corrections
   IVDW    =     0    specifies the selected vdW correction

 Linear response parameters
   LEPSILON=     F    determine dielectric tensor
   LRPA    =     F    only Hartree local field effects (RPA)
   LNABLA  =     F    use nabla operator in PAW spheres
   LVEL    =     F    velocity operator in full k-point grid
   CSHIFT  =0.1000    complex shift for real part using Kramers Kronig
   OMEGAMAX=  -1.0    maximum frequency
   DEG_THRESHOLD= 0.2000000E-02 threshold for treating states as degnerate
   RTIME   =   -0.100 relaxation time in fs
  (WPLASMAI=    0.000 imaginary part of plasma frequency in eV, 0.658/RTIME)
   DFIELD  = 0.0000000 0.0000000 0.0000000 field for delta impulse in time
 
  Optional k-point grid parameters
   LKPOINTS_OPT  =     F    use optional k-point grid
   KPOINTS_OPT_MODE=     1    mode for optional k-point grid
 
 Orbital magnetization related:
   ORBITALMAG=     F  switch on orbital magnetization
   LCHIMAG   =     F  perturbation theory with respect to B field
   DQ        =  0.001000  dq finite difference perturbation B field
   LLRAUG    =     F  two centre corrections for induced B field
   LBONE     =     F  B-component reconstruction in AE one-centre
   LVGVCALC  =     T  calculate vGv susceptibility
   LVGVAPPL  =     F  apply vGv susceptibility instead of pGv for G=0

 Random number generation:
   RANDOM_GENERATOR = DEFAULT
   PCG_SEED         = not used


--------------------------------------------------------------------------------------------------------


 conjugate gradient relaxation of ions
 charge density and potential will be updated during run
 non-spin polarized calculation
 RMM-DIIS sequential band-by-band and
  variant of blocked Davidson during initial phase
 perform sub-space diagonalisation
    before iterative eigenvector-optimisation
 modified Broyden-mixing scheme, WC =      100.0
 initial mixing is a Kerker type mixing with AMIX =  0.4000 and BMIX =      1.0000
 Hartree-type preconditioning will be used
 using additional bands            8
 real space projection scheme for non local part
 use partial core corrections
 calculate Harris-corrections to forces 
   (improved forces if not selfconsistent)
 use gradient corrections 
 use of overlap-Matrix (Vanderbilt PP)
 Methfessel and Paxton  Order N= 1 SIGMA  =   0.20


--------------------------------------------------------------------------------------------------------


  energy-cutoff  :      520.00
  volume of cell :       45.15
      direct lattice vectors                 reciprocal lattice vectors
     3.560745120  0.000000000  0.000000000     0.280840096 -0.000000000  0.000000000
     0.000000000  3.560745120  0.000000000     0.000000000  0.280840096  0.000000000
     0.000000000  0.000000000  3.560745120    -0.000000000 -0.000000000  0.280840096

  length of vectors
     3.560745120  3.560745120  3.560745120     0.280840096  0.280840096  0.280840096


 
 k-points in units of 2pi/SCALE and weight: Automatic mesh                          
   0.00000000  0.00000000  0.00000000       0.000
   0.01652001 -0.00000000  0.00000000       0.001
   0.03304001 -0.00000000  0.00000000       0.001
   0.04956002 -0.00000000  0.00000000       0.001
   0.06608002 -0.00000000  0.00000000       0.001
   0.08260003 -0.00000000  0.00000000       0.001
   0.09912003 -0.00000000  0.00000000       0.001
   0.11564004 -0.00000000  0.00000000       0.001
   0.13216005 -0.00000000  0.00000000       0.001
   0.01652001  0.01652001  0.00000000       0.002
   0.03304001  0.01652001  0.00000000       0.005
   0.04956002  0.01652001  0.00000000       0.005
   0.06608002  0.01652001  0.00000000       0.005
   0.08260003  0.01652001  0.00000000       0.005
   0.09912003  0.01652001  0.00000000       0.005
   0.11564004  0.01652001  0.00000000       0.005
   0.13216005  0.01652001  0.00000000       0.005
   0.03304001  0.03304001  0.00000000       0.002
   0.04956002  0.03304001  0.00000000       0.005
   0.06608002  0.03304001  0.00000000       0.005
   0.08260003  0.03304001  0.00000000       0.005
   0.09912003  0.03304001  0.00000000       0.005
   0.11564004  0.03304001  0.00000000       0.005
   0.13216005  0.03304001  0.00000000       0.005
   0.04956002  0.04956002  0.00000000       0.002
   0.06608002  0.04956002  0.00000000       0.005
   0.08260003  0.04956002  0.00000000       0.005
   0.09912003  0.04956002  0.00000000       0.005
   0.11564004  0.04956002  0.00000000       0.005
   0.13216005  0.04956002  0.00000000       0.005
   0.06608002  0.06608002  0.00000000       0.002
   0.08260003  0.06608002  0.00000000       0.005
   0.09912003  0.06608002  0.00000000       0.005
   0.11564004  0.06608002  0.00000000       0.005
   0.13216005  0.06608002  0.00000000       0.005
   0.08260003  0.08260003  0.00000000       0.002
   0.09912003  0.08260003  0.00000000       0.005
   0.11564004  0.08260003  0.00000000       0.005
   0.13216005  0.08260003  0.00000000       0.005
   0.09912003  0.09912003  0.00000000       0.002
   0.11564004  0.09912003  0.00000000       0.005
   0.13216005  0.09912003  0.00000000       0.005
   0.11564004  0.11564004  0.00000000       0.002
   0.13216005  0.11564004  0.00000000       0.005
   0.13216005  0.13216005  0.00000000       0.002
   0.01652001  0.01652001  0.01652001       0.002
   0.03304001  0.01652001  0.01652001       0.005
   0.04956002  0.01652001  0.01652001       0.005
   0.06608002  0.01652001  0.01652001       0.005
   0.08260003  0.01652001  0.01652001       0.005
   0.09912003  0.01652001  0.01652001       0.005
   0.11564004  0.01652001  0.01652001       0.005
   0.13216005  0.01652001  0.01652001       0.005
   0.03304001  0.03304001  0.01652001       0.005
   0.04956002  0.03304001  0.01652001       0.010
   0.06608002  0.03304001  0.01652001       0.010
   0.08260003  0.03304001  0.01652001       0.010
   0.09912003  0.03304001  0.01652001       0.010
   0.11564004  0.03304001  0.01652001       0.010
   0.13216005  0.03304001  0.01652001       0.010
   0.04956002  0.04956002  0.01652001       0.005
   0.06608002  0.04956002  0.01652001       0.010
   0.08260003  0.04956002  0.01652001       0.010
   0.09912003  0.04956002  0.01652001       0.010
   0.11564004  0.04956002  0.01652001       0.010
   0.13216005  0.04956002  0.01652001       0.010
   0.06608002  0.06608002  0.01652001       0.005
   0.08260003  0.06608002  0.01652001       0.010
   0.09912003  0.06608002  0.01652001       0.010
   0.11564004  0.06608002  0.01652001       0.010
   0.13216005  0.06608002  0.01652001       0.010
   0.08260003  0.08260003  0.01652001       0.005
   0.09912003  0.08260003  0.01652001       0.010
   0.11564004  0.08260003  0.01652001       0.010
   0.13216005  0.08260003  0.01652001       0.010
   0.09912003  0.09912003  0.01652001       0.005
   0.11564004  0.09912003  0.01652001       0.010
   0.13216005  0.09912003  0.01652001       0.010
   0.11564004  0.11564004  0.01652001       0.005
   0.13216005  0.11564004  0.01652001       0.010
   0.13216005  0.13216005  0.01652001       0.005
   0.03304001  0.03304001  0.03304001       0.002
   0.04956002  0.03304001  0.03304001       0.005
   0.06608002  0.03304001  0.03304001       0.005
   0.08260003  0.03304001  0.03304001       0.005
   0.09912003  0.03304001  0.03304001       0.005
   0.11564004  0.03304001  0.03304001       0.005
   0.13216005  0.03304001  0.03304001       0.005
   0.04956002  0.04956002  0.03304001       0.005
   0.06608002  0.04956002  0.03304001       0.010
   0.08260003  0.04956002  0.03304001       0.010
   0.09912003  0.04956002  0.03304001       0.010
   0.11564004  0.04956002  0.03304001       0.010
   0.13216005  0.04956002  0.03304001       0.010
   0.06608002  0.06608002  0.03304001       0.005
   0.08260003  0.06608002  0.03304001       0.010
   0.09912003  0.06608002  0.03304001       0.010
   0.11564004  0.06608002  0.03304001       0.010
   0.13216005  0.06608002  0.03304001       0.010
   0.08260003  0.08260003  0.03304001       0.005
   0.09912003  0.08260003  0.03304001       0.010
   0.11564004  0.08260003  0.03304001       0.010
   0.13216005  0.08260003  0.03304001       0.010
   0.09912003  0.09912003  0.03304001       0.005
   0.11564004  0.09912003  0.03304001       0.010
   0.13216005  0.09912003  0.03304001       0.010
   0.11564004  0.11564004  0.03304001       0.005
   0.13216005  0.11564004  0.03304001       0.010
   0.13216005  0.13216005  0.03304001       0.005
   0.04956002  0.04956002  0.04956002       0.002
   0.06608002  0.04956002  0.04956002       0.005
   0.08260003  0.04956002  0.04956002       0.005
   0.09912003  0.04956002  0.04956002       0.005
   0.11564004  0.04956002  0.04956002       0.005
   0.13216005  0.04956002  0.04956002       0.005
   0.06608002  0.06608002  0.04956002       0.005
   0.08260003  0.06608002  0.04956002       0.010
   0.09912003  0.06608002  0.04956002       0.010
   0.11564004  0.06608002  0.04956002       0.010
   0.13216005  0.06608002  0.04956002       0.010
   0.08260003  0.08260003  0.04956002       0.005
   0.09912003  0.08260003  0.04956002       0.010
   0.11564004  0.08260003  0.04956002       0.010
   0.13216005  0.08260003  0.04956002       0.010
   0.09912003  0.09912003  0.04956002       0.005
   0.11564004  0.09912003  0.04956002       0.010
   0.13216005  0.09912003  0.04956002       0.010
   0.11564004  0.11564004  0.04956002       0.005
   0.13216005  0.11564004  0.04956002       0.010
   0.13216005  0.13216005  0.04956002       0.005
   0.06608002  0.06608002  0.06608002       0.002
   0.08260003  0.06608002  0.06608002       0.005
   0.09912003  0.06608002  0.06608002       0.005
   0.11564004  0.06608002  0.06608002       0.005
   0.13216005  0.06608002  0.06608002       0.005
   0.08260003  0.08260003  0.06608002       0.005
   0.09912003  0.08260003  0.06608002       0.010
   0.11564004  0.08260003  0.06608002       0.010
   0.13216005  0.08260003  0.06608002       0.010
   0.09912003  0.09912003  0.06608002       0.005
   0.11564004  0.09912003  0.06608002       0.010
   0.13216005  0.09912003  0.06608002       0.010
   0.11564004  0.11564004  0.06608002       0.005
   0.13216005  0.11564004  0.06608002       0.010
   0.13216005  0.13216005  0.06608002       0.005
   0.08260003  0.08260003  0.08260003       0.002
   0.09912003  0.08260003  0.08260003       0.005
   0.11564004  0.08260003  0.08260003       0.005
   0.13216005  0.08260003  0.08260003       0.005
   0.09912003  0.09912003  0.08260003       0.005
   0.11564004  0.09912003  0.08260003       0.010
   0.13216005  0.09912003  0.08260003       0.010
   0.11564004  0.11564004  0.08260003       0.005
   0.13216005  0.11564004  0.08260003       0.010
   0.13216005  0.13216005  0.08260003       0.005
   0.09912003  0.09912003  0.09912003       0.002
   0.11564004  0.09912003  0.09912003       0.005
   0.13216005  0.09912003  0.09912003       0.005
   0.11564004  0.11564004  0.09912003       0.005
   0.13216005  0.11564004  0.09912003       0.010
   0.13216005  0.13216005  0.09912003       0.005
   0.11564004  0.11564004  0.11564004       0.002
   0.13216005  0.11564004  0.11564004       0.005
   0.13216005  0.13216005  0.11564004       0.005
   0.13216005  0.13216005  0.13216005       0.002
 
 k-points in reciprocal lattice and weights: Automatic mesh                          
   0.00000000  0.00000000  0.00000000       0.000
   0.05882353  0.00000000  0.00000000       0.001
   0.11764706 -0.00000000  0.00000000       0.001
   0.17647059 -0.00000000  0.00000000       0.001
   0.23529412 -0.00000000  0.00000000       0.001
   0.29411765 -0.00000000  0.00000000       0.001
   0.35294118 -0.00000000  0.00000000       0.001
   0.41176471  0.00000000  0.00000000       0.001
   0.47058824 -0.00000000  0.00000000       0.001
   0.05882353  0.05882353  0.00000000       0.002
   0.11764706  0.05882353  0.00000000       0.005
   0.17647059  0.05882353  0.00000000       0.005
   0.23529412  0.05882353  0.00000000       0.005
   0.29411765  0.05882353  0.00000000       0.005
   0.35294118  0.05882353  0.00000000       0.005
   0.41176471  0.05882353  0.00000000       0.005
   0.47058824  0.05882353  0.00000000       0.005
   0.11764706  0.11764706  0.00000000       0.002
   0.17647059  0.11764706  0.00000000       0.005
   0.23529412  0.11764706  0.00000000       0.005
   0.29411765  0.11764706  0.00000000       0.005
   0.35294118  0.11764706  0.00000000       0.005
   0.41176471  0.11764706  0.00000000       0.005
   0.47058824  0.11764706  0.00000000       0.005
   0.17647059  0.17647059  0.00000000       0.002
   0.23529412  0.17647059  0.00000000       0.005
   0.29411765  0.17647059  0.00000000       0.005
   0.35294118  0.17647059  0.00000000       0.005
   0.41176471  0.17647059  0.00000000       0.005
   0.47058824  0.17647059  0.00000000       0.005
   0.23529412  0.23529412  0.00000000       0.002
   0.29411765  0.23529412  0.00000000       0.005
   0.35294118  0.23529412  0.00000000       0.005
   0.41176471  0.23529412  0.00000000       0.005
   0.47058824  0.23529412  0.00000000       0.005
   0.29411765  0.29411765  0.00000000       0.002
   0.35294118  0.29411765  0.00000000       0.005
   0.41176471  0.29411765  0.00000000       0.005
   0.47058824  0.29411765  0.00000000       0.005
   0.35294118  0.35294118  0.00000000       0.002
   0.41176471  0.35294118  0.00000000       0.005
   0.47058824  0.35294118  0.00000000       0.005
   0.41176471  0.41176471  0.00000000       0.002
   0.47058824  0.41176471  0.00000000       0.005
   0.47058824  0.47058824  0.00000000       0.002
   0.05882353  0.05882353  0.05882353       0.002
   0.11764706  0.05882353  0.05882353       0.005
   0.17647059  0.05882353  0.05882353       0.005
   0.23529412  0.05882353  0.05882353       0.005
   0.29411765  0.05882353  0.05882353       0.005
   0.35294118  0.05882353  0.05882353       0.005
   0.41176471  0.05882353  0.05882353       0.005
   0.47058824  0.05882353  0.05882353       0.005
   0.11764706  0.11764706  0.05882353       0.005
   0.17647059  0.11764706  0.05882353       0.010
   0.23529412  0.11764706  0.05882353       0.010
   0.29411765  0.11764706  0.05882353       0.010
   0.35294118  0.11764706  0.05882353       0.010
   0.41176471  0.11764706  0.05882353       0.010
   0.47058824  0.11764706  0.05882353       0.010
   0.17647059  0.17647059  0.05882353       0.005
   0.23529412  0.17647059  0.05882353       0.010
   0.29411765  0.17647059  0.05882353       0.010
   0.35294118  0.17647059  0.05882353       0.010
   0.41176471  0.17647059  0.05882353       0.010
   0.47058824  0.17647059  0.05882353       0.010
   0.23529412  0.23529412  0.05882353       0.005
   0.29411765  0.23529412  0.05882353       0.010
   0.35294118  0.23529412  0.05882353       0.010
   0.41176471  0.23529412  0.05882353       0.010
   0.47058824  0.23529412  0.05882353       0.010
   0.29411765  0.29411765  0.05882353       0.005
   0.35294118  0.29411765  0.05882353       0.010
   0.41176471  0.29411765  0.05882353       0.010
   0.47058824  0.29411765  0.05882353       0.010
   0.35294118  0.35294118  0.05882353       0.005
   0.41176471  0.35294118  0.05882353       0.010
   0.47058824  0.35294118  0.05882353       0.010
   0.41176471  0.41176471  0.05882353       0.005
   0.47058824  0.41176471  0.05882353       0.010
   0.47058824  0.47058824  0.05882353       0.005
   0.11764706  0.11764706  0.11764706       0.002
   0.17647059  0.11764706  0.11764706       0.005
   0.23529412  0.11764706  0.11764706       0.005
   0.29411765  0.11764706  0.11764706       0.005
   0.35294118  0.11764706  0.11764706       0.005
   0.41176471  0.11764706  0.11764706       0.005
   0.47058824  0.11764706  0.11764706       0.005
   0.17647059  0.17647059  0.11764706       0.005
   0.23529412  0.17647059  0.11764706       0.010
   0.29411765  0.17647059  0.11764706       0.010
   0.35294118  0.17647059  0.11764706       0.010
   0.41176471  0.17647059  0.11764706       0.010
   0.47058824  0.17647059  0.11764706       0.010
   0.23529412  0.23529412  0.11764706       0.005
   0.29411765  0.23529412  0.11764706       0.010
   0.35294118  0.23529412  0.11764706       0.010
   0.41176471  0.23529412  0.11764706       0.010
   0.47058824  0.23529412  0.11764706       0.010
   0.29411765  0.29411765  0.11764706       0.005
   0.35294118  0.29411765  0.11764706       0.010
   0.41176471  0.29411765  0.11764706       0.010
   0.47058824  0.29411765  0.11764706       0.010
   0.35294118  0.35294118  0.11764706       0.005
   0.41176471  0.35294118  0.11764706       0.010
   0.47058824  0.35294118  0.11764706       0.010
   0.41176471  0.41176471  0.11764706       0.005
   0.47058824  0.41176471  0.11764706       0.010
   0.47058824  0.47058824  0.11764706       0.005
   0.17647059  0.17647059  0.17647059       0.002
   0.23529412  0.17647059  0.17647059       0.005
   0.29411765  0.17647059  0.17647059       0.005
   0.35294118  0.17647059  0.17647059       0.005
   0.41176471  0.17647059  0.17647059       0.005
   0.47058824  0.17647059  0.17647059       0.005
   0.23529412  0.23529412  0.17647059       0.005
   0.29411765  0.23529412  0.17647059       0.010
   0.35294118  0.23529412  0.17647059       0.010
   0.41176471  0.23529412  0.17647059       0.010
   0.47058824  0.23529412  0.17647059       0.010
   0.29411765  0.29411765  0.17647059       0.005
   0.35294118  0.29411765  0.17647059       0.010
   0.41176471  0.29411765  0.17647059       0.010
   0.47058824  0.29411765  0.17647059       0.010
   0.35294118  0.35294118  0.17647059       0.005
   0.41176471  0.35294118  0.17647059       0.010
   0.47058824  0.35294118  0.17647059       0.010
   0.41176471  0.41176471  0.17647059       0.005
   0.47058824  0.41176471  0.17647059       0.010
   0.47058824  0.47058824  0.17647059       0.005
   0.23529412  0.23529412  0.23529412       0.002
   0.29411765  0.23529412  0.23529412       0.005
   0.35294118  0.23529412  0.23529412       0.005
   0.41176471  0.23529412  0.23529412       0.005
   0.47058824  0.23529412  0.23529412       0.005
   0.29411765  0.29411765  0.23529412       0.005
   0.35294118  0.29411765  0.23529412       0.010
   0.41176471  0.29411765  0.23529412       0.010
   0.47058824  0.29411765  0.23529412       0.010
   0.35294118  0.35294118  0.23529412       0.005
   0.41176471  0.35294118  0.23529412       0.010
   0.47058824  0.35294118  0.23529412       0.010
   0.41176471  0.41176471  0.23529412       0.005
   0.47058824  0.41176471  0.23529412       0.010
   0.47058824  0.47058824  0.23529412       0.005
   0.29411765  0.29411765  0.29411765       0.002
   0.35294118  0.29411765  0.29411765       0.005
   0.41176471  0.29411765  0.29411765       0.005
   0.47058824  0.29411765  0.29411765       0.005
   0.35294118  0.35294118  0.29411765       0.005
   0.41176471  0.35294118  0.29411765       0.010
   0.47058824  0.35294118  0.29411765       0.010
   0.41176471  0.41176471  0.29411765       0.005
   0.47058824  0.41176471  0.29411765       0.010
   0.47058824  0.47058824  0.29411765       0.005
   0.35294118  0.35294118  0.35294118       0.002
   0.41176471  0.35294118  0.35294118       0.005
   0.47058824  0.35294118  0.35294118       0.005
   0.41176471  0.41176471  0.35294118       0.005
   0.47058824  0.41176471  0.35294118       0.010
   0.47058824  0.47058824  0.35294118       0.005
   0.41176471  0.41176471  0.41176471       0.002
   0.47058824  0.41176471  0.41176471       0.005
   0.47058824  0.47058824  0.41176471       0.005
   0.47058824  0.47058824  0.47058824       0.002
 
 position of ions in fractional coordinates (direct lattice) 
   0.00000000  0.00000000  0.50000000
   0.25000000  0.25000000  0.75000000
   0.00000000  0.50000000  0.00000000
   0.25000000  0.75000000  0.25000000
   0.50000000  0.00000000  0.00000000
   0.75000000  0.25000000  0.25000000
   0.50000000  0.50000000  0.50000000
   0.75000000  0.75000000  0.75000000
 
 position of ions in cartesian coordinates  (Angst):
   0.00000000  0.00000000  1.78037256
   0.89018628  0.89018628  2.67055884
   0.00000000  1.78037256  0.00000000
   0.89018628  2.67055884  0.89018628
   1.78037256  0.00000000  0.00000000
   2.67055884  0.89018628  0.89018628
   1.78037256  1.78037256  1.78037256
   2.67055884  2.67055884  2.67055884
 


--------------------------------------------------------------------------------------------------------


 k-point     1 :   0.0000 0.0000 0.0000  plane waves:    1213
 k-point     2 :   0.0588 0.0000 0.0000  plane waves:    1225
 k-point     3 :   0.1176-0.0000 0.0000  plane waves:    1225
 k-point     4 :   0.1765-0.0000 0.0000  plane waves:    1233
 k-point     5 :   0.2353-0.0000 0.0000  plane waves:    1221
 k-point     6 :   0.2941-0.0000 0.0000  plane waves:    1217
 k-point     7 :   0.3529-0.0000 0.0000  plane waves:    1209
 k-point     8 :   0.4118 0.0000 0.0000  plane waves:    1218
 k-point     9 :   0.4706-0.0000 0.0000  plane waves:    1222
 k-point    10 :   0.0588 0.0588 0.0000  plane waves:    1219
 k-point    11 :   0.1176 0.0588 0.0000  plane waves:    1227
 k-point    12 :   0.1765 0.0588 0.0000  plane waves:    1232
 k-point    13 :   0.2353 0.0588 0.0000  plane waves:    1231
 k-point    14 :   0.2941 0.0588 0.0000  plane waves:    1219
 k-point    15 :   0.3529 0.0588 0.0000  plane waves:    1212
 k-point    16 :   0.4118 0.0588 0.0000  plane waves:    1210
 k-point    17 :   0.4706 0.0588 0.0000  plane waves:    1220
 k-point    18 :   0.1176 0.1176 0.0000  plane waves:    1231
 k-point    19 :   0.1765 0.1176 0.0000  plane waves:    1238
 k-point    20 :   0.2353 0.1176 0.0000  plane waves:    1234
 k-point    21 :   0.2941 0.1176 0.0000  plane waves:    1217
 k-point    22 :   0.3529 0.1176 0.0000  plane waves:    1210
 k-point    23 :   0.4118 0.1176 0.0000  plane waves:    1210
 k-point    24 :   0.4706 0.1176 0.0000  plane waves:    1214
 k-point    25 :   0.1765 0.1765 0.0000  plane waves:    1227
 k-point    26 :   0.2353 0.1765 0.0000  plane waves:    1220
 k-point    27 :   0.2941 0.1765 0.0000  plane waves:    1219
 k-point    28 :   0.3529 0.1765 0.0000  plane waves:    1211
 k-point    29 :   0.4118 0.1765 0.0000  plane waves:    1215
 k-point    30 :   0.4706 0.1765 0.0000  plane waves:    1211
 k-point    31 :   0.2353 0.2353 0.0000  plane waves:    1219
 k-point    32 :   0.2941 0.2353 0.0000  plane waves:    1212
 k-point    33 :   0.3529 0.2353 0.0000  plane waves:    1218
 k-point    34 :   0.4118 0.2353 0.0000  plane waves:    1219
 k-point    35 :   0.4706 0.2353 0.0000  plane waves:    1217
 k-point    36 :   0.2941 0.2941 0.0000  plane waves:    1213
 k-point    37 :   0.3529 0.2941 0.0000  plane waves:    1218
 k-point    38 :   0.4118 0.2941 0.0000  plane waves:    1219
 k-point    39 :   0.4706 0.2941 0.0000  plane waves:    1218
 k-point    40 :   0.3529 0.3529 0.0000  plane waves:    1206
 k-point    41 :   0.4118 0.3529 0.0000  plane waves:    1216
 k-point    42 :   0.4706 0.3529 0.0000  plane waves:    1214
 k-point    43 :   0.4118 0.4118 0.0000  plane waves:    1216
 k-point    44 :   0.4706 0.4118 0.0000  plane waves:    1214
 k-point    45 :   0.4706 0.4706 0.0000  plane waves:    1212
 k-point    46 :   0.0588 0.0588 0.0588  plane waves:    1228
 k-point    47 :   0.1176 0.0588 0.0588  plane waves:    1230
 k-point    48 :   0.1765 0.0588 0.0588  plane waves:    1229
 k-point    49 :   0.2353 0.0588 0.0588  plane waves:    1229
 k-point    50 :   0.2941 0.0588 0.0588  plane waves:    1219
 k-point    51 :   0.3529 0.0588 0.0588  plane waves:    1210
 k-point    52 :   0.4118 0.0588 0.0588  plane waves:    1213
 k-point    53 :   0.4706 0.0588 0.0588  plane waves:    1213
 k-point    54 :   0.1176 0.1176 0.0588  plane waves:    1227
 k-point    55 :   0.1765 0.1176 0.0588  plane waves:    1235
 k-point    56 :   0.2353 0.1176 0.0588  plane waves:    1224
 k-point    57 :   0.2941 0.1176 0.0588  plane waves:    1219
 k-point    58 :   0.3529 0.1176 0.0588  plane waves:    1212
 k-point    59 :   0.4118 0.1176 0.0588  plane waves:    1212
 k-point    60 :   0.4706 0.1176 0.0588  plane waves:    1214
 k-point    61 :   0.1765 0.1765 0.0588  plane waves:    1230
 k-point    62 :   0.2353 0.1765 0.0588  plane waves:    1222
 k-point    63 :   0.2941 0.1765 0.0588  plane waves:    1220
 k-point    64 :   0.3529 0.1765 0.0588  plane waves:    1217
 k-point    65 :   0.4118 0.1765 0.0588  plane waves:    1210
 k-point    66 :   0.4706 0.1765 0.0588  plane waves:    1213
 k-point    67 :   0.2353 0.2353 0.0588  plane waves:    1219
 k-point    68 :   0.2941 0.2353 0.0588  plane waves:    1212
 k-point    69 :   0.3529 0.2353 0.0588  plane waves:    1216
 k-point    70 :   0.4118 0.2353 0.0588  plane waves:    1215
 k-point    71 :   0.4706 0.2353 0.0588  plane waves:    1215
 k-point    72 :   0.2941 0.2941 0.0588  plane waves:    1212
 k-point    73 :   0.3529 0.2941 0.0588  plane waves:    1216
 k-point    74 :   0.4118 0.2941 0.0588  plane waves:    1211
 k-point    75 :   0.4706 0.2941 0.0588  plane waves:    1216
 k-point    76 :   0.3529 0.3529 0.0588  plane waves:    1208
 k-point    77 :   0.4118 0.3529 0.0588  plane waves:    1219
 k-point    78 :   0.4706 0.3529 0.0588  plane waves:    1216
 k-point    79 :   0.4118 0.4118 0.0588  plane waves:    1214
 k-point    80 :   0.4706 0.4118 0.0588  plane waves:    1217
 k-point    81 :   0.4706 0.4706 0.0588  plane waves:    1219
 k-point    82 :   0.1176 0.1176 0.1176  plane waves:    1228
 k-point    83 :   0.1765 0.1176 0.1176  plane waves:    1233
 k-point    84 :   0.2353 0.1176 0.1176  plane waves:    1224
 k-point    85 :   0.2941 0.1176 0.1176  plane waves:    1220
 k-point    86 :   0.3529 0.1176 0.1176  plane waves:    1219
 k-point    87 :   0.4118 0.1176 0.1176  plane waves:    1212
 k-point    88 :   0.4706 0.1176 0.1176  plane waves:    1205
 k-point    89 :   0.1765 0.1765 0.1176  plane waves:    1225
 k-point    90 :   0.2353 0.1765 0.1176  plane waves:    1224
 k-point    91 :   0.2941 0.1765 0.1176  plane waves:    1217
 k-point    92 :   0.3529 0.1765 0.1176  plane waves:    1214
 k-point    93 :   0.4118 0.1765 0.1176  plane waves:    1208
 k-point    94 :   0.4706 0.1765 0.1176  plane waves:    1205
 k-point    95 :   0.2353 0.2353 0.1176  plane waves:    1218
 k-point    96 :   0.2941 0.2353 0.1176  plane waves:    1215
 k-point    97 :   0.3529 0.2353 0.1176  plane waves:    1215
 k-point    98 :   0.4118 0.2353 0.1176  plane waves:    1214
 k-point    99 :   0.4706 0.2353 0.1176  plane waves:    1209
 k-point   100 :   0.2941 0.2941 0.1176  plane waves:    1216
 k-point   101 :   0.3529 0.2941 0.1176  plane waves:    1217
 k-point   102 :   0.4118 0.2941 0.1176  plane waves:    1215
 k-point   103 :   0.4706 0.2941 0.1176  plane waves:    1213
 k-point   104 :   0.3529 0.3529 0.1176  plane waves:    1208
 k-point   105 :   0.4118 0.3529 0.1176  plane waves:    1213
 k-point   106 :   0.4706 0.3529 0.1176  plane waves:    1215
 k-point   107 :   0.4118 0.4118 0.1176  plane waves:    1220
 k-point   108 :   0.4706 0.4118 0.1176  plane waves:    1214
 k-point   109 :   0.4706 0.4706 0.1176  plane waves:    1215
 k-point   110 :   0.1765 0.1765 0.1765  plane waves:    1219
 k-point   111 :   0.2353 0.1765 0.1765  plane waves:    1224
 k-point   112 :   0.2941 0.1765 0.1765  plane waves:    1211
 k-point   113 :   0.3529 0.1765 0.1765  plane waves:    1215
 k-point   114 :   0.4118 0.1765 0.1765  plane waves:    1205
 k-point   115 :   0.4706 0.1765 0.1765  plane waves:    1211
 k-point   116 :   0.2353 0.2353 0.1765  plane waves:    1217
 k-point   117 :   0.2941 0.2353 0.1765  plane waves:    1217
 k-point   118 :   0.3529 0.2353 0.1765  plane waves:    1212
 k-point   119 :   0.4118 0.2353 0.1765  plane waves:    1216
 k-point   120 :   0.4706 0.2353 0.1765  plane waves:    1212
 k-point   121 :   0.2941 0.2941 0.1765  plane waves:    1213
 k-point   122 :   0.3529 0.2941 0.1765  plane waves:    1218
 k-point   123 :   0.4118 0.2941 0.1765  plane waves:    1214
 k-point   124 :   0.4706 0.2941 0.1765  plane waves:    1219
 k-point   125 :   0.3529 0.3529 0.1765  plane waves:    1221
 k-point   126 :   0.4118 0.3529 0.1765  plane waves:    1208
 k-point   127 :   0.4706 0.3529 0.1765  plane waves:    1210
 k-point   128 :   0.4118 0.4118 0.1765  plane waves:    1210
 k-point   129 :   0.4706 0.4118 0.1765  plane waves:    1214
 k-point   130 :   0.4706 0.4706 0.1765  plane waves:    1215
 k-point   131 :   0.2353 0.2353 0.2353  plane waves:    1220
 k-point   132 :   0.2941 0.2353 0.2353  plane waves:    1218
 k-point   133 :   0.3529 0.2353 0.2353  plane waves:    1217
 k-point   134 :   0.4118 0.2353 0.2353  plane waves:    1209
 k-point   135 :   0.4706 0.2353 0.2353  plane waves:    1208
 k-point   136 :   0.2941 0.2941 0.2353  plane waves:    1220
 k-point   137 :   0.3529 0.2941 0.2353  plane waves:    1210
 k-point   138 :   0.4118 0.2941 0.2353  plane waves:    1211
 k-point   139 :   0.4706 0.2941 0.2353  plane waves:    1212
 k-point   140 :   0.3529 0.3529 0.2353  plane waves:    1215
 k-point   141 :   0.4118 0.3529 0.2353  plane waves:    1210
 k-point   142 :   0.4706 0.3529 0.2353  plane waves:    1214
 k-point   143 :   0.4118 0.4118 0.2353  plane waves:    1214
 k-point   144 :   0.4706 0.4118 0.2353  plane waves:    1213
 k-point   145 :   0.4706 0.4706 0.2353  plane waves:    1215
 k-point   146 :   0.2941 0.2941 0.2941  plane waves:    1214
 k-point   147 :   0.3529 0.2941 0.2941  plane waves:    1215
 k-point   148 :   0.4118 0.2941 0.2941  plane waves:    1219
 k-point   149 :   0.4706 0.2941 0.2941  plane waves:    1212
 k-point   150 :   0.3529 0.3529 0.2941  plane waves:    1214
 k-point   151 :   0.4118 0.3529 0.2941  plane waves:    1209
 k-point   152 :   0.4706 0.3529 0.2941  plane waves:    1210
 k-point   153 :   0.4118 0.4118 0.2941  plane waves:    1211
 k-point   154 :   0.4706 0.4118 0.2941  plane waves:    1210
 k-point   155 :   0.4706 0.4706 0.2941  plane waves:    1213
 k-point   156 :   0.3529 0.3529 0.3529  plane waves:    1223
 k-point   157 :   0.4118 0.3529 0.3529  plane waves:    1211
 k-point   158 :   0.4706 0.3529 0.3529  plane waves:    1210
 k-point   159 :   0.4118 0.4118 0.3529  plane waves:    1210
 k-point   160 :   0.4706 0.4118 0.3529  plane waves:    1212
 k-point   161 :   0.4706 0.4706 0.3529  plane waves:    1211
 k-point   162 :   0.4118 0.4118 0.4118  plane waves:    1211
 k-point   163 :   0.4706 0.4118 0.4118  plane waves:    1213
 k-point   164 :   0.4706 0.4706 0.4118  plane waves:    1214
 k-point   165 :   0.4706 0.4706 0.4706  plane waves:    1208

 maximum and minimum number of plane-waves per node :      1238     1205

 maximum number of plane-waves:      1238
 maximum index in each direction: 
   IXMAX=    6   IYMAX=    6   IZMAX=    6
   IXMIN=   -7   IYMIN=   -7   IZMIN=   -7


 serial   3D FFT for wavefunctions
 parallel 3D FFT for charge:
    minimum data exchange during FFTs selected (reduces bandwidth)


 total amount of memory used by VASP MPI-rank0    39068. kBytes
=======================================================================

   base      :      30000. kBytes
   nonlr-proj:        561. kBytes
   fftplans  :        871. kBytes
   grid      :        643. kBytes
   one-center:         24. kBytes
   wavefun   :       6969. kBytes
 
     INWAV:  cpu time      0.0001: real time      0.0007
 Broyden mixing: mesh for mixing (old mesh)
   NGX = 13   NGY = 13   NGZ = 13
  (NGX  = 40   NGY  = 40   NGZ  = 40)
  gives a total of   2197 points

 initial charge density was supplied:
 charge density of overlapping atoms calculated
 number of electron      32.0000000 magnetization 
 keeping initial charge density in first step


--------------------------------------------------------------------------------------------------------


 Maximum index for non-local projection operator          799
 Maximum index for augmentation-charges         1679 (set IRDMAX)


--------------------------------------------------------------------------------------------------------


 First call to EWALD:  gamma=   0.498
 Maximum number of real-space cells 3x 3x 3
 Maximum number of reciprocal cells 3x 3x 3

    FEWALD:  cpu time      1.1635: real time      1.1658


--------------------------------------- Ionic step        1  -------------------------------------------




--------------------------------------- Iteration      1(   1)  ---------------------------------------


    POTLOK:  cpu time      0.0342: real time      0.1001
    SETDIJ:  cpu time      0.1604: real time      0.1769
     EDDAV:  cpu time      1.1374: real time      1.2672
       DOS:  cpu time      0.5591: real time      0.6485
    --------------------------------------------
      LOOP:  cpu time      1.8913: real time      2.1926

 eigenvalue-minimisations  :  7920
 total energy-change (2. order) : 0.6783836E+02  (-0.1791092E+04)
 number of electron      32.0000000 magnetization 
 augmentation part       32.0000000 magnetization 

 Free energy of the ion-electron system (eV)
  ---------------------------------------------------
  alpha Z        PSCENC =       116.45215153
  Ewald energy   TEWEN  =     -1394.20255368
  -Hartree energ DENC   =       -70.01144313
  -exchange      EXHF   =         0.00000000
  -V(xc)+E(xc)   XCENC  =       109.74919654
  PAW double counting   =       868.17637104     -872.73161751
  entropy T*S    EENTRO =         0.00096404
  eigenvalues    EBANDS =       133.21414547
  atomic energy  EATOM  =      1177.19114650
  Solvation  Ediel_sol  =         0.00000000
  ---------------------------------------------------
  free energy    TOTEN  =        67.83836080 eV

  energy without entropy =       67.83739676  energy(sigma->0) =       67.83803945


--------------------------------------------------------------------------------------------------------




--------------------------------------- Iteration      1(   2)  ---------------------------------------


     EDDAV:  cpu time      0.2870: real time      0.4003
       DOS:  cpu time      0.4372: real time      0.4380
    --------------------------------------------
      LOOP:  cpu time      0.7242: real time      0.8383

 eigenvalue-minimisations  : 10704
 total energy-change (2. order) :-0.1402873E+03  (-0.1365340E+03)
 number of electron      32.0000000 magnetization 
 augmentation part       32.0000000 magnetization 

 Free energy of the ion-electron system (eV)
  ---------------------------------------------------
  alpha Z        PSCENC =       116.45215153
  Ewald energy   TEWEN  =     -1394.20255368
  -Hartree energ DENC   =       -70.01144313
  -exchange      EXHF   =         0.00000000
  -V(xc)+E(xc)   XCENC  =       109.74919654
  PAW double counting   =       868.17637104     -872.73161751
  entropy T*S    EENTRO =         0.00050893
  eigenvalues    EBANDS =        -7.07266184
  atomic energy  EATOM  =      1177.19114650
  Solvation  Ediel_sol  =         0.00000000
  ---------------------------------------------------
  free energy    TOTEN  =       -72.44890163 eV

  energy without entropy =      -72.44941056  energy(sigma->0) =      -72.44907127


--------------------------------------------------------------------------------------------------------




--------------------------------------- Iteration      1(   3)  ---------------------------------------


     EDDAV:  cpu time      0.2905: real time      0.3020
       DOS:  cpu time      0.4152: real time      0.4160
    --------------------------------------------
      LOOP:  cpu time      0.7057: real time      0.7180

 eigenvalue-minimisations  : 11040
 total energy-change (2. order) :-0.2869222E+01  (-0.2866001E+01)
 number of electron      32.0000000 magnetization 
 augmentation part       32.0000000 magnetization 

 Free energy of the ion-electron system (eV)
  ---------------------------------------------------
  alpha Z        PSCENC =       116.45215153
  Ewald energy   TEWEN  =     -1394.20255368
  -Hartree energ DENC   =       -70.01144313
  -exchange      EXHF   =         0.00000000
  -V(xc)+E(xc)   XCENC  =       109.74919654
  PAW double counting   =       868.17637104     -872.73161751
  entropy T*S    EENTRO =         0.00056874
  eigenvalues    EBANDS =        -9.94194331
  atomic energy  EATOM  =      1177.19114650
  Solvation  Ediel_sol  =         0.00000000
  ---------------------------------------------------
  free energy    TOTEN  =       -75.31812328 eV

  energy without entropy =      -75.31869202  energy(sigma->0) =      -75.31831286


--------------------------------------------------------------------------------------------------------




--------------------------------------- Iteration      1(   4)  ---------------------------------------


     EDDAV:  cpu time      0.4846: real time      0.5031
       DOS:  cpu time      0.3149: real time      0.3155
    --------------------------------------------
      LOOP:  cpu time      0.7995: real time      0.8186

 eigenvalue-minimisations  : 10356
 total energy-change (2. order) :-0.1837859E-01  (-0.1837396E-01)
 number of electron      32.0000000 magnetization 
 augmentation part       32.0000000 magnetization 

 Free energy of the ion-electron system (eV)
  ---------------------------------------------------
  alpha Z        PSCENC =       116.45215153
  Ewald energy   TEWEN  =     -1394.20255368
  -Hartree energ DENC   =       -70.01144313
  -exchange      EXHF   =         0.00000000
  -V(xc)+E(xc)   XCENC  =       109.74919654
  PAW double counting   =       868.17637104     -872.73161751
  entropy T*S    EENTRO =         0.00057129
  eigenvalues    EBANDS =        -9.96032445
  atomic energy  EATOM  =      1177.19114650
  Solvation  Ediel_sol  =         0.00000000
  ---------------------------------------------------
  free energy    TOTEN  =       -75.33650187 eV

  energy without entropy =      -75.33707316  energy(sigma->0) =      -75.33669230


--------------------------------------------------------------------------------------------------------




--------------------------------------- Iteration      1(   5)  ---------------------------------------


     EDDAV:  cpu time      0.1992: real time      0.2116
       DOS:  cpu time      0.0011: real time      0.0011
    CHARGE:  cpu time      0.0363: real time      0.0475
    MIXING:  cpu time      0.0236: real time      0.0323
    --------------------------------------------
      LOOP:  cpu time      0.2602: real time      0.2926

 eigenvalue-minimisations  : 10872
 total energy-change (2. order) :-0.2492971E-03  (-0.2492584E-03)
 number of electron      31.9999999 magnetization 
 augmentation part        0.8038272 magnetization 

 Broyden mixing:
  rms(total) = 0.11183E+01    rms(broyden)= 0.11182E+01
  rms(prec ) = 0.23449E+01
  weight for this iteration     100.00

 Free energy of the ion-electron system (eV)
  ---------------------------------------------------
  alpha Z        PSCENC =       116.45215153
  Ewald energy   TEWEN  =     -1394.20255368
  -Hartree energ DENC   =       -70.01144313
  -exchange      EXHF   =         0.00000000
  -V(xc)+E(xc)   XCENC  =       109.74919654
  PAW double counting   =       868.17637104     -872.73161751
  entropy T*S    EENTRO =         0.00057129
  eigenvalues    EBANDS =        -9.96057374
  atomic energy  EATOM  =      1177.19114650
  Solvation  Ediel_sol  =         0.00000000
  ---------------------------------------------------
  free energy    TOTEN  =       -75.33675117 eV

  energy without entropy =      -75.33732246  energy(sigma->0) =      -75.33694160


--------------------------------------------------------------------------------------------------------




--------------------------------------- Iteration      1(   6)  ---------------------------------------


    POTLOK:  cpu time      0.0254: real time      0.0485
    SETDIJ:  cpu time      0.0938: real time      0.0943
    EDDIAG:  cpu time      0.0834: real time      0.0969
  RMM-DIIS:  cpu time      0.1017: real time      0.1082
    ORTHCH:  cpu time      0.0066: real time      0.0066
       DOS:  cpu time      0.0027: real time      0.0027
    CHARGE:  cpu time      0.0136: real time      0.0136
    MIXING:  cpu time      0.0024: real time      0.0070
    --------------------------------------------
      LOOP:  cpu time      0.3296: real time      0.3779

 eigenvalue-minimisations  :  7920
 total energy-change (2. order) : 0.1955024E+01  (-0.1211527E+00)
 number of electron      31.9999999 magnetization 
 augmentation part        0.7932454 magnetization 

 Broyden mixing:
  rms(total) = 0.66390E+00    rms(broyden)= 0.66390E+00
  rms(prec ) = 0.13027E+01
  weight for this iteration     100.00

 eigenvalues of (default mixing * dielectric matrix)
  average eigenvalue GAMMA=   2.3588
  2.3588

 Free energy of the ion-electron system (eV)
  ---------------------------------------------------
  alpha Z        PSCENC =       116.45215153
  Ewald energy   TEWEN  =     -1394.20255368
  -Hartree energ DENC   =       -85.33754975
  -exchange      EXHF   =         0.00000000
  -V(xc)+E(xc)   XCENC  =       111.12025020
  PAW double counting   =      1516.19931831    -1521.23876091
  entropy T*S    EENTRO =         0.00055406
  eigenvalues    EBANDS =         6.43371702
  atomic energy  EATOM  =      1177.19114650
  Solvation  Ediel_sol  =         0.00000000
  ---------------------------------------------------
  free energy    TOTEN  =       -73.38172672 eV

  energy without entropy =      -73.38228079  energy(sigma->0) =      -73.38191141


--------------------------------------------------------------------------------------------------------




--------------------------------------- Iteration      1(   7)  ---------------------------------------


    POTLOK:  cpu time      0.0134: real time      0.0257
    SETDIJ:  cpu time      0.0837: real time      0.0839
    EDDIAG:  cpu time      0.0436: real time      0.0437
  RMM-DIIS:  cpu time      0.0394: real time      0.0394
    ORTHCH:  cpu time      0.0061: real time      0.0061
       DOS:  cpu time      0.0015: real time      0.0015
    CHARGE:  cpu time      0.0084: real time      0.0085
    MIXING:  cpu time      0.0011: real time      0.0017
    --------------------------------------------
      LOOP:  cpu time      0.1973: real time      0.2105

 eigenvalue-minimisations  :  7920
 total energy-change (2. order) : 0.6554674E+00  (-0.1927129E+00)
 number of electron      31.9999999 magnetization 
 augmentation part        0.7727528 magnetization 

 Broyden mixing:
  rms(total) = 0.14442E+00    rms(broyden)= 0.14440E+00
  rms(prec ) = 0.17614E+00
  weight for this iteration     100.00

 eigenvalues of (default mixing * dielectric matrix)
  average eigenvalue GAMMA=   2.5936
  2.3095  2.8776

 Free energy of the ion-electron system (eV)
  ---------------------------------------------------
  alpha Z        PSCENC =       116.45215153
  Ewald energy   TEWEN  =     -1394.20255368
  -Hartree energ DENC   =      -105.80541770
  -exchange      EXHF   =         0.00000000
  -V(xc)+E(xc)   XCENC  =       112.99259020
  PAW double counting   =      2741.87102661    -2747.42201077
  entropy T*S    EENTRO =         0.00053409
  eigenvalues    EBANDS =        26.19627391
  atomic energy  EATOM  =      1177.19114650
  Solvation  Ediel_sol  =         0.00000000
  ---------------------------------------------------
  free energy    TOTEN  =       -72.72625930 eV

  energy without entropy =      -72.72679339  energy(sigma->0) =      -72.72643733


--------------------------------------------------------------------------------------------------------




--------------------------------------- Iteration      1(   8)  ---------------------------------------


    POTLOK:  cpu time      0.0097: real time      0.0286
    SETDIJ:  cpu time      0.0032: real time      0.0032
    EDDIAG:  cpu time      0.0395: real time      0.0395
  RMM-DIIS:  cpu time      0.0395: real time      0.0396
    ORTHCH:  cpu time      0.0061: real time      0.0061
       DOS:  cpu time      0.0012: real time      0.0012
    CHARGE:  cpu time      0.0097: real time      0.0098
    MIXING:  cpu time      0.0009: real time      0.0015
    --------------------------------------------
      LOOP:  cpu time      0.1098: real time      0.1295

 eigenvalue-minimisations  :  7927
 total energy-change (2. order) :-0.1449588E-01  (-0.1094046E-01)
 number of electron      31.9999999 magnetization 
 augmentation part        0.7674943 magnetization 

 Broyden mixing:
  rms(total) = 0.24425E-01    rms(broyden)= 0.24403E-01
  rms(prec ) = 0.43100E-01
  weight for this iteration     100.00

 eigenvalues of (default mixing * dielectric matrix)
  average eigenvalue GAMMA=   2.0375
  2.5796  1.7664  1.7664

 Free energy of the ion-electron system (eV)
  ---------------------------------------------------
  alpha Z        PSCENC =       116.45215153
  Ewald energy   TEWEN  =     -1394.20255368
  -Hartree energ DENC   =      -104.83323648
  -exchange      EXHF   =         0.00000000
  -V(xc)+E(xc)   XCENC  =       112.92987142
  PAW double counting   =      3109.39671453    -3114.76485516
  entropy T*S    EENTRO =         0.00053477
  eigenvalues    EBANDS =        25.08947138
  atomic energy  EATOM  =      1177.19114650
  Solvation  Ediel_sol  =         0.00000000
  ---------------------------------------------------
  free energy    TOTEN  =       -72.74075519 eV

[...]
      8      -0.8345      2.00000
      9       4.7678      2.00000
     10       5.4082      2.00000
     11       5.4082      2.00000
     12       6.1547      2.00000
     13       6.2664      2.00000
     14       6.2664      2.00000
     15       6.5042      2.00000
     16       7.2862      2.00000
     17      17.2676      0.00000
     18      17.5421      0.00000
     19      17.5421      0.00000
     20      17.9706      0.00000
     21      18.2212      0.00000
     22      18.5957      0.00000
     23      18.8506      0.00000
     24      18.8508      0.00000

 k-point   154 :       0.4706    0.4118    0.2941
  band No.  band energies     occupation 
      1      -7.5153      2.00000
      2      -7.0348      2.00000
      3      -6.1645      2.00000
      4      -5.8247      2.00000
      5      -3.0027      2.00000
      6      -2.6716      2.00000
      7      -1.8278      2.00000
      8      -1.3628      2.00000
      9       5.0158      2.00000
     10       5.2313      2.00000
     11       5.8340      2.00000
     12       6.1892      2.00000
     13       6.3177      2.00000
     14       6.3538      2.00000
     15       6.7075      2.00000
     16       7.0713      2.00000
     17      17.5858      0.00000
     18      17.7503      0.00000
     19      17.8948      0.00000
     20      17.9280      0.00000
     21      18.3251      0.00000
     22      18.5238      0.00000
     23      18.5400      0.00000
     24      18.9791      0.00000

 k-point   155 :       0.4706    0.4706    0.2941
  band No.  band energies     occupation 
      1      -7.0946      2.00000
      2      -6.6381      2.00000
      3      -6.6381      2.00000
      4      -6.2229      2.00000
      5      -2.7243      2.00000
      6      -2.3206      2.00000
      7      -2.3206      2.00000
      8      -1.8780      2.00000
      9       5.3208      2.00000
     10       5.5926      2.00000
     11       5.5926      2.00000
     12       5.9081      2.00000
     13       6.5910      2.00000
     14       6.7265      2.00000
     15       6.7265      2.00000
     16       6.9792      2.00000
     17      17.7263      0.00000
     18      17.9608      0.00000
     19      17.9608      0.00000
     20      18.0700      0.00000
     21      18.3429      0.00000
     22      18.4692      0.00000
     23      18.4695      0.00000
     24      18.8976      0.00000

 k-point   156 :       0.3529    0.3529    0.3529
  band No.  band energies     occupation 
      1      -8.3963      2.00000
      2      -6.0459      2.00000
      3      -6.0459      2.00000
      4      -6.0459      2.00000
      5      -2.5726      2.00000
      6      -2.5726      2.00000
      7      -2.5726      2.00000
      8      -0.2984      2.00000
      9       5.0943      2.00000
     10       5.0943      2.00000
     11       5.0943      2.00000
     12       5.9243      2.00000
     13       5.9243      2.00000
     14       5.9243      2.00000
     15       7.2461      2.00000
     16       7.2461      2.00000
     17      16.9849      0.00000
     18      16.9849      0.00000
     19      16.9849      0.00000
     20      17.9735      0.00000
     21      17.9735      0.00000
     22      18.2355      0.00000
     23      19.9044      0.00000
     24      19.9049      0.00000

 k-point   157 :       0.4118    0.3529    0.3529
  band No.  band energies     occupation 
      1      -8.0112      2.00000
      2      -6.5773      2.00000
      3      -5.8217      2.00000
      4      -5.8217      2.00000
      5      -3.0091      2.00000
      6      -3.0091      2.00000
      7      -2.2742      2.00000
      8      -0.8851      2.00000
      9       5.2472      2.00000
     10       5.2472      2.00000
     11       5.8358      2.00000
     12       6.0914      2.00000
     13       6.0914      2.00000
     14       6.1683      2.00000
     15       6.9805      2.00000
     16       7.1945      2.00000
     17      17.2204      0.00000
     18      17.3155      0.00000
     19      17.3155      0.00000
     20      17.8357      0.00000
     21      18.2371      0.00000
     22      18.3740      0.00000
     23      19.3006      0.00000
     24      19.3180      0.00000

 k-point   158 :       0.4706    0.3529    0.3529
  band No.  band energies     occupation 
      1      -7.5749      2.00000
      2      -7.0935      2.00000
      3      -5.6743      2.00000
      4      -5.6743      2.00000
      5      -3.2634      2.00000
      6      -3.2634      2.00000
      7      -1.8824      2.00000
      8      -1.4157      2.00000
      9       5.3197      2.00000
     10       5.3197      2.00000
     11       6.1806      2.00000
     12       6.1806      2.00000
     13       6.4316      2.00000
     14       6.4591      2.00000
     15       6.7055      2.00000
     16       6.9243      2.00000
     17      17.4510      0.00000
     18      17.6605      0.00000
     19      17.7432      0.00000
     20      17.7432      0.00000
     21      18.5685      0.00000
     22      18.6754      0.00000
     23      18.6757      0.00000
     24      18.6815      0.00000

 k-point   159 :       0.4118    0.4118    0.3529
  band No.  band energies     occupation 
      1      -7.6350      2.00000
      2      -6.2783      2.00000
      3      -6.2783      2.00000
      4      -5.7302      2.00000
      5      -3.3208      2.00000
      6      -2.7848      2.00000
      7      -2.7848      2.00000
      8      -1.4665      2.00000
      9       5.5157      2.00000
     10       5.8834      2.00000
     11       5.8834      2.00000
     12       6.3141      2.00000
     13       6.3550      2.00000
     14       6.3550      2.00000
     15       6.8578      2.00000
     16       7.1576      2.00000
     17      17.4623      0.00000
     18      17.5299      0.00000
     19      17.5299      0.00000
     20      17.9839      0.00000
     21      18.1639      0.00000
     22      18.4030      0.00000
     23      18.8931      0.00000
     24      18.8942      0.00000

 k-point   160 :       0.4706    0.4118    0.3529
  band No.  band energies     occupation 
      1      -7.2127      2.00000
      2      -6.7542      2.00000
      3      -5.9937      2.00000
      4      -5.7872      2.00000
      5      -3.3764      2.00000
      6      -3.1741      2.00000
      7      -2.4319      2.00000
      8      -1.9860      2.00000
      9       5.6990      2.00000
     10       5.8213      2.00000
     11       6.3249      2.00000
     12       6.4526      2.00000
     13       6.4679      2.00000
     14       6.6213      2.00000
     15       6.6902      2.00000
     16       6.9998      2.00000
     17      17.7332      0.00000
     18      17.7468      0.00000
     19      17.8904      0.00000
     20      17.9048      0.00000
     21      18.3196      0.00000
     22      18.4432      0.00000
     23      18.5635      0.00000
     24      18.6435      0.00000

 k-point   161 :       0.4706    0.4706    0.3529
  band No.  band energies     occupation 
      1      -6.8133      2.00000
      2      -6.3949      2.00000
      3      -6.3949      2.00000
      4      -6.0511      2.00000
      5      -3.2297      2.00000
      6      -2.8933      2.00000
      7      -2.8933      2.00000
      8      -2.4852      2.00000
      9       5.9660      2.00000
     10       6.1675      2.00000
     11       6.1675      2.00000
     12       6.4220      2.00000
     13       6.6727      2.00000
     14       6.7641      2.00000
     15       6.7641      2.00000
     16       6.9633      2.00000
     17      17.8630      0.00000
     18      18.0102      0.00000
     19      18.0102      0.00000
     20      18.1216      0.00000
     21      18.1867      0.00000
     22      18.3157      0.00000
     23      18.3159      0.00000
     24      18.5934      0.00000

 k-point   162 :       0.4118    0.4118    0.4118
  band No.  band energies     occupation 
      1      -7.2721      2.00000
      2      -6.0501      2.00000
      3      -6.0501      2.00000
      4      -6.0501      2.00000
      5      -3.2317      2.00000
      6      -3.2317      2.00000
      7      -3.2317      2.00000
      8      -2.0394      2.00000
      9       6.1532      2.00000
     10       6.1532      2.00000
     11       6.1532      2.00000
     12       6.4867      2.00000
     13       6.4867      2.00000
     14       6.4867      2.00000
     15       7.0077      2.00000
     16       7.0077      2.00000
     17      17.6566      0.00000
     18      17.6566      0.00000
     19      17.6566      0.00000
     20      18.0700      0.00000
     21      18.0702      0.00000
     22      18.3698      0.00000
     23      18.8014      0.00000
     24      18.8019      0.00000

 k-point   163 :       0.4706    0.4118    0.4118
  band No.  band energies     occupation 
      1      -6.8718      2.00000
      2      -6.4524      2.00000
      3      -5.8995      2.00000
      4      -5.8995      2.00000
      5      -3.4922      2.00000
      6      -3.4922      2.00000
      7      -2.9502      2.00000
      8      -2.5406      2.00000
      9       6.2419      2.00000
     10       6.2419      2.00000
     11       6.6071      2.00000
     12       6.6071      2.00000
     13       6.6389      2.00000
     14       6.6651      2.00000
     15       6.8413      2.00000
     16       6.9330      2.00000
     17      17.8317      0.00000
     18      17.8970      0.00000
     19      17.8970      0.00000
     20      17.9696      0.00000
     21      18.2373      0.00000
     22      18.4337      0.00000
     23      18.4714      0.00000
     24      18.4821      0.00000

 k-point   164 :       0.4706    0.4706    0.4118
  band No.  band energies     occupation 
      1      -6.5106      2.00000
      2      -6.1647      2.00000
      3      -6.1647      2.00000
      4      -5.9560      2.00000
      5      -3.5500      2.00000
      6      -3.3449      2.00000
      7      -3.3449      2.00000
      8      -3.0059      2.00000
      9       6.4686      2.00000
     10       6.5831      2.00000
     11       6.5831      2.00000
     12       6.7530      2.00000
     13       6.7603      2.00000
     14       6.7938      2.00000
     15       6.7938      2.00000
     16       6.9331      2.00000
     17      17.9802      0.00000
     18      18.0187      0.00000
     19      18.0187      0.00000
     20      18.1001      0.00000
     21      18.1274      0.00000
     22      18.2552      0.00000
     23      18.2566      0.00000
     24      18.3491      0.00000

 k-point   165 :       0.4706    0.4706    0.4706
  band No.  band energies     occupation 
      1      -6.2218      2.00000
      2      -6.0124      2.00000
      3      -6.0124      2.00000
      4      -6.0124      2.00000
      5      -3.6084      2.00000
      6      -3.6084      2.00000
      7      -3.6084      2.00000
      8      -3.4024      2.00000
      9       6.7864      2.00000
     10       6.7864      2.00000
     11       6.7864      2.00000
     12       6.8261      2.00000
     13       6.8261      2.00000
     14       6.8261      2.00000
     15       6.8871      2.00000
     16       6.8871      2.00000
     17      18.0570      0.00000
     18      18.0571      0.00000
     19      18.0574      0.00000
     20      18.0961      0.00000
     21      18.0963      0.00000
     22      18.1798      0.00000
     23      18.1800      0.00000
     24      18.1806      0.00000


--------------------------------------------------------------------------------------------------------


 soft charge-density along one line, spin component           1
         0         1         2         3         4         5         6         7         8         9
 total charge-density along one line
 
 pseudopotential strength for first ion, spin component:           1
  9.437  12.532   0.000  -0.000   0.000  -0.000   0.000  -0.000
 12.532  16.641   0.000  -0.000   0.000  -0.000   0.000  -0.000
  0.000   0.000  -3.665  -0.000   0.000   7.179   0.000  -0.000
 -0.000  -0.000  -0.000  -3.665  -0.000   0.000   7.179   0.000
  0.000   0.000   0.000  -0.000  -3.665  -0.000   0.000   7.179
 -0.000  -0.000   7.179   0.000  -0.000 -16.158  -0.000   0.000
  0.000   0.000   0.000   7.179   0.000  -0.000 -16.158  -0.000
 -0.000  -0.000  -0.000   0.000   7.179   0.000  -0.000 -16.158
 total augmentation occupancy for first ion, spin component:           1
  7.402  -3.262   0.000   0.000  -0.000   0.000  -0.000  -0.000
 -3.262   1.522   0.000   0.000   0.000  -0.000   0.000   0.000
 -0.000   0.000   1.560   0.000   0.000   0.128   0.000   0.000
  0.000   0.000   0.000   1.560   0.000   0.000   0.128   0.000
 -0.000  -0.000   0.000   0.000   1.560   0.000   0.000   0.128
  0.000   0.000   0.128   0.000   0.000   0.012   0.000   0.000
 -0.000  -0.000   0.000   0.128   0.000   0.000   0.012   0.000
  0.000  -0.000   0.000   0.000   0.128   0.000   0.000   0.012


------------------------ aborting loop because EDIFF is reached ----------------------------------------


    CHARGE:  cpu time      0.0130: real time      0.0132
    FORLOC:  cpu time      0.0005: real time      0.0005
    FORNL :  cpu time      0.0513: real time      0.0521
    STRESS:  cpu time      0.1487: real time      0.1507
    FORCOR:  cpu time      0.0038: real time      0.0038
    FORHAR:  cpu time      0.0009: real time      0.0009
    MIXING:  cpu time      0.0005: real time      0.0005
    OFIELD:  cpu time      0.0000: real time      0.0000

  FORCE on cell =-STRESS in cart. coord.  units (eV):
  Direction    XX          YY          ZZ          XY          YZ          ZX
  --------------------------------------------------------------------------------------
  Alpha Z   115.29965   115.29965   115.29965
  Ewald    -463.19677  -463.19677  -463.19677    -0.00000    -0.00000    -0.00000
  Hartree    35.29839    35.29839    35.29839    -0.00000    -0.00000    -0.00000
  E(xc)    -121.61818  -121.61818  -121.61818    -0.00000    -0.00000    -0.00000
  Local     -44.35605   -44.35605   -44.35605     0.00000     0.00000    -0.00000
  n-local   -28.43118   -29.21064   -28.60252     0.69266     0.83052     0.41284
  augment    -2.88035    -2.88035    -2.88035    -0.00000     0.00000     0.00000
  Kinetic   498.99260   515.13051   516.47826    -4.90177    -6.64160    -3.46595
  Fock        0.00000     0.00000     0.00000     0.00000     0.00000     0.00000
  -------------------------------------------------------------------------------------
  Total      -0.00096    -0.00096    -0.00096    -0.00000    -0.00000     0.00000
  in kB      -0.03384    -0.03384    -0.03384    -0.00000    -0.00000     0.00000
  external pressure =       -0.03 kB  Pullay stress =        0.00 kB


 VOLUME and BASIS-vectors are now :
 -----------------------------------------------------------------------------
  energy-cutoff  :      520.00
  volume of cell :       45.60
      direct lattice vectors                 reciprocal lattice vectors
     3.572569838  0.000000000  0.000000000     0.279910553 -0.000000000  0.000000000
     0.000000000  3.572569838  0.000000000    -0.000000000  0.279910553 -0.000000000
    -0.000000000  0.000000000  3.572569838    -0.000000000 -0.000000000  0.279910553

  length of vectors
     3.572569838  3.572569838  3.572569838     0.279910553  0.279910553  0.279910553


 FORCES acting on ions
    electron-ion (+dipol)            ewald-force                    non-local-force                 convergence-correction
 -----------------------------------------------------------------------------------------------
   0.550E-13 -.469E-15 -.639E-14   0.000E+00 0.711E-14 0.497E-13   -.442E-16 -.119E-16 -.465E-16   -.501E-14 -.583E-14 -.231E-13
   -.389E-13 -.168E-12 0.601E-13   -.307E-13 -.138E-13 -.426E-13   0.523E-16 -.328E-17 0.256E-16   0.238E-13 0.353E-14 0.185E-13
   0.550E-13 0.142E-13 -.223E-13   0.142E-13 0.711E-14 0.568E-13   -.372E-16 -.370E-17 -.401E-16   -.322E-14 -.451E-14 0.145E-13
   -.388E-13 -.151E-12 0.457E-13   -.131E-13 -.142E-13 -.360E-13   0.192E-16 0.125E-16 0.479E-16   0.245E-13 0.437E-14 -.377E-13
   0.708E-13 -.909E-15 -.431E-12   0.142E-13 0.142E-13 0.355E-13   -.425E-16 0.579E-17 -.296E-16   0.133E-13 -.616E-14 0.141E-13
   -.231E-13 0.570E-12 0.568E-13   -.212E-13 -.596E-14 -.573E-13   0.408E-16 0.138E-16 0.355E-16   -.127E-13 0.330E-14 -.366E-13
   0.628E-13 0.370E-12 -.600E-14   0.355E-13 0.142E-13 0.426E-13   -.355E-16 -.176E-16 -.466E-16   0.131E-13 -.545E-14 -.253E-13
   -.231E-13 0.200E-12 -.316E-12   -.525E-16 -.704E-14 -.498E-13   0.243E-16 -.813E-17 0.404E-16   -.117E-13 0.659E-14 0.182E-13
 -----------------------------------------------------------------------------------------------
   0.120E-12 0.834E-12 -.619E-12   -.111E-14 0.161E-14 -.898E-15   -.228E-16 -.126E-16 -.135E-16   0.420E-13 -.415E-14 -.573E-13
 
 
 POSITION                                       TOTAL-FORCE (eV/Angst)
 -----------------------------------------------------------------------------------
     -0.00000      0.00000      1.78628        -0.000000      0.000000      0.000000
      0.89314      0.89314      2.67943         0.000000     -0.000000      0.000000
      0.00000      1.78628      0.00000         0.000000      0.000000      0.000000
      0.89314      2.67943      0.89314        -0.000000      0.000000     -0.000000
      1.78628      0.00000      0.00000        -0.000000      0.000000     -0.000000
      2.67943      0.89314      0.89314         0.000000     -0.000000      0.000000
      1.78628      1.78628      1.78628         0.000000     -0.000000      0.000000
      2.67943      2.67943      2.67943        -0.000000     -0.000000     -0.000000
 -----------------------------------------------------------------------------------
    total drift:                                0.000000      0.000000     -0.000000


--------------------------------------------------------------------------------------------------------



  FREE ENERGIE OF THE ION-ELECTRON SYSTEM (eV)
  ---------------------------------------------------
  free  energy   TOTEN  =       -72.74788513 eV

  energy  without entropy=      -72.74842460  energy(sigma->0) =      -72.74806495
 
 d Force =-0.4747896E-61[-0.605E-61,-0.344E-61]  d Energy = 0.7481362E-02-0.748E-02
 d Force =-0.1224528E-44[-0.219E-44,-0.264E-45]  d Ewald  = 0.5219979E+01-0.522E+01


--------------------------------------------------------------------------------------------------------


    POTLOK:  cpu time      0.0064: real time      0.0065


--------------------------------------------------------------------------------------------------------




--------------------------------------------------------------------------------------------------------


  
 reached required accuracy - stopping structural energy minimisation
     LOOP+:  cpu time      1.5604: real time      1.7053
    4ORBIT:  cpu time      0.0000: real time      0.0000

 total amount of memory used by VASP MPI-rank0    39068. kBytes
=======================================================================

   base      :      30000. kBytes
   nonlr-proj:        561. kBytes
   fftplans  :        871. kBytes
   grid      :        643. kBytes
   one-center:         24. kBytes
   wavefun   :       6969. kBytes
 
  
  
 General timing and accounting informations for this job:
 ========================================================
  
                  Total CPU time used (sec):       27.940
                            User time (sec):       15.371
                          System time (sec):       12.569
                         Elapsed time (sec):       31.543
  
                   Maximum memory used (kb):       82844.
                   Average memory used (kb):          N/A
  
                          Minor page faults:        26733
                          Major page faults:            0
                 Voluntary context switches:         7280
