<?xml version="1.0" encoding="ISO-8859-1"?>
<modeling>
 <generator>
  <i name="program" type="string">vasp </i>
  <i name="version" type="string">6.4.3  </i>
  <i name="subversion" type="string">19Mar24 (build Oct 21 2024 22:36:34) complex                          parallel </i>
  <i name="platform" type="string">LinuxIFC </i>
  <i name="date" type="string">2024 12 26 </i>
  <i name="time" type="string">00:32:25 </i>
 </generator>
 <incar>
  <i type="string" name="SYSTEM">C8</i>
  <i type="int" name="ISTART">     0</i>
  <i type="string" name="PREC">Normal</i>
  <i type="string" name="ALGO">Fast</i>
  <i type="logical" name="ADDGRID"> T  </i>
  <i type="int" name="ICHARG">     2</i>
  <i type="int" name="NELM">    60</i>
  <i type="int" name="NELMIN">     8</i>
  <i type="int" name="IBRION">     2</i>
  <i name="EDIFF">      0.00000100</i>
  <i name="EDIFFG">     -0.01000000</i>
  <i type="int" name="NSW">    60</i>
  <i type="int" name="ISIF">     3</i>
  <i name="ENCUT">    520.00000000</i>
  <i type="string" name="LREAL">Auto</i>
  <i type="int" name="ISMEAR">     1</i>
  <i name="SIGMA">      0.20000000</i>
  <i name="PSTRESS">      0.00000000</i>
  <i type="logical" name="LWAVE"> F  </i>
  <i type="logical" name="LCHARG"> F  </i>
 </incar>
 <primitive_cell>
  <structure name="primitive_cell" >
   <crystal>
    <varray name="basis" >
     <v>       1.78037256      -1.78037256       0.00000000 </v>
     <v>       1.78037256       0.00000000       1.78037256 </v>
     <v>       0.00000000      -1.78037256       1.78037256 </v>
    </varray>
    <i name="volume">     11.28658800 </i>
    <varray name="rec_basis" >
     <v>       0.28084010      -0.28084010      -0.28084010 </v>
     <v>       0.28084010       0.28084010       0.28084010 </v>
     <v>      -0.28084010      -0.28084010       0.28084010 </v>
    </varray>
   </crystal>
   <varray name="positions" >
    <v>       0.50000000       0.50000000       0.50000000 </v>
    <v>       0.25000000       0.25000000       0.25000000 </v>
   </varray>
  </structure>
  <varray name="primitive_index" >
   <v type="int" >        1 </v>
   <v type="int" >        2 </v>
  </varray>
 </primitive_cell>
 <kpoints>
  <generation param="Gamma">
   <v type="int" name="divisions">      17       17       17 </v>
   <v name="usershift">      0.00000000       0.00000000       0.00000000 </v>
   <v name="genvec1">      0.05882353      -0.00000000       0.00000000 </v>
   <v name="genvec2">      0.00000000       0.05882353       0.00000000 </v>
   <v name="genvec3">      0.00000000       0.00000000       0.05882353 </v>
   <v name="shift">      0.00000000       0.00000000       0.00000000 </v>
  </generation>
  <varray name="kpointlist" >
   <v>       0.00000000       0.00000000       0.00000000 </v>
   <v>       0.05882353       0.00000000       0.00000000 </v>
   <v>       0.11764706      -0.00000000       0.00000000 </v>
   <v>       0.17647059      -0.00000000       0.00000000 </v>
   <v>       0.23529412      -0.00000000       0.00000000 </v>
   <v>       0.29411765      -0.00000000       0.00000000 </v>
   <v>       0.35294118      -0.00000000       0.00000000 </v>
   <v>       0.41176471       0.00000000       0.00000000 </v>
   <v>       0.47058824      -0.00000000       0.00000000 </v>
   <v>       0.05882353       0.05882353       0.00000000 </v>
   <v>       0.11764706       0.05882353       0.00000000 </v>
   <v>       0.17647059       0.05882353       0.00000000 </v>
   <v>       0.23529412       0.05882353       0.00000000 </v>
   <v>       0.29411765       0.05882353       0.00000000 </v>
   <v>       0.35294118       0.05882353       0.00000000 </v>
   <v>       0.41176471       0.05882353       0.00000000 </v>
   <v>       0.47058824       0.05882353       0.00000000 </v>
   <v>       0.11764706       0.11764706       0.00000000 </v>
   <v>       0.17647059       0.11764706       0.00000000 </v>
   <v>       0.23529412       0.11764706       0.00000000 </v>
   <v>       0.29411765       0.11764706       0.00000000 </v>
   <v>       0.35294118       0.11764706       0.00000000 </v>
   <v>       0.41176471       0.11764706       0.00000000 </v>
   <v>       0.47058824       0.11764706       0.00000000 </v>
   <v>       0.17647059       0.17647059       0.00000000 </v>
   <v>       0.23529412       0.17647059       0.00000000 </v>
   <v>       0.29411765       0.17647059       0.00000000 </v>
   <v>       0.35294118       0.17647059       0.00000000 </v>
   <v>       0.41176471       0.17647059       0.00000000 </v>
   <v>       0.47058824       0.17647059       0.00000000 </v>
   <v>       0.23529412       0.23529412       0.00000000 </v>
   <v>       0.29411765       0.23529412       0.00000000 </v>
   <v>       0.35294118       0.23529412       0.00000000 </v>
   <v>       0.41176471       0.23529412       0.00000000 </v>
   <v>       0.47058824       0.23529412       0.00000000 </v>
   <v>       0.29411765       0.29411765       0.00000000 </v>
   <v>       0.35294118       0.29411765       0.00000000 </v>
   <v>       0.41176471       0.29411765       0.00000000 </v>
   <v>       0.47058824       0.29411765       0.00000000 </v>
   <v>       0.35294118       0.35294118       0.00000000 </v>
   <v>       0.41176471       0.35294118       0.00000000 </v>
   <v>       0.47058824       0.35294118       0.00000000 </v>
   <v>       0.41176471       0.41176471       0.00000000 </v>
   <v>       0.47058824       0.41176471       0.00000000 </v>
   <v>       0.47058824       0.47058824       0.00000000 </v>
   <v>       0.05882353       0.05882353       0.05882353 </v>
   <v>       0.11764706       0.05882353       0.05882353 </v>
   <v>       0.17647059       0.05882353       0.05882353 </v>
   <v>       0.23529412       0.05882353       0.05882353 </v>
   <v>       0.29411765       0.05882353       0.05882353 </v>
   <v>       0.35294118       0.05882353       0.05882353 </v>
   <v>       0.41176471       0.05882353       0.05882353 </v>
   <v>       0.47058824       0.05882353       0.05882353 </v>
   <v>       0.11764706       0.11764706       0.05882353 </v>
   <v>       0.17647059       0.11764706       0.05882353 </v>
   <v>       0.23529412       0.11764706       0.05882353 </v>
   <v>       0.29411765       0.11764706       0.05882353 </v>
   <v>       0.35294118       0.11764706       0.05882353 </v>
   <v>       0.41176471       0.11764706       0.05882353 </v>
   <v>       0.47058824       0.11764706       0.05882353 </v>
   <v>       0.17647059       0.17647059       0.05882353 </v>
   <v>       0.23529412       0.17647059       0.05882353 </v>
   <v>       0.29411765       0.17647059       0.05882353 </v>
   <v>       0.35294118       0.17647059       0.05882353 </v>
   <v>       0.41176471       0.17647059       0.05882353 </v>
   <v>       0.47058824       0.17647059       0.05882353 </v>
   <v>       0.23529412       0.23529412       0.05882353 </v>
   <v>       0.29411765       0.23529412       0.05882353 </v>
   <v>       0.35294118       0.23529412       0.05882353 </v>
   <v>       0.41176471       0.23529412       0.05882353 </v>
   <v>       0.47058824       0.23529412       0.05882353 </v>
   <v>       0.29411765       0.29411765       0.05882353 </v>
   <v>       0.35294118       0.29411765       0.05882353 </v>
   <v>       0.41176471       0.29411765       0.05882353 </v>
   <v>       0.47058824       0.29411765       0.05882353 </v>
   <v>       0.35294118       0.35294118       0.05882353 </v>
   <v>       0.41176471       0.35294118       0.05882353 </v>
   <v>       0.47058824       0.35294118       0.05882353 </v>
   <v>       0.41176471       0.41176471       0.05882353 </v>
   <v>       0.47058824       0.41176471       0.05882353 </v>
   <v>       0.47058824       0.47058824       0.05882353 </v>
   <v>       0.11764706       0.11764706       0.11764706 </v>
   <v>       0.17647059       0.11764706       0.11764706 </v>
   <v>       0.23529412       0.11764706       0.11764706 </v>
   <v>       0.29411765       0.11764706       0.11764706 </v>
   <v>       0.35294118       0.11764706       0.11764706 </v>
   <v>       0.41176471       0.11764706       0.11764706 </v>
   <v>       0.47058824       0.11764706       0.11764706 </v>
   <v>       0.17647059       0.17647059       0.11764706 </v>
   <v>       0.23529412       0.17647059       0.11764706 </v>
   <v>       0.29411765       0.17647059       0.11764706 </v>
   <v>       0.35294118       0.17647059       0.11764706 </v>
   <v>       0.41176471       0.17647059       0.11764706 </v>
   <v>       0.47058824       0.17647059       0.11764706 </v>
   <v>       0.23529412       0.23529412       0.11764706 </v>
   <v>       0.29411765       0.23529412       0.11764706 </v>
   <v>       0.35294118       0.23529412       0.11764706 </v>
   <v>       0.41176471       0.23529412       0.11764706 </v>
   <v>       0.47058824       0.23529412       0.11764706 </v>
   <v>       0.29411765       0.29411765       0.11764706 </v>
   <v>       0.35294118       0.29411765       0.11764706 </v>
   <v>       0.41176471       0.29411765       0.11764706 </v>
   <v>       0.47058824       0.29411765       0.11764706 </v>
   <v>       0.35294118       0.35294118       0.11764706 </v>
   <v>       0.41176471       0.35294118       0.11764706 </v>
   <v>       0.47058824       0.35294118       0.11764706 </v>
   <v>       0.41176471       0.41176471       0.11764706 </v>
   <v>       0.47058824       0.41176471       0.11764706 </v>
   <v>       0.47058824       0.47058824       0.11764706 </v>
   <v>       0.17647059       0.17647059       0.17647059 </v>
   <v>       0.23529412       0.17647059       0.17647059 </v>
   <v>       0.29411765       0.17647059       0.17647059 </v>
   <v>       0.35294118       0.17647059       0.17647059 </v>
   <v>       0.41176471       0.17647059       0.17647059 </v>
   <v>       0.47058824       0.17647059       0.17647059 </v>
   <v>       0.23529412       0.23529412       0.17647059 </v>
   <v>       0.29411765       0.23529412       0.17647059 </v>
   <v>       0.35294118       0.23529412       0.17647059 </v>
   <v>       0.41176471       0.23529412       0.17647059 </v>
   <v>       0.47058824       0.23529412       0.17647059 </v>
   <v>       0.29411765       0.29411765       0.17647059 </v>
   <v>       0.35294118       0.29411765       0.17647059 </v>
   <v>       0.41176471       0.29411765       0.17647059 </v>
   <v>       0.47058824       0.29411765       0.17647059 </v>
   <v>       0.35294118       0.35294118       0.17647059 </v>
   <v>       0.41176471       0.35294118       0.17647059 </v>
   <v>       0.47058824       0.35294118       0.17647059 </v>
   <v>       0.41176471       0.41176471       0.17647059 </v>
   <v>       0.47058824       0.41176471       0.17647059 </v>
   <v>       0.47058824       0.47058824       0.17647059 </v>
   <v>       0.23529412       0.23529412       0.23529412 </v>
   <v>       0.29411765       0.23529412       0.23529412 </v>
   <v>       0.35294118       0.23529412       0.23529412 </v>
   <v>       0.41176471       0.23529412       0.23529412 </v>
   <v>       0.47058824       0.23529412       0.23529412 </v>
   <v>       0.29411765       0.29411765       0.23529412 </v>
   <v>       0.35294118       0.29411765       0.23529412 </v>
   <v>       0.41176471       0.29411765       0.23529412 </v>
   <v>       0.47058824       0.29411765       0.23529412 </v>
   <v>       0.35294118       0.35294118       0.23529412 </v>
   <v>       0.41176471       0.35294118       0.23529412 </v>
   <v>       0.47058824       0.35294118       0.23529412 </v>
   <v>       0.41176471       0.41176471       0.23529412 </v>
   <v>       0.47058824       0.41176471       0.23529412 </v>
   <v>       0.47058824       0.47058824       0.23529412 </v>
   <v>       0.29411765       0.29411765       0.29411765 </v>
   <v>       0.35294118       0.29411765       0.29411765 </v>
   <v>       0.41176471       0.29411765       0.29411765 </v>
   <v>       0.47058824       0.29411765       0.29411765 </v>
   <v>       0.35294118       0.35294118       0.29411765 </v>
   <v>       0.41176471       0.35294118       0.29411765 </v>
   <v>       0.47058824       0.35294118       0.29411765 </v>
   <v>       0.41176471       0.41176471       0.29411765 </v>
   <v>       0.47058824       0.41176471       0.29411765 </v>
   <v>       0.47058824       0.47058824       0.29411765 </v>
   <v>       0.35294118       0.35294118       0.35294118 </v>
   <v>       0.41176471       0.35294118       0.35294118 </v>
   <v>       0.47058824       0.35294118       0.35294118 </v>
   <v>       0.41176471       0.41176471       0.35294118 </v>
   <v>       0.47058824       0.41176471       0.35294118 </v>
   <v>       0.47058824       0.47058824       0.35294118 </v>
   <v>       0.41176471       0.41176471       0.41176471 </v>
   <v>       0.47058824       0.41176471       0.41176471 </v>
   <v>       0.47058824       0.47058824       0.41176471 </v>
   <v>       0.47058824       0.47058824       0.47058824 </v>
  </varray>
  <varray name="weights" >
   <v>       0.00020354 </v>
   <v>       0.00122125 </v>
   <v>       0.00122125 </v>
   <v>       0.00122125 </v>
   <v>       0.00122125 </v>
   <v>       0.00122125 </v>
   <v>       0.00122125 </v>
   <v>       0.00122125 </v>
   <v>       0.00122125 </v>
   <v>       0.00244250 </v>
   <v>       0.00488500 </v>
   <v>       0.00488500 </v>
   <v>       0.00488500 </v>
   <v>       0.00488500 </v>
   <v>       0.00488500 </v>
   <v>       0.00488500 </v>
   <v>       0.00488500 </v>
   <v>       0.00244250 </v>
   <v>       0.00488500 </v>
   <v>       0.00488500 </v>
   <v>       0.00488500 </v>
   <v>       0.00488500 </v>
   <v>       0.00488500 </v>
   <v>       0.00488500 </v>
   <v>       0.00244250 </v>
   <v>       0.00488500 </v>
   <v>       0.00488500 </v>
   <v>       0.00488500 </v>
   <v>       0.00488500 </v>
   <v>       0.00488500 </v>
   <v>       0.00244250 </v>
   <v>       0.00488500 </v>
   <v>       0.00488500 </v>
   <v>       0.00488500 </v>
   <v>       0.00488500 </v>
   <v>       0.00244250 </v>
   <v>       0.00488500 </v>
   <v>       0.00488500 </v>
   <v>       0.00488500 </v>
   <v>       0.00244250 </v>
   <v>       0.00488500 </v>
   <v>       0.00488500 </v>
   <v>       0.00244250 </v>
   <v>       0.00488500 </v>
   <v>       0.00244250 </v>
   <v>       0.00162833 </v>
   <v>       0.00488500 </v>
   <v>       0.00488500 </v>
   <v>       0.00488500 </v>
   <v>       0.00488500 </v>
   <v>       0.00488500 </v>
   <v>       0.00488500 </v>
   <v>       0.00488500 </v>
   <v>       0.00488500 </v>
   <v>       0.00977000 </v>
   <v>       0.00977000 </v>
   <v>       0.00977000 </v>
   <v>       0.00977000 </v>
   <v>       0.00977000 </v>
   <v>       0.00977000 </v>
   <v>       0.00488500 </v>
   <v>       0.00977000 </v>
   <v>       0.00977000 </v>
   <v>       0.00977000 </v>
   <v>       0.00977000 </v>
   <v>       0.00977000 </v>
   <v>       0.00488500 </v>
   <v>       0.00977000 </v>
   <v>       0.00977000 </v>
   <v>       0.00977000 </v>
   <v>       0.00977000 </v>
   <v>       0.00488500 </v>
   <v>       0.00977000 </v>
   <v>       0.00977000 </v>
   <v>       0.00977000 </v>
   <v>       0.00488500 </v>
   <v>       0.00977000 </v>
   <v>       0.00977000 </v>
   <v>       0.00488500 </v>
   <v>       0.00977000 </v>
   <v>       0.00488500 </v>
   <v>       0.00162833 </v>
   <v>       0.00488500 </v>
   <v>       0.00488500 </v>
   <v>       0.00488500 </v>
   <v>       0.00488500 </v>
   <v>       0.00488500 </v>
   <v>       0.00488500 </v>
   <v>       0.00488500 </v>
   <v>       0.00977000 </v>
   <v>       0.00977000 </v>
   <v>       0.00977000 </v>
   <v>       0.00977000 </v>
   <v>       0.00977000 </v>
   <v>       0.00488500 </v>
   <v>       0.00977000 </v>
   <v>       0.00977000 </v>
   <v>       0.00977000 </v>
   <v>       0.00977000 </v>
   <v>       0.00488500 </v>
   <v>       0.00977000 </v>
   <v>       0.00977000 </v>
   <v>       0.00977000 </v>
   <v>       0.00488500 </v>
   <v>       0.00977000 </v>
   <v>       0.00977000 </v>
   <v>       0.00488500 </v>
   <v>       0.00977000 </v>
   <v>       0.00488500 </v>
   <v>       0.00162833 </v>
   <v>       0.00488500 </v>
   <v>       0.00488500 </v>
   <v>       0.00488500 </v>
   <v>       0.00488500 </v>
   <v>       0.00488500 </v>
   <v>       0.00488500 </v>
   <v>       0.00977000 </v>
   <v>       0.00977000 </v>
   <v>       0.00977000 </v>
   <v>       0.00977000 </v>
   <v>       0.00488500 </v>
   <v>       0.00977000 </v>
   <v>       0.00977000 </v>
   <v>       0.00977000 </v>
   <v>       0.00488500 </v>
   <v>       0.00977000 </v>
   <v>       0.00977000 </v>
   <v>       0.00488500 </v>
   <v>       0.00977000 </v>
   <v>       0.00488500 </v>
   <v>       0.00162833 </v>
   <v>       0.00488500 </v>
   <v>       0.00488500 </v>
   <v>       0.00488500 </v>
   <v>       0.00488500 </v>
   <v>       0.00488500 </v>
   <v>       0.00977000 </v>
   <v>       0.00977000 </v>
   <v>       0.00977000 </v>
   <v>       0.00488500 </v>
   <v>       0.00977000 </v>
   <v>       0.00977000 </v>
   <v>       0.00488500 </v>
   <v>       0.00977000 </v>
   <v>       0.00488500 </v>
   <v>       0.00162833 </v>
   <v>       0.00488500 </v>
   <v>       0.00488500 </v>
   <v>       0.00488500 </v>
   <v>       0.00488500 </v>
   <v>       0.00977000 </v>
   <v>       0.00977000 </v>
   <v>       0.00488500 </v>
   <v>       0.00977000 </v>
   <v>       0.00488500 </v>
   <v>       0.00162833 </v>
   <v>       0.00488500 </v>
   <v>       0.00488500 </v>
   <v>       0.00488500 </v>
   <v>       0.00977000 </v>
   <v>       0.00488500 </v>
   <v>       0.00162833 </v>
   <v>       0.00488500 </v>
   <v>       0.00488500 </v>
   <v>       0.00162833 </v>
  </varray>
 </kpoints>
 <parameters>
  <separator name="general" >
   <i type="string" name="SYSTEM">C8</i>
   <i type="logical" name="LCOMPAT"> F  </i>
  </separator>
  <separator name="electronic" >
   <i type="string" name="PREC">normal</i>
   <i name="ENMAX">    520.00000000</i>
   <i name="ENAUG">    644.87300000</i>
   <i name="EDIFF">      0.00000100</i>
   <i type="int" name="IALGO">    68</i>
   <i type="int" name="IWAVPR">    11</i>
   <i type="int" name="NBANDS">    24</i>
   <i type="int" name="NBANDSLOW">    -1</i>
   <i type="int" name="NBANDSHIGH">    -1</i>
   <i name="NELECT">     32.00000000</i>
   <i type="int" name="TURBO">     0</i>
   <i type="int" name="IRESTART">     0</i>
   <i type="int" name="NREBOOT">     0</i>
   <i type="int" name="NMIN">     0</i>
   <i name="EREF">      0.00000000</i>
   <separator name="electronic smearing" >
    <i type="int" name="ISMEAR">     1</i>
    <i name="SIGMA">      0.20000000</i>
    <i name="KSPACING">      0.50000000</i>
    <i type="logical" name="KGAMMA"> T  </i>
    <i type="logical" name="KBLOWUP"> T  </i>
   </separator>
   <separator name="electronic projectors" >
    <i type="logical" name="LREAL"> T  </i>
    <v name="ROPT">     -0.00050000</v>
    <i type="int" name="LMAXPAW">  -100</i>
    <i type="int" name="LMAXMIX">     2</i>
    <i type="logical" name="NLSPLINE"> F  </i>
   </separator>
   <separator name="electronic startup" >
    <i type="int" name="ISTART">     0</i>
    <i type="int" name="ICHARG">     2</i>
    <i type="int" name="INIWAV">     1</i>
   </separator>
   <separator name="electronic spin" >
    <i type="int" name="ISPIN">     1</i>
    <i type="logical" name="LNONCOLLINEAR"> F  </i>
    <v name="MAGMOM">      1.00000000      1.00000000      1.00000000      1.00000000      1.00000000      1.00000000      1.00000000      1.00000000</v>
    <i name="NUPDOWN">     -1.00000000</i>
    <i type="logical" name="LSORBIT"> F  </i>
    <v name="SAXIS">      0.00000000      0.00000000      1.00000000</v>
    <i type="logical" name="LSPIRAL"> F  </i>
    <v name="QSPIRAL">      0.00000000      0.00000000      0.00000000</v>
    <i type="logical" name="LZEROZ"> F  </i>
   </separator>
   <separator name="electronic exchange-correlation" >
    <i type="logical" name="LASPH"> F  </i>
   </separator>
   <separator name="electronic convergence" >
    <i type="int" name="NELM">    60</i>
    <i type="int" name="NELMDL">    -5</i>
    <i type="int" name="NELMIN">     8</i>
    <i name="ENINI">    520.00000000</i>
    <separator name="electronic convergence detail" >
     <i type="logical" name="LDIAG"> T  </i>
     <i type="logical" name="LSUBROT"> F  </i>
     <i name="WEIMIN">      0.00100000</i>
     <i name="EBREAK">      0.00000001</i>
     <i name="DEPER">      0.30000000</i>
     <i type="int" name="NRMM">     4</i>
     <i name="TIME">      0.40000000</i>
    </separator>
   </separator>
   <separator name="electronic mixer" >
    <i name="AMIX">      0.40000000</i>
    <i name="BMIX">      1.00000000</i>
    <i name="AMIN">      0.10000000</i>
    <i name="AMIX_MAG">      1.60000000</i>
    <i name="BMIX_MAG">      1.00000000</i>
    <separator name="electronic mixer details" >
     <i type="int" name="IMIX">     4</i>
     <i type="logical" name="MIXFIRST"> F  </i>
     <i type="int" name="MAXMIX">   -45</i>
     <i name="WC">    100.00000000</i>
     <i type="int" name="INIMIX">     1</i>
     <i type="int" name="MIXPRE">     1</i>
     <i type="int" name="MREMOVE">     5</i>
    </separator>
   </separator>
   <separator name="electronic dipolcorrection" >
    <i type="logical" name="LDIPOL"> F  </i>
    <i type="logical" name="LMONO"> F  </i>
    <i type="int" name="IDIPOL">     0</i>
    <i name="EPSILON">      1.00000000</i>
    <v name="DIPOL">   -100.00000000   -100.00000000   -100.00000000</v>
    <i name="EFIELD">      0.00000000</i>
    <i type="logical" name="LVACPOTAV"> F  </i>
   </separator>
  </separator>
  <separator name="grids" >
   <i type="int" name="NGX">    20</i>
   <i type="int" name="NGY">    20</i>
   <i type="int" name="NGZ">    20</i>
   <i type="int" name="NGXF">    40</i>
   <i type="int" name="NGYF">    40</i>
   <i type="int" name="NGZF">    40</i>
   <i type="logical" name="ADDGRID"> T  </i>
  </separator>
  <separator name="ionic" >
   <i type="int" name="NSW">    60</i>
   <i type="int" name="IBRION">     2</i>
   <i type="int" name="MDALGO">     0</i>
   <i type="int" name="ISIF">     3</i>
   <i name="PSTRESS">      0.00000000</i>
   <i name="EDIFFG">     -0.01000000</i>
   <i type="int" name="NFREE">     1</i>
   <i name="POTIM">      0.50000000</i>
   <i name="SMASS">     -3.00000000</i>
   <i name="SCALEE">      1.00000000</i>
  </separator>
  <separator name="ionic md" >
   <i name="TEBEG">      0.00010000</i>
   <i name="TEEND">      0.00010000</i>
   <i type="int" name="NBLOCK">     1</i>
   <i type="int" name="KBLOCK">    60</i>
   <i type="int" name="NPACO">   256</i>
   <i name="APACO">     10.00000000</i>
  </separator>
  <separator name="symmetry" >
   <i type="int" name="ISYM">     2</i>
   <i name="SYMPREC">      0.00001000</i>
  </separator>
  <separator name="dos" >
   <i type="int" name="LORBIT">     0</i>
   <v name="RWIGS">     -1.00000000</v>
   <i type="int" name="NEDOS">   301</i>
   <i name="EMIN">     10.00000000</i>
   <i name="EMAX">    -10.00000000</i>
   <i name="EFERMI">      0.00000000</i>
  </separator>
  <separator name="writing" >
   <i type="int" name="NWRITE">     2</i>
   <i type="logical" name="LWAVE"> F  </i>
   <i type="logical" name="LDOWNSAMPLE"> F  </i>
   <i type="logical" name="LCHARG"> F  </i>
   <i type="logical" name="LPARD"> F  </i>
   <i type="logical" name="LVTOT"> F  </i>
   <i type="logical" name="LVHAR"> F  </i>
   <i type="logical" name="LELF"> F  </i>
   <i type="logical" name="LOPTICS"> F  </i>
   <v name="STM">      0.00000000      0.00000000      0.00000000      0.00000000      0.00000000      0.00000000      0.00000000</v>
  </separator>
  <separator name="performance" >
   <i type="int" name="NPAR">    12</i>
   <i type="int" name="NSIM">     4</i>
   <i type="int" name="NBLK">    -1</i>
   <i type="logical" name="LPLANE"> T  </i>
   <i type="logical" name="LSCALAPACK"> T  </i>
   <i type="logical" name="LSCAAWARE"> F  </i>
   <i type="logical" name="LSCALU"> F  </i>
   <i type="logical" name="LASYNC"> F  </i>
   <i type="logical" name="LORBITALREAL"> F  </i>
  </separator>
  <separator name="miscellaneous" >
   <i type="int" name="IDIOT">     3</i>
   <i type="int" name="PHON_NSTRUCT">    -1</i>
   <i type="logical" name="LMUSIC"> F  </i>
   <v name="POMASS">     12.01100000</v>
   <v name="DARWINR">      0.00000000</v>
   <v name="DARWINV">      1.00000000</v>
   <i type="logical" name="LCORR"> T  </i>
  </separator>
  <i type="logical" name="GGA_COMPAT"> T  </i>
  <i type="logical" name="LBERRY"> F  </i>
  <i type="int" name="ICORELEVEL">     0</i>
  <i type="logical" name="LDAU"> F  </i>
  <i type="int" name="I_CONSTRAINED_M">     0</i>
  <separator name="electronic exchange-correlation" >
   <i type="string" name="GGA    ">PE</i>
   <i type="string" name="XC_C">1</i>
   <i type="int" name="VOSKOWN">     0</i>
   <i type="logical" name="LHFCALC"> F  </i>
   <i type="string" name="PRECFOCK"></i>
   <i type="logical" name="LSYMGRAD"> F  </i>
   <i type="logical" name="LHFONE"> F  </i>
   <i type="logical" name="LRHFCALC"> F  </i>
   <i type="logical" name="LTHOMAS"> F  </i>
   <i type="logical" name="LMODELHF"> F  </i>
   <i type="logical" name="LFOCKACE"> F  </i>
   <i name="ENCUT4O">     -1.00000000</i>
   <i type="int" name="EXXOEP">     0</i>
   <i type="int" name="FOURORBIT">     0</i>
   <i name="AEXX">      0.00000000</i>
   <i name="HFALPHA">      0.00000000</i>
   <i name="MCALPHA">      0.00000000</i>
   <i name="ALDAX">      1.00000000</i>
   <i name="AGGAX">      1.00000000</i>
   <i name="AMGGAX">      1.00000000</i>
   <i name="ALDAC">      1.00000000</i>
   <i name="AGGAC">      1.00000000</i>
   <i name="AMGGAC">      1.00000000</i>
   <i type="int" name="NKREDX">     1</i>
   <i type="int" name="NKREDY">     1</i>
   <i type="int" name="NKREDZ">     1</i>
   <i type="logical" name="SHIFTRED"> F  </i>
   <i type="logical" name="ODDONLY"> F  </i>
   <i type="logical" name="EVENONLY"> F  </i>
   <i type="int" name="LMAXFOCK">     0</i>
   <i type="int" name="NMAXFOCKAE">     0</i>
   <i type="logical" name="LFOCKAEDFT"> F  </i>
   <i name="HFSCREEN">      0.00000000</i>
   <i name="HFSCREENC">      0.00000000</i>
   <i type="int" name="NBANDSGWLOW">     0</i>
  </separator>
  <separator name="vdW DFT" >
   <i type="logical" name="LUSE_VDW"> F  </i>
   <i type="int" name="IVDW_NL">    -1</i>
   <i type="logical" name="LSPIN_VDW"> F  </i>
   <i name="ZAB_VDW">     -0.84910000</i>
   <i name="GAMMA_VDW">      1.39626340</i>
   <i name="ALPHA_VDW">      0.00000000</i>
   <i name="PARAM1">      0.12340000</i>
   <i name="PARAM2">      1.00000000</i>
   <i name="BPARAM">      6.30000000</i>
   <i name="CPARAM">      0.00930000</i>
  </separator>
  <separator name="model GW" >
   <i type="int" name="MODEL_GW">     0</i>
   <i name="MODEL_EPS0">      3.38597640</i>
   <i name="MODEL_ALPHA">      1.00000000</i>
  </separator>
  <separator name="linear response parameters" >
   <i type="logical" name="LEPSILON"> F  </i>
   <i type="logical" name="LRPA"> F  </i>
   <i type="logical" name="LNABLA"> F  </i>
   <i type="logical" name="LVEL"> F  </i>
   <i name="CSHIFT">      0.10000000</i>
   <i name="OMEGAMAX">     -1.00000000</i>
   <i name="DEG_THRESHOLD">      0.00200000</i>
   <i name="RTIME">     -0.10000000</i>
   <i name="WPLASMAI">      0.00000000</i>
   <v name="DFIELD">      0.00000000      0.00000000      0.00000000</v>
   <v name="WPLASMA">      0.00000000      0.00000000      0.00000000      0.00000000      0.00000000      0.00000000      0.00000000      0.00000000      0.00000000</v>
  </separator>
  <separator name="orbital magnetization" >
   <i type="logical" name="NUCIND"> F  </i>
   <v name="MAGPOS">      0.00000000      0.00000000      0.00000000</v>
   <i type="logical" name="LNICSALL"> T  </i>
   <i type="logical" name="ORBITALMAG"> F  </i>
   <i type="logical" name="LMAGBLOCH"> F  </i>
   <i type="logical" name="LCHIMAG"> F  </i>
   <i type="logical" name="LGAUGE"> T  </i>
   <i type="int" name="MAGATOM">     0</i>
   <v name="MAGDIPOL">      0.00000000      0.00000000      0.00000000</v>
   <v name="AVECCONST">      0.00000000      0.00000000      0.00000000</v>
  </separator>
  <separator name="response functions" >
   <i type="logical" name="LALL_IN_ONE"> F  </i>
   <i type="int" name="IALL_IN_ONE">    -1</i>
   <i type="int" name="NBANDS_WAVE">    -1</i>
   <i type="logical" name="LFINITE_TEMPERATURE"> F  </i>
   <i type="logical" name="LADDER"> F  </i>
   <i type="logical" name="LRPAFORCE"> F  </i>
   <i type="logical" name="LFXC"> F  </i>
   <i type="logical" name="LHARTREE"> T  </i>
   <i type="int" name="IBSE">     0</i>
   <v type="int" name="KPOINT">    -1     0     0     0</v>
   <i type="logical" name="LTCTC"> F  </i>
   <i type="logical" name="LTCTE"> F  </i>
   <i type="logical" name="LTETE"> F  </i>
   <i type="logical" name="LTRIPLET"> F  </i>
   <i type="logical" name="LFXCEPS"> F  </i>
   <i type="logical" name="LFXHEG"> F  </i>
   <i type="int" name="NATURALO">     2</i>
   <i type="logical" name="LHOLEGF"> F  </i>
   <i type="logical" name="L2ORDER"> F  </i>
   <i type="logical" name="LDMP1"> F  </i>
   <i type="logical" name="LMP2LT"> F  </i>
   <i type="logical" name="LSMP2LT"> F  </i>
   <i type="logical" name="LGWLF"> F  </i>
   <i name="ENCUTGW">     -1.60000002</i>
   <i name="ENCUTGWSOFT">     -1.60000002</i>
   <i name="ENCUTLF">     -1.00000000</i>
   <i type="logical" name="ESF_SPLINES"> F  </i>
   <i name="ESF_CONV">      0.01000000</i>
   <i type="int" name="ESF_NINTER">    15</i>
   <i type="int" name="LMAXMP2">    -1</i>
   <i name="SCISSOR">      0.00000000</i>
   <i type="int" name="NOMEGA">     0</i>
   <i type="int" name="NOMEGAR">     0</i>
   <i type="int" name="NBANDSGW">    -1</i>
   <i type="int" name="NBANDSO">    -1</i>
   <i type="int" name="NBANDSV">    -1</i>
   <i type="int" name="NELMGW">     1</i>
   <i type="int" name="NELMHF">     1</i>
   <i type="int" name="DIM">     3</i>
   <i type="int" name="IESPILON">     4</i>
   <i type="int" name="ANTIRES">     0</i>
   <i name="OMEGAMAX">    -30.00000000</i>
   <i name="OMEGAMIN">    -30.00000000</i>
   <i name="OMEGATL">   -200.00000000</i>
   <i type="int" name="OMEGAGRID">     0</i>
   <i name="CSHIFT">     -0.10000000</i>
   <i type="logical" name="LSELFENERGY"> F  </i>
   <i type="logical" name="LSPECTRAL"> F  </i>
   <i type="logical" name="LSPECTRALGW"> F  </i>
   <i type="logical" name="LSINGLES"> F  </i>
   <i type="logical" name="LFERMIGW"> F  </i>
   <i type="logical" name="ODDONLYGW"> F  </i>
   <i type="logical" name="EVENONLYGW"> F  </i>
   <i type="int" name="NKREDLFX">     1</i>
   <i type="int" name="NKREDLFY">     1</i>
   <i type="int" name="NKREDLFZ">     1</i>
   <i type="int" name="MAXMEM">  2800</i>
   <i type="int" name="TELESCOPE">     0</i>
   <i type="int" name="NTAUPAR">    -1</i>
   <i type="int" name="NOMEGAPAR">    -1</i>
   <i name="DAMP_NEWTON">      0.80000001</i>
   <i name="LAMBDA">      1.00000000</i>
  </separator>
  <separator name="External order field" >
   <i name="OFIELD_KAPPA">      0.00000000</i>
   <v name="OFIELD_K">      0.00000000      0.00000000      0.00000000</v>
   <i name="OFIELD_Q6_NEAR">      0.00000000</i>
   <i name="OFIELD_Q6_FAR">      0.00000000</i>
   <i name="OFIELD_A">      0.00000000</i>
  </separator>
  <separator name="optional k-points parameters" >
   <i type="int" name="KPOINTS_OPT_MODE">     1</i>
   <i type="logical" name="LKPOINTS_OPT"> F  </i>
  </separator>
 </parameters>
 <atominfo>
  <atoms>       8 </atoms>
  <types>       1 </types>
  <array name="atoms" >
   <dimension dim="1">ion</dimension>
   <field type="string">element</field>
   <field type="int">atomtype</field>
   <set>
    <rc><c>C </c><c>   1</c></rc>
    <rc><c>C </c><c>   1</c></rc>
    <rc><c>C </c><c>   1</c></rc>
    <rc><c>C </c><c>   1</c></rc>
    <rc><c>C </c><c>   1</c></rc>
    <rc><c>C </c><c>   1</c></rc>
    <rc><c>C </c><c>   1</c></rc>
    <rc><c>C </c><c>   1</c></rc>
   </set>
  </array>
  <array name="atomtypes" >
   <dimension dim="1">type</dimension>
   <field type="int">atomspertype</field>
   <field type="string">element</field>
   <field>mass</field>
   <field>valence</field>
   <field type="string">pseudopotential</field>
   <set>
    <rc><c>   8</c><c>C </c><c>     12.01100000</c><c>      4.00000000</c><c>  PAW_PBE C 08Apr2002                   </c></rc>
   </set>
  </array>
 </atominfo>
 <structure name="initialpos" >
  <crystal>
   <varray name="basis" >
    <v>       3.56074512       0.00000000       0.00000000 </v>
    <v>       0.00000000       3.56074512       0.00000000 </v>
    <v>       0.00000000       0.00000000       3.56074512 </v>
   </varray>
   <i name="volume">     45.14635200 </i>
   <varray name="rec_basis" >
    <v>       0.28084010      -0.00000000       0.00000000 </v>
    <v>       0.00000000       0.28084010       0.00000000 </v>
    <v>      -0.00000000      -0.00000000       0.28084010 </v>
   </varray>
  </crystal>
  <varray name="positions" >
   <v>       0.00000000       0.00000000       0.50000000 </v>
   <v>       0.25000000       0.25000000       0.75000000 </v>
   <v>       0.00000000       0.50000000       0.00000000 </v>
   <v>       0.25000000       0.75000000       0.25000000 </v>
   <v>       0.50000000       0.00000000       0.00000000 </v>
   <v>       0.75000000       0.25000000       0.25000000 </v>
   <v>       0.50000000       0.50000000       0.50000000 </v>
   <v>       0.75000000       0.75000000       0.75000000 </v>
  </varray>
 </structure>
 <calculation>
  <scstep>
   <time name="dav">    1.14    1.27</time>
   <time name="total">    1.89    2.19</time>
   <energy>
    <i name="alphaZ">    116.45215153 </i>
    <i name="ewald">  -1394.20255368 </i>
    <i name="hartreedc">    -70.01144313 </i>
    <i name="XCdc">    109.74919654 </i>
    <i name="pawpsdc">    868.17637104 </i>
    <i name="pawaedc">   -872.73161751 </i>
    <i name="eentropy">      0.00096404 </i>
    <i name="bandstr">    133.21414547 </i>
    <i name="atom">   1177.19114650 </i>
    <i name="e_fr_energy">     67.83836080 </i>
    <i name="e_wo_entrp">     67.83739676 </i>
    <i name="e_0_energy">     67.83803945 </i>
   </energy>
  </scstep>
  <scstep>
   <time name="dav">    0.29    0.40</time>
   <time name="total">    0.72    0.84</time>
   <energy>
    <i name="e_fr_energy">    -72.44890163 </i>
    <i name="e_wo_entrp">    -72.44941056 </i>
    <i name="e_0_energy">    -72.44907127 </i>
   </energy>
  </scstep>
  <scstep>
   <time name="dav">    0.29    0.30</time>
   <time name="total">    0.71    0.72</time>
   <energy>
    <i name="e_fr_energy">    -75.31812328 </i>
    <i name="e_wo_entrp">    -75.31869202 </i>
    <i name="e_0_energy">    -75.31831286 </i>
   </energy>
  </scstep>
  <scstep>
   <time name="dav">    0.48    0.50</time>
   <time name="total">    0.80    0.82</time>
   <energy>
    <i name="e_fr_energy">    -75.33650187 </i>
    <i name="e_wo_entrp">    -75.33707316 </i>
    <i name="e_0_energy">    -75.33669230 </i>
   </energy>
  </scstep>
  <scstep>
   <time name="dav">    0.20    0.21</time>
   <time name="total">    0.26    0.29</time>
   <energy>
    <i name="e_fr_energy">    -75.33675117 </i>
    <i name="e_wo_entrp">    -75.33732246 </i>
    <i name="e_0_energy">    -75.33694160 </i>
   </energy>
  </scstep>
  <scstep>
   <time name="diag">    0.08    0.10</time>
   <time name="diis">    0.10    0.11</time>
   <time name="orth">    0.01    0.01</time>
   <time name="total">    0.33    0.38</time>
   <energy>
    <i name="e_fr_energy">    -73.38172672 </i>
    <i name="e_wo_entrp">    -73.38228079 </i>
    <i name="e_0_energy">    -73.38191141 </i>
   </energy>
  </scstep>
  <scstep>
   <time name="diag">    0.04    0.04</time>
   <time name="diis">    0.04    0.04</time>
   <time name="orth">    0.01    0.01</time>
   <time name="total">    0.20    0.21</time>
   <energy>
    <i name="e_fr_energy">    -72.72625930 </i>
    <i name="e_wo_entrp">    -72.72679339 </i>
    <i name="e_0_energy">    -72.72643733 </i>
   </energy>
  </scstep>
  <scstep>
   <time name="diag">    0.04    0.04</time>
   <time name="diis">    0.04    0.04</time>
   <time name="orth">    0.01    0.01</time>
   <time name="total">    0.11    0.13</time>
   <energy>
    <i name="e_fr_energy">    -72.74075519 </i>
    <i name="e_wo_entrp">    -72.74128996 </i>
    <i name="e_0_energy">    -72.74093345 </i>
   </energy>
  </scstep>
  <scstep>
   <time name="diag">    0.04    0.04</time>
   <time name="diis">    0.04    0.04</time>
   <time name="orth">    0.01    0.01</time>
   <time name="total">    0.11    0.12</time>
   <energy>
    <i name="e_fr_energy">    -72.74183032 </i>
    <i name="e_wo_entrp">    -72.74236453 </i>
    <i name="e_0_energy">    -72.74200839 </i>
   </energy>
  </scstep>
  <scstep>
   <time name="diag">    0.04    0.04</time>
   <time name="diis">    0.04    0.04</time>
   <time name="orth">    0.01    0.01</time>
   <time name="total">    0.11    0.13</time>
   <energy>
    <i name="e_fr_energy">    -72.74197735 </i>
    <i name="e_wo_entrp">    -72.74251186 </i>
    <i name="e_0_energy">    -72.74215552 </i>
   </energy>
  </scstep>
  <scstep>
   <time name="diag">    0.04    0.04</time>
   <time name="diis">    0.04    0.04</time>
   <time name="orth">    0.01    0.01</time>
   <time name="total">    0.11    0.13</time>
   <energy>
    <i name="e_fr_energy">    -72.74203977 </i>
    <i name="e_wo_entrp">    -72.74257419 </i>
    <i name="e_0_energy">    -72.74221791 </i>
   </energy>
  </scstep>
  <scstep>
   <time name="diag">    0.14    0.14</time>
   <time name="diis">    0.04    0.04</time>
   <time name="orth">    0.01    0.01</time>
   <time name="total">    0.29    0.33</time>
   <energy>
    <i name="e_fr_energy">    -72.74205042 </i>
    <i name="e_wo_entrp">    -72.74258484 </i>
    <i name="e_0_energy">    -72.74222856 </i>
   </energy>
  </scstep>
  <scstep>
   <time name="diag">    1.76    1.77</time>
   <time name="diis">    0.04    0.04</time>
   <time name="orth">    0.01    0.01</time>
   <time name="total">    2.68    2.69</time>
   <energy>
    <i name="e_fr_energy">    -72.74205532 </i>
    <i name="e_wo_entrp">    -72.74258974 </i>
    <i name="e_0_energy">    -72.74223346 </i>
   </energy>
  </scstep>
  <scstep>
   <time name="diag">    0.04    0.04</time>
   <time name="diis">    0.03    0.03</time>
   <time name="orth">    0.01    0.01</time>
   <time name="total">    0.09    0.11</time>
   <energy>
    <i name="alphaZ">    116.45215153 </i>
    <i name="ewald">  -1394.20255368 </i>
    <i name="hartreedc">   -105.33493573 </i>
    <i name="XCdc">    112.97653343 </i>
    <i name="pawpsdc">   3086.42364930 </i>
    <i name="pawaedc">  -3091.79308553 </i>
    <i name="eentropy">      0.00053443 </i>
    <i name="bandstr">     25.54450488 </i>
    <i name="atom">   1177.19114650 </i>
    <i name="e_fr_energy">    -72.74205487 </i>
    <i name="e_wo_entrp">    -72.74258930 </i>
    <i name="e_0_energy">    -72.74223302 </i>
   </energy>
  </scstep>
  <structure>
   <crystal>
    <varray name="basis" >
     <v>       3.56074512       0.00000000       0.00000000 </v>
     <v>       0.00000000       3.56074512       0.00000000 </v>
     <v>       0.00000000       0.00000000       3.56074512 </v>
    </varray>
    <i name="volume">     45.14635200 </i>
    <varray name="rec_basis" >
     <v>       0.28084010      -0.00000000       0.00000000 </v>
     <v>       0.00000000       0.28084010       0.00000000 </v>
     <v>      -0.00000000      -0.00000000       0.28084010 </v>
    </varray>
   </crystal>
   <varray name="positions" >
    <v>       0.00000000       0.00000000       0.50000000 </v>
    <v>       0.25000000       0.25000000       0.75000000 </v>
    <v>       0.00000000       0.50000000       0.00000000 </v>
    <v>       0.25000000       0.75000000       0.25000000 </v>
    <v>       0.50000000       0.00000000       0.00000000 </v>
    <v>       0.75000000       0.25000000       0.25000000 </v>
    <v>       0.50000000       0.50000000       0.50000000 </v>
    <v>       0.75000000       0.75000000       0.75000000 </v>
   </varray>
  </structure>
  <varray name="forces" >
   <v>       0.00000000      -0.00000000       0.00000000 </v>
   <v>       0.00000000       0.00000000       0.00000000 </v>
   <v>       0.00000000      -0.00000000       0.00000000 </v>
   <v>      -0.00000000       0.00000000      -0.00000000 </v>
   <v>      -0.00000000      -0.00000000      -0.00000000 </v>
   <v>      -0.00000000       0.00000000      -0.00000000 </v>
   <v>      -0.00000000      -0.00000000      -0.00000000 </v>
   <v>      -0.00000000      -0.00000000      -0.00000000 </v>
  </varray>
  <varray name="stress" >
   <v>      41.80727146       0.00000000       0.00000000 </v>
   <v>      -0.00000000      41.80727146       0.00000000 </v>
   <v>      -0.00000000       0.00000000      41.80727146 </v>
  </varray>
  <energy>
   <i name="e_fr_energy">    -72.74205487 </i>
   <i name="e_wo_entrp">    -72.74258930 </i>
   <i name="e_0_energy">    -72.74223302 </i>
  </energy>
  <time name="totalsc">    9.84   10.67</time>
 </calculation>
 <calculation>
  <scstep>
   <time name="dav">    0.16    0.16</time>
   <time name="total">    0.18    0.18</time>
   <energy>
    <i name="alphaZ">    114.00516000 </i>
    <i name="ewald">  -1384.36795485 </i>
    <i name="hartreedc">   -104.59157180 </i>
    <i name="XCdc">    112.21737038 </i>
    <i name="pawpsdc">   3086.44123853 </i>
    <i name="pawaedc">  -3091.81060750 </i>
    <i name="eentropy">      0.00054690 </i>
    <i name="bandstr">     18.16640473 </i>
    <i name="atom">   1177.19114650 </i>
    <i name="e_fr_energy">    -72.74826711 </i>
    <i name="e_wo_entrp">    -72.74881402 </i>
    <i name="e_0_energy">    -72.74844942 </i>
   </energy>
  </scstep>
  <scstep>
   <time name="diag">    0.04    0.04</time>
   <time name="diis">    0.04    0.04</time>
   <time name="orth">    0.01    0.01</time>
   <time name="total">    0.11    0.13</time>
   <energy>
    <i name="e_fr_energy">    -72.74270246 </i>
    <i name="e_wo_entrp">    -72.74324856 </i>
    <i name="e_0_energy">    -72.74288449 </i>
   </energy>
  </scstep>
  <scstep>
   <time name="diag">    0.07    0.07</time>
   <time name="diis">    0.04    0.04</time>
   <time name="orth">    0.01    0.01</time>
   <time name="total">    0.13    0.15</time>
   <energy>
    <i name="e_fr_energy">    -72.74037097 </i>
    <i name="e_wo_entrp">    -72.74091616 </i>
    <i name="e_0_energy">    -72.74055270 </i>
   </energy>
  </scstep>
  <scstep>
   <time name="diag">    0.04    0.04</time>
   <time name="diis">    0.04    0.04</time>
   <time name="orth">    0.01    0.01</time>
   <time name="total">    0.11    0.13</time>
   <energy>
    <i name="e_fr_energy">    -72.74040680 </i>
    <i name="e_wo_entrp">    -72.74095201 </i>
    <i name="e_0_energy">    -72.74058854 </i>
   </energy>
  </scstep>
  <scstep>
   <time name="diag">    0.07    0.07</time>
   <time name="diis">    0.08    0.08</time>
   <time name="orth">    0.01    0.01</time>
   <time name="total">    0.23    0.26</time>
   <energy>
    <i name="e_fr_energy">    -72.74040470 </i>
    <i name="e_wo_entrp">    -72.74094993 </i>
    <i name="e_0_energy">    -72.74058645 </i>
   </energy>
  </scstep>
  <scstep>
   <time name="diag">    0.04    0.04</time>
   <time name="diis">    0.03    0.03</time>
   <time name="orth">    0.01    0.01</time>
   <time name="total">    0.10    0.12</time>
   <energy>
    <i name="e_fr_energy">    -72.74040397 </i>
    <i name="e_wo_entrp">    -72.74094920 </i>
    <i name="e_0_energy">    -72.74058571 </i>
   </energy>
  </scstep>
  <scstep>
   <time name="diag">    0.04    0.04</time>
   <time name="diis">    0.03    0.03</time>
   <time name="orth">    0.01    0.01</time>
   <time name="total">    0.10    0.12</time>
   <energy>
    <i name="e_fr_energy">    -72.74040378 </i>
    <i name="e_wo_entrp">    -72.74094900 </i>
    <i name="e_0_energy">    -72.74058552 </i>
   </energy>
  </scstep>
  <scstep>
   <time name="diag">    0.04    0.04</time>
   <time name="diis">    0.03    0.03</time>
   <time name="orth">    0.00    0.20</time>
   <time name="total">    0.08    0.29</time>
   <energy>
    <i name="alphaZ">    114.00516000 </i>
    <i name="ewald">  -1384.36795485 </i>
    <i name="hartreedc">   -106.53833011 </i>
    <i name="XCdc">    112.38037464 </i>
    <i name="pawpsdc">   2987.51329627 </i>
    <i name="pawaedc">  -2992.84139100 </i>
    <i name="eentropy">      0.00054522 </i>
    <i name="bandstr">     19.91674956 </i>
    <i name="atom">   1177.19114650 </i>
    <i name="e_fr_energy">    -72.74040376 </i>
    <i name="e_wo_entrp">    -72.74094899 </i>
    <i name="e_0_energy">    -72.74058551 </i>
   </energy>
  </scstep>
  <structure>
   <crystal>
    <varray name="basis" >
     <v>       3.58604078       0.00000000       0.00000000 </v>
     <v>       0.00000000       3.58604078       0.00000000 </v>
     <v>      -0.00000000       0.00000000       3.58604078 </v>
    </varray>
    <i name="volume">     46.11536727 </i>
    <varray name="rec_basis" >
     <v>       0.27885907      -0.00000000       0.00000000 </v>
     <v>      -0.00000000       0.27885907      -0.00000000 </v>
     <v>      -0.00000000      -0.00000000       0.27885907 </v>
    </varray>
   </crystal>
   <varray name="positions" >
    <v>       0.00000000       1.00000000       0.50000000 </v>
    <v>       0.25000000       0.25000000       0.75000000 </v>
    <v>       0.00000000       0.50000000       0.00000000 </v>
    <v>       0.25000000       0.75000000       0.25000000 </v>
    <v>       0.50000000       1.00000000       1.00000000 </v>
    <v>       0.75000000       0.25000000       0.25000000 </v>
    <v>       0.50000000       0.50000000       0.50000000 </v>
    <v>       0.75000000       0.75000000       0.75000000 </v>
   </varray>
  </structure>
  <varray name="forces" >
   <v>      -0.00000000       0.00000000       0.00000000 </v>
   <v>      -0.00000000      -0.00000000       0.00000000 </v>
   <v>       0.00000000       0.00000000       0.00000000 </v>
   <v>      -0.00000000      -0.00000000      -0.00000000 </v>
   <v>      -0.00000000       0.00000000      -0.00000000 </v>
   <v>       0.00000000       0.00000000      -0.00000000 </v>
   <v>      -0.00000000       0.00000000      -0.00000000 </v>
   <v>       0.00000000      -0.00000000      -0.00000000 </v>
  </varray>
  <varray name="stress" >
   <v>     -45.78525560      -0.00000000       0.00000000 </v>
   <v>      -0.00000000     -45.78525560      -0.00000000 </v>
   <v>      -0.00000000      -0.00000000     -45.78525560 </v>
  </varray>
  <energy>
   <i name="e_fr_energy">    -72.74040376 </i>
   <i name="e_wo_entrp">    -72.74094899 </i>
   <i name="e_0_energy">    -72.74058551 </i>
  </energy>
  <time name="totalsc">    1.58    2.03</time>
 </calculation>
 <calculation>
  <scstep>
   <time name="dav">    0.32    0.32</time>
   <time name="total">    0.55    0.56</time>
   <energy>
    <i name="alphaZ">    115.29965249 </i>
    <i name="ewald">  -1389.58793390 </i>
    <i name="hartreedc">   -106.93853875 </i>
    <i name="XCdc">    112.78374807 </i>
    <i name="pawpsdc">   2987.49896605 </i>
    <i name="pawaedc">  -2992.82725559 </i>
    <i name="eentropy">      0.00053859 </i>
    <i name="bandstr">     23.82958409 </i>
    <i name="atom">   1177.19114650 </i>
    <i name="e_fr_energy">    -72.75009245 </i>
    <i name="e_wo_entrp">    -72.75063104 </i>
    <i name="e_0_energy">    -72.75027198 </i>
   </energy>
  </scstep>
  <scstep>
   <time name="diag">    0.04    0.04</time>
   <time name="diis">    0.04    0.04</time>
   <time name="orth">    0.01    0.01</time>
   <time name="total">    0.11    0.13</time>
   <energy>
    <i name="e_fr_energy">    -72.74851597 </i>
    <i name="e_wo_entrp">    -72.74905498 </i>
    <i name="e_0_energy">    -72.74869564 </i>
   </energy>
  </scstep>
  <scstep>
   <time name="diag">    0.04    0.04</time>
   <time name="diis">    0.04    0.04</time>
   <time name="orth">    0.01    0.01</time>
   <time name="total">    0.11    0.13</time>
   <energy>
    <i name="e_fr_energy">    -72.74787286 </i>
    <i name="e_wo_entrp">    -72.74841234 </i>
    <i name="e_0_energy">    -72.74805269 </i>
   </energy>
  </scstep>
  <scstep>
   <time name="diag">    0.04    0.04</time>
   <time name="diis">    0.04    0.04</time>
   <time name="orth">    0.01    0.01</time>
   <time name="total">    0.13    0.14</time>
   <energy>
    <i name="e_fr_energy">    -72.74788497 </i>
    <i name="e_wo_entrp">    -72.74842445 </i>
    <i name="e_0_energy">    -72.74806480 </i>
   </energy>
  </scstep>
  <scstep>
   <time name="diag">    0.04    0.04</time>
   <time name="diis">    0.04    0.04</time>
   <time name="orth">    0.01    0.01</time>
   <time name="total">    0.10    0.12</time>
   <energy>
    <i name="e_fr_energy">    -72.74788474 </i>
    <i name="e_wo_entrp">    -72.74842422 </i>
    <i name="e_0_energy">    -72.74806457 </i>
   </energy>
  </scstep>
  <scstep>
   <time name="diag">    0.04    0.04</time>
   <time name="diis">    0.03    0.03</time>
   <time name="orth">    0.01    0.01</time>
   <time name="total">    0.10    0.12</time>
   <energy>
    <i name="e_fr_energy">    -72.74788499 </i>
    <i name="e_wo_entrp">    -72.74842446 </i>
    <i name="e_0_energy">    -72.74806481 </i>
   </energy>
  </scstep>
  <scstep>
   <time name="diag">    0.04    0.04</time>
   <time name="diis">    0.03    0.03</time>
   <time name="orth">    0.01    0.01</time>
   <time name="total">    0.10    0.12</time>
   <energy>
    <i name="e_fr_energy">    -72.74788511 </i>
    <i name="e_wo_entrp">    -72.74842459 </i>
    <i name="e_0_energy">    -72.74806494 </i>
   </energy>
  </scstep>
  <scstep>
   <time name="diag">    0.04    0.04</time>
   <time name="diis">    0.03    0.03</time>
   <time name="orth">    0.01    0.01</time>
   <time name="total">    0.10    0.11</time>
   <energy>
    <i name="alphaZ">    115.29965249 </i>
    <i name="ewald">  -1389.58793390 </i>
    <i name="hartreedc">   -105.89368387 </i>
    <i name="XCdc">    112.69626753 </i>
    <i name="pawpsdc">   3039.93678904 </i>
    <i name="pawaedc">  -3045.28677102 </i>
    <i name="eentropy">      0.00053947 </i>
    <i name="bandstr">     22.89610864 </i>
    <i name="atom">   1177.19114650 </i>
    <i name="e_fr_energy">    -72.74788513 </i>
    <i name="e_wo_entrp">    -72.74842460 </i>
    <i name="e_0_energy">    -72.74806495 </i>
   </energy>
  </scstep>
  <structure>
   <crystal>
    <varray name="basis" >
     <v>       3.57256984       0.00000000       0.00000000 </v>
     <v>       0.00000000       3.57256984       0.00000000 </v>
     <v>      -0.00000000       0.00000000       3.57256984 </v>
    </varray>
    <i name="volume">     45.59762073 </i>
    <varray name="rec_basis" >
     <v>       0.27991055      -0.00000000       0.00000000 </v>
     <v>      -0.00000000       0.27991055      -0.00000000 </v>
     <v>      -0.00000000      -0.00000000       0.27991055 </v>
    </varray>
   </crystal>
   <varray name="positions" >
    <v>       0.00000000       0.00000000       0.50000000 </v>
    <v>       0.25000000       0.25000000       0.75000000 </v>
    <v>       0.00000000       0.50000000       0.00000000 </v>
    <v>       0.25000000       0.75000000       0.25000000 </v>
    <v>       0.50000000       0.00000000       0.00000000 </v>
    <v>       0.75000000       0.25000000       0.25000000 </v>
    <v>       0.50000000       0.50000000       0.50000000 </v>
    <v>       0.75000000       0.75000000       0.75000000 </v>
   </varray>
  </structure>
  <varray name="forces" >
   <v>      -0.00000000       0.00000000       0.00000000 </v>
   <v>       0.00000000      -0.00000000       0.00000000 </v>
   <v>       0.00000000       0.00000000       0.00000000 </v>
   <v>      -0.00000000       0.00000000      -0.00000000 </v>
   <v>      -0.00000000       0.00000000      -0.00000000 </v>
   <v>       0.00000000      -0.00000000       0.00000000 </v>
   <v>       0.00000000      -0.00000000       0.00000000 </v>
   <v>      -0.00000000      -0.00000000      -0.00000000 </v>
  </varray>
  <varray name="stress" >
   <v>      -0.03383523       0.00000000       0.00000000 </v>
   <v>      -0.00000000      -0.03383523       0.00000000 </v>
   <v>      -0.00000000      -0.00000000      -0.03383523 </v>
  </varray>
  <energy>
   <i name="e_fr_energy">    -72.74788513 </i>
   <i name="e_wo_entrp">    -72.74842460 </i>
   <i name="e_0_energy">    -72.74806495 </i>
  </energy>
  <time name="totalsc">    1.56    1.71</time>
  <eigenvalues>
   <array>
    <dimension dim="1">band</dimension>
    <dimension dim="2">kpoint</dimension>
    <dimension dim="3">spin</dimension>
    <field>eigene</field>
    <field>occ</field>
    <set>
     <set comment="spin 1">
      <set comment="kpoint 1">
       <r>  -11.7525    1.0000 </r>
       <r>   -3.0698    1.0000 </r>
       <r>   -3.0698    1.0000 </r>
       <r>   -3.0698    1.0000 </r>
       <r>   -3.0698    1.0000 </r>
       <r>   -3.0698    1.0000 </r>
       <r>   -3.0698    1.0000 </r>
       <r>    3.3910    1.0000 </r>
       <r>    3.3910    1.0000 </r>
       <r>    3.3910    1.0000 </r>
       <r>    3.3910    1.0000 </r>
       <r>    3.3910    1.0000 </r>
       <r>    3.3910    1.0000 </r>
       <r>    9.6593    0.6534 </r>
       <r>    9.6593    0.6534 </r>
       <r>    9.6593    0.6534 </r>
       <r>   14.4073    0.0000 </r>
       <r>   14.4073    0.0000 </r>
       <r>   14.4073    0.0000 </r>
       <r>   14.4073    0.0000 </r>
       <r>   14.4073    0.0000 </r>
       <r>   14.4074    0.0000 </r>
       <r>   15.2356    0.0000 </r>
       <r>   15.2356    0.0000 </r>
      </set>
      <set comment="kpoint 2">
       <r>  -11.7207    1.0000 </r>
       <r>   -3.9920    1.0000 </r>
       <r>   -3.0494    1.0000 </r>
       <r>   -3.0494    1.0000 </r>
       <r>   -3.0494    1.0000 </r>
       <r>   -3.0494    1.0000 </r>
       <r>   -2.1175    1.0000 </r>
       <r>    3.3197    1.0000 </r>
       <r>    3.3197    1.0000 </r>
       <r>    3.3197    1.0000 </r>
       <r>    3.3197    1.0000 </r>
       <r>    3.4220    1.0000 </r>
       <r>    3.4220    1.0000 </r>
       <r>    9.5253    1.0027 </r>
       <r>    9.5253    1.0027 </r>
       <r>    9.5799    0.9117 </r>
       <r>   14.1539    0.0000 </r>
       <r>   14.5392    0.0000 </r>
       <r>   14.5392    0.0000 </r>
       <r>   14.5392    0.0000 </r>
       <r>   14.5392    0.0000 </r>
       <r>   14.7352    0.0000 </r>
       <r>   15.2100    0.0000 </r>
       <r>   15.3969    0.0000 </r>
      </set>
      <set comment="kpoint 3">
       <r>  -11.6251    1.0000 </r>
       <r>   -4.8783    1.0000 </r>
       <r>   -2.9896    1.0000 </r>
       <r>   -2.9896    1.0000 </r>
       <r>   -2.9896    1.0000 </r>
       <r>   -2.9896    1.0000 </r>
       <r>   -1.1421    1.0000 </r>
       <r>    3.1188    1.0000 </r>
       <r>    3.1188    1.0000 </r>
       <r>    3.1188    1.0000 </r>
       <r>    3.1188    1.0000 </r>
       <r>    3.5150    1.0000 </r>
       <r>    3.5150    1.0000 </r>
       <r>    9.1655    1.0006 </r>
       <r>    9.1655    1.0006 </r>
       <r>    9.3469    1.0166 </r>
       <r>   13.9697    0.0000 </r>
       <r>   14.9220    0.0000 </r>
       <r>   14.9220    0.0000 </r>
       <r>   14.9220    0.0000 </r>
       <r>   14.9220    0.0000 </r>
       <r>   15.1351    0.0000 </r>
       <r>   15.1424    0.0000 </r>
       <r>   15.8388    0.0000 </r>
      </set>
      <set comment="kpoint 4">
       <r>  -11.4660    1.0000 </r>
       <r>   -5.7234    1.0000 </r>
       <r>   -2.8940    1.0000 </r>
       <r>   -2.8940    1.0000 </r>
       <r>   -2.8940    1.0000 </r>
       <r>   -2.8940    1.0000 </r>
       <r>   -0.1518    1.0000 </r>
       <r>    2.8217    1.0000 </r>
       <r>    2.8217    1.0000 </r>
       <r>    2.8217    1.0000 </r>
       <r>    2.8217    1.0000 </r>
       <r>    3.6694    1.0000 </r>
       <r>    3.6694    1.0000 </r>
       <r>    8.6634    1.0000 </r>
       <r>    8.6634    1.0000 </r>
       <r>    8.9730    1.0000 </r>
       <r>   13.8493    0.0000 </r>
       <r>   15.0177    0.0000 </r>
       <r>   15.5221    0.0000 </r>
       <r>   15.5221    0.0000 </r>
       <r>   15.5221    0.0000 </r>
       <r>   15.5222    0.0000 </r>
       <r>   15.6340    0.0000 </r>
       <r>   16.4770    0.0000 </r>
      </set>
      <set comment="kpoint 5">
       <r>  -11.2437    1.0000 </r>
       <r>   -6.5228    1.0000 </r>
       <r>   -2.7694    1.0000 </r>
       <r>   -2.7694    1.0000 </r>
       <r>   -2.7694    1.0000 </r>
       <r>   -2.7694    1.0000 </r>
       <r>    0.8451    1.0000 </r>
       <r>    2.4713    1.0000 </r>
       <r>    2.4713    1.0000 </r>
       <r>    2.4713    1.0000 </r>
       <r>    2.4713    1.0000 </r>
       <r>    3.8845    1.0000 </r>
       <r>    3.8845    1.0000 </r>
       <r>    8.0912    1.0000 </r>
       <r>    8.0912    1.0000 </r>
       <r>    8.4756    1.0000 </r>
       <r>   13.7876    0.0000 </r>
       <r>   14.8674    0.0000 </r>
       <r>   16.2142    0.0000 </r>
       <r>   16.2972    0.0000 </r>
       <r>   16.2972    0.0000 </r>
       <r>   16.2972    0.0000 </r>
       <r>   16.2974    0.0000 </r>
       <r>   17.2373    0.0000 </r>
      </set>
      <set comment="kpoint 6">
       <r>  -10.9585    1.0000 </r>
       <r>   -7.2734    1.0000 </r>
       <r>   -2.6272    1.0000 </r>
       <r>   -2.6272    1.0000 </r>
       <r>   -2.6272    1.0000 </r>
       <r>   -2.6272    1.0000 </r>
       <r>    1.8391    1.0000 </r>
       <r>    2.1117    1.0000 </r>
       <r>    2.1117    1.0000 </r>
       <r>    2.1117    1.0000 </r>
       <r>    2.1117    1.0000 </r>
       <r>    4.1591    1.0000 </r>
       <r>    4.1591    1.0000 </r>
       <r>    7.4958    1.0000 </r>
       <r>    7.4958    1.0000 </r>
       <r>    7.8728    1.0000 </r>
       <r>   13.7794    0.0000 </r>
       <r>   14.6957    0.0000 </r>
       <r>   16.8854    0.0000 </r>
       <r>   17.2029    0.0000 </r>
       <r>   17.2029    0.0000 </r>
       <r>   17.2029    0.0000 </r>
       <r>   17.2029    0.0000 </r>
       <r>   18.0712    0.0000 </r>
      </set>
      <set comment="kpoint 7">
       <r>  -10.6111    1.0000 </r>
       <r>   -7.9719    1.0000 </r>
       <r>   -2.4847    1.0000 </r>
       <r>   -2.4847    1.0000 </r>
       <r>   -2.4847    1.0000 </r>
       <r>   -2.4847    1.0000 </r>
       <r>    1.7856    1.0000 </r>
       <r>    1.7856    1.0000 </r>
       <r>    1.7856    1.0000 </r>
       <r>    1.7856    1.0000 </r>
       <r>    2.8200    1.0000 </r>
       <r>    4.4913    1.0000 </r>
       <r>    4.4913    1.0000 </r>
       <r>    6.9059    1.0000 </r>
       <r>    6.9059    1.0000 </r>
       <r>    7.1810    1.0000 </r>
       <r>   13.8192    0.0000 </r>
       <r>   14.5144    0.0000 </r>
       <r>   17.6466    0.0000 </r>
       <r>   18.1943    0.0000 </r>
       <r>   18.1943    0.0000 </r>
       <r>   18.1943    0.0000 </r>
       <r>   18.1946    0.0000 </r>
       <r>   18.9479    0.0000 </r>
      </set>
      <set comment="kpoint 8">
       <r>  -10.2021    1.0000 </r>
       <r>   -8.6160    1.0000 </r>
       <r>   -2.3653    1.0000 </r>
       <r>   -2.3653    1.0000 </r>
       <r>   -2.3653    1.0000 </r>
       <r>   -2.3653    1.0000 </r>
       <r>    1.5347    1.0000 </r>
       <r>    1.5347    1.0000 </r>
       <r>    1.5347    1.0000 </r>
       <r>    1.5347    1.0000 </r>
       <r>    3.7779    1.0000 </r>
       <r>    4.8791    1.0000 </r>
       <r>    4.8791    1.0000 </r>
       <r>    6.3395    1.0000 </r>
       <r>    6.3395    1.0000 </r>
       <r>    6.4144    1.0000 </r>
       <r>   13.9013    0.0000 </r>
       <r>   14.3346    0.0000 </r>
       <r>   18.4910    0.0000 </r>
       <r>   19.2112    0.0000 </r>
       <r>   19.2112    0.0000 </r>
       <r>   19.2112    0.0000 </r>
       <r>   19.2114    0.0000 </r>
       <r>   19.8465    0.0000 </r>
      </set>
      <set comment="kpoint 9">
       <r>   -9.7324    1.0000 </r>
       <r>   -9.2032    1.0000 </r>
       <r>   -2.2961    1.0000 </r>
       <r>   -2.2961    1.0000 </r>
       <r>   -2.2961    1.0000 </r>
       <r>   -2.2961    1.0000 </r>
       <r>    1.3969    1.0000 </r>
       <r>    1.3969    1.0000 </r>
       <r>    1.3969    1.0000 </r>
       <r>    1.3969    1.0000 </r>
       <r>    4.7027    1.0000 </r>
       <r>    5.3193    1.0000 </r>
       <r>    5.3193    1.0000 </r>
       <r>    5.5849    1.0000 </r>
       <r>    5.8080    1.0000 </r>
       <r>    5.8080    1.0000 </r>
       <r>   14.0196    0.0000 </r>
       <r>   14.1666    0.0000 </r>
       <r>   19.4024    0.0000 </r>
       <r>   20.0861    0.0000 </r>
       <r>   20.0861    0.0000 </r>
       <r>   20.0861    0.0000 </r>
       <r>   20.0863    0.0000 </r>
       <r>   20.3569    0.0000 </r>
      </set>
      <set comment="kpoint 10">
       <r>  -11.6888    1.0000 </r>
       <r>   -3.9687    1.0000 </r>
       <r>   -3.9687    1.0000 </r>
       <r>   -3.0466    1.0000 </r>
       <r>   -3.0125    1.0000 </r>
       <r>   -2.1014    1.0000 </r>
       <r>   -2.1014    1.0000 </r>
       <r>    3.0649    1.0000 </r>
       <r>    3.3460    1.0000 </r>
       <r>    3.3460    1.0000 </r>
       <r>    3.3568    1.0000 </r>
       <r>    3.3568    1.0000 </r>
       <r>    3.4442    1.0000 </r>
       <r>    9.2875    1.0069 </r>
       <r>    9.3942    1.0272 </r>
       <r>    9.6201    0.7977 </r>
       <r>   14.2882    0.0000 </r>
       <r>   14.2882    0.0000 </r>
       <r>   14.4592    0.0000 </r>
       <r>   14.8641    0.0000 </r>
       <r>   14.8642    0.0000 </r>
       <r>   14.8716    0.0000 </r>
       <r>   15.3004    0.0000 </r>
       <r>   15.4418    0.0000 </r>
      </set>
      <set comment="kpoint 11">
       <r>  -11.5932    1.0000 </r>
       <r>   -4.8528    1.0000 </r>
       <r>   -3.8995    1.0000 </r>
       <r>   -3.0074    1.0000 </r>
       <r>   -2.9351    1.0000 </r>
       <r>   -2.0550    1.0000 </r>
       <r>   -1.1323    1.0000 </r>
       <r>    2.7128    1.0000 </r>
       <r>    3.1313    1.0000 </r>
       <r>    3.1738    1.0000 </r>
       <r>    3.4262    1.0000 </r>
       <r>    3.4351    1.0000 </r>
       <r>    3.4578    1.0000 </r>
       <r>    8.8652    1.0000 </r>
       <r>    9.0404    1.0000 </r>
       <r>    9.4847    1.0301 </r>
       <r>   14.1059    0.0000 </r>
       <r>   14.6420    0.0000 </r>
       <r>   14.6773    0.0000 </r>
       <r>   15.2391    0.0000 </r>
       <r>   15.2633    0.0000 </r>
       <r>   15.2681    0.0000 </r>
       <r>   15.4249    0.0000 </r>
       <r>   15.8408    0.0000 </r>
      </set>
      <set comment="kpoint 12">
       <r>  -11.4342    1.0000 </r>
       <r>   -5.6963    1.0000 </r>
       <r>   -3.7868    1.0000 </r>
       <r>   -2.9386    1.0000 </r>
       <r>   -2.8187    1.0000 </r>
       <r>   -1.9837    1.0000 </r>
       <r>   -0.1512    1.0000 </r>
       <r>    2.3063    1.0000 </r>
       <r>    2.8123    1.0000 </r>
       <r>    2.9061    1.0000 </r>
       <r>    3.2794    1.0000 </r>
       <r>    3.5862    1.0000 </r>
       <r>    3.6233    1.0000 </r>
       <r>    8.3353    1.0000 </r>
       <r>    8.5449    1.0000 </r>
       <r>    9.1754    1.0007 </r>
       <r>   13.9871    0.0000 </r>
       <r>   15.0725    0.0000 </r>
       <r>   15.1509    0.0000 </r>
       <r>   15.2865    0.0000 </r>
       <r>   15.7559    0.0000 </r>
       <r>   15.8281    0.0000 </r>
       <r>   16.1591    0.0000 </r>
       <r>   16.4707    0.0000 </r>
      </set>
      <set comment="kpoint 13">
       <r>  -11.2120    1.0000 </r>
       <r>   -6.4947    1.0000 </r>
       <r>   -3.6356    1.0000 </r>
       <r>   -2.8513    1.0000 </r>
       <r>   -2.6672    1.0000 </r>
       <r>   -1.8978    1.0000 </r>
       <r>    0.8316    1.0000 </r>
       <r>    1.8900    1.0000 </r>
       <r>    2.4314    1.0000 </r>
       <r>    2.5977    1.0000 </r>
       <r>    3.0373    1.0000 </r>
       <r>    3.7984    1.0000 </r>
       <r>    3.8542    1.0000 </r>
       <r>    7.7458    1.0000 </r>
       <r>    7.9783    1.0000 </r>
       <r>    8.7248    1.0000 </r>
       <r>   13.9266    0.0000 </r>
       <r>   15.0030    0.0000 </r>
       <r>   15.7149    0.0000 </r>
       <r>   16.0717    0.0000 </r>
       <r>   16.3318    0.0000 </r>
       <r>   16.5893    0.0000 </r>
       <r>   17.0326    0.0000 </r>
       <r>   17.2285    0.0000 </r>
      </set>
      <set comment="kpoint 14">
       <r>  -10.9270    1.0000 </r>
       <r>   -7.2443    1.0000 </r>
       <r>   -3.4532    1.0000 </r>
       <r>   -2.7627    1.0000 </r>
       <r>   -2.4878    1.0000 </r>
       <r>   -1.8136    1.0000 </r>
       <r>    1.5080    1.0000 </r>
       <r>    1.8032    1.0000 </r>
       <r>    2.0307    1.0000 </r>
       <r>    2.2959    1.0000 </r>
       <r>    2.7423    1.0000 </r>
       <r>    4.0704    1.0000 </r>
       <r>    4.1527    1.0000 </r>
       <r>    7.1291    1.0000 </r>
       <r>    7.3875    1.0000 </r>
       <r>    8.1647    1.0000 </r>
       <r>   13.9193    0.0000 </r>
       <r>   14.8330    0.0000 </r>
       <r>   16.5243    0.0000 </r>
       <r>   16.9898    0.0000 </r>
       <r>   16.9981    0.0000 </r>
       <r>   17.4769    0.0000 </r>
       <r>   18.0521    0.0000 </r>
       <r>   18.0613    0.0000 </r>
      </set>
      <set comment="kpoint 15">
       <r>  -10.5797    1.0000 </r>
       <r>   -7.9422    1.0000 </r>
       <r>   -3.2515    1.0000 </r>
       <r>   -2.6972    1.0000 </r>
       <r>   -2.2918    1.0000 </r>
       <r>   -1.7537    1.0000 </r>
       <r>    1.2036    1.0000 </r>
       <r>    1.6486    1.0000 </r>
       <r>    2.0476    1.0000 </r>
       <r>    2.4377    1.0000 </r>
       <r>    2.7472    1.0000 </r>
       <r>    4.4002    1.0000 </r>
       <r>    4.5229    1.0000 </r>
       <r>    6.5017    1.0000 </r>
       <r>    6.8014    1.0000 </r>
       <r>    7.5250    1.0000 </r>
       <r>   13.9596    0.0000 </r>
       <r>   14.6530    0.0000 </r>
       <r>   17.4524    0.0000 </r>
       <r>   17.7539    0.0000 </r>
       <r>   17.9996    0.0000 </r>
       <r>   18.4381    0.0000 </r>
       <r>   18.8997    0.0000 </r>
       <r>   18.9394    0.0000 </r>
      </set>
      <set comment="kpoint 16">
       <r>  -10.1709    1.0000 </r>
       <r>   -8.5856    1.0000 </r>
       <r>   -3.0485    1.0000 </r>
       <r>   -2.6828    1.0000 </r>
       <r>   -2.0962    1.0000 </r>
       <r>   -1.7431    1.0000 </r>
       <r>    1.0176    1.0000 </r>
       <r>    1.3216    1.0000 </r>
       <r>    1.8949    1.0000 </r>
       <r>    2.1647    1.0000 </r>
       <r>    3.6425    1.0000 </r>
       <r>    4.7855    1.0000 </r>
       <r>    4.9733    1.0000 </r>
       <r>    5.8643    1.0000 </r>
       <r>    6.2381    1.0000 </r>
       <r>    6.8387    1.0000 </r>
       <r>   14.0420    0.0000 </r>
       <r>   14.4741    0.0000 </r>
       <r>   18.4445    0.0000 </r>
       <r>   18.5924    0.0000 </r>
       <r>   19.0564    0.0000 </r>
       <r>   19.3787    0.0000 </r>
       <r>   19.7730    0.0000 </r>
       <r>   19.8405    0.0000 </r>
      </set>
      <set comment="kpoint 17">
       <r>   -9.7014    1.0000 </r>
       <r>   -9.1726    1.0000 </r>
       <r>   -2.8686    1.0000 </r>
       <r>   -2.7400    1.0000 </r>
       <r>   -1.9239    1.0000 </r>
       <r>   -1.8001    1.0000 </r>
       <r>    0.9776    1.0000 </r>
       <r>    1.0864    1.0000 </r>
       <r>    1.8655    1.0000 </r>
       <r>    1.9625    1.0000 </r>
       <r>    4.4637    1.0000 </r>
       <r>    5.1971    1.0000 </r>
       <r>    5.2233    1.0000 </r>
       <r>    5.5161    1.0000 </r>
       <r>    5.7094    1.0000 </r>
       <r>    6.1504    1.0000 </r>
       <r>   14.1601    0.0000 </r>
       <r>   14.3069    0.0000 </r>
       <r>   19.4008    0.0000 </r>
       <r>   19.4973    0.0000 </r>
       <r>   19.9215    0.0000 </r>
       <r>   20.0823    0.0000 </r>
       <r>   20.4516    0.0000 </r>
       <r>   20.6644    0.0000 </r>
      </set>
      <set comment="kpoint 18">
       <r>  -11.4978    1.0000 </r>
       <r>   -4.7769    1.0000 </r>
       <r>   -4.7769    1.0000 </r>
       <r>   -2.9951    1.0000 </r>
       <r>   -2.8412    1.0000 </r>
       <r>   -1.1053    1.0000 </r>
       <r>   -1.1053    1.0000 </r>
       <r>    2.2508    1.0000 </r>
       <r>    3.2094    1.0000 </r>
       <r>    3.2094    1.0000 </r>
       <r>    3.2988    1.0000 </r>
       <r>    3.2988    1.0000 </r>
       <r>    3.6027    1.0000 </r>
       <r>    8.3767    1.0000 </r>
       <r>    8.7007    1.0000 </r>
       <r>    9.5005    1.0228 </r>
       <r>   14.5002    0.0000 </r>
       <r>   14.5002    0.0000 </r>
       <r>   14.6140    0.0000 </r>
       <r>   15.4936    0.0000 </r>
       <r>   15.6338    0.0000 </r>
       <r>   15.6338    0.0000 </r>
       <r>   15.9665    0.0000 </r>
       <r>   16.2409    0.0000 </r>
      </set>
      <set comment="kpoint 19">
       <r>  -11.3390    1.0000 </r>
       <r>   -5.6155    1.0000 </r>
       <r>   -4.6523    1.0000 </r>
       <r>   -2.9635    1.0000 </r>
       <r>   -2.7069    1.0000 </r>
       <r>   -1.0695    1.0000 </r>
       <r>   -0.1530    1.0000 </r>
       <r>    1.7779    1.0000 </r>
       <r>    2.8733    1.0000 </r>
       <r>    3.0714    1.0000 </r>
       <r>    3.3514    1.0000 </r>
       <r>    3.4976    1.0000 </r>
       <r>    3.6369    1.0000 </r>
       <r>    7.8100    1.0000 </r>
       <r>    8.2205    1.0000 </r>
       <r>    9.3248    1.0123 </r>
       <r>   14.3853    0.0000 </r>
       <r>   14.8461    0.0000 </r>
       <r>   15.1159    0.0000 </r>
       <r>   15.4915    0.0000 </r>
       <r>   16.1109    0.0000 </r>
       <r>   16.2091    0.0000 </r>
       <r>   16.4817    0.0000 </r>
       <r>   16.7099    0.0000 </r>
      </set>
      <set comment="kpoint 20">
       <r>  -11.1170    1.0000 </r>
       <r>   -6.4104    1.0000 </r>
       <r>   -4.4822    1.0000 </r>
       <r>   -2.9298    1.0000 </r>
       <r>   -2.5344    1.0000 </r>
       <r>   -1.0395    1.0000 </r>
       <r>    0.7863    1.0000 </r>
       <r>    1.3387    1.0000 </r>
       <r>    2.4698    1.0000 </r>
       <r>    2.8216    1.0000 </r>
       <r>    3.5430    1.0000 </r>
       <r>    3.5557    1.0000 </r>
       <r>    3.7761    1.0000 </r>
       <r>    7.2022    1.0000 </r>
       <r>    7.6674    1.0000 </r>
       <r>    8.9765    1.0000 </r>
       <r>   14.3276    0.0000 </r>
       <r>   15.3206    0.0000 </r>
       <r>   15.3719    0.0000 </r>
       <r>   15.9082    0.0000 </r>
       <r>   16.6744    0.0000 </r>
       <r>   16.9524    0.0000 </r>
       <r>   17.2115    0.0000 </r>
       <r>   17.3118    0.0000 </r>
      </set>
      <set comment="kpoint 21">
       <r>  -10.8323    1.0000 </r>
       <r>   -7.1573    1.0000 </r>
       <r>   -4.2717    1.0000 </r>
       <r>   -2.9188    1.0000 </r>
       <r>   -2.3278    1.0000 </r>
       <r>   -1.0364    1.0000 </r>
       <r>    0.9782    1.0000 </r>
       <r>    1.6924    1.0000 </r>
       <r>    2.0397    1.0000 </r>
       <r>    2.5994    1.0000 </r>
       <r>    3.3543    1.0000 </r>
       <r>    3.8206    1.0000 </r>
       <r>    4.1430    1.0000 </r>
       <r>    6.5768    1.0000 </r>
       <r>    7.0878    1.0000 </r>
       <r>    8.4887    1.0000 </r>
       <r>   14.3220    0.0000 </r>
       <r>   15.2148    0.0000 </r>
       <r>   15.9995    0.0000 </r>
       <r>   16.8339    0.0000 </r>
       <r>   17.3267    0.0000 </r>
       <r>   17.8149    0.0000 </r>
       <r>   18.0090    0.0000 </r>
       <r>   18.0378    0.0000 </r>
      </set>
      <set comment="kpoint 22">
       <r>  -10.4855    1.0000 </r>
       <r>   -7.8531    1.0000 </r>
       <r>   -4.0292    1.0000 </r>
       <r>   -2.9596    1.0000 </r>
       <r>   -2.0945    1.0000 </r>
       <r>   -1.0834    1.0000 </r>
       <r>    0.7391    1.0000 </r>
       <r>    1.6182    1.0000 </r>
       <r>    2.4506    1.0000 </r>
       <r>    2.5428    1.0000 </r>
       <r>    3.1127    1.0000 </r>
       <r>    4.1439    1.0000 </r>
       <r>    4.6084    1.0000 </r>
       <r>    5.9472    1.0000 </r>
       <r>    6.5110    1.0000 </r>
       <r>    7.8960    1.0000 </r>
       <r>   14.3632    0.0000 </r>
       <r>   15.0428    0.0000 </r>
       <r>   16.8347    0.0000 </r>
       <r>   17.8533    0.0000 </r>
       <r>   18.0668    0.0000 </r>
       <r>   18.7285    0.0000 </r>
       <r>   18.7699    0.0000 </r>
       <r>   18.9168    0.0000 </r>
      </set>
      <set comment="kpoint 23">
       <r>  -10.0773    1.0000 </r>
       <r>   -8.4949    1.0000 </r>
       <r>   -3.7665    1.0000 </r>
       <r>   -3.0737    1.0000 </r>
       <r>   -1.8460    1.0000 </r>
       <r>   -1.1964    1.0000 </r>
       <r>    0.6519    1.0000 </r>
       <r>    1.2370    1.0000 </r>
       <r>    2.4064    1.0000 </r>
       <r>    2.8598    1.0000 </r>
       <r>    3.3201    1.0000 </r>
       <r>    4.5230    1.0000 </r>
       <r>    5.1759    1.0000 </r>
       <r>    5.3179    1.0000 </r>
       <r>    5.9556    1.0000 </r>
       <r>    7.2314    1.0000 </r>
       <r>   14.4452    0.0000 </r>
       <r>   14.8694    0.0000 </r>
       <r>   17.7722    0.0000 </r>
       <r>   18.8881    0.0000 </r>
       <r>   18.9292    0.0000 </r>
       <r>   19.5162    0.0000 </r>
       <r>   19.5704    0.0000 </r>
       <r>   19.8230    0.0000 </r>
      </set>
      <set comment="kpoint 24">
       <r>   -9.6087    1.0000 </r>
       <r>   -9.0807    1.0000 </r>
       <r>   -3.5022    1.0000 </r>
       <r>   -3.2617    1.0000 </r>
       <r>   -1.5985    1.0000 </r>
       <r>   -1.3739    1.0000 </r>
       <r>    0.7214    1.0000 </r>
       <r>    0.9271    1.0000 </r>
       <r>    2.4734    1.0000 </r>
       <r>    2.6347    1.0000 </r>
       <r>    4.0261    1.0000 </r>
       <r>    4.6832    1.0000 </r>
       <r>    4.9545    1.0000 </r>
       <r>    5.4340    1.0000 </r>
       <r>    5.8291    1.0000 </r>
       <r>    6.5292    1.0000 </r>
       <r>   14.5619    0.0000 </r>
       <r>   14.7060    0.0000 </r>
       <r>   18.7390    0.0000 </r>
       <r>   19.5396    0.0000 </r>
       <r>   19.7741    0.0000 </r>
       <r>   20.0151    0.0000 </r>
       <r>   20.3927    0.0000 </r>
       <r>   20.7395    0.0000 </r>
      </set>
      <set comment="kpoint 25">
       <r>  -11.1805    1.0000 </r>
       <r>   -5.4823    1.0000 </r>
       <r>   -5.4823    1.0000 </r>
       <r>   -2.9854    1.0000 </r>
       <r>   -2.5558    1.0000 </r>
       <r>   -0.1690    1.0000 </r>
       <r>   -0.1690    1.0000 </r>
       <r>    1.2820    1.0000 </r>
       <r>    3.0017    1.0000 </r>
       <r>    3.0017    1.0000 </r>
       <r>    3.3266    1.0000 </r>
       <r>    3.3266    1.0000 </r>
       <r>    3.8629    1.0000 </r>
       <r>    7.2239    1.0000 </r>
       <r>    7.7577    1.0000 </r>
       <r>    9.2942    1.0077 </r>
       <r>   14.8695    0.0000 </r>
       <r>   15.0056    0.0000 </r>
       <r>   15.0056    0.0000 </r>
       <r>   15.8140    0.0000 </r>
       <r>   16.6698    0.0000 </r>
       <r>   16.6698    0.0000 </r>
       <r>   16.6725    0.0000 </r>
       <r>   17.0132    0.0000 </r>
      </set>
      <set comment="kpoint 26">
       <r>  -10.9589    1.0000 </r>
       <r>   -6.2707    1.0000 </r>
       <r>   -5.2987    1.0000 </r>
       <r>   -3.0297    1.0000 </r>
       <r>   -2.3653    1.0000 </r>
       <r>   -0.2177    1.0000 </r>
       <r>    0.6958    1.0000 </r>
       <r>    0.8642    1.0000 </r>
       <r>    2.5808    1.0000 </r>
       <r>    3.1571    1.0000 </r>
       <r>    3.1946    1.0000 </r>
       <r>    3.6831    1.0000 </r>
       <r>    3.9468    1.0000 </r>
       <r>    6.6091    1.0000 </r>
       <r>    7.2201    1.0000 </r>
       <r>    9.0760    1.0001 </r>
       <r>   14.9508    0.0000 </r>
       <r>   15.1480    0.0000 </r>
       <r>   15.8021    0.0000 </r>
       <r>   15.8637    0.0000 </r>
       <r>   17.2139    0.0000 </r>
       <r>   17.2402    0.0000 </r>
       <r>   17.3907    0.0000 </r>
       <r>   17.4413    0.0000 </r>
      </set>
      <set comment="kpoint 27">
       <r>  -10.6748    1.0000 </r>
       <r>   -7.0129    1.0000 </r>
       <r>   -5.0686    1.0000 </r>
       <r>   -3.1259    1.0000 </r>
       <r>   -2.1374    1.0000 </r>
       <r>   -0.3194    1.0000 </r>
       <r>    0.5692    1.0000 </r>
       <r>    1.5024    1.0000 </r>
       <r>    2.1289    1.0000 </r>
       <r>    3.0359    1.0000 </r>
       <r>    3.4496    1.0000 </r>
       <r>    3.9032    1.0000 </r>
       <r>    4.1512    1.0000 </r>
       <r>    5.9850    1.0000 </r>
       <r>    6.6536    1.0000 </r>
       <r>    8.6895    1.0000 </r>
       <r>   14.9460    0.0000 </r>
       <r>   15.6614    0.0000 </r>
       <r>   15.7647    0.0000 </r>
       <r>   16.7307    0.0000 </r>
       <r>   17.8435    0.0000 </r>
       <r>   17.9774    0.0000 </r>
       <r>   18.0216    0.0000 </r>
       <r>   18.2186    0.0000 </r>
      </set>
      <set comment="kpoint 28">
       <r>  -10.3288    1.0000 </r>
       <r>   -7.7052    1.0000 </r>
       <r>   -4.7974    1.0000 </r>
       <r>   -3.2967    1.0000 </r>
       <r>   -1.8768    1.0000 </r>
       <r>   -0.4869    1.0000 </r>
       <r>    0.4297    1.0000 </r>
       <r>    1.6796    1.0000 </r>
       <r>    2.2377    1.0000 </r>
       <r>    2.9964    1.0000 </r>
       <r>    3.7640    1.0000 </r>
       <r>    3.7650    1.0000 </r>
       <r>    4.7307    1.0000 </r>
       <r>    5.3632    1.0000 </r>
       <r>    6.0879    1.0000 </r>
       <r>    8.1663    1.0000 </r>
       <r>   14.9859    0.0000 </r>
       <r>   15.6204    0.0000 </r>
       <r>   16.3692    0.0000 </r>
       <r>   17.7527    0.0000 </r>
       <r>   18.5577    0.0000 </r>
       <r>   18.5978    0.0000 </r>
       <r>   18.8910    0.0000 </r>
       <r>   19.0535    0.0000 </r>
      </set>
      <set comment="kpoint 29">
       <r>   -9.9216    1.0000 </r>
       <r>   -8.3444    1.0000 </r>
       <r>   -4.4936    1.0000 </r>
       <r>   -3.5433    1.0000 </r>
       <r>   -1.5910    1.0000 </r>
       <r>   -0.7173    1.0000 </r>
       <r>    0.4526    1.0000 </r>
       <r>    1.2607    1.0000 </r>
       <r>    2.9075    1.0000 </r>
       <r>    3.0486    1.0000 </r>
       <r>    3.5726    1.0000 </r>
       <r>    4.1347    1.0000 </r>
       <r>    4.7492    1.0000 </r>
       <r>    5.4002    1.0000 </r>
       <r>    5.5422    1.0000 </r>
       <r>    7.5408    1.0000 </r>
       <r>   15.0648    0.0000 </r>
       <r>   15.4641    0.0000 </r>
       <r>   17.2196    0.0000 </r>
       <r>   18.8335    0.0000 </r>
       <r>   19.2783    0.0000 </r>
       <r>   19.3485    0.0000 </r>
       <r>   19.5318    0.0000 </r>
       <r>   19.8013    0.0000 </r>
      </set>
      <set comment="kpoint 30">
       <r>   -9.4543    1.0000 </r>
       <r>   -8.9280    1.0000 </r>
       <r>   -4.1695    1.0000 </r>
       <r>   -3.8441    1.0000 </r>
       <r>   -1.2910    1.0000 </r>
       <r>   -0.9929    1.0000 </r>
[...]
       <r>   -6.0501    1.0000 </r>
       <r>   -6.0501    1.0000 </r>
       <r>   -3.2317    1.0000 </r>
       <r>   -3.2317    1.0000 </r>
       <r>   -3.2317    1.0000 </r>
       <r>   -2.0394    1.0000 </r>
       <r>    6.1532    1.0000 </r>
       <r>    6.1532    1.0000 </r>
       <r>    6.1532    1.0000 </r>
       <r>    6.4867    1.0000 </r>
       <r>    6.4867    1.0000 </r>
       <r>    6.4867    1.0000 </r>
       <r>    7.0077    1.0000 </r>
       <r>    7.0077    1.0000 </r>
       <r>   17.6566    0.0000 </r>
       <r>   17.6566    0.0000 </r>
       <r>   17.6566    0.0000 </r>
       <r>   18.0700    0.0000 </r>
       <r>   18.0702    0.0000 </r>
       <r>   18.3698    0.0000 </r>
       <r>   18.8014    0.0000 </r>
       <r>   18.8019    0.0000 </r>
      </set>
      <set comment="kpoint 163">
       <r>   -6.8718    1.0000 </r>
       <r>   -6.4524    1.0000 </r>
       <r>   -5.8995    1.0000 </r>
       <r>   -5.8995    1.0000 </r>
       <r>   -3.4922    1.0000 </r>
       <r>   -3.4922    1.0000 </r>
       <r>   -2.9502    1.0000 </r>
       <r>   -2.5406    1.0000 </r>
       <r>    6.2419    1.0000 </r>
       <r>    6.2419    1.0000 </r>
       <r>    6.6071    1.0000 </r>
       <r>    6.6071    1.0000 </r>
       <r>    6.6389    1.0000 </r>
       <r>    6.6651    1.0000 </r>
       <r>    6.8413    1.0000 </r>
       <r>    6.9330    1.0000 </r>
       <r>   17.8317    0.0000 </r>
       <r>   17.8970    0.0000 </r>
       <r>   17.8970    0.0000 </r>
       <r>   17.9696    0.0000 </r>
       <r>   18.2373    0.0000 </r>
       <r>   18.4337    0.0000 </r>
       <r>   18.4714    0.0000 </r>
       <r>   18.4821    0.0000 </r>
      </set>
      <set comment="kpoint 164">
       <r>   -6.5106    1.0000 </r>
       <r>   -6.1647    1.0000 </r>
       <r>   -6.1647    1.0000 </r>
       <r>   -5.9560    1.0000 </r>
       <r>   -3.5500    1.0000 </r>
       <r>   -3.3449    1.0000 </r>
       <r>   -3.3449    1.0000 </r>
       <r>   -3.0059    1.0000 </r>
       <r>    6.4686    1.0000 </r>
       <r>    6.5831    1.0000 </r>
       <r>    6.5831    1.0000 </r>
       <r>    6.7530    1.0000 </r>
       <r>    6.7603    1.0000 </r>
       <r>    6.7938    1.0000 </r>
       <r>    6.7938    1.0000 </r>
       <r>    6.9331    1.0000 </r>
       <r>   17.9802    0.0000 </r>
       <r>   18.0187    0.0000 </r>
       <r>   18.0187    0.0000 </r>
       <r>   18.1001    0.0000 </r>
       <r>   18.1274    0.0000 </r>
       <r>   18.2552    0.0000 </r>
       <r>   18.2566    0.0000 </r>
       <r>   18.3491    0.0000 </r>
      </set>
      <set comment="kpoint 165">
       <r>   -6.2218    1.0000 </r>
       <r>   -6.0124    1.0000 </r>
       <r>   -6.0124    1.0000 </r>
       <r>   -6.0124    1.0000 </r>
       <r>   -3.6084    1.0000 </r>
       <r>   -3.6084    1.0000 </r>
       <r>   -3.6084    1.0000 </r>
       <r>   -3.4024    1.0000 </r>
       <r>    6.7864    1.0000 </r>
       <r>    6.7864    1.0000 </r>
       <r>    6.7864    1.0000 </r>
       <r>    6.8261    1.0000 </r>
       <r>    6.8261    1.0000 </r>
       <r>    6.8261    1.0000 </r>
       <r>    6.8871    1.0000 </r>
       <r>    6.8871    1.0000 </r>
       <r>   18.0570    0.0000 </r>
       <r>   18.0571    0.0000 </r>
       <r>   18.0574    0.0000 </r>
       <r>   18.0961    0.0000 </r>
       <r>   18.0963    0.0000 </r>
       <r>   18.1798    0.0000 </r>
       <r>   18.1800    0.0000 </r>
       <r>   18.1806    0.0000 </r>
      </set>
     </set>
    </set>
   </array>
  </eigenvalues>
  <separator name="orbital magnetization" >
   <v name="MAGDIPOLOUT">      0.00000000      0.00000000      0.00000000</v>
  </separator>
  <dos>
   <i name="efermi">      9.69621481 </i>
   <total>
    <array>
     <dimension dim="1">gridpoints</dimension>
     <dimension dim="2">spin</dimension>
     <field>energy</field>
     <field>total</field>
     <field>integrated</field>
     <set>
      <set comment="spin 1">
       <r>   -13.7525     0.0000     0.0000 </r>
       <r>   -13.6286     0.0000     0.0000 </r>
       <r>   -13.5047     0.0000     0.0000 </r>
       <r>   -13.3808    -0.0000    -0.0000 </r>
       <r>   -13.2569    -0.0000    -0.0000 </r>
       <r>   -13.1329    -0.0000    -0.0000 </r>
       <r>   -13.0090    -0.0000    -0.0000 </r>
       <r>   -12.8851    -0.0000    -0.0000 </r>
       <r>   -12.7612    -0.0000    -0.0000 </r>
       <r>   -12.6373    -0.0000    -0.0000 </r>
       <r>   -12.5133    -0.0000    -0.0000 </r>
       <r>   -12.3894    -0.0000    -0.0000 </r>
       <r>   -12.2655    -0.0000    -0.0000 </r>
       <r>   -12.1416    -0.0003    -0.0000 </r>
       <r>   -12.0176    -0.0024    -0.0003 </r>
       <r>   -11.8937    -0.0049    -0.0009 </r>
       <r>   -11.7698     0.0149     0.0009 </r>
       <r>   -11.6459     0.0843     0.0114 </r>
       <r>   -11.5220     0.1749     0.0330 </r>
       <r>   -11.3980     0.2436     0.0632 </r>
       <r>   -11.2741     0.2915     0.0993 </r>
       <r>   -11.1502     0.3352     0.1409 </r>
       <r>   -11.0263     0.3652     0.1861 </r>
       <r>   -10.9024     0.4061     0.2365 </r>
       <r>   -10.7784     0.4385     0.2908 </r>
       <r>   -10.6545     0.4526     0.3469 </r>
       <r>   -10.5306     0.4966     0.4084 </r>
       <r>   -10.4067     0.5341     0.4746 </r>
       <r>   -10.2827     0.5224     0.5394 </r>
       <r>   -10.1588     0.5590     0.6086 </r>
       <r>   -10.0349     0.6301     0.6867 </r>
       <r>    -9.9110     0.6052     0.7617 </r>
       <r>    -9.7871     0.6035     0.8365 </r>
       <r>    -9.6631     0.6752     0.9202 </r>
       <r>    -9.5392     0.7053     1.0076 </r>
       <r>    -9.4153     0.7063     1.0951 </r>
       <r>    -9.2914     0.6988     1.1817 </r>
       <r>    -9.1674     0.7052     1.2691 </r>
       <r>    -9.0435     0.8050     1.3688 </r>
       <r>    -8.9196     0.8494     1.4741 </r>
       <r>    -8.7957     0.7474     1.5667 </r>
       <r>    -8.6718     0.7550     1.6603 </r>
       <r>    -8.5478     0.8858     1.7700 </r>
       <r>    -8.4239     0.9126     1.8831 </r>
       <r>    -8.3000     0.8791     1.9921 </r>
       <r>    -8.1761     0.8791     2.1010 </r>
       <r>    -8.0522     0.8974     2.2122 </r>
       <r>    -7.9282     0.9125     2.3253 </r>
       <r>    -7.8043     0.9788     2.4466 </r>
       <r>    -7.6804     1.0477     2.5764 </r>
       <r>    -7.5565     1.0392     2.7052 </r>
       <r>    -7.4325     0.9450     2.8223 </r>
       <r>    -7.3086     0.9267     2.9372 </r>
       <r>    -7.1847     1.1235     3.0764 </r>
       <r>    -7.0608     1.2196     3.2275 </r>
       <r>    -6.9369     1.0904     3.3626 </r>
       <r>    -6.8129     1.0873     3.4974 </r>
       <r>    -6.6890     1.1435     3.6391 </r>
       <r>    -6.5651     1.1661     3.7836 </r>
       <r>    -6.4412     1.2394     3.9372 </r>
       <r>    -6.3173     1.2578     4.0930 </r>
       <r>    -6.1933     1.3844     4.2646 </r>
       <r>    -6.0694     1.4868     4.4488 </r>
       <r>    -5.9455     1.4236     4.6253 </r>
       <r>    -5.8216     1.3904     4.7976 </r>
       <r>    -5.6976     1.4680     4.9795 </r>
       <r>    -5.5737     1.5880     5.1763 </r>
       <r>    -5.4498     1.5737     5.3713 </r>
       <r>    -5.3259     1.3045     5.5329 </r>
       <r>    -5.2020     1.2712     5.6905 </r>
       <r>    -5.0780     1.4296     5.8676 </r>
       <r>    -4.9541     1.1894     6.0150 </r>
       <r>    -4.8302     1.0711     6.1478 </r>
       <r>    -4.7063     1.3371     6.3135 </r>
       <r>    -4.5824     1.3587     6.4818 </r>
       <r>    -4.4584     1.1397     6.6231 </r>
       <r>    -4.3345     0.9538     6.7413 </r>
       <r>    -4.2106     0.9978     6.8649 </r>
       <r>    -4.0867     1.0765     6.9983 </r>
       <r>    -3.9627     0.9453     7.1155 </r>
       <r>    -3.8388     0.8770     7.2241 </r>
       <r>    -3.7149     0.9425     7.3409 </r>
       <r>    -3.5910     1.0531     7.4714 </r>
       <r>    -3.4671     1.1307     7.6116 </r>
       <r>    -3.3431     1.0431     7.7408 </r>
       <r>    -3.2192     0.8869     7.8507 </r>
       <r>    -3.0953     0.9233     7.9652 </r>
       <r>    -2.9714     1.2155     8.1158 </r>
       <r>    -2.8475     1.2670     8.2728 </r>
       <r>    -2.7235     1.1447     8.4146 </r>
       <r>    -2.5996     1.0422     8.5438 </r>
       <r>    -2.4757     0.9946     8.6670 </r>
       <r>    -2.3518     1.1503     8.8096 </r>
       <r>    -2.2278     1.1880     8.9568 </r>
       <r>    -2.1039     1.2881     9.1164 </r>
       <r>    -1.9800     1.9970     9.3639 </r>
       <r>    -1.8561     2.8038     9.7114 </r>
       <r>    -1.7322     2.8806    10.0683 </r>
       <r>    -1.6082     2.2255    10.3441 </r>
       <r>    -1.4843     1.6322    10.5464 </r>
       <r>    -1.3604     1.5854    10.7428 </r>
       <r>    -1.2365     1.7636    10.9614 </r>
       <r>    -1.1126     2.0037    11.2097 </r>
       <r>    -0.9886     1.9321    11.4491 </r>
       <r>    -0.8647     1.3683    11.6187 </r>
       <r>    -0.7408     1.1200    11.7575 </r>
       <r>    -0.6169     1.1865    11.9045 </r>
       <r>    -0.4929     1.0918    12.0398 </r>
       <r>    -0.3690     1.1173    12.1783 </r>
       <r>    -0.2451     1.4375    12.3564 </r>
       <r>    -0.1212     1.4210    12.5325 </r>
       <r>     0.0027     1.0336    12.6606 </r>
       <r>     0.1267     0.9707    12.7809 </r>
       <r>     0.2506     0.9504    12.8986 </r>
       <r>     0.3745     0.9364    13.0147 </r>
       <r>     0.4984     1.3184    13.1780 </r>
       <r>     0.6223     1.8101    13.4024 </r>
       <r>     0.7463     1.8303    13.6292 </r>
       <r>     0.8702     1.6557    13.8343 </r>
       <r>     0.9941     1.8777    14.0670 </r>
       <r>     1.1180     2.1542    14.3340 </r>
       <r>     1.2420     2.1469    14.6000 </r>
       <r>     1.3659     2.0832    14.8582 </r>
       <r>     1.4898     2.0413    15.1111 </r>
       <r>     1.6137     1.9770    15.3561 </r>
       <r>     1.7376     1.9062    15.5924 </r>
       <r>     1.8616     2.0504    15.8464 </r>
       <r>     1.9855     2.3928    16.1430 </r>
       <r>     2.1094     2.3000    16.4280 </r>
       <r>     2.2333     1.8816    16.6612 </r>
       <r>     2.3572     1.7973    16.8839 </r>
       <r>     2.4812     2.1637    17.1520 </r>
       <r>     2.6051     2.7384    17.4914 </r>
       <r>     2.7290     2.6656    17.8217 </r>
       <r>     2.8529     1.9934    18.0687 </r>
       <r>     2.9769     2.1078    18.3299 </r>
       <r>     3.1008     2.8739    18.6860 </r>
       <r>     3.2247     2.9167    19.0475 </r>
       <r>     3.3486     2.6832    19.3800 </r>
       <r>     3.4725     2.8796    19.7368 </r>
       <r>     3.5965     3.2092    20.1345 </r>
       <r>     3.7204     3.5073    20.5691 </r>
       <r>     3.8443     3.2813    20.9758 </r>
       <r>     3.9682     2.8308    21.3266 </r>
       <r>     4.0921     2.8247    21.6766 </r>
       <r>     4.2161     3.0548    22.0551 </r>
       <r>     4.3400     3.2536    22.4583 </r>
       <r>     4.4639     3.3367    22.8718 </r>
       <r>     4.5878     2.8041    23.2193 </r>
       <r>     4.7118     2.4118    23.5182 </r>
       <r>     4.8357     2.9416    23.8827 </r>
       <r>     4.9596     3.3983    24.3038 </r>
       <r>     5.0835     2.9358    24.6677 </r>
       <r>     5.2074     2.4664    24.9733 </r>
       <r>     5.3314     2.6084    25.2965 </r>
       <r>     5.4553     2.9366    25.6604 </r>
       <r>     5.5792     3.0850    26.0427 </r>
       <r>     5.7031     2.6724    26.3739 </r>
       <r>     5.8270     2.3647    26.6669 </r>
       <r>     5.9510     2.5835    26.9871 </r>
       <r>     6.0749     2.8899    27.3452 </r>
       <r>     6.1988     2.8815    27.7023 </r>
       <r>     6.3227     2.4677    28.0081 </r>
       <r>     6.4467     2.2365    28.2853 </r>
       <r>     6.5706     2.5682    28.6035 </r>
       <r>     6.6945     2.8763    28.9600 </r>
       <r>     6.8184     2.5444    29.2753 </r>
       <r>     6.9423     2.0683    29.5316 </r>
       <r>     7.0663     1.9713    29.7759 </r>
       <r>     7.1902     1.8961    30.0108 </r>
       <r>     7.3141     1.6399    30.2141 </r>
       <r>     7.4380     1.4667    30.3958 </r>
       <r>     7.5619     1.4225    30.5721 </r>
       <r>     7.6859     1.2356    30.7252 </r>
       <r>     7.8098     1.1249    30.8646 </r>
       <r>     7.9337     1.1253    31.0041 </r>
       <r>     8.0576     1.0619    31.1356 </r>
       <r>     8.1816     0.9464    31.2529 </r>
       <r>     8.3055     0.8192    31.3544 </r>
       <r>     8.4294     0.7585    31.4484 </r>
       <r>     8.5533     0.7688    31.5437 </r>
       <r>     8.6772     0.7043    31.6310 </r>
       <r>     8.8012     0.5786    31.7027 </r>
       <r>     8.9251     0.5078    31.7656 </r>
       <r>     9.0490     0.5004    31.8276 </r>
       <r>     9.1729     0.4366    31.8817 </r>
       <r>     9.2968     0.3508    31.9252 </r>
       <r>     9.4208     0.2813    31.9601 </r>
       <r>     9.5447     0.2108    31.9862 </r>
       <r>     9.6686     0.1027    31.9989 </r>
       <r>     9.7925     0.0175    32.0011 </r>
       <r>     9.9165    -0.0053    32.0004 </r>
       <r>    10.0404    -0.0028    32.0001 </r>
       <r>    10.1643    -0.0005    32.0000 </r>
       <r>    10.2882    -0.0000    32.0000 </r>
       <r>    10.4121    -0.0000    32.0000 </r>
       <r>    10.5361    -0.0000    32.0000 </r>
       <r>    10.6600    -0.0000    32.0000 </r>
       <r>    10.7839    -0.0000    32.0000 </r>
       <r>    10.9078    -0.0000    32.0000 </r>
       <r>    11.0317     0.0000    32.0000 </r>
       <r>    11.1557     0.0000    32.0000 </r>
       <r>    11.2796     0.0000    32.0000 </r>
       <r>    11.4035     0.0000    32.0000 </r>
       <r>    11.5274     0.0000    32.0000 </r>
       <r>    11.6514     0.0000    32.0000 </r>
       <r>    11.7753     0.0000    32.0000 </r>
       <r>    11.8992     0.0000    32.0000 </r>
       <r>    12.0231     0.0000    32.0000 </r>
       <r>    12.1470    -0.0000    32.0000 </r>
       <r>    12.2710    -0.0000    32.0000 </r>
       <r>    12.3949    -0.0000    32.0000 </r>
       <r>    12.5188    -0.0000    32.0000 </r>
       <r>    12.6427    -0.0000    32.0000 </r>
       <r>    12.7666    -0.0000    32.0000 </r>
       <r>    12.8906    -0.0000    32.0000 </r>
       <r>    13.0145    -0.0000    32.0000 </r>
       <r>    13.1384    -0.0000    32.0000 </r>
       <r>    13.2623    -0.0000    32.0000 </r>
       <r>    13.3863    -0.0006    31.9999 </r>
       <r>    13.5102    -0.0034    31.9995 </r>
       <r>    13.6341    -0.0073    31.9986 </r>
       <r>    13.7580     0.0163    32.0006 </r>
       <r>    13.8819     0.1298    32.0167 </r>
       <r>    14.0059     0.3144    32.0557 </r>
       <r>    14.1298     0.3995    32.1052 </r>
       <r>    14.2537     0.4268    32.1581 </r>
       <r>    14.3776     0.6765    32.2419 </r>
       <r>    14.5015     0.9625    32.3612 </r>
       <r>    14.6255     0.9364    32.4772 </r>
       <r>    14.7494     0.7745    32.5732 </r>
       <r>    14.8733     1.0645    32.7051 </r>
       <r>    14.9972     1.5868    32.9018 </r>
       <r>    15.1212     1.6154    33.1019 </r>
       <r>    15.2451     1.4902    33.2866 </r>
       <r>    15.3690     1.5227    33.4753 </r>
       <r>    15.4929     1.5677    33.6696 </r>
       <r>    15.6168     1.8254    33.8958 </r>
       <r>    15.7408     2.1759    34.1654 </r>
       <r>    15.8647     2.1481    34.4316 </r>
       <r>    15.9886     1.9605    34.6746 </r>
       <r>    16.1125     1.9450    34.9156 </r>
       <r>    16.2364     1.9954    35.1629 </r>
       <r>    16.3604     2.0500    35.4169 </r>
       <r>    16.4843     2.3538    35.7086 </r>
       <r>    16.6082     2.6861    36.0415 </r>
       <r>    16.7321     2.6549    36.3705 </r>
       <r>    16.8561     2.6163    36.6947 </r>
       <r>    16.9800     2.5739    37.0136 </r>
       <r>    17.1039     2.5035    37.3239 </r>
       <r>    17.2278     2.8094    37.6720 </r>
       <r>    17.3517     3.2503    38.0748 </r>
       <r>    17.4757     3.3236    38.4867 </r>
       <r>    17.5996     3.2332    38.8873 </r>
       <r>    17.7235     3.5703    39.3298 </r>
       <r>    17.8474     4.1636    39.8457 </r>
       <r>    17.9713     4.5342    40.4076 </r>
       <r>    18.0953     4.3812    40.9506 </r>
       <r>    18.2192     3.8379    41.4262 </r>
       <r>    18.3431     3.5386    41.8647 </r>
       <r>    18.4670     3.6861    42.3215 </r>
       <r>    18.5910     3.9053    42.8054 </r>
       <r>    18.7149     3.7484    43.2699 </r>
       <r>    18.8388     3.3197    43.6813 </r>
       <r>    18.9627     3.1569    44.0725 </r>
       <r>    19.0866     2.8390    44.4243 </r>
       <r>    19.2106     2.3381    44.7141 </r>
       <r>    19.3345     2.4807    45.0215 </r>
       <r>    19.4584     3.0235    45.3961 </r>
       <r>    19.5823     2.9932    45.7671 </r>
       <r>    19.7062     2.4816    46.0746 </r>
       <r>    19.8302     2.5141    46.3861 </r>
       <r>    19.9541     2.5165    46.6980 </r>
       <r>    20.0780     2.0823    46.9560 </r>
       <r>    20.2019     1.6636    47.1622 </r>
       <r>    20.3259     1.4535    47.3423 </r>
       <r>    20.4498     1.3143    47.5052 </r>
       <r>    20.5737     1.1794    47.6513 </r>
       <r>    20.6976     1.1101    47.7889 </r>
       <r>    20.8215     0.8223    47.8908 </r>
       <r>    20.9455     0.3635    47.9358 </r>
       <r>    21.0694     0.1161    47.9502 </r>
       <r>    21.1933     0.0887    47.9612 </r>
       <r>    21.3172     0.1016    47.9738 </r>
       <r>    21.4411     0.1301    47.9899 </r>
       <r>    21.5651     0.0806    47.9999 </r>
       <r>    21.6890     0.0084    48.0010 </r>
       <r>    21.8129    -0.0061    48.0002 </r>
       <r>    21.9368    -0.0016    48.0000 </r>
       <r>    22.0608    -0.0001    48.0000 </r>
       <r>    22.1847    -0.0000    48.0000 </r>
       <r>    22.3086    -0.0000    48.0000 </r>
       <r>    22.4325    -0.0000    48.0000 </r>
       <r>    22.5564    -0.0000    48.0000 </r>
       <r>    22.6804    -0.0000    48.0000 </r>
       <r>    22.8043     0.0000    48.0000 </r>
       <r>    22.9282     0.0000    48.0000 </r>
       <r>    23.0521     0.0000    48.0000 </r>
       <r>    23.1760     0.0000    48.0000 </r>
       <r>    23.3000     0.0000    48.0000 </r>
       <r>    23.4239     0.0000    48.0000 </r>
      </set>
     </set>
    </array>
   </total>
  </dos>
 </calculation>
 <structure name="finalpos" >
  <crystal>
   <varray name="basis" >
    <v>       3.57256984       0.00000000       0.00000000 </v>
    <v>       0.00000000       3.57256984       0.00000000 </v>
    <v>      -0.00000000       0.00000000       3.57256984 </v>
   </varray>
   <i name="volume">     45.59762073 </i>
   <varray name="rec_basis" >
    <v>       0.27991055      -0.00000000       0.00000000 </v>
    <v>      -0.00000000       0.27991055      -0.00000000 </v>
    <v>      -0.00000000      -0.00000000       0.27991055 </v>
   </varray>
  </crystal>
  <varray name="positions" >
   <v>       0.00000000       0.00000000       0.50000000 </v>
   <v>       0.25000000       0.25000000       0.75000000 </v>
   <v>       0.00000000       0.50000000       0.00000000 </v>
   <v>       0.25000000       0.75000000       0.25000000 </v>
   <v>       0.50000000       0.00000000       0.00000000 </v>
   <v>       0.75000000       0.25000000       0.25000000 </v>
   <v>       0.50000000       0.50000000       0.50000000 </v>
   <v>       0.75000000       0.75000000       0.75000000 </v>
  </varray>
 </structure>
</modeling>
