C8                                      
           1
     3.560745    0.000000    0.000000
     0.000000    3.560745    0.000000
     0.000000    0.000000    3.560745
   C 
     8
Direct configuration=     1
   0.00000000  0.00000000  0.50000000
   0.25000000  0.25000000  0.75000000
   0.00000000  0.50000000  0.00000000
   0.25000000  0.75000000  0.25000000
   0.50000000  0.00000000  0.00000000
   0.75000000  0.25000000  0.25000000
   0.50000000  0.50000000  0.50000000
   0.75000000  0.75000000  0.75000000
C8                                      
           1
     3.586041    0.000000    0.000000
     0.000000    3.586041    0.000000
    -0.000000    0.000000    3.586041
   C 
     8
Direct configuration=     2
   0.00000000  1.00000000  0.50000000
   0.25000000  0.25000000  0.75000000
   0.00000000  0.50000000  0.00000000
   0.25000000  0.75000000  0.25000000
   0.50000000  1.00000000  1.00000000
   0.75000000  0.25000000  0.25000000
   0.50000000  0.50000000  0.50000000
   0.75000000  0.75000000  0.75000000
C8                                      
           1
     3.572570    0.000000    0.000000
     0.000000    3.572570    0.000000
    -0.000000    0.000000    3.572570
   C 
     8
Direct configuration=     3
   0.00000000  0.00000000  0.50000000
   0.25000000  0.25000000  0.75000000
   0.00000000  0.50000000  0.00000000
   0.25000000  0.75000000  0.25000000
   0.50000000  0.00000000  0.00000000
   0.75000000  0.25000000  0.25000000
   0.50000000  0.50000000  0.50000000
   0.75000000  0.75000000  0.75000000
