  64  64   0   0
  0.1997583E+02  0.1081714E-08  0.1087150E-08  0.1087147E-08  0.5000000E-15
  1.000000000000000E-004
  CAR 
 Si64                                    
     11.27502966     -8.19132158  301      6.15976260      1.00000000
     -8.191  0.0000E+00  0.0000E+00
     -8.126  0.0000E+00  0.0000E+00
     -8.062  0.0000E+00  0.0000E+00
     -7.997  0.0000E+00  0.0000E+00
     -7.932  0.0000E+00  0.0000E+00
     -7.867  0.0000E+00  0.0000E+00
     -7.802 -0.9933E-29 -0.6446E-30
     -7.737 -0.1586E-26 -0.1036E-27
     -7.672 -0.2058E-24 -0.1345E-25
     -7.607 -0.2158E-22 -0.1414E-23
     -7.542 -0.1829E-20 -0.1201E-21
     -7.478 -0.1252E-18 -0.8243E-20
     -7.413 -0.6921E-17 -0.4573E-18
     -7.348 -0.2981E-15 -0.1980E-16
     -7.283 -0.1075E-13 -0.7174E-15
     -7.218 -0.3106E-12 -0.2087E-13
     -7.153 -0.7224E-11 -0.4896E-12
     -7.088 -0.1350E-09 -0.9250E-11
     -7.023 -0.2025E-08 -0.1406E-09
     -6.958 -0.2431E-07 -0.1718E-08
     -6.894 -0.2329E-06 -0.1683E-07
     -6.829 -0.1773E-05 -0.1319E-06
     -6.764 -0.1066E-04 -0.8234E-06
     -6.699 -0.5007E-04 -0.4072E-05
     -6.634 -0.1809E-03 -0.1581E-04
     -6.569 -0.4866E-03 -0.4739E-04
     -6.504 -0.9071E-03 -0.1062E-03
     -6.439 -0.9031E-03 -0.1648E-03
     -6.374  0.5487E-03 -0.1292E-03
     -6.310  0.3914E-02  0.1248E-03
     -6.245  0.7973E-02  0.6421E-03
     -6.180  0.1168E-01  0.1400E-02
     -6.115  0.1862E-01  0.2608E-02
     -6.050  0.3589E-01  0.4937E-02
     -5.985  0.6329E-01  0.9044E-02
     -5.920  0.8829E-01  0.1477E-01
     -5.855  0.1023E+00  0.2141E-01
     -5.790  0.1179E+00  0.2906E-01
     -5.726  0.1512E+00  0.3887E-01
     -5.661  0.1899E+00  0.5120E-01
     -5.596  0.2019E+00  0.6430E-01
     -5.531  0.1804E+00  0.7601E-01
     -5.466  0.1525E+00  0.8590E-01
     -5.401  0.1374E+00  0.9482E-01
     -5.336  0.1243E+00  0.1029E+00
     -5.271  0.1010E+00  0.1094E+00
     -5.206  0.7792E-01  0.1145E+00
     -5.142  0.7166E-01  0.1191E+00
     -5.077  0.8994E-01  0.1250E+00
     -5.012  0.1434E+00  0.1343E+00
     -4.947  0.2404E+00  0.1499E+00
     -4.882  0.3552E+00  0.1729E+00
     -4.817  0.4362E+00  0.2012E+00
     -4.752  0.4655E+00  0.2314E+00
     -4.687  0.4698E+00  0.2619E+00
     -4.622  0.4551E+00  0.2914E+00
     -4.558  0.3845E+00  0.3164E+00
     -4.493  0.2458E+00  0.3323E+00
     -4.428  0.9241E-01  0.3383E+00
     -4.363 -0.5494E-02  0.3380E+00
     -4.298 -0.1432E-01  0.3371E+00
     -4.233  0.6413E-01  0.3412E+00
     -4.168  0.2096E+00  0.3548E+00
     -4.103  0.3794E+00  0.3794E+00
     -4.038  0.5068E+00  0.4123E+00
     -3.974  0.5324E+00  0.4469E+00
     -3.909  0.4509E+00  0.4761E+00
     -3.844  0.3217E+00  0.4970E+00
     -3.779  0.2287E+00  0.5118E+00
     -3.714  0.2317E+00  0.5269E+00
     -3.649  0.3413E+00  0.5490E+00
     -3.584  0.5116E+00  0.5822E+00
     -3.519  0.6622E+00  0.6252E+00
     -3.455  0.7325E+00  0.6727E+00
     -3.390  0.7153E+00  0.7191E+00
     -3.325  0.6369E+00  0.7605E+00
     -3.260  0.5310E+00  0.7949E+00
     -3.195  0.4409E+00  0.8235E+00
     -3.130  0.4070E+00  0.8499E+00
     -3.065  0.4149E+00  0.8769E+00
     -3.000  0.3918E+00  0.9023E+00
     -2.935  0.2897E+00  0.9211E+00
     -2.871  0.1444E+00  0.9304E+00
     -2.806  0.2779E-01  0.9322E+00
     -2.741 -0.2656E-01  0.9305E+00
     -2.676 -0.2910E-01  0.9286E+00
     -2.611  0.5713E-02  0.9290E+00
     -2.546  0.7260E-01  0.9337E+00
     -2.481  0.1520E+00  0.9436E+00
     -2.416  0.1993E+00  0.9565E+00
     -2.351  0.1779E+00  0.9680E+00
     -2.287  0.1002E+00  0.9746E+00
     -2.222  0.2584E-01  0.9762E+00
     -2.157  0.2365E-01  0.9778E+00
     -2.092  0.1338E+00  0.9864E+00
     -2.027  0.3380E+00  0.1008E+01
     -1.962  0.5470E+00  0.1044E+01
     -1.897  0.6417E+00  0.1086E+01
     -1.832  0.5621E+00  0.1122E+01
     -1.767  0.3593E+00  0.1145E+01
     -1.703  0.1509E+00  0.1155E+01
     -1.638  0.3182E-01  0.1157E+01
     -1.573  0.2619E-01  0.1159E+01
     -1.508  0.9541E-01  0.1165E+01
     -1.443  0.1705E+00  0.1176E+01
     -1.378  0.1944E+00  0.1189E+01
     -1.313  0.1610E+00  0.1199E+01
     -1.248  0.1180E+00  0.1207E+01
     -1.183  0.1263E+00  0.1215E+01
     -1.119  0.2089E+00  0.1229E+01
     -1.054  0.3245E+00  0.1250E+01
     -0.989  0.3990E+00  0.1276E+01
     -0.924  0.4048E+00  0.1302E+01
     -0.859  0.4032E+00  0.1328E+01
     -0.794  0.4828E+00  0.1359E+01
     -0.729  0.6651E+00  0.1402E+01
     -0.664  0.8700E+00  0.1459E+01
     -0.599  0.9581E+00  0.1521E+01
     -0.535  0.8298E+00  0.1575E+01
     -0.470  0.5254E+00  0.1609E+01
     -0.405  0.2141E+00  0.1623E+01
     -0.340  0.6057E-01  0.1627E+01
     -0.275  0.1067E+00  0.1634E+01
     -0.210  0.2635E+00  0.1651E+01
     -0.145  0.3898E+00  0.1676E+01
     -0.080  0.3959E+00  0.1702E+01
     -0.015  0.2989E+00  0.1721E+01
      0.049  0.1800E+00  0.1733E+01
      0.114  0.1034E+00  0.1740E+01
      0.179  0.8883E-01  0.1745E+01
      0.244  0.1324E+00  0.1754E+01
      0.309  0.2221E+00  0.1768E+01
      0.374  0.3364E+00  0.1790E+01
      0.439  0.4377E+00  0.1819E+01
      0.504  0.4728E+00  0.1849E+01
      0.569  0.4043E+00  0.1876E+01
      0.633  0.2558E+00  0.1892E+01
      0.698  0.1032E+00  0.1899E+01
      0.763  0.8629E-02  0.1899E+01
      0.828 -0.2217E-01  0.1898E+01
      0.893 -0.1941E-01  0.1897E+01
      0.958 -0.1108E-01  0.1896E+01
      1.023 -0.9797E-02  0.1895E+01
      1.088 -0.1957E-01  0.1894E+01
      1.153 -0.3852E-01  0.1892E+01
      1.217 -0.4582E-01  0.1889E+01
      1.282  0.1451E-01  0.1890E+01
      1.347  0.2119E+00  0.1903E+01
      1.412  0.5460E+00  0.1939E+01
      1.477  0.8744E+00  0.1995E+01
      1.542  0.9856E+00  0.2059E+01
      1.607  0.7977E+00  0.2111E+01
      1.672  0.4598E+00  0.2141E+01
      1.737  0.2157E+00  0.2155E+01
      1.801  0.1857E+00  0.2167E+01
      1.866  0.2968E+00  0.2186E+01
      1.931  0.3922E+00  0.2212E+01
      1.996  0.3836E+00  0.2237E+01
      2.061  0.3279E+00  0.2258E+01
      2.126  0.3805E+00  0.2283E+01
      2.191  0.6548E+00  0.2325E+01
      2.256  0.1088E+01  0.2396E+01
      2.321  0.1442E+01  0.2489E+01
      2.385  0.1473E+01  0.2585E+01
      2.450  0.1140E+01  0.2659E+01
      2.515  0.6342E+00  0.2700E+01
      2.580  0.2026E+00  0.2713E+01
      2.645 -0.3559E-01  0.2711E+01
      2.710 -0.1102E+00  0.2704E+01
      2.775 -0.8470E-01  0.2698E+01
      2.840  0.3669E-01  0.2701E+01
      2.904  0.2924E+00  0.2719E+01
      2.969  0.6735E+00  0.2763E+01
      3.034  0.1072E+01  0.2833E+01
      3.099  0.1339E+01  0.2920E+01
      3.164  0.1399E+01  0.3010E+01
      3.229  0.1284E+01  0.3094E+01
      3.294  0.1072E+01  0.3163E+01
      3.359  0.8330E+00  0.3217E+01
      3.424  0.6462E+00  0.3259E+01
      3.488  0.5932E+00  0.3298E+01
      3.553  0.6730E+00  0.3341E+01
      3.618  0.7528E+00  0.3390E+01
      3.683  0.6925E+00  0.3435E+01
      3.748  0.5179E+00  0.3469E+01
      3.813  0.3934E+00  0.3494E+01
      3.878  0.4176E+00  0.3521E+01
      3.943  0.5193E+00  0.3555E+01
      4.008  0.5791E+00  0.3593E+01
      4.072  0.5808E+00  0.3630E+01
      4.137  0.5905E+00  0.3669E+01
      4.202  0.6389E+00  0.3710E+01
      4.267  0.7016E+00  0.3756E+01
      4.332  0.7684E+00  0.3806E+01
      4.397  0.8552E+00  0.3861E+01
      4.462  0.9405E+00  0.3922E+01
      4.527  0.9448E+00  0.3983E+01
      4.592  0.8009E+00  0.4035E+01
      4.656  0.5314E+00  0.4070E+01
      4.721  0.2457E+00  0.4086E+01
      4.786  0.6341E-01  0.4090E+01
      4.851  0.4536E-01  0.4093E+01
      4.916  0.1705E+00  0.4104E+01
      4.981  0.3457E+00  0.4126E+01
      5.046  0.4490E+00  0.4155E+01
      5.111  0.4092E+00  0.4182E+01
      5.176  0.2593E+00  0.4199E+01
      5.240  0.9941E-01  0.4205E+01
      5.305  0.1234E-01  0.4206E+01
      5.370  0.1971E-01  0.4207E+01
      5.435  0.9137E-01  0.4213E+01
      5.500  0.1696E+00  0.4224E+01
      5.565  0.2000E+00  0.4237E+01
      5.630  0.1682E+00  0.4248E+01
      5.695  0.1083E+00  0.4255E+01
      5.760  0.6308E-01  0.4259E+01
      5.824  0.4420E-01  0.4262E+01
      5.889  0.3504E-01  0.4264E+01
      5.954  0.2071E-01  0.4266E+01
      6.019  0.3110E-02  0.4266E+01
      6.084 -0.5135E-02  0.4266E+01
      6.149  0.9957E-02  0.4266E+01
      6.214  0.5567E-01  0.4270E+01
      6.279  0.1215E+00  0.4278E+01
      6.344  0.1758E+00  0.4289E+01
      6.408  0.1844E+00  0.4301E+01
      6.473  0.1401E+00  0.4310E+01
      6.538  0.6956E-01  0.4315E+01
      6.603  0.1378E-01  0.4316E+01
      6.668  0.6119E-02  0.4316E+01
      6.733  0.6057E-01  0.4320E+01
      6.798  0.1591E+00  0.4330E+01
      6.863  0.2464E+00  0.4346E+01
      6.928  0.2657E+00  0.4364E+01
      6.992  0.2229E+00  0.4378E+01
      7.057  0.2019E+00  0.4391E+01
      7.122  0.2833E+00  0.4410E+01
      7.187  0.4395E+00  0.4438E+01
      7.252  0.5385E+00  0.4473E+01
      7.317  0.4737E+00  0.4504E+01
      7.382  0.2808E+00  0.4522E+01
      7.447  0.1159E+00  0.4529E+01
      7.512  0.1329E+00  0.4538E+01
      7.576  0.3681E+00  0.4562E+01
      7.641  0.6993E+00  0.4607E+01
      7.706  0.9171E+00  0.4667E+01
      7.771  0.8919E+00  0.4725E+01
      7.836  0.6943E+00  0.4770E+01
      7.901  0.5272E+00  0.4804E+01
      7.966  0.5404E+00  0.4839E+01
      8.031  0.7251E+00  0.4886E+01
      8.096  0.9580E+00  0.4948E+01
      8.160  0.1104E+01  0.5020E+01
      8.225  0.1096E+01  0.5091E+01
      8.290  0.9516E+00  0.5153E+01
      8.355  0.7418E+00  0.5201E+01
      8.420  0.5313E+00  0.5235E+01
      8.485  0.3617E+00  0.5259E+01
      8.550  0.2563E+00  0.5275E+01
      8.615  0.2210E+00  0.5290E+01
      8.680  0.2476E+00  0.5306E+01
      8.744  0.3111E+00  0.5326E+01
      8.809  0.3592E+00  0.5349E+01
      8.874  0.3352E+00  0.5371E+01
      8.939  0.2322E+00  0.5386E+01
      9.004  0.1063E+00  0.5393E+01
      9.069  0.2056E-01  0.5394E+01
      9.134 -0.5820E-02  0.5394E+01
      9.199  0.5465E-02  0.5394E+01
      9.264  0.2366E-01  0.5396E+01
      9.328  0.3028E-01  0.5398E+01
      9.393  0.2339E-01  0.5399E+01
      9.458  0.1123E-01  0.5400E+01
      9.523  0.2107E-02  0.5400E+01
      9.588 -0.1514E-02  0.5400E+01
      9.653 -0.1667E-02  0.5400E+01
      9.718 -0.8882E-03  0.5400E+01
      9.783 -0.3240E-03  0.5400E+01
      9.847 -0.8792E-04  0.5400E+01
      9.912 -0.1835E-04  0.5400E+01
      9.977 -0.2997E-05  0.5400E+01
     10.042 -0.3867E-06  0.5400E+01
     10.107 -0.3968E-07  0.5400E+01
     10.172 -0.3252E-08  0.5400E+01
     10.237 -0.2135E-09  0.5400E+01
     10.302 -0.1125E-10  0.5400E+01
     10.367 -0.4767E-12  0.5400E+01
     10.431 -0.1625E-13  0.5400E+01
     10.496 -0.4563E-15  0.5400E+01
     10.561  0.0000E+00  0.5400E+01
     10.626  0.0000E+00  0.5400E+01
     10.691  0.0000E+00  0.5400E+01
     10.756  0.0000E+00  0.5400E+01
     10.821  0.0000E+00  0.5400E+01
     10.886  0.0000E+00  0.5400E+01
     10.951  0.0000E+00  0.5400E+01
     11.015  0.0000E+00  0.5400E+01
     11.080  0.0000E+00  0.5400E+01
     11.145  0.0000E+00  0.5400E+01
     11.210  0.0000E+00  0.5400E+01
     11.275  0.0000E+00  0.5400E+01
