       N       E                     dE             d eps       ncg     rms          rms(c)
DAV:   1     0.558986126357E+03    0.55899E+03   -0.83950E+04  2592   0.106E+03
DAV:   2    -0.311276729650E+03   -0.87026E+03   -0.82565E+03  3096   0.172E+02
DAV:   3    -0.373092057742E+03   -0.61815E+02   -0.60727E+02  3144   0.410E+01
DAV:   4    -0.374655986386E+03   -0.15639E+01   -0.15530E+01  3144   0.792E+00
DAV:   5    -0.374701302131E+03   -0.45316E-01   -0.45220E-01  3104   0.128E+00    0.284E+01
RMM:   6    -0.369589880309E+03    0.51114E+01   -0.25718E+00  2592   0.250E+00    0.171E+01
RMM:   7    -0.367263236442E+03    0.23266E+01   -0.65836E+00  2630   0.402E+00    0.961E-01
RMM:   8    -0.367308297332E+03   -0.45061E-01   -0.66043E-01  2634   0.155E+00    0.502E-01
RMM:   9    -0.367328066942E+03   -0.19770E-01   -0.18458E-01  2670   0.759E-01    0.579E-01
RMM:  10    -0.367331708372E+03   -0.36414E-02   -0.32158E-02  2746   0.355E-01    0.806E-01
RMM:  11    -0.367329059789E+03    0.26486E-02   -0.11895E-02  2592   0.217E-01    0.587E-01
RMM:  12    -0.367329220827E+03   -0.16104E-03   -0.17890E-03  2601   0.996E-02    0.558E-01
RMM:  13    -0.367329274460E+03   -0.53633E-04   -0.34332E-04  2778   0.406E-02    0.662E-01
RMM:  14    -0.367329313755E+03   -0.39295E-04   -0.88043E-05  2598   0.234E-02    0.266E-01
RMM:  15    -0.367329356712E+03   -0.42958E-04   -0.27294E-05  2641   0.116E-02    0.205E-01
RMM:  16    -0.367329382480E+03   -0.25768E-04   -0.19465E-05  2592   0.995E-03    0.103E-01
RMM:  17    -0.367329388491E+03   -0.60105E-05   -0.78006E-06  2577   0.637E-03    0.248E-02
RMM:  18    -0.367329389105E+03   -0.61377E-06   -0.20999E-06  1643   0.314E-03
   1 F= -.36732939E+03 E0= -.36733815E+03  d E =-.367329E+03
       N       E                     dE             d eps       ncg     rms          rms(c)
DAV:   1    -0.367364703975E+03   -0.35315E-01   -0.16608E+00  2952   0.246E+00    0.553E-01
RMM:   2    -0.367373044489E+03   -0.83405E-02   -0.87238E-02  2592   0.616E-01    0.225E-01
RMM:   3    -0.367374386360E+03   -0.13419E-02   -0.14136E-02  2637   0.279E-01    0.970E-02
RMM:   4    -0.367374407595E+03   -0.21235E-04   -0.19839E-03  2680   0.117E-01    0.354E-02
RMM:   5    -0.367374421213E+03   -0.13618E-04   -0.33336E-04  2668   0.462E-02    0.762E-03
RMM:   6    -0.367374429530E+03   -0.83169E-05   -0.82828E-05  2800   0.206E-02    0.186E-03
RMM:   7    -0.367374430495E+03   -0.96558E-06   -0.10061E-05  2221   0.719E-03    0.156E-03
RMM:   8    -0.367374430657E+03   -0.16214E-06   -0.20435E-06  1728   0.316E-03
   2 F= -.36737443E+03 E0= -.36738094E+03  d E =-.450416E-01
       N       E                     dE             d eps       ncg     rms          rms(c)
DAV:   1    -0.367378416758E+03   -0.39863E-02   -0.90170E-02  2944   0.573E-01    0.129E-01
RMM:   2    -0.367378862169E+03   -0.44541E-03   -0.46172E-03  2592   0.143E-01    0.531E-02
RMM:   3    -0.367378930495E+03   -0.68325E-04   -0.72674E-04  2641   0.643E-02    0.221E-02
RMM:   4    -0.367378931599E+03   -0.11042E-05   -0.10042E-04  2664   0.269E-02    0.802E-03
RMM:   5    -0.367378932464E+03   -0.86484E-06   -0.17449E-05  2603   0.105E-02    0.173E-03
RMM:   6    -0.367378932816E+03   -0.35192E-06   -0.39824E-06  1856   0.470E-03    0.374E-04
RMM:   7    -0.367378932872E+03   -0.56517E-07   -0.62444E-07  1530   0.185E-03    0.337E-04
RMM:   8    -0.367378932899E+03   -0.26728E-07   -0.16402E-07  1215   0.930E-04
   3 F= -.36737893E+03 E0= -.36738619E+03  d E =-.495438E-01
