 vasp.6.4.3 19Mar24 (build Oct 21 2024 22:36:34) complex                        
  
 executed on             LinuxIFC date 2024.11.01  22:50:03
 running   96 mpi-ranks, on    1 nodes
 distrk:  each k-point on   24 cores,    4 groups
 distr:  one band on NCORE=  12 cores,    2 groups


--------------------------------------------------------------------------------------------------------


 INCAR:
   SYSTEM = Si64
   ISTART = 0
   ICHARG = 2
   LREAL = Auto
   PREC = Accurate
   LWAVE = .False.
   LCHARG = .False.
   ADDGRID = .True.
   ENCUT = 400
   GGA = PS
   GGA_COMPAT = .FALSE.
   ISMEAR = 1
   SIGMA = 0.2
   NELM = 60
   NELMIN = 8
   EDIFF = 1e-06
   EDIFFG = -0.01
   NSW = 60
   IBRION = 2
   ISIF = 2
   KPAR = 4
   NPAR = 2
   ALGO = Fast

 POTCAR:    PAW_PBE Si 05Jan2001                  
 POTCAR:    PAW_PBE Si 05Jan2001                  
   VRHFIN =Si: s2p2                                                                                 
   LEXCH  = PE                                                                                      
   EATOM  =   103.0669 eV,    7.5752 Ry                                                             
                                                                                                    
   TITEL  = PAW_PBE Si 05Jan2001                                                                    
   LULTRA =        F    use ultrasoft PP ?                                                          
   IUNSCR =        1    unscreen: 0-lin 1-nonlin 2-no                                               
   RPACOR =    1.500    partial core radius                                                         
   POMASS =   28.085; ZVAL   =    4.000    mass and valenz                                          
   RCORE  =    1.900    outmost cutoff radius                                                       
   RWIGS  =    2.480; RWIGS  =    1.312    wigner-seitz radius (au A)                               
   ENMAX  =  245.345; ENMIN  =  184.009 eV                                                          
   ICORE  =        2    local potential                                                             
   LCOR   =        T    correct aug charges                                                         
   LPAW   =        T    paw PP                                                                      
   EAUG   =  322.069                                                                                
   DEXC   =    0.000                                                                                
   RMAX   =    1.950    core radius for proj-oper                                                   
   RAUG   =    1.300    factor for augmentation sphere                                              
   RDEP   =    1.993    radius for radial grids                                                     
   RDEPT  =    1.837    core radius for aug-charge                                                  
                                                                                                    
   Atomic configuration                                                                             
    6 entries                                                                                       
     n  l   j            E        occ.                                                              
     1  0  0.50     -1785.8828   2.0000                                                             
     2  0  0.50      -139.4969   2.0000                                                             
     2  1  1.50       -95.5546   6.0000                                                             
     3  0  0.50       -10.8127   2.0000                                                             
     3  1  0.50        -4.0811   2.0000                                                             
     3  2  1.50        -4.0817   0.0000                                                             
   Description                                                                                      
     l       E           TYP  RCUT    TYP  RCUT                                                     
     0    -10.8127223     23  1.900                                                                 
     0     -7.6451159     23  1.900                                                                 
     1     -4.0811372     23  1.900                                                                 
     1      2.4879257     23  1.900                                                                 
     2     -4.0817478      7  1.900                                                                 
  local pseudopotential read in
  partial core-charges read in
  partial kinetic energy density read in
  atomic valenz-charges read in
  non local Contribution for L=           0  read in
    real space projection operators read in
  non local Contribution for L=           0  read in
    real space projection operators read in
  non local Contribution for L=           1  read in
    real space projection operators read in
  non local Contribution for L=           1  read in
    real space projection operators read in
    PAW grid and wavefunctions read in
 
   number of l-projection  operators is LMAX  =           4
   number of lm-projection operators is LMMAX =           8
 
 Optimization of the real space projectors (new method)

 maximal supplied QI-value         = 19.84
 optimisation between [QCUT,QGAM] = [ 10.12, 20.44] = [ 28.68,116.96] Ry 
 Optimized for a Real-space Cutoff    1.38 Angstroem

   l    n(q)    QCUT    max X(q) W(low)/X(q) W(high)/X(q)  e(spline) 
   0      8    10.119   159.560    0.58E-04    0.11E-03    0.54E-07
   0      8    10.119   115.863    0.56E-04    0.11E-03    0.54E-07
   1      8    10.119    88.339    0.22E-03    0.17E-03    0.19E-06
   1      8    10.119    48.592    0.22E-03    0.17E-03    0.18E-06
 -----------------------------------------------------------------------------
|                                                                             |
|               ----> ADVICE to this user running VASP <----                  |
|                                                                             |
|     You enforced a specific xc type in the INCAR file but a different       |
|     type was found in the POTCAR file.                                      |
|     I HOPE YOU KNOW WHAT YOU ARE DOING!                                     |
|                                                                             |
 -----------------------------------------------------------------------------

  PAW_PBE Si 05Jan2001                  :
 energy of atom  1       EATOM= -103.0669
 kinetic energy error for atom=    0.0012 (will be added to EATOM!!)
 
 
 POSCAR: Si8
  positions in direct lattice
  velocities in cartesian coordinates


 exchange-correlation table for PS
   RHO(1)=    0.500       N(1)  =     2000
   RHO(2)=  100.500       N(2)  =     4000
 


--------------------------------------------------------------------------------------------------------


 ion  position               nearest neighbor table
   1  0.000  0.000  0.000-  30 2.33  44 2.33  15 2.36  57 2.36
   2  0.000  0.000  0.500-  29 2.33  43 2.33  16 2.36  58 2.36
   3  0.000  0.500  0.000-  32 2.33  42 2.33  13 2.36  59 2.36
   4  0.000  0.500  0.500-  31 2.33  41 2.33  14 2.36  60 2.36
   5  0.500  0.000  0.000-  26 2.33  48 2.33  11 2.36  61 2.36
   6  0.500  0.000  0.500-  25 2.33  47 2.33  12 2.36  62 2.36
   7  0.500  0.500  0.000-  28 2.33  46 2.33   9 2.36  63 2.36
   8  0.500  0.500  0.500-  27 2.33  45 2.33  10 2.36  64 2.36
   9  0.375  0.375  0.125-  21 2.33  35 2.33   7 2.36  49 2.36
  10  0.375  0.375  0.625-  22 2.33  36 2.33   8 2.36  50 2.36
  11  0.375  0.875  0.125-  23 2.33  33 2.33   5 2.36  51 2.36
  12  0.375  0.875  0.625-  24 2.33  34 2.33   6 2.36  52 2.36
  13  0.875  0.375  0.125-  17 2.33  39 2.33   3 2.36  53 2.36
  14  0.875  0.375  0.625-  18 2.33  40 2.33   4 2.36  54 2.36
  15  0.875  0.875  0.125-  19 2.33  37 2.33   1 2.36  55 2.36
  16  0.875  0.875  0.625-  20 2.33  38 2.33   2 2.36  56 2.36
  17  0.000  0.250  0.250-  13 2.33  57 2.33  41 2.36  29 2.36
  18  0.000  0.250  0.750-  14 2.33  58 2.33  42 2.36  30 2.36
  19  0.000  0.750  0.250-  15 2.33  59 2.33  43 2.36  31 2.36
  20  0.000  0.750  0.750-  16 2.33  60 2.33  44 2.36  32 2.36
  21  0.500  0.250  0.250-   9 2.33  61 2.33  45 2.36  25 2.36
  22  0.500  0.250  0.750-  10 2.33  62 2.33  46 2.36  26 2.36
  23  0.500  0.750  0.250-  11 2.33  63 2.33  47 2.36  27 2.36
  24  0.500  0.750  0.750-  12 2.33  64 2.33  48 2.36  28 2.36
  25  0.375  0.125  0.375-   6 2.33  50 2.33  33 2.36  21 2.36
  26  0.375  0.125  0.875-   5 2.33  49 2.33  34 2.36  22 2.36
  27  0.375  0.625  0.375-   8 2.33  52 2.33  35 2.36  23 2.36
  28  0.375  0.625  0.875-   7 2.33  51 2.33  36 2.36  24 2.36
  29  0.875  0.125  0.375-   2 2.33  54 2.33  37 2.36  17 2.36
  30  0.875  0.125  0.875-   1 2.33  53 2.33  38 2.36  18 2.36
  31  0.875  0.625  0.375-   4 2.33  56 2.33  39 2.36  19 2.36
  32  0.875  0.625  0.875-   3 2.33  55 2.33  40 2.36  20 2.36
  33  0.250  0.000  0.250-  11 2.33  57 2.33  43 2.36  25 2.36
  34  0.250  0.000  0.750-  12 2.33  58 2.33  44 2.36  26 2.36
  35  0.250  0.500  0.250-   9 2.33  59 2.33  41 2.36  27 2.36
  36  0.250  0.500  0.750-  10 2.33  60 2.33  42 2.36  28 2.36
  37  0.750  0.000  0.250-  15 2.33  61 2.33  47 2.36  29 2.36
  38  0.750  0.000  0.750-  16 2.33  62 2.33  48 2.36  30 2.36
  39  0.750  0.500  0.250-  13 2.33  63 2.33  45 2.36  31 2.36
  40  0.750  0.500  0.750-  14 2.33  64 2.33  46 2.36  32 2.36
  41  0.125  0.375  0.375-   4 2.33  50 2.33  35 2.36  17 2.36
  42  0.125  0.375  0.875-   3 2.33  49 2.33  36 2.36  18 2.36
  43  0.125  0.875  0.375-   2 2.33  52 2.33  33 2.36  19 2.36
  44  0.125  0.875  0.875-   1 2.33  51 2.33  34 2.36  20 2.36
  45  0.625  0.375  0.375-   8 2.33  54 2.33  39 2.36  21 2.36
  46  0.625  0.375  0.875-   7 2.33  53 2.33  40 2.36  22 2.36
  47  0.625  0.875  0.375-   6 2.33  56 2.33  37 2.36  23 2.36
  48  0.625  0.875  0.875-   5 2.33  55 2.33  38 2.36  24 2.36
  49  0.250  0.250  0.000-  26 2.33  42 2.33   9 2.36  57 2.36
  50  0.250  0.250  0.500-  25 2.33  41 2.33  10 2.36  58 2.36
  51  0.250  0.750  0.000-  28 2.33  44 2.33  11 2.36  59 2.36
  52  0.250  0.750  0.500-  27 2.33  43 2.33  12 2.36  60 2.36
  53  0.750  0.250  0.000-  30 2.33  46 2.33  13 2.36  61 2.36
  54  0.750  0.250  0.500-  29 2.33  45 2.33  14 2.36  62 2.36
  55  0.750  0.750  0.000-  32 2.33  48 2.33  15 2.36  63 2.36
  56  0.750  0.750  0.500-  31 2.33  47 2.33  16 2.36  64 2.36
  57  0.125  0.125  0.125-  17 2.33  33 2.33   1 2.36  49 2.36
  58  0.125  0.125  0.625-  18 2.33  34 2.33   2 2.36  50 2.36
  59  0.125  0.625  0.125-  19 2.33  35 2.33   3 2.36  51 2.36
  60  0.125  0.625  0.625-  20 2.33  36 2.33   4 2.36  52 2.36
  61  0.625  0.125  0.125-  21 2.33  37 2.33   5 2.36  53 2.36
  62  0.625  0.125  0.625-  22 2.33  38 2.33   6 2.36  54 2.36
  63  0.625  0.625  0.125-  23 2.33  39 2.33   7 2.36  55 2.36
  64  0.625  0.625  0.625-  24 2.33  40 2.33   8 2.36  56 2.36
 
  LATTYP: Found a simple monoclinic cell.
 ALAT       =    10.7646717797
 B/A-ratio  =     0.9999500040
 C/A-ratio  =     1.0199980533
 COS(beta)  =    -0.0198019206
  
  Lattice vectors:
  
 A1 = (   0.1076410159,  10.7641335897,   0.0000000000)
 A2 = (   0.0000000000,   0.0000000000, -10.7641335897)
 A3 = ( -10.9794166214,  -0.1076410159,   0.0000000000)


Analysis of symmetry for initial positions (statically):
=====================================================================
 Subroutine PRICEL returns following result:
 
  LATTYP: Found a base centered monoclinic cell.
 ALAT       =     5.3823358898
 B/A-ratio  =     0.9999500040
 C/A-ratio  =     0.7071068144
 COS(beta)  =    -0.6928246621
  
  Lattice vectors:
  
 A1 = (   0.0269102540,   2.6910333974,  -2.6910333974)
 A2 = (   0.0269102540,   2.6910333974,   2.6910333974)
 A3 = (   2.7179439014,  -2.6641231434,   0.0000000000)
 
  32 primitive cells build up your supercell.
 

 Routine SETGRP: Setting up the symmetry group for a 
 simple monoclinic supercell.


 Subroutine GETGRP returns: Found  4 space group operations
 (whereof  2 operations were pure point group operations)
 out of a pool of  4 trial point group operations.


The static configuration has the point symmetry C_2 .
 The point group associated with its full space group is C_2h.


Analysis of symmetry for dynamics (positions and initial velocities):
=====================================================================
 Subroutine PRICEL returns following result:
 
  LATTYP: Found a base centered monoclinic cell.
 ALAT       =     5.3823358898
 B/A-ratio  =     0.9999500040
 C/A-ratio  =     0.7071068144
 COS(beta)  =    -0.6928246621
  
  Lattice vectors:
  
 A1 = (   0.0269102540,   2.6910333974,  -2.6910333974)
 A2 = (   0.0269102540,   2.6910333974,   2.6910333974)
 A3 = (   2.7179439014,  -2.6641231434,   0.0000000000)
 
  32 primitive cells build up your supercell.
 

 Routine SETGRP: Setting up the symmetry group for a 
 simple monoclinic supercell.


 Subroutine GETGRP returns: Found  4 space group operations
 (whereof  2 operations were pure point group operations)
 out of a pool of  4 trial point group operations.


The dynamic configuration has the point symmetry C_2 .
 The point group associated with its full space group is C_2h.


 Subroutine INISYM returns: Found  4 space group operations
 (whereof  2 operations are pure point group operations),
 and found    32 'primitive' translations


----------------------------------------------------------------------------------------

                                     Primitive cell                                     

  volume of cell :      39.7507

  direct lattice vectors                    reciprocal lattice vectors
     0.026910254  2.691033397 -2.691033397     0.180355138  0.183998682 -0.185802228
     0.026910254  2.691033397  2.691033397     0.180355138  0.183998682  0.185802228
     2.717943901 -2.664123143  0.000000000     0.364353802 -0.003643527 -0.000000000

  length of vectors
     3.805791068  3.805791068  3.805886385     0.317656982  0.317656982  0.364372019

  position of ions in fractional coordinates (direct lattice)
     0.000000000  0.000000000  0.000000000
     0.250000000  0.750000000  0.500000000

  ion indices of the primitive-cell ions
   primitive index   ion index
                 1           1
                 2          15

----------------------------------------------------------------------------------------

 
 
 KPOINTS: Automatic mesh                          

Automatic generation of k-mesh.
 Grid dimensions read from file:
 generate k-points for:    2    2    2

 Generating k-lattice:

  Cartesian coordinates                     Fractional coordinates (reciprocal lattice)
     0.045544225 -0.000455441  0.000000000     0.500000000 -0.000000000  0.000000000
    -0.000455441  0.046455111  0.000000000     0.000000000  0.500000000  0.000000000
     0.000000000  0.000000000  0.046450557     0.000000000  0.000000000  0.500000000

  Length of vectors
     0.045546502  0.046457344  0.046450557

  Shift w.r.t. Gamma in fractional coordinates (k-lattice)
     0.000000000  0.000000000  0.000000000

 
 Subroutine IBZKPT returns following result:
 ===========================================
 
 Found      8 irreducible k-points:
 
 Following reciprocal coordinates:
            Coordinates               Weight
  0.000000  0.000000  0.000000      1.000000
  0.500000  0.000000  0.000000      1.000000
  0.000000  0.500000  0.000000      1.000000
  0.500000  0.500000  0.000000      1.000000
  0.000000  0.000000  0.500000      1.000000
  0.500000  0.000000  0.500000      1.000000
  0.000000  0.500000  0.500000      1.000000
  0.500000  0.500000  0.500000      1.000000
 
 Following cartesian coordinates:
            Coordinates               Weight
  0.000000  0.000000  0.000000      1.000000
  0.045544 -0.000455  0.000000      1.000000
 -0.000455  0.046455  0.000000      1.000000
  0.045089  0.046000  0.000000      1.000000
  0.000000  0.000000  0.046451      1.000000
  0.045544 -0.000455  0.046451      1.000000
 -0.000455  0.046455  0.046451      1.000000
  0.045089  0.046000  0.046451      1.000000
 


--------------------------------------------------------------------------------------------------------




 Dimension of arrays:
   k-points           NKPTS =      8   k-points in BZ     NKDIM =      8   number of bands    NBANDS=    162
   number of dos      NEDOS =    301   number of ions     NIONS =     64
   non local maximal  LDIM  =      4   non local SUM 2l+1 LMDIM =      8
   total plane-waves  NPLWV = 352800
   max r-space proj   IRMAX =   3106   max aug-charges    IRDMAX=  74377
   dimension x,y,z NGX =    72 NGY =   70 NGZ =   70
   dimension x,y,z NGXF=   144 NGYF=  140 NGZF=  140
   support grid    NGXF=   288 NGYF=  280 NGZF=  280
   ions per type =              64
   NGX,Y,Z   is equivalent  to a cutoff of  10.90, 10.81, 10.81 a.u.
   NGXF,Y,Z  is equivalent  to a cutoff of  21.80, 21.62, 21.62 a.u.

 SYSTEM =  Si64                                    
 POSCAR =  Si8                                     

 Startparameter for this run:
   NWRITE =      2    write-flag & timer
   PREC   = accura    normal or accurate (medium, high low for compatibility)
   ISTART =      0    job   : 0-new  1-cont  2-samecut
   ICHARG =      2    charge: 1-file 2-atom 10-const
   ISPIN  =      1    spin polarized calculation?
   LNONCOLLINEAR =      F non collinear calculations
   LSORBIT =      F    spin-orbit coupling
   INIWAV =      1    electr: 0-lowe 1-rand  2-diag
   LASPH  =      F    aspherical Exc in radial PAW
 Electronic Relaxation 1
   ENCUT  =  400.0 eV  29.40 Ry    5.42 a.u.  17.91 17.55 17.55*2*pi/ulx,y,z
   ENINI  =  400.0     initial cutoff
   ENAUG  =  322.1 eV  augmentation charge cutoff
   NELM   =     60;   NELMIN=  8; NELMDL= -5     # of ELM steps 
   EDIFF  = 0.1E-05   stopping-criterion for ELM
   LREAL  =      T    real-space projection
   NLSPLINE    = F    spline interpolate recip. space projectors
   LCOMPAT=      F    compatible to vasp.4.4
   GGA_COMPAT  = F    GGA compatible to vasp.4.4-vasp.4.6
   LMAXPAW     = -100 max onsite density
   LMAXMIX     =    2 max onsite mixed and CHGCAR
   VOSKOWN=      0    Vosko Wilk Nusair interpolation
   ROPT   =   -0.00025
 Ionic relaxation
   EDIFFG = -.1E-01   stopping-criterion for IOM
   NSW    =     60    number of steps for IOM
   NBLOCK =      1;   KBLOCK =     60    inner block; outer block 
   IBRION =      2    ionic relax: 0-MD 1-quasi-New 2-CG
   NFREE  =      1    steps in history (QN), initial steepest desc. (CG)
   ISIF   =      2    stress and relaxation
   IWAVPR =     11    prediction:  0-non 1-charg 2-wave 3-comb
   ISYM   =      2    0-nonsym 1-usesym 2-fastsym
   LCORR  =      T    Harris-Foulkes like correction to forces

   POTIM  = 0.5000    time-step for ionic-motion
   TEIN   =    0.0    initial temperature
   TEBEG  =    0.0;   TEEND  =   0.0 temperature during run
   SMASS  =  -3.00    Nose mass-parameter (am)
   estimated Nose-frequenzy (Omega)   =  0.10E-29 period in steps = 0.13E+47 mass=  -0.276E-26a.u.
   SCALEE = 1.0000    scale energy and forces
   NPACO  =    256;   APACO  = 10.0  distance and # of slots for P.C.
   PSTRESS=    0.0 pullay stress

  Mass of Ions in am
   POMASS =  28.09
  Ionic Valenz
   ZVAL   =   4.00
  Atomic Wigner-Seitz radii
   RWIGS  =  -1.00
  virtual crystal weights 
   VCA    =   1.00
   NELECT =     256.0000    total number of electrons
   NUPDOWN=      -1.0000    fix difference up-down

 DOS related values:
   EMIN   =  10.00;   EMAX   =-10.00  energy-range for DOS
   EFERMI =   0.00;   METHOD = LEGACY      
   ISMEAR =     1;   SIGMA  =   0.20  broadening in eV -4-tet -1-fermi 0-gaus

 Electronic relaxation 2 (details)
   IALGO  =     68    algorithm
   LDIAG  =      T    sub-space diagonalisation (order eigenvalues)
   LSUBROT=      F    optimize rotation matrix (better conditioning)
   TURBO    =      0    0=normal 1=particle mesh
   IRESTART =      0    0=no restart 2=restart with 2 vectors
   NREBOOT  =      0    no. of reboots
   NMIN     =      0    reboot dimension
   EREF     =   0.00    reference energy to select bands
   IMIX   =      4    mixing-type and parameters
     AMIX     =   0.40;   BMIX     =  1.00
     AMIX_MAG =   1.60;   BMIX_MAG =  1.00
     AMIN     =   0.10
     WC   =   100.;   INIMIX=   1;  MIXPRE=   1;  MAXMIX= -45

 Intra band minimization:
   WEIMIN = 0.0010     energy-eigenvalue tresh-hold
   EBREAK =  0.15E-08  absolut break condition
   DEPER  =   0.30     relativ break condition  

   TIME   =   0.40     timestep for ELM

  volume/ion in A,a.u.               =      19.88       134.13
  Fermi-wavevector in a.u.,A,eV,Ry     =   0.959378  1.812962 12.522893  0.920407
  Thomas-Fermi vector in A             =   2.088569
 
 Write flags
   LWAVE        =      F    write WAVECAR
   LDOWNSAMPLE  =      F    k-point downsampling of WAVECAR
   LCHARG       =      F    write CHGCAR
   LVTOT        =      F    write LOCPOT, total local potential
   LVHAR        =      F    write LOCPOT, Hartree potential only
   WRT_POTENTIAL= false  ! write potential to hdf5 file
   LELF         =      F    write electronic localiz. function (ELF)
   LORBIT       =      0    0 simple, 1 ext, 2 COOP (PROOUT), +10 PAW based schemes


 Dipole corrections
   LMONO      =      F    monopole corrections only (constant potential shift)
   LDIPOL     =      F    correct potential (dipole corrections)
   IDIPOL     =      0    1-x, 2-y, 3-z, 4-all directions 
   EPSILON    =  1.0000000 bulk dielectric constant
   LVACPOTAV  =      F  vacuum potentials using an averaging scheme for the charge density
   VACPOTFLAT =  0.1000000 required flatness to determine vacuum potential
 Exchange correlation treatment:
   GGA     = PS    functional components
   XC_C    = 1    coefficients multiplying the functional components
   LIBXC   =     F    Libxc                    
   VOSKOWN =     0    Vosko Wilk Nusair interpolation
   LHFCALC =     F    Hartree Fock is set to
   LHFONE  =     F    Hartree Fock one center treatment
   AEXX    =    0.0000 exact exchange contribution

 Parameters of functionals:
   PS:
     No parameter
 
 Van der Waals corrections
   IVDW    =     0    specifies the selected vdW correction

 Linear response parameters
   LEPSILON=     F    determine dielectric tensor
   LRPA    =     F    only Hartree local field effects (RPA)
   LNABLA  =     F    use nabla operator in PAW spheres
   LVEL    =     F    velocity operator in full k-point grid
   CSHIFT  =0.1000    complex shift for real part using Kramers Kronig
   OMEGAMAX=  -1.0    maximum frequency
   DEG_THRESHOLD= 0.2000000E-02 threshold for treating states as degnerate
   RTIME   =   -0.100 relaxation time in fs
  (WPLASMAI=    0.000 imaginary part of plasma frequency in eV, 0.658/RTIME)
   DFIELD  = 0.0000000 0.0000000 0.0000000 field for delta impulse in time
 
  Optional k-point grid parameters
   LKPOINTS_OPT  =     F    use optional k-point grid
   KPOINTS_OPT_MODE=     1    mode for optional k-point grid
 
 Orbital magnetization related:
   ORBITALMAG=     F  switch on orbital magnetization
   LCHIMAG   =     F  perturbation theory with respect to B field
   DQ        =  0.001000  dq finite difference perturbation B field
   LLRAUG    =     F  two centre corrections for induced B field
   LBONE     =     F  B-component reconstruction in AE one-centre
   LVGVCALC  =     T  calculate vGv susceptibility
   LVGVAPPL  =     F  apply vGv susceptibility instead of pGv for G=0

 Random number generation:
   RANDOM_GENERATOR = DEFAULT
   PCG_SEED         = not used


--------------------------------------------------------------------------------------------------------


 conjugate gradient relaxation of ions
 charge density and potential will be updated during run
 non-spin polarized calculation
 RMM-DIIS sequential band-by-band and
  variant of blocked Davidson during initial phase
 perform sub-space diagonalisation
    before iterative eigenvector-optimisation
 modified Broyden-mixing scheme, WC =      100.0
 initial mixing is a Kerker type mixing with AMIX =  0.4000 and BMIX =      1.0000
 Hartree-type preconditioning will be used
 using additional bands           34
 real space projection scheme for non local part
 use partial core corrections
 calculate Harris-corrections to forces 
   (improved forces if not selfconsistent)
 use gradient corrections 
 use of overlap-Matrix (Vanderbilt PP)
 Methfessel and Paxton  Order N= 1 SIGMA  =   0.20


--------------------------------------------------------------------------------------------------------


  energy-cutoff  :      400.00
  volume of cell :     1272.02
      direct lattice vectors                 reciprocal lattice vectors
    10.979416621  0.107641016  0.000000000     0.091088451 -0.000910882  0.000000000
     0.107641016 10.764133590  0.000000000    -0.000910882  0.092910223  0.000000000
     0.000000000  0.000000000 10.764133590     0.000000000  0.000000000  0.092901114

  length of vectors
    10.979944259 10.764671780 10.764133590     0.091093005  0.092914688  0.092901114


 
 k-points in units of 2pi/SCALE and weight: Automatic mesh                          
   0.00000000  0.00000000  0.00000000       0.125
   0.04554423 -0.00045544  0.00000000       0.125
  -0.00045544  0.04645512  0.00000000       0.125
   0.04508879  0.04599968  0.00000000       0.125
   0.00000000  0.00000000  0.04645056       0.125
   0.04554423 -0.00045544  0.04645056       0.125
  -0.00045544  0.04645512  0.04645056       0.125
   0.04508879  0.04599968  0.04645056       0.125
 
 k-points in reciprocal lattice and weights: Automatic mesh                          
   0.00000000  0.00000000  0.00000000       0.125
   0.50000000  0.00000000  0.00000000       0.125
   0.00000000  0.50000000  0.00000000       0.125
   0.50000000  0.50000000  0.00000000       0.125
   0.00000000  0.00000000  0.50000000       0.125
   0.50000000  0.00000000  0.50000000       0.125
   0.00000000  0.50000000  0.50000000       0.125
   0.50000000  0.50000000  0.50000000       0.125
 
 position of ions in fractional coordinates (direct lattice) 
   0.00000000  0.00000000  0.00000000
   0.00000000  0.00000000  0.50000000
   0.00000000  0.50000000  0.00000000
   0.00000000  0.50000000  0.50000000
   0.50000000  0.00000000  0.00000000
   0.50000000  0.00000000  0.50000000
   0.50000000  0.50000000  0.00000000
   0.50000000  0.50000000  0.50000000
   0.37500000  0.37500000  0.12500000
   0.37500000  0.37500000  0.62500000
   0.37500000  0.87500000  0.12500000
   0.37500000  0.87500000  0.62500000
   0.87500000  0.37500000  0.12500000
   0.87500000  0.37500000  0.62500000
   0.87500000  0.87500000  0.12500000
   0.87500000  0.87500000  0.62500000
   0.00000000  0.25000000  0.25000000
   0.00000000  0.25000000  0.75000000
   0.00000000  0.75000000  0.25000000
   0.00000000  0.75000000  0.75000000
   0.50000000  0.25000000  0.25000000
   0.50000000  0.25000000  0.75000000
   0.50000000  0.75000000  0.25000000
   0.50000000  0.75000000  0.75000000
   0.37500000  0.12500000  0.37500000
   0.37500000  0.12500000  0.87500000
   0.37500000  0.62500000  0.37500000
   0.37500000  0.62500000  0.87500000
   0.87500000  0.12500000  0.37500000
   0.87500000  0.12500000  0.87500000
   0.87500000  0.62500000  0.37500000
   0.87500000  0.62500000  0.87500000
   0.25000000  0.00000000  0.25000000
   0.25000000  0.00000000  0.75000000
   0.25000000  0.50000000  0.25000000
   0.25000000  0.50000000  0.75000000
   0.75000000  0.00000000  0.25000000
   0.75000000  0.00000000  0.75000000
   0.75000000  0.50000000  0.25000000
   0.75000000  0.50000000  0.75000000
   0.12500000  0.37500000  0.37500000
   0.12500000  0.37500000  0.87500000
   0.12500000  0.87500000  0.37500000
   0.12500000  0.87500000  0.87500000
   0.62500000  0.37500000  0.37500000
   0.62500000  0.37500000  0.87500000
   0.62500000  0.87500000  0.37500000
   0.62500000  0.87500000  0.87500000
   0.25000000  0.25000000  0.00000000
   0.25000000  0.25000000  0.50000000
   0.25000000  0.75000000  0.00000000
   0.25000000  0.75000000  0.50000000
   0.75000000  0.25000000  0.00000000
   0.75000000  0.25000000  0.50000000
   0.75000000  0.75000000  0.00000000
   0.75000000  0.75000000  0.50000000
   0.12500000  0.12500000  0.12500000
   0.12500000  0.12500000  0.62500000
   0.12500000  0.62500000  0.12500000
   0.12500000  0.62500000  0.62500000
   0.62500000  0.12500000  0.12500000
   0.62500000  0.12500000  0.62500000
   0.62500000  0.62500000  0.12500000
   0.62500000  0.62500000  0.62500000
 
 position of ions in cartesian coordinates  (Angst):
   0.00000000  0.00000000  0.00000000
   0.00000000  0.00000000  5.38206679
   0.05382051  5.38206679  0.00000000
   0.05382051  5.38206679  5.38206679
   5.48970831  0.05382051  0.00000000
   5.48970831  0.05382051  5.38206679
   5.54352882  5.43588730  0.00000000
   5.54352882  5.43588730  5.38206679
   4.15764661  4.07691548  1.34551670
   4.15764661  4.07691548  6.72758349
   4.21146712  9.45898227  1.34551670
   4.21146712  9.45898227  6.72758349
   9.64735492  4.13073599  1.34551670
   9.64735492  4.13073599  6.72758349
   9.70117543  9.51280278  1.34551670
   9.70117543  9.51280278  6.72758349
   0.02691025  2.69103340  2.69103340
   0.02691025  2.69103340  8.07310019
   0.08073076  8.07310019  2.69103340
   0.08073076  8.07310019  8.07310019
   5.51661856  2.74485391  2.69103340
   5.51661856  2.74485391  8.07310019
   5.57043907  8.12692070  2.69103340
   5.57043907  8.12692070  8.07310019
   4.13073636  1.38588208  4.03655010
   4.13073636  1.38588208  9.41861689
   4.18455687  6.76794887  4.03655010
   4.18455687  6.76794887  9.41861689
   9.62044467  1.43970259  4.03655010
   9.62044467  1.43970259  9.41861689
   9.67426518  6.82176938  4.03655010
   9.67426518  6.82176938  9.41861689
   2.74485416  0.02691025  2.69103340
   2.74485416  0.02691025  8.07310019
   2.79867466  5.40897705  2.69103340
   2.79867466  5.40897705  8.07310019
   8.23456247  0.08073076  2.69103340
   8.23456247  0.08073076  8.07310019
   8.28838297  5.46279756  2.69103340
   8.28838297  5.46279756  8.07310019
   1.41279246  4.05000522  4.03655010
   1.41279246  4.05000522  9.41861689
   1.46661297  9.43207202  4.03655010
   1.46661297  9.43207202  9.41861689
   6.90250077  4.10382573  4.03655010
   6.90250077  4.10382573  9.41861689
   6.95632128  9.48589253  4.03655010
   6.95632128  9.48589253  9.41861689
   2.77176441  2.71794365  0.00000000
   2.77176441  2.71794365  5.38206679
   2.82558492  8.10001045  0.00000000
   2.82558492  8.10001045  5.38206679
   8.26147272  2.77176416  0.00000000
   8.26147272  2.77176416  5.38206679
   8.31529323  8.15383095  0.00000000
   8.31529323  8.15383095  5.38206679
   1.38588220  1.35897183  1.34551670
   1.38588220  1.35897183  6.72758349
   1.43970271  6.74103862  1.34551670
   1.43970271  6.74103862  6.72758349
   6.87559052  1.41279233  1.34551670
   6.87559052  1.41279233  6.72758349
   6.92941102  6.79485913  1.34551670
   6.92941102  6.79485913  6.72758349
 


--------------------------------------------------------------------------------------------------------


 k-point     1 :   0.0000 0.0000 0.0000  plane waves:   23131
 k-point     2 :   0.5000 0.0000 0.0000  plane waves:   23132
 k-point     3 :   0.0000 0.5000 0.0000  plane waves:   23072
 k-point     4 :   0.5000 0.5000 0.0000  plane waves:   23130
 k-point     5 :   0.0000 0.0000 0.5000  plane waves:   23112
 k-point     6 :   0.5000 0.0000 0.5000  plane waves:   23112
 k-point     7 :   0.0000 0.5000 0.5000  plane waves:   23096
 k-point     8 :   0.5000 0.5000 0.5000  plane waves:   23072

 maximum and minimum number of plane-waves per node :      1956     1887

 maximum number of plane-waves:     23132
 maximum index in each direction: 
   IXMAX=   17   IYMAX=   17   IZMAX=   17
   IXMIN=  -18   IYMIN=  -18   IZMIN=  -18


 real space projection operators:
  total allocation   :      11830.50 KBytes
  max/ min on nodes  :        998.50        961.50


 parallel 3D FFT for wavefunctions:
    minimum data exchange during FFTs selected (reduces bandwidth)
 parallel 3D FFT for charge:
    minimum data exchange during FFTs selected (reduces bandwidth)


 total amount of memory used by VASP MPI-rank0    80234. kBytes
=======================================================================

   base      :      30000. kBytes
   nonlr-proj:       4528. kBytes
   fftplans  :      18113. kBytes
   grid      :       6881. kBytes
   one-center:         18. kBytes
   wavefun   :      20694. kBytes
 
     INWAV:  cpu time      0.0000: real time      0.0000
 Broyden mixing: mesh for mixing (old mesh)
   NGX = 35   NGY = 35   NGZ = 35
  (NGX  =144   NGY  =140   NGZ  =140)
  gives a total of  42875 points

 initial charge density was supplied:
 charge density of overlapping atoms calculated
 number of electron     256.0000000 magnetization 
 keeping initial charge density in first step


--------------------------------------------------------------------------------------------------------


 Maximum index for non-local projection operator          272
 Maximum index for augmentation-charges         3264 (set IRDMAX)


--------------------------------------------------------------------------------------------------------


 First call to EWALD:  gamma=   0.164
 Maximum number of real-space cells 3x 3x 3
 Maximum number of reciprocal cells 3x 3x 3

    FEWALD:  cpu time      0.0035: real time      0.0035


--------------------------------------- Ionic step        1  -------------------------------------------




--------------------------------------- Iteration      1(   1)  ---------------------------------------


    POTLOK:  cpu time      0.0940: real time      0.1057
    SETDIJ:  cpu time      0.0885: real time      0.0919
     EDDAV:  cpu time      1.2685: real time      1.3405
       DOS:  cpu time      0.0101: real time      0.0120
    --------------------------------------------
      LOOP:  cpu time      1.4612: real time      1.5502

 eigenvalue-minimisations  :  2592
 total energy-change (2. order) : 0.5589861E+03  (-0.8394966E+04)
 number of electron     256.0000000 magnetization 
 augmentation part      256.0000000 magnetization 

 Free energy of the ion-electron system (eV)
  ---------------------------------------------------
  alpha Z        PSCENC =       108.39758566
  Ewald energy   TEWEN  =     -7330.76444071
  -Hartree energ DENC   =      -348.78465975
  -exchange      EXHF   =         0.00000000
  -V(xc)+E(xc)   XCENC  =      -557.75577106
  PAW double counting   =      5598.62625415    -4492.17844134
  entropy T*S    EENTRO =         0.01331977
  eigenvalues    EBANDS =      1016.63641864
  atomic energy  EATOM  =      6564.79586099
  Solvation  Ediel_sol  =         0.00000000
  ---------------------------------------------------
  free energy    TOTEN  =       558.98612636 eV

  energy without entropy =      558.97280659  energy(sigma->0) =      558.98168643


--------------------------------------------------------------------------------------------------------




--------------------------------------- Iteration      1(   2)  ---------------------------------------


     EDDAV:  cpu time      1.3355: real time      1.3578
       DOS:  cpu time      0.0013: real time      0.0013
    --------------------------------------------
      LOOP:  cpu time      1.3368: real time      1.3591

 eigenvalue-minimisations  :  3096
 total energy-change (2. order) :-0.8702629E+03  (-0.8256496E+03)
 number of electron     256.0000000 magnetization 
 augmentation part      256.0000000 magnetization 

 Free energy of the ion-electron system (eV)
  ---------------------------------------------------
  alpha Z        PSCENC =       108.39758566
  Ewald energy   TEWEN  =     -7330.76444071
  -Hartree energ DENC   =      -348.78465975
  -exchange      EXHF   =         0.00000000
  -V(xc)+E(xc)   XCENC  =      -557.75577106
  PAW double counting   =      5598.62625415    -4492.17844134
  entropy T*S    EENTRO =         0.01352160
  eigenvalues    EBANDS =       146.37336080
  atomic energy  EATOM  =      6564.79586099
  Solvation  Ediel_sol  =         0.00000000
  ---------------------------------------------------
  free energy    TOTEN  =      -311.27672965 eV

  energy without entropy =     -311.29025125  energy(sigma->0) =     -311.28123685


--------------------------------------------------------------------------------------------------------




--------------------------------------- Iteration      1(   3)  ---------------------------------------


     EDDAV:  cpu time      1.3572: real time      1.3845
       DOS:  cpu time      0.0014: real time      0.0014
    --------------------------------------------
      LOOP:  cpu time      1.3586: real time      1.3859

 eigenvalue-minimisations  :  3144
 total energy-change (2. order) :-0.6181533E+02  (-0.6072720E+02)
 number of electron     256.0000000 magnetization 
 augmentation part      256.0000000 magnetization 

 Free energy of the ion-electron system (eV)
  ---------------------------------------------------
  alpha Z        PSCENC =       108.39758566
  Ewald energy   TEWEN  =     -7330.76444071
  -Hartree energ DENC   =      -348.78465975
  -exchange      EXHF   =         0.00000000
  -V(xc)+E(xc)   XCENC  =      -557.75577106
  PAW double counting   =      5598.62625415    -4492.17844134
  entropy T*S    EENTRO =         0.00678361
  eigenvalues    EBANDS =        84.56477070
  atomic energy  EATOM  =      6564.79586099
  Solvation  Ediel_sol  =         0.00000000
  ---------------------------------------------------
  free energy    TOTEN  =      -373.09205774 eV

  energy without entropy =     -373.09884135  energy(sigma->0) =     -373.09431895


--------------------------------------------------------------------------------------------------------




--------------------------------------- Iteration      1(   4)  ---------------------------------------


     EDDAV:  cpu time      1.3399: real time      1.3593
       DOS:  cpu time      0.0011: real time      0.0011
    --------------------------------------------
      LOOP:  cpu time      1.3410: real time      1.3604

 eigenvalue-minimisations  :  3144
 total energy-change (2. order) :-0.1563929E+01  (-0.1552995E+01)
 number of electron     256.0000000 magnetization 
 augmentation part      256.0000000 magnetization 

 Free energy of the ion-electron system (eV)
  ---------------------------------------------------
  alpha Z        PSCENC =       108.39758566
  Ewald energy   TEWEN  =     -7330.76444071
  -Hartree energ DENC   =      -348.78465975
  -exchange      EXHF   =         0.00000000
  -V(xc)+E(xc)   XCENC  =      -557.75577106
  PAW double counting   =      5598.62625415    -4492.17844134
  entropy T*S    EENTRO =         0.00751245
  eigenvalues    EBANDS =        83.00011322
  atomic energy  EATOM  =      6564.79586099
  Solvation  Ediel_sol  =         0.00000000
  ---------------------------------------------------
  free energy    TOTEN  =      -374.65598639 eV

  energy without entropy =     -374.66349883  energy(sigma->0) =     -374.65849054


--------------------------------------------------------------------------------------------------------




--------------------------------------- Iteration      1(   5)  ---------------------------------------


     EDDAV:  cpu time      1.3676: real time      1.3918
       DOS:  cpu time      0.0012: real time      0.0012
    CHARGE:  cpu time      0.2596: real time      0.2642
    MIXING:  cpu time      0.0102: real time      0.0122
    --------------------------------------------
      LOOP:  cpu time      1.6385: real time      1.6694

 eigenvalue-minimisations  :  3104
 total energy-change (2. order) :-0.4531574E-01  (-0.4521992E-01)
 number of electron     256.0000001 magnetization 
 augmentation part      -14.9855663 magnetization 

 Broyden mixing:
  rms(total) = 0.28400E+01    rms(broyden)= 0.28400E+01
  rms(prec ) = 0.31262E+01
  weight for this iteration     100.00

 Free energy of the ion-electron system (eV)
  ---------------------------------------------------
  alpha Z        PSCENC =       108.39758566
  Ewald energy   TEWEN  =     -7330.76444071
  -Hartree energ DENC   =      -348.78465975
  -exchange      EXHF   =         0.00000000
  -V(xc)+E(xc)   XCENC  =      -557.75577106
  PAW double counting   =      5598.62625415    -4492.17844134
  entropy T*S    EENTRO =         0.00751314
  eigenvalues    EBANDS =        82.95479679
  atomic energy  EATOM  =      6564.79586099
  Solvation  Ediel_sol  =         0.00000000
  ---------------------------------------------------
  free energy    TOTEN  =      -374.70130213 eV

  energy without entropy =     -374.70881527  energy(sigma->0) =     -374.70380651


--------------------------------------------------------------------------------------------------------




--------------------------------------- Iteration      1(   6)  ---------------------------------------


    POTLOK:  cpu time      0.0805: real time      0.0953
    SETDIJ:  cpu time      0.0701: real time      0.0703
    EDDIAG:  cpu time      0.1361: real time      0.1427
  RMM-DIIS:  cpu time      0.7099: real time      0.7151
    ORTHCH:  cpu time      0.0208: real time      0.0208
       DOS:  cpu time      0.0019: real time      0.0021
    CHARGE:  cpu time      0.2450: real time      0.2455
    MIXING:  cpu time      0.0060: real time      0.0087
    --------------------------------------------
      LOOP:  cpu time      1.2703: real time      1.3007

 eigenvalue-minimisations  :  2592
 total energy-change (2. order) : 0.5111422E+01  (-0.2571813E+00)
 number of electron     256.0000001 magnetization 
 augmentation part      -14.8240263 magnetization 

 Broyden mixing:
  rms(total) = 0.17084E+01    rms(broyden)= 0.17084E+01
  rms(prec ) = 0.18721E+01
  weight for this iteration     100.00

 eigenvalues of (default mixing * dielectric matrix)
  average eigenvalue GAMMA=   2.5043
  2.5043

 Free energy of the ion-electron system (eV)
  ---------------------------------------------------
  alpha Z        PSCENC =       108.39758566
  Ewald energy   TEWEN  =     -7330.76444071
  -Hartree energ DENC   =      -395.33514148
  -exchange      EXHF   =         0.00000000
  -V(xc)+E(xc)   XCENC  =      -550.40729365
  PAW double counting   =     12423.07373990   -11319.95702330
  entropy T*S    EENTRO =         0.01141050
  eigenvalues    EBANDS =       130.59542179
  atomic energy  EATOM  =      6564.79586099
  Solvation  Ediel_sol  =         0.00000000
  ---------------------------------------------------
  free energy    TOTEN  =      -369.58988031 eV

  energy without entropy =     -369.60129081  energy(sigma->0) =     -369.59368381


--------------------------------------------------------------------------------------------------------




--------------------------------------- Iteration      1(   7)  ---------------------------------------


    POTLOK:  cpu time      0.0844: real time      0.0997
    SETDIJ:  cpu time      0.0708: real time      0.0710
    EDDIAG:  cpu time      0.1429: real time      0.1432
  RMM-DIIS:  cpu time      0.7012: real time      0.7045
    ORTHCH:  cpu time      0.0208: real time      0.0208
       DOS:  cpu time      0.0014: real time      0.0014
    CHARGE:  cpu time      0.2439: real time      0.2444
    MIXING:  cpu time      0.0078: real time      0.0091
    --------------------------------------------
      LOOP:  cpu time      1.2732: real time      1.2942

 eigenvalue-minimisations  :  2630
 total energy-change (2. order) : 0.2326644E+01  (-0.6583553E+00)
 number of electron     256.0000001 magnetization 
 augmentation part      -14.5978924 magnetization 

 Broyden mixing:
  rms(total) = 0.96139E-01    rms(broyden)= 0.96139E-01
  rms(prec ) = 0.12098E+00
  weight for this iteration     100.00

 eigenvalues of (default mixing * dielectric matrix)
  average eigenvalue GAMMA=   2.2820
  2.2820  2.2820

 Free energy of the ion-electron system (eV)
  ---------------------------------------------------
  alpha Z        PSCENC =       108.39758566
  Ewald energy   TEWEN  =     -7330.76444071
  -Hartree energ DENC   =      -472.30257596
  -exchange      EXHF   =         0.00000000
  -V(xc)+E(xc)   XCENC  =      -537.68966079
  PAW double counting   =     28747.86062842   -27649.34504299
  entropy T*S    EENTRO =         0.02478446
  eigenvalues    EBANDS =       201.75962447
  atomic energy  EATOM  =      6564.79586099
  Solvation  Ediel_sol  =         0.00000000
  ---------------------------------------------------
  free energy    TOTEN  =      -367.26323644 eV

  energy without entropy =     -367.28802090  energy(sigma->0) =     -367.27149793


--------------------------------------------------------------------------------------------------------




--------------------------------------- Iteration      1(   8)  ---------------------------------------


    POTLOK:  cpu time      0.0839: real time      0.1241
    SETDIJ:  cpu time      0.0688: real time      0.0690
    EDDIAG:  cpu time      0.1366: real time      0.1374
  RMM-DIIS:  cpu time      0.6983: real time      0.7002
    ORTHCH:  cpu time      0.0199: real time      0.0207
       DOS:  cpu time      0.0022: real time      0.0022
    CHARGE:  cpu time      0.2440: real time      0.2454
    MIXING:  cpu time      0.0066: real time      0.0072
    --------------------------------------------
      LOOP:  cpu time      1.2603: real time      1.3062

 eigenvalue-minimisations  :  2634
 total energy-change (2. order) :-0.4506089E-01  (-0.6604272E-01)
 number of electron     256.0000001 magnetization 
 augmentation part      -14.6494550 magnetization 

 Broyden mixing:
  rms(total) = 0.50167E-01    rms(broyden)= 0.50167E-01
  rms(prec ) = 0.53579E-01
  weight for this iteration     100.00

 eigenvalues of (default mixing * dielectric matrix)
  average eigenvalue GAMMA=   2.1490
  2.5571  1.9449  1.9449

 Free energy of the ion-electron system (eV)
  ---------------------------------------------------
  alpha Z        PSCENC =       108.39758566
  Ewald energy   TEWEN  =     -7330.76444071
  -Hartree energ DENC   =      -464.98519610
  -exchange      EXHF   =         0.00000000
  -V(xc)+E(xc)   XCENC  =      -538.28672901
  PAW double counting   =     28352.94264298   -27253.53301957
  entropy T*S    EENTRO =         0.02622300
  eigenvalues    EBANDS =       194.09877542
  atomic energy  EATOM  =      6564.79586099
  Solvation  Ediel_sol  =         0.00000000
  ---------------------------------------------------
  free energy    TOTEN  =      -367.30829733 eV

  energy without entropy =     -367.33452033  energy(sigma->0) =     -367.31703833


--------------------------------------------------------------------------------------------------------




--------------------------------------- Iteration      1(   9)  ---------------------------------------


    POTLOK:  cpu time      0.0750: real time      0.0907
    SETDIJ:  cpu time      0.0723: real time      0.0725
    EDDIAG:  cpu time      0.1339: real time      0.1342
  RMM-DIIS:  cpu time      0.7123: real time      0.7149
    ORTHCH:  cpu time      0.0206: real time      0.0206
       DOS:  cpu time      0.0013: real time      0.0013
    CHARGE:  cpu time      0.2433: real time      0.2439
    MIXING:  cpu time      0.0086: real time      0.0087
    --------------------------------------------
      LOOP:  cpu time      1.2674: real time      1.2868

 eigenvalue-minimisations  :  2670
 total energy-change (2. order) :-0.1976961E-01  (-0.1845834E-01)
 number of electron     256.0000001 magnetization 
 augmentation part      -14.6388420 magnetization 

 Broyden mixing:
  rms(total) = 0.57866E-01    rms(broyden)= 0.57865E-01
  rms(prec ) = 0.64507E-01
  weight for this iteration     100.00

 eigenvalues of (default mixing * dielectric matrix)
  average eigenvalue GAMMA=   1.7838
  2.5530  2.1749  2.1749  0.2325

 Free energy of the ion-electron system (eV)
  ---------------------------------------------------
  alpha Z        PSCENC =       108.39758566
  Ewald energy   TEWEN  =     -7330.76444071
  -Hartree energ DENC   =      -467.71969642
  -exchange      EXHF   =         0.00000000
  -V(xc)+E(xc)   XCENC  =      -537.91000913
  PAW double counting   =     28704.40305163   -27605.21186713
  entropy T*S    EENTRO =         0.02606492
  eigenvalues    EBANDS =       196.65538325
  atomic energy  EATOM  =      6564.79586099
  Solvation  Ediel_sol  =         0.00000000
  ---------------------------------------------------
  free energy    TOTEN  =      -367.32806694 eV

  energy without entropy =     -367.35413186  energy(sigma->0) =     -367.33675525


--------------------------------------------------------------------------------------------------------




--------------------------------------- Iteration      1(  10)  ---------------------------------------


    POTLOK:  cpu time      0.0769: real time      0.0908
    SETDIJ:  cpu time      0.0717: real time      0.0719
    EDDIAG:  cpu time      0.1347: real time      0.1350
  RMM-DIIS:  cpu time      0.7291: real time      0.7319
    ORTHCH:  cpu time      0.0216: real time      0.0217
       DOS:  cpu time      0.0013: real time      0.0013
    CHARGE:  cpu time      0.2429: real time      0.2435
    MIXING:  cpu time      0.0076: real time      0.0076
    --------------------------------------------
      LOOP:  cpu time      1.2858: real time      1.3036

 eigenvalue-minimisations  :  2746
 total energy-change (2. order) :-0.3641429E-02  (-0.3215765E-02)
 number of electron     256.0000001 magnetization 
 augmentation part      -14.6449368 magnetization 

 Broyden mixing:
  rms(total) = 0.80560E-01    rms(broyden)= 0.80560E-01
  rms(prec ) = 0.86637E-01
  weight for this iteration     100.00

 eigenvalues of (default mixing * dielectric matrix)
  average eigenvalue GAMMA=   1.6230
  2.6740  2.0935  2.0935  0.6271  0.6271

 Free energy of the ion-electron system (eV)
  ---------------------------------------------------
  alpha Z        PSCENC =       108.39758566
  Ewald energy   TEWEN  =     -7330.76444071
  -Hartree energ DENC   =      -467.91161953
  -exchange      EXHF   =         0.00000000
  -V(xc)+E(xc)   XCENC  =      -537.88775386
  PAW double counting   =     28750.86416163   -27651.68013651
  entropy T*S    EENTRO =         0.02603818
  eigenvalues    EBANDS =       196.82859579
  atomic energy  EATOM  =      6564.79586099
  Solvation  Ediel_sol  =         0.00000000
  ---------------------------------------------------
  free energy    TOTEN  =      -367.33170837 eV

  energy without entropy =     -367.35774655  energy(sigma->0) =     -367.34038776


--------------------------------------------------------------------------------------------------------




--------------------------------------- Iteration      1(  11)  ---------------------------------------


    POTLOK:  cpu time      0.0755: real time      0.0908
    SETDIJ:  cpu time      0.0710: real time      0.0712
    EDDIAG:  cpu time      0.1338: real time      0.1341
  RMM-DIIS:  cpu time      0.6979: real time      0.7042
    ORTHCH:  cpu time      0.0205: real time      0.0206
       DOS:  cpu time      0.0019: real time      0.0019
    CHARGE:  cpu time      0.2420: real time      0.2426
    MIXING:  cpu time      0.0086: real time      0.0087
    --------------------------------------------
      LOOP:  cpu time      1.2513: real time      1.2740

 eigenvalue-minimisations  :  2592
 total energy-change (2. order) : 0.2648582E-02  (-0.1189473E-02)
 number of electron     256.0000001 magnetization 
 augmentation part      -14.6581931 magnetization 

 Broyden mixing:
  rms(total) = 0.58722E-01    rms(broyden)= 0.58722E-01
  rms(prec ) = 0.59222E-01
  weight for this iteration     100.00

 eigenvalues of (default mixing * dielectric matrix)
  average eigenvalue GAMMA=   1.4878
  2.5983  2.5983  1.2934  1.2934  0.8031  0.3401

 Free energy of the ion-electron system (eV)
  ---------------------------------------------------
  alpha Z        PSCENC =       108.39758566
  Ewald energy   TEWEN  =     -7330.76444071
  -Hartree energ DENC   =      -465.60458224
  -exchange      EXHF   =         0.00000000
  -V(xc)+E(xc)   XCENC  =      -538.04850071
  PAW double counting   =     28634.51208617   -27535.09639036
  entropy T*S    EENTRO =         0.02627299
  eigenvalues    EBANDS =       194.45304843
  atomic energy  EATOM  =      6564.79586099
  Solvation  Ediel_sol  =         0.00000000
  ---------------------------------------------------
  free energy    TOTEN  =      -367.32905979 eV

  energy without entropy =     -367.35533278  energy(sigma->0) =     -367.33781745


--------------------------------------------------------------------------------------------------------




--------------------------------------- Iteration      1(  12)  ---------------------------------------


    POTLOK:  cpu time      0.0774: real time      0.0934
    SETDIJ:  cpu time      0.0699: real time      0.0701
    EDDIAG:  cpu time      0.1342: real time      0.1345
  RMM-DIIS:  cpu time      0.6921: real time      0.6939
    ORTHCH:  cpu time      0.0209: real time      0.0209
       DOS:  cpu time      0.0012: real time      0.0012
    CHARGE:  cpu time      0.2432: real time      0.2442
    MIXING:  cpu time      0.0070: real time      0.0070
    --------------------------------------------
      LOOP:  cpu time      1.2459: real time      1.2654

 eigenvalue-minimisations  :  2601
 total energy-change (2. order) :-0.1610375E-03  (-0.1788951E-03)
 number of electron     256.0000001 magnetization 
 augmentation part      -14.6616328 magnetization 

 Broyden mixing:
  rms(total) = 0.55769E-01    rms(broyden)= 0.55769E-01
  rms(prec ) = 0.56046E-01
  weight for this iteration     100.00

 eigenvalues of (default mixing * dielectric matrix)
  average eigenvalue GAMMA=   1.4100
  2.5927  2.5927  1.5443  1.1276  0.8305  0.4500  0.7321

 Free energy of the ion-electron system (eV)
  ---------------------------------------------------
  alpha Z        PSCENC =       108.39758566
  Ewald energy   TEWEN  =     -7330.76444071
  -Hartree energ DENC   =      -465.41026041
  -exchange      EXHF   =         0.00000000
  -V(xc)+E(xc)   XCENC  =      -538.08061076
  PAW double counting   =     28551.02840735   -27451.62112868
  entropy T*S    EENTRO =         0.02627617
  eigenvalues    EBANDS =       194.29908956
  atomic energy  EATOM  =      6564.79586099
  Solvation  Ediel_sol  =         0.00000000
  ---------------------------------------------------
  free energy    TOTEN  =      -367.32922083 eV

  energy without entropy =     -367.35549699  energy(sigma->0) =     -367.33797955


--------------------------------------------------------------------------------------------------------




--------------------------------------- Iteration      1(  13)  ---------------------------------------


    POTLOK:  cpu time      0.0742: real time      0.0902
    SETDIJ:  cpu time      0.0737: real time      0.0739
    EDDIAG:  cpu time      0.1328: real time      0.1331
  RMM-DIIS:  cpu time      0.7466: real time      0.7495
    ORTHCH:  cpu time      0.0207: real time      0.0207
       DOS:  cpu time      0.0013: real time      0.0013
    CHARGE:  cpu time      0.2427: real time      0.2433
    MIXING:  cpu time      0.0076: real time      0.0076
    --------------------------------------------
      LOOP:  cpu time      1.2996: real time      1.3195

 eigenvalue-minimisations  :  2778
 total energy-change (2. order) :-0.5363325E-04  (-0.3433220E-04)
 number of electron     256.0000001 magnetization 
 augmentation part      -14.6620927 magnetization 

 Broyden mixing:
  rms(total) = 0.66245E-01    rms(broyden)= 0.66245E-01
  rms(prec ) = 0.66523E-01
  weight for this iteration     100.00

 eigenvalues of (default mixing * dielectric matrix)
  average eigenvalue GAMMA=   1.6206
  2.7349  2.7349  2.3233  2.0633  0.9176  0.8432  0.8432  0.5047

 Free energy of the ion-electron system (eV)
  ---------------------------------------------------
  alpha Z        PSCENC =       108.39758566
  Ewald energy   TEWEN  =     -7330.76444071
  -Hartree energ DENC   =      -465.47004459
  -exchange      EXHF   =         0.00000000
  -V(xc)+E(xc)   XCENC  =      -538.06634344
  PAW double counting   =     28621.52549427   -27522.11731545
  entropy T*S    EENTRO =         0.02627785
  eigenvalues    EBANDS =       194.34365096
  atomic energy  EATOM  =      6564.79586099
  Solvation  Ediel_sol  =         0.00000000
  ---------------------------------------------------
  free energy    TOTEN  =      -367.32927446 eV

  energy without entropy =     -367.35555231  energy(sigma->0) =     -367.33803374


--------------------------------------------------------------------------------------------------------




--------------------------------------- Iteration      1(  14)  ---------------------------------------


    POTLOK:  cpu time      0.0756: real time      0.0946
    SETDIJ:  cpu time      0.0688: real time      0.0705
    EDDIAG:  cpu time      0.1343: real time      0.1371
  RMM-DIIS:  cpu time      0.6705: real time      0.6926
    ORTHCH:  cpu time      0.0202: real time      0.0209
       DOS:  cpu time      0.0019: real time      0.0019
    CHARGE:  cpu time      0.2425: real time      0.2458
    MIXING:  cpu time      0.0079: real time      0.0080
    --------------------------------------------
      LOOP:  cpu time      1.2218: real time      1.2715

 eigenvalue-minimisations  :  2598
 total energy-change (2. order) :-0.3929465E-04  (-0.8804321E-05)
 number of electron     256.0000001 magnetization 
 augmentation part      -14.6622800 magnetization 

 Broyden mixing:
  rms(total) = 0.26582E-01    rms(broyden)= 0.26582E-01
  rms(prec ) = 0.26790E-01
  weight for this iteration     100.00

 eigenvalues of (default mixing * dielectric matrix)
  average eigenvalue GAMMA=   1.4672
  2.6316  2.6316  2.2796  1.9140  0.9846  0.9846  0.8125  0.4833  0.4833

 Free energy of the ion-electron system (eV)
  ---------------------------------------------------
  alpha Z        PSCENC =       108.39758566
  Ewald energy   TEWEN  =     -7330.76444071
  -Hartree energ DENC   =      -465.30433563
  -exchange      EXHF   =         0.00000000
  -V(xc)+E(xc)   XCENC  =      -538.10676886
  PAW double counting   =     28335.22271160   -27235.83787830
  entropy T*S    EENTRO =         0.02627596
  eigenvalues    EBANDS =       194.24167553
  atomic energy  EATOM  =      6564.79586099
  Solvation  Ediel_sol  =         0.00000000
  ---------------------------------------------------
  free energy    TOTEN  =      -367.32931375 eV

  energy without entropy =     -367.35558971  energy(sigma->0) =     -367.33807241


--------------------------------------------------------------------------------------------------------




--------------------------------------- Iteration      1(  15)  ---------------------------------------


    POTLOK:  cpu time      0.0784: real time      0.0973
    SETDIJ:  cpu time      0.0701: real time      0.0702
    EDDIAG:  cpu time      0.1330: real time      0.1338
  RMM-DIIS:  cpu time      0.7078: real time      0.7096
    ORTHCH:  cpu time      0.0208: real time      0.0209
       DOS:  cpu time      0.0018: real time      0.0019
    CHARGE:  cpu time      0.2431: real time      0.2446
    MIXING:  cpu time      0.0078: real time      0.0079
    --------------------------------------------
      LOOP:  cpu time      1.2629: real time      1.2861

 eigenvalue-minimisations  :  2641
 total energy-change (2. order) :-0.4295760E-04  (-0.2729442E-05)
 number of electron     256.0000001 magnetization 
 augmentation part      -14.6624480 magnetization 

 Broyden mixing:
  rms(total) = 0.20525E-01    rms(broyden)= 0.20525E-01
  rms(prec ) = 0.20677E-01
  weight for this iteration     100.00

 eigenvalues of (default mixing * dielectric matrix)
  average eigenvalue GAMMA=   1.4389
  2.7112  2.7112  2.2409  1.8132  0.8270  0.8270  0.9655  0.9655  0.8137  0.5134

 Free energy of the ion-electron system (eV)
  ---------------------------------------------------
  alpha Z        PSCENC =       108.39758566
  Ewald energy   TEWEN  =     -7330.76444071
  -Hartree energ DENC   =      -465.29297228
  -exchange      EXHF   =         0.00000000
  -V(xc)+E(xc)   XCENC  =      -538.10546279
  PAW double counting   =     28311.45019387   -27212.06276887
  entropy T*S    EENTRO =         0.02628075
  eigenvalues    EBANDS =       194.22636666
  atomic energy  EATOM  =      6564.79586099
  Solvation  Ediel_sol  =         0.00000000
  ---------------------------------------------------
  free energy    TOTEN  =      -367.32935671 eV

  energy without entropy =     -367.35563746  energy(sigma->0) =     -367.33811696


--------------------------------------------------------------------------------------------------------




--------------------------------------- Iteration      1(  16)  ---------------------------------------


    POTLOK:  cpu time      0.0775: real time      0.0949
    SETDIJ:  cpu time      0.0708: real time      0.0709
    EDDIAG:  cpu time      0.1374: real time      0.1378
  RMM-DIIS:  cpu time      0.6922: real time      0.6949
    ORTHCH:  cpu time      0.0212: real time      0.0225
       DOS:  cpu time      0.0012: real time      0.0012
    CHARGE:  cpu time      0.2465: real time      0.2471
    MIXING:  cpu time      0.0099: real time      0.0103
    --------------------------------------------
      LOOP:  cpu time      1.2568: real time      1.2795

 eigenvalue-minimisations  :  2592
 total energy-change (2. order) :-0.2576811E-04  (-0.1946472E-05)
 number of electron     256.0000001 magnetization 
 augmentation part      -14.6620769 magnetization 

 Broyden mixing:
  rms(total) = 0.10327E-01    rms(broyden)= 0.10327E-01
  rms(prec ) = 0.10395E-01
  weight for this iteration     100.00

 eigenvalues of (default mixing * dielectric matrix)
  average eigenvalue GAMMA=   1.4269
  2.7458  2.7458  2.0536  2.0536  1.1395  1.1395  0.9545  0.9545  0.7701  0.5696
  0.5696

 Free energy of the ion-electron system (eV)
  ---------------------------------------------------
  alpha Z        PSCENC =       108.39758566
  Ewald energy   TEWEN  =     -7330.76444071
  -Hartree energ DENC   =      -465.38536805
  -exchange      EXHF   =         0.00000000
  -V(xc)+E(xc)   XCENC  =      -538.09933184
  PAW double counting   =     28266.54840280   -27167.16354208
  entropy T*S    EENTRO =         0.02628460
  eigenvalues    EBANDS =       194.31516615
  atomic energy  EATOM  =      6564.79586099
  Solvation  Ediel_sol  =         0.00000000
  ---------------------------------------------------
  free energy    TOTEN  =      -367.32938248 eV

  energy without entropy =     -367.35566708  energy(sigma->0) =     -367.33814401


--------------------------------------------------------------------------------------------------------




--------------------------------------- Iteration      1(  17)  ---------------------------------------


    POTLOK:  cpu time      0.0747: real time      0.0914
    SETDIJ:  cpu time      0.0704: real time      0.0809
    EDDIAG:  cpu time      0.1490: real time      0.1523
  RMM-DIIS:  cpu time      0.7326: real time      0.7914
    ORTHCH:  cpu time      0.0220: real time      0.0220
       DOS:  cpu time      0.0012: real time      0.0014
    CHARGE:  cpu time      0.2442: real time      0.2447
    MIXING:  cpu time      0.0099: real time      0.0099
    --------------------------------------------
      LOOP:  cpu time      1.3039: real time      1.3940

 eigenvalue-minimisations  :  2577
 total energy-change (2. order) :-0.6010521E-05  (-0.7800597E-06)
 number of electron     256.0000001 magnetization 
 augmentation part      -14.6618232 magnetization 

 Broyden mixing:
  rms(total) = 0.24795E-02    rms(broyden)= 0.24795E-02
  rms(prec ) = 0.25157E-02
  weight for this iteration     100.00

 eigenvalues of (default mixing * dielectric matrix)
  average eigenvalue GAMMA=   1.6681
  2.4948  2.4948  2.7759  2.7759  2.3211  2.1944  0.9971  0.9971  0.8558  0.7921
  0.7921  0.5265

 Free energy of the ion-electron system (eV)
  ---------------------------------------------------
  alpha Z        PSCENC =       108.39758566
  Ewald energy   TEWEN  =     -7330.76444071
  -Hartree energ DENC   =      -465.42544162
  -exchange      EXHF   =         0.00000000
  -V(xc)+E(xc)   XCENC  =      -538.09953871
  PAW double counting   =     28222.54552430   -27123.16129036
  entropy T*S    EENTRO =         0.02628634
  eigenvalues    EBANDS =       194.35606563
  atomic energy  EATOM  =      6564.79586099
  Solvation  Ediel_sol  =         0.00000000
  ---------------------------------------------------
  free energy    TOTEN  =      -367.32938849 eV

  energy without entropy =     -367.35567483  energy(sigma->0) =     -367.33815060


--------------------------------------------------------------------------------------------------------




--------------------------------------- Iteration      1(  18)  ---------------------------------------


    POTLOK:  cpu time      0.0802: real time      0.0951
    SETDIJ:  cpu time      0.0701: real time      0.0702
    EDDIAG:  cpu time      0.1384: real time      0.1392
  RMM-DIIS:  cpu time      0.4902: real time      0.4917
    ORTHCH:  cpu time      0.0213: real time      0.0213
       DOS:  cpu time      0.0020: real time      0.0020
    --------------------------------------------
      LOOP:  cpu time      0.8021: real time      0.8195

 eigenvalue-minimisations  :  1643
 total energy-change (2. order) :-0.6137680E-06  (-0.2099860E-06)
 number of electron     256.0000001 magnetization 
 augmentation part      -14.6618232 magnetization 

 Free energy of the ion-electron system (eV)
  ---------------------------------------------------
  alpha Z        PSCENC =       108.39758566
  Ewald energy   TEWEN  =     -7330.76444071
  -Hartree energ DENC   =      -465.45164883
  -exchange      EXHF   =         0.00000000
  -V(xc)+E(xc)   XCENC  =      -538.09857388
  PAW double counting   =     28207.90837687   -27108.52458779
  entropy T*S    EENTRO =         0.02628613
  eigenvalues    EBANDS =       194.38175245
  atomic energy  EATOM  =      6564.79586099
  Solvation  Ediel_sol  =         0.00000000
  ---------------------------------------------------
  free energy    TOTEN  =      -367.32938910 eV

  energy without entropy =     -367.35567524  energy(sigma->0) =     -367.33815115


--------------------------------------------------------------------------------------------------------




 average (electrostatic) potential at core
  the test charge radii are     0.9892
  (the norm of the test charge is              1.0000)
       1 -82.9506       2 -82.9506       3 -82.9506       4 -82.9506       5 -82.9506
       6 -82.9506       7 -82.9506       8 -82.9506       9 -82.9506      10 -82.9506
      11 -82.9506      12 -82.9506      13 -82.9506      14 -82.9506      15 -82.9506
      16 -82.9506      17 -82.9506      18 -82.9506      19 -82.9506      20 -82.9506
      21 -82.9506      22 -82.9506      23 -82.9506      24 -82.9506      25 -82.9506
      26 -82.9506      27 -82.9506      28 -82.9506      29 -82.9506      30 -82.9506
      31 -82.9506      32 -82.9506      33 -82.9506      34 -82.9506      35 -82.9506
      36 -82.9506      37 -82.9506      38 -82.9506      39 -82.9506      40 -82.9506
      41 -82.9506      42 -82.9506      43 -82.9506      44 -82.9506      45 -82.9506
      46 -82.9506      47 -82.9506      48 -82.9506      49 -82.9506      50 -82.9506
      51 -82.9506      52 -82.9506      53 -82.9506      54 -82.9506      55 -82.9506
      56 -82.9506      57 -82.9506      58 -82.9506      59 -82.9506      60 -82.9506
      61 -82.9506      62 -82.9506      63 -82.9506      64 -82.9506
 
 
 
 E-fermi :   6.1305     XC(G=0):  -9.5808     alpha+bet :-12.0675

 val. band max:        5.9198706526   @ k =   0.0000   0.0000   0.0000
 cond. band min:       6.2784288689   @ k =   0.0000   0.0000   0.0000
 fundamental gap:      0.3585582163
 Fermi energy:         6.1304678058

 k-point     1 :       0.0000    0.0000    0.0000
  band No.  band energies     occupation 
      1      -6.1754      2.00000
      2      -5.1063      2.00000
      3      -5.1063      2.00000
      4      -5.0705      2.00000
      5      -5.0704      2.00000
      6      -5.0697      2.00000
      7      -5.0697      2.00000
      8      -4.1727      2.00000
      9      -4.1726      2.00000
     10      -4.1156      2.00000
     11      -4.1156      2.00000
     12      -4.1156      2.00000
     13      -4.1156      2.00000
     14      -4.0901      2.00000
     15      -4.0901      2.00000
     16      -4.0901      2.00000
     17      -4.0901      2.00000
     18      -4.0566      2.00000
     19      -4.0566      2.00000
     20      -3.8720      2.00000
     21      -3.8719      2.00000
     22      -3.7391      2.00000
     23      -3.7390      2.00000
     24      -2.0658      2.00000
     25      -2.0658      2.00000
     26      -2.0312      2.00000
     27      -1.9462      2.00000
     28      -1.9462      2.00000
     29      -1.9188      2.00000
     30      -1.9188      2.00000
     31      -1.8750      2.00000
     32      -1.8750      2.00000
     33      -1.8647      2.00000
     34      -1.8276      2.00000
     35      -1.8276      2.00000
     36      -1.8276      2.00000
     37      -1.8276      2.00000
     38      -1.7362      2.00000
     39      -1.7362      2.00000
     40      -1.6944      2.00000
     41      -1.6944      2.00000
     42      -1.1996      2.00000
     43      -1.1996      2.00000
     44      -1.1680      2.00000
     45      -1.1679      2.00000
     46       0.3142      2.00000
     47       0.3142      2.00000
     48       0.3142      2.00000
     49       0.3142      2.00000
     50       0.3429      2.00000
     51       0.3429      2.00000
     52       0.3842      2.00000
     53       0.3842      2.00000
     54       0.3842      2.00000
     55       0.3842      2.00000
     56       0.4220      2.00000
     57       0.4220      2.00000
     58       1.9250      2.00000
     59       1.9251      2.00000
     60       1.9260      2.00000
     61       1.9260      2.00000
     62       1.9267      2.00000
     63       1.9267      2.00000
     64       1.9267      2.00000
     65       1.9267      2.00000
     66       1.9322      2.00000
     67       1.9322      2.00000
     68       1.9347      2.00000
     69       1.9347      2.00000
     70       1.9610      2.00000
     71       1.9610      2.00000
     72       1.9610      2.00000
     73       1.9610      2.00000
     74       2.0481      2.00000
     75       2.0481      2.00000
     76       2.0707      2.00000
     77       2.0707      2.00000
     78       2.0707      2.00000
     79       2.0707      2.00000
     80       2.0918      2.00000
     81       2.0918      2.00000
     82       2.2534      2.00000
     83       2.2534      2.00000
     84       2.3920      2.00000
     85       2.3920      2.00000
     86       2.3977      2.00000
     87       2.3977      2.00000
     88       2.8196      2.00000
     89       2.9242      2.00000
     90       2.9242      2.00000
     91       3.0305      2.00000
     92       3.0766      2.00000
     93       3.0766      2.00000
     94       3.8135      2.00000
     95       3.8135      2.00000
     96       3.8827      2.00000
     97       3.8827      2.00000
     98       3.9278      2.00000
     99       3.9278      2.00000
    100       4.0014      2.00000
    101       4.0014      2.00000
    102       4.0240      2.00000
    103       4.0240      2.00000
    104       4.0242      2.00000
    105       4.0242      2.00000
    106       4.4214      2.00000
    107       4.4214      2.00000
    108       4.4682      2.00000
    109       4.4682      2.00000
    110       4.4682      2.00000
    111       4.4682      2.00000
    112       4.5148      2.00000
    113       4.5148      2.00000
    114       4.5184      2.00000
    115       4.5184      2.00000
    116       4.6092      2.00000
    117       4.6092      2.00000
    118       4.6293      2.00000
    119       4.6293      2.00000
    120       4.6293      2.00000
    121       4.6293      2.00000
    122       4.7051      2.00000
    123       4.7051      2.00000
    124       4.8034      2.00000
    125       4.8034      2.00000
    126       5.7705      2.02888
    127       5.9121      2.06444
    128       5.9199      2.05958
    129       6.2784      0.05399
    130       6.3890     -0.06961
    131       6.3890     -0.06961
    132       6.5037     -0.02403
    133       6.5474     -0.01205
    134       6.5474     -0.01205
    135       6.8434     -0.00001
    136       6.8434     -0.00001
    137       6.8435     -0.00001
    138       6.8435     -0.00001
    139       7.0007     -0.00000
    140       7.0008     -0.00000
    141       7.2418     -0.00000
    142       7.2418     -0.00000
    143       7.4411     -0.00000
    144       7.4411     -0.00000
    145       8.1076     -0.00000
    146       8.1077     -0.00000
    147       8.1708     -0.00000
    148       8.1709     -0.00000
    149       8.1712     -0.00000
    150       8.1720     -0.00000
    151       8.2441     -0.00000
    152       8.2452     -0.00000
    153       8.2465     -0.00000
    154       8.3238     -0.00000
    155       8.3576     -0.00000
    156       8.3579     -0.00000
    157       8.3592     -0.00000
    158       8.3614     -0.00000
    159       8.5649     -0.00000
    160       8.9059     -0.00000
    161       8.9263     -0.00000
    162       8.9536     -0.00000

 k-point     2 :       0.5000    0.0000    0.0000
  band No.  band energies     occupation 
      1      -5.9059      2.00000
      2      -5.9059      2.00000
      3      -4.8536      2.00000
      4      -4.8536      2.00000
      5      -4.8253      2.00000
      6      -4.8253      2.00000
      7      -4.8253      2.00000
      8      -4.8253      2.00000
      9      -4.7954      2.00000
     10      -4.7954      2.00000
     11      -4.0026      2.00000
     12      -4.0026      2.00000
     13      -4.0025      2.00000
     14      -4.0025      2.00000
     15      -3.9215      2.00000
     16      -3.9215      2.00000
     17      -3.9214      2.00000
     18      -3.9214      2.00000
     19      -3.8063      2.00000
     20      -3.8063      2.00000
     21      -3.1228      2.00000
     22      -3.1228      2.00000
     23      -3.0403      2.00000
     24      -3.0403      2.00000
     25      -3.0403      2.00000
     26      -3.0403      2.00000
     27      -2.9556      2.00000
     28      -2.9556      2.00000
     29      -1.9593      2.00000
     30      -1.9593      2.00000
     31      -1.9257      2.00000
     32      -1.9257      2.00000
     33      -1.8126      2.00000
     34      -1.8126      2.00000
     35      -1.7820      2.00000
     36      -1.7820      2.00000
     37      -0.7851      2.00000
     38      -0.7851      2.00000
     39      -0.7148      2.00000
     40      -0.7148      2.00000
     41      -0.7148      2.00000
     42      -0.7148      2.00000
     43      -0.6493      2.00000
     44      -0.6493      2.00000
     45      -0.5983      2.00000
     46      -0.5983      2.00000
     47      -0.5983      2.00000
     48      -0.5983      2.00000
     49      -0.5886      2.00000
     50      -0.5886      2.00000
     51      -0.5886      2.00000
     52      -0.5886      2.00000
     53       0.0081      2.00000
     54       0.0081      2.00000
     55       1.5620      2.00000
     56       1.5620      2.00000
     57       1.5830      2.00000
     58       1.5830      2.00000
     59       1.5830      2.00000
     60       1.5830      2.00000
     61       1.5833      2.00000
     62       1.5833      2.00000
     63       1.5858      2.00000
     64       1.5858      2.00000
     65       1.5858      2.00000
     66       1.5858      2.00000
     67       1.5888      2.00000
     68       1.5888      2.00000
     69       1.6099      2.00000
     70       1.6099      2.00000
     71       2.3055      2.00000
     72       2.3055      2.00000
     73       2.3467      2.00000
     74       2.3467      2.00000
     75       2.3818      2.00000
     76       2.3818      2.00000
     77       2.4246      2.00000
     78       2.4246      2.00000
     79       3.0680      2.00000
     80       3.0680      2.00000
     81       3.1088      2.00000
     82       3.1088      2.00000
     83       3.1088      2.00000
     84       3.1088      2.00000
     85       3.1346      2.00000
     86       3.1346      2.00000
     87       3.1413      2.00000
     88       3.1413      2.00000
     89       3.1657      2.00000
     90       3.1657      2.00000
     91       3.1657      2.00000
     92       3.1657      2.00000
     93       3.1949      2.00000
     94       3.1949      2.00000
     95       3.2249      2.00000
     96       3.2249      2.00000
     97       3.2249      2.00000
     98       3.2249      2.00000
     99       3.3177      2.00000
    100       3.3177      2.00000
    101       3.3183      2.00000
    102       3.3183      2.00000
    103       3.3235      2.00000
    104       3.3235      2.00000
    105       3.3235      2.00000
    106       3.3235      2.00000
    107       4.3924      2.00000
    108       4.3924      2.00000
    109       4.3924      2.00000
    110       4.3924      2.00000
    111       4.3944      2.00000
    112       4.3944      2.00000
    113       4.3982      2.00000
    114       4.3982      2.00000
    115       4.4499      2.00000
    116       4.4499      2.00000
    117       4.6564      2.00000
    118       4.6564      2.00000
    119       4.6564      2.00000
    120       4.6564      2.00000
    121       4.7225      2.00000
    122       4.7225      2.00000
    123       4.7225      2.00000
    124       4.7225      2.00000
    125       5.0975      2.00000
    126       5.0975      2.00000
    127       5.1005      2.00000
    128       5.1005      2.00000
    129       6.4777     -0.03400
    130       6.4777     -0.03400
    131       7.3299     -0.00000
    132       7.3299     -0.00000
    133       7.4885     -0.00000
    134       7.4885     -0.00000
    135       7.6229     -0.00000
    136       7.6229     -0.00000
    137       7.6474     -0.00000
    138       7.6475     -0.00000
    139       7.7850     -0.00000
    140       7.7850     -0.00000
    141       7.8788     -0.00000
    142       7.8791     -0.00000
    143       8.0848     -0.00000
    144       8.0858     -0.00000
    145       8.1510     -0.00000
    146       8.1519     -0.00000
    147       8.1525     -0.00000
    148       8.1579     -0.00000
    149       8.2101     -0.00000
    150       8.2105     -0.00000
    151       8.2136     -0.00000
    152       8.2177     -0.00000
    153       8.2365     -0.00000
    154       8.2397     -0.00000
    155       8.3298     -0.00000
    156       8.3343     -0.00000
    157       8.3351     -0.00000
    158       8.3447     -0.00000
    159       8.5484     -0.00000
    160       8.5750     -0.00000
    161       8.6579     -0.00000
    162       8.6832     -0.00000

 k-point     3 :       0.0000    0.5000    0.0000
  band No.  band energies     occupation 
[...]
 -0.000  -0.000   4.176   0.000  -0.000   7.779   0.000  -0.000
  0.001   0.002   0.000   4.176   0.000   0.000   7.779   0.000
 -0.000  -0.000  -0.000   0.000   4.176  -0.000   0.000   7.779
 -0.000  -0.000   7.779   0.000  -0.000  14.504   0.000  -0.000
  0.002   0.003   0.000   7.779   0.000   0.000  14.504   0.000
 -0.000  -0.000  -0.000   0.000   7.779  -0.000   0.000  14.504
 total augmentation occupancy for first ion, spin component:           1
  5.976  -2.306  -0.000  -0.054   0.000   0.000   0.020   0.000
 -2.306   0.999   0.000   0.027   0.000   0.000  -0.010   0.000
 -0.000   0.000   2.947  -0.000  -0.011  -0.658   0.000   0.000
 -0.054   0.027  -0.000   2.948   0.000   0.000  -0.658   0.000
  0.000   0.000  -0.011   0.000   2.984   0.000   0.000  -0.672
  0.000   0.000  -0.658   0.000   0.000   0.156  -0.000   0.000
  0.020  -0.010   0.000  -0.658   0.000  -0.000   0.156   0.000
  0.000   0.000   0.000   0.000  -0.672   0.000   0.000   0.160


------------------------ aborting loop because EDIFF is reached ----------------------------------------


    CHARGE:  cpu time      0.2415: real time      0.2424
    FORLOC:  cpu time      0.0221: real time      0.0221
    FORNL :  cpu time      0.6890: real time      0.6962
    STRESS:  cpu time      2.0981: real time      2.1227
    FORCOR:  cpu time      0.0884: real time      0.0892
    FORHAR:  cpu time      0.0361: real time      0.0363
    MIXING:  cpu time      0.0138: real time      0.0138
    OFIELD:  cpu time      0.0001: real time      0.0001

  FORCE on cell =-STRESS in cart. coord.  units (eV):
  Direction    XX          YY          ZZ          XY          YZ          ZX
  --------------------------------------------------------------------------------------
  Alpha Z   108.39759   108.39759   108.39759
  Ewald   -2399.59820 -2466.07519 -2465.80724   -16.02404    -0.00000     0.00000
  Hartree   162.50529   151.37973   151.16318    -8.70193    -0.00000    -0.00000
  E(xc)    -819.42210  -818.82604  -818.85656     0.16254    -0.00000    -0.00000
  Local    -980.14254  -898.97910  -899.27830    26.76529    -0.00000    -0.00000
  n-local  2494.54537  2484.42740  2484.92680    -1.74231    -0.00000     0.00000
  augment  -368.47833  -368.49030  -368.50484     0.76362     0.00000     0.00000
  Kinetic  1799.65506  1821.08493  1820.34655   -12.59274     0.00000    -0.00000
  Fock        0.00000     0.00000     0.00000     0.00000     0.00000     0.00000
  -------------------------------------------------------------------------------------
  Total      -2.53787    12.91901    12.38716   -11.36958     0.00000     0.00000
  in kB      -3.19657    16.27215    15.60226   -14.32057     0.00000     0.00000
  external pressure =        9.56 kB  Pullay stress =        0.00 kB


 VOLUME and BASIS-vectors are now :
 -----------------------------------------------------------------------------
  energy-cutoff  :      400.00
  volume of cell :     1272.02
      direct lattice vectors                 reciprocal lattice vectors
    10.979416621  0.107641016  0.000000000     0.091088451 -0.000910882  0.000000000
     0.107641016 10.764133590  0.000000000    -0.000910882  0.092910223  0.000000000
     0.000000000  0.000000000 10.764133590     0.000000000  0.000000000  0.092901114

  length of vectors
    10.979944259 10.764671780 10.764133590     0.091093005  0.092914688  0.092901114


 FORCES acting on ions
    electron-ion (+dipol)            ewald-force                    non-local-force                 convergence-correction
 -----------------------------------------------------------------------------------------------
   0.103E-08 -.321E-09 -.168E+01   0.144E-13 -.888E-15 0.120E+01   0.179E-22 0.128E-20 0.479E+00   -.134E-12 -.602E-13 0.163E-04
   0.103E-08 -.321E-09 -.168E+01   0.622E-14 -.888E-15 0.120E+01   -.128E-20 0.432E-22 0.479E+00   0.122E-12 0.244E-12 0.163E-04
   0.103E-08 -.321E-09 -.168E+01   -.178E-14 -.422E-14 0.120E+01   -.335E-21 -.371E-20 0.479E+00   -.357E-13 0.623E-13 0.163E-04
   0.103E-08 -.321E-09 -.168E+01   0.533E-14 0.000E+00 0.120E+01   0.498E-20 0.615E-20 0.479E+00   0.246E-13 -.247E-12 0.163E-04
   0.103E-08 -.321E-09 -.168E+01   -.600E-14 0.222E-14 0.120E+01   -.119E-21 -.388E-20 0.479E+00   0.138E-12 -.891E-13 0.163E-04
   0.103E-08 -.321E-09 -.168E+01   0.400E-14 0.266E-14 0.120E+01   0.409E-20 0.616E-20 0.479E+00   -.124E-12 0.201E-12 0.163E-04
   0.103E-08 -.320E-09 -.168E+01   0.115E-13 -.799E-14 0.120E+01   0.167E-20 0.102E-20 0.479E+00   0.341E-13 0.871E-13 0.163E-04
   0.103E-08 -.320E-09 -.168E+01   0.142E-13 0.355E-14 0.120E+01   -.329E-21 0.919E-21 0.479E+00   -.100E-13 -.202E-12 0.163E-04
   0.451E-09 -.100E-09 0.168E+01   0.933E-14 0.488E-14 -.120E+01   0.318E-20 -.330E-21 -.479E+00   -.253E-13 0.340E-13 -.163E-04
   0.451E-09 -.994E-10 0.168E+01   0.533E-14 0.355E-14 -.120E+01   -.305E-20 -.493E-20 -.479E+00   0.337E-14 -.571E-13 -.163E-04
   0.451E-09 -.990E-10 0.168E+01   0.533E-14 0.577E-14 -.120E+01   -.142E-20 0.487E-20 -.479E+00   0.102E-12 -.282E-13 -.163E-04
   0.451E-09 -.998E-10 0.168E+01   0.533E-14 0.107E-13 -.120E+01   -.421E-20 0.977E-21 -.479E+00   -.814E-13 0.566E-13 -.163E-04
   0.451E-09 -.100E-09 0.168E+01   -.533E-14 0.888E-15 -.120E+01   0.960E-22 0.151E-20 -.479E+00   0.227E-13 0.388E-13 -.163E-04
   0.451E-09 -.987E-10 0.168E+01   -.711E-14 0.000E+00 -.120E+01   -.198E-22 0.164E-20 -.479E+00   -.801E-14 -.862E-13 -.163E-04
   0.451E-09 -.990E-10 0.168E+01   -.120E-13 0.129E-13 -.120E+01   0.736E-21 0.183E-20 -.479E+00   -.119E-12 -.283E-13 -.163E-04
   0.451E-09 -.101E-09 0.168E+01   -.888E-14 0.888E-14 -.120E+01   0.229E-21 -.743E-21 -.479E+00   0.759E-13 0.808E-13 -.163E-04
   0.103E-08 -.321E-09 -.168E+01   0.169E-13 -.127E-13 0.120E+01   -.531E-20 0.536E-20 0.479E+00   -.753E-14 0.131E-12 0.163E-04
   0.103E-08 -.321E-09 -.168E+01   0.977E-14 -.120E-13 0.120E+01   -.593E-20 0.604E-20 0.479E+00   -.231E-13 0.104E-13 0.163E-04
   0.103E-08 -.321E-09 -.168E+01   0.533E-14 -.109E-13 0.120E+01   0.136E-19 0.829E-22 0.479E+00   0.422E-13 -.125E-12 0.163E-04
   0.103E-08 -.321E-09 -.168E+01   0.178E-13 -.129E-13 0.120E+01   0.303E-20 -.867E-20 0.479E+00   -.255E-13 -.165E-13 0.163E-04
   0.103E-08 -.320E-09 -.168E+01   0.220E-13 -.138E-13 0.120E+01   0.774E-20 -.164E-20 0.479E+00   0.239E-13 -.987E-13 0.163E-04
   0.103E-08 -.321E-09 -.168E+01   0.258E-13 -.977E-14 0.120E+01   0.487E-20 -.787E-20 0.479E+00   0.934E-14 0.157E-12 0.163E-04
   0.103E-08 -.321E-09 -.168E+01   0.102E-13 -.195E-13 0.120E+01   -.520E-20 0.710E-20 0.479E+00   -.445E-13 0.846E-13 0.163E-04
   0.103E-08 -.321E-09 -.168E+01   0.107E-13 -.142E-13 0.120E+01   -.847E-20 0.156E-20 0.479E+00   0.338E-13 -.143E-12 0.163E-04
   0.451E-09 -.100E-09 0.168E+01   0.266E-14 -.246E-14 -.120E+01   -.244E-20 -.531E-20 -.479E+00   0.683E-14 0.740E-13 -.163E-04
   0.451E-09 -.992E-10 0.168E+01   0.622E-14 -.287E-14 -.120E+01   -.513E-21 0.118E-20 -.479E+00   -.956E-14 0.657E-13 -.163E-04
   0.451E-09 -.996E-10 0.168E+01   0.142E-13 -.443E-14 -.120E+01   -.127E-20 -.428E-20 -.479E+00   -.805E-13 -.604E-13 -.163E-04
   0.451E-09 -.996E-10 0.168E+01   0.213E-13 -.179E-14 -.120E+01   0.836E-21 0.127E-20 -.479E+00   0.629E-13 -.578E-13 -.163E-04
   0.451E-09 -.991E-10 0.168E+01   0.444E-14 -.466E-14 -.120E+01   0.203E-20 -.177E-20 -.479E+00   -.707E-14 0.257E-12 -.163E-04
   0.451E-09 -.991E-10 0.168E+01   -.266E-14 -.866E-14 -.120E+01   0.341E-20 0.237E-20 -.479E+00   -.510E-14 -.194E-13 -.163E-04
   0.451E-09 -.995E-10 0.168E+01   0.160E-13 0.000E+00 -.120E+01   -.240E-20 -.616E-20 -.479E+00   0.727E-13 -.237E-12 -.163E-04
   0.451E-09 -.996E-10 0.168E+01   0.124E-13 -.397E-14 -.120E+01   -.157E-20 0.473E-20 -.479E+00   -.597E-13 0.199E-13 -.163E-04
   0.103E-08 -.321E-09 -.168E+01   -.866E-14 0.422E-14 0.120E+01   -.658E-20 -.310E-20 0.479E+00   0.118E-12 0.417E-13 0.163E-04
   0.103E-08 -.321E-09 -.168E+01   -.533E-14 0.178E-14 0.120E+01   -.256E-20 0.407E-20 0.479E+00   -.924E-13 0.862E-13 0.163E-04
   0.103E-08 -.321E-09 -.168E+01   -.400E-14 0.533E-14 0.120E+01   0.887E-21 -.387E-20 0.479E+00   -.852E-13 -.382E-13 0.163E-04
   0.103E-08 -.321E-09 -.168E+01   -.622E-14 -.888E-15 0.120E+01   0.139E-21 -.514E-21 0.479E+00   0.292E-13 -.911E-13 0.163E-04
   0.103E-08 -.321E-09 -.168E+01   -.162E-13 -.444E-14 0.120E+01   -.488E-20 -.286E-20 0.479E+00   -.134E-12 0.100E-12 0.163E-04
   0.103E-08 -.321E-09 -.168E+01   -.306E-13 -.888E-15 0.120E+01   0.206E-20 0.408E-21 0.479E+00   0.109E-12 0.713E-13 0.163E-04
   0.103E-08 -.321E-09 -.168E+01   -.711E-14 0.622E-14 0.120E+01   -.392E-20 -.171E-20 0.479E+00   0.918E-13 -.100E-12 0.163E-04
   0.103E-08 -.321E-09 -.168E+01   -.142E-13 0.000E+00 0.120E+01   0.189E-20 0.490E-20 0.479E+00   -.358E-13 -.786E-13 0.163E-04
   0.451E-09 -.993E-10 0.168E+01   -.227E-13 -.178E-14 -.120E+01   0.728E-21 0.187E-20 -.479E+00   -.301E-13 -.487E-13 -.163E-04
   0.451E-09 -.994E-10 0.168E+01   -.334E-13 -.178E-14 -.120E+01   0.146E-20 -.898E-21 -.479E+00   -.303E-13 0.348E-13 -.163E-04
   0.451E-09 -.994E-10 0.168E+01   -.191E-13 0.195E-13 -.120E+01   -.528E-20 0.487E-20 -.479E+00   0.142E-12 0.452E-13 -.163E-04
   0.451E-09 -.994E-10 0.168E+01   -.191E-13 0.124E-13 -.120E+01   0.761E-21 -.102E-21 -.479E+00   -.997E-13 -.222E-13 -.163E-04
   0.451E-09 -.100E-09 0.168E+01   -.605E-14 0.533E-14 -.120E+01   -.208E-20 0.570E-20 -.479E+00   0.307E-13 -.133E-12 -.163E-04
   0.451E-09 -.988E-10 0.168E+01   -.205E-13 0.533E-14 -.120E+01   -.114E-20 -.558E-20 -.479E+00   0.157E-13 0.961E-13 -.163E-04
   0.451E-09 -.991E-10 0.168E+01   -.264E-15 0.195E-13 -.120E+01   0.558E-20 0.115E-20 -.479E+00   -.151E-12 0.132E-12 -.163E-04
   0.451E-09 -.101E-09 0.168E+01   -.145E-13 0.888E-14 -.120E+01   -.130E-20 -.482E-20 -.479E+00   0.107E-12 -.914E-13 -.163E-04
   0.103E-08 -.321E-09 -.168E+01   -.466E-14 -.111E-13 0.120E+01   0.194E-20 0.175E-20 0.479E+00   -.208E-13 0.719E-13 0.163E-04
   0.103E-08 -.321E-09 -.168E+01   -.400E-14 -.444E-14 0.120E+01   -.411E-20 -.102E-20 0.479E+00   -.264E-13 0.283E-13 0.163E-04
   0.103E-08 -.321E-09 -.168E+01   -.222E-14 0.000E+00 0.120E+01   -.767E-21 0.603E-20 0.479E+00   0.612E-14 -.749E-13 0.163E-04
   0.103E-08 -.321E-09 -.168E+01   -.124E-13 -.888E-14 0.120E+01   -.151E-20 -.572E-20 0.479E+00   0.190E-13 -.305E-13 0.163E-04
   0.103E-08 -.322E-09 -.168E+01   0.444E-14 -.222E-14 0.120E+01   0.114E-20 0.496E-21 0.479E+00   0.205E-13 -.307E-13 0.163E-04
   0.103E-08 -.320E-09 -.168E+01   0.115E-13 -.266E-14 0.120E+01   0.207E-20 -.231E-20 0.479E+00   0.200E-13 0.140E-12 0.163E-04
   0.103E-08 -.321E-09 -.168E+01   0.000E+00 0.488E-14 0.120E+01   -.208E-20 0.143E-20 0.479E+00   -.635E-14 0.291E-13 0.163E-04
   0.103E-08 -.322E-09 -.168E+01   0.711E-14 -.355E-14 0.120E+01   -.219E-20 -.284E-20 0.479E+00   -.182E-13 -.134E-12 0.163E-04
   0.451E-09 -.993E-10 0.168E+01   0.120E-14 0.689E-14 -.120E+01   -.703E-20 0.497E-20 -.479E+00   -.234E-13 0.565E-13 -.163E-04
   0.451E-09 -.993E-10 0.168E+01   0.551E-15 0.246E-15 -.120E+01   -.889E-21 0.408E-20 -.479E+00   -.154E-13 0.161E-12 -.163E-04
   0.451E-09 -.993E-10 0.168E+01   -.834E-14 -.295E-14 -.120E+01   0.933E-20 -.111E-19 -.479E+00   -.340E-13 -.443E-13 -.163E-04
   0.451E-09 -.994E-10 0.168E+01   -.876E-14 0.602E-14 -.120E+01   0.667E-20 -.474E-20 -.479E+00   0.209E-13 -.149E-12 -.163E-04
   0.451E-09 -.990E-10 0.168E+01   -.117E-13 -.203E-14 -.120E+01   0.827E-20 -.723E-20 -.479E+00   0.326E-13 -.865E-13 -.163E-04
   0.451E-09 -.991E-10 0.168E+01   -.453E-14 -.156E-14 -.120E+01   0.816E-20 -.210E-20 -.479E+00   0.442E-15 0.251E-12 -.163E-04
   0.451E-09 -.997E-10 0.168E+01   -.214E-13 0.284E-14 -.120E+01   -.629E-20 0.340E-20 -.479E+00   0.263E-13 0.879E-13 -.163E-04
   0.451E-09 -.995E-10 0.168E+01   -.142E-13 0.425E-14 -.120E+01   -.528E-20 0.519E-20 -.479E+00   -.172E-13 -.231E-12 -.163E-04
 -----------------------------------------------------------------------------------------------
   0.472E-07 -.135E-07 0.293E-04   -.626E-13 -.280E-13 0.711E-14   -.782E-22 -.335E-20 0.158E-13   -.545E-13 0.958E-13 -.148E-09
 
 
 POSITION                                       TOTAL-FORCE (eV/Angst)
 -----------------------------------------------------------------------------------
      0.00000      0.00000      0.00759         0.000000      0.000000      0.000048
      0.00000      0.00000      5.38965        -0.000000     -0.000000      0.000048
      0.05382      5.38207      0.00759         0.000000     -0.000000      0.000048
      0.05382      5.38207      5.38965        -0.000000     -0.000000      0.000048
      5.48971      0.05382      0.00759        -0.000000      0.000000      0.000048
      5.48971      0.05382      5.38965         0.000000      0.000000      0.000048
      5.54353      5.43589      0.00759        -0.000000      0.000000      0.000048
      5.54353      5.43589      5.38965         0.000000      0.000000      0.000048
      4.15765      4.07692      1.33793        -0.000000     -0.000000     -0.000048
      4.15765      4.07692      6.72000        -0.000000     -0.000000     -0.000048
      4.21147      9.45898      1.33793        -0.000000      0.000000     -0.000048
      4.21147      9.45898      6.72000         0.000000      0.000000     -0.000048
      9.64735      4.13074      1.33793         0.000000     -0.000000     -0.000048
      9.64735      4.13074      6.72000        -0.000000     -0.000000     -0.000048
      9.70118      9.51280      1.33793         0.000000     -0.000000     -0.000048
      9.70118      9.51280      6.72000         0.000000     -0.000000     -0.000048
      0.02691      2.69103      2.69862        -0.000000     -0.000000      0.000048
      0.02691      2.69103      8.08069         0.000000     -0.000000      0.000048
      0.08073      8.07310      2.69862         0.000000      0.000000      0.000048
      0.08073      8.07310      8.08069        -0.000000      0.000000      0.000048
      5.51662      2.74485      2.69862        -0.000000      0.000000      0.000048
      5.51662      2.74485      8.08069         0.000000      0.000000      0.000048
      5.57044      8.12692      2.69862         0.000000      0.000000      0.000048
      5.57044      8.12692      8.08069         0.000000      0.000000      0.000048
      4.13074      1.38588      4.02896         0.000000     -0.000000     -0.000048
      4.13074      1.38588      9.41103        -0.000000      0.000000     -0.000048
      4.18456      6.76795      4.02896        -0.000000      0.000000     -0.000048
      4.18456      6.76795      9.41103        -0.000000     -0.000000     -0.000048
      9.62044      1.43970      4.02896         0.000000     -0.000000     -0.000048
      9.62044      1.43970      9.41103         0.000000     -0.000000     -0.000048
      9.67427      6.82177      4.02896        -0.000000     -0.000000     -0.000048
      9.67427      6.82177      9.41103         0.000000     -0.000000     -0.000048
      2.74485      0.02691      2.69862         0.000000      0.000000      0.000048
      2.74485      0.02691      8.08069         0.000000      0.000000      0.000048
      2.79867      5.40898      2.69862         0.000000     -0.000000      0.000048
      2.79867      5.40898      8.08069        -0.000000     -0.000000      0.000048
      8.23456      0.08073      2.69862        -0.000000      0.000000      0.000048
      8.23456      0.08073      8.08069         0.000000      0.000000      0.000048
      8.28838      5.46280      2.69862        -0.000000     -0.000000      0.000048
      8.28838      5.46280      8.08069        -0.000000     -0.000000      0.000048
      1.41279      4.05001      4.02896        -0.000000      0.000000     -0.000048
      1.41279      4.05001      9.41103         0.000000      0.000000     -0.000048
      1.46661      9.43207      4.02896         0.000000      0.000000     -0.000048
      1.46661      9.43207      9.41103         0.000000      0.000000     -0.000048
      6.90250      4.10383      4.02896        -0.000000     -0.000000     -0.000048
      6.90250      4.10383      9.41103        -0.000000     -0.000000     -0.000048
      6.95632      9.48589      4.02896         0.000000      0.000000     -0.000048
      6.95632      9.48589      9.41103        -0.000000      0.000000     -0.000048
      2.77176      2.71794      0.00759        -0.000000     -0.000000      0.000048
      2.77176      2.71794      5.38965         0.000000     -0.000000      0.000048
      2.82558      8.10001      0.00759         0.000000     -0.000000      0.000048
      2.82558      8.10001      5.38965         0.000000      0.000000      0.000048
      8.26147      2.77176      0.00759        -0.000000      0.000000      0.000048
      8.26147      2.77176      5.38965        -0.000000     -0.000000      0.000048
      8.31529      8.15383      0.00759        -0.000000     -0.000000      0.000048
      8.31529      8.15383      5.38965        -0.000000     -0.000000      0.000048
      1.38588      1.35897      1.33793         0.000000      0.000000     -0.000048
      1.38588      1.35897      6.72000         0.000000      0.000000     -0.000048
      1.43970      6.74104      1.33793         0.000000      0.000000     -0.000048
      1.43970      6.74104      6.72000         0.000000      0.000000     -0.000048
      6.87559      1.41279      1.33793        -0.000000     -0.000000     -0.000048
      6.87559      1.41279      6.72000        -0.000000      0.000000     -0.000048
      6.92941      6.79486      1.33793        -0.000000      0.000000     -0.000048
      6.92941      6.79486      6.72000        -0.000000     -0.000000     -0.000048
 -----------------------------------------------------------------------------------
    total drift:                                0.000000     -0.000000      0.000029


--------------------------------------------------------------------------------------------------------



  FREE ENERGIE OF THE ION-ELECTRON SYSTEM (eV)
  ---------------------------------------------------
  free  energy   TOTEN  =      -367.37893290 eV

  energy  without entropy=     -367.40071155  energy(sigma->0) =     -367.38619245
 
 d Force = 0.4496137E-02[-0.706E-05, 0.900E-02]  d Energy = 0.4502242E-02-0.610E-05
 d Force =-0.1692404E+00[-0.177E+00,-0.161E+00]  d Ewald  =-0.1692401E+00-0.231E-06


--------------------------------------------------------------------------------------------------------


    POTLOK:  cpu time      0.1447: real time      0.1459


--------------------------------------------------------------------------------------------------------




--------------------------------------------------------------------------------------------------------


  
 reached required accuracy - stopping structural energy minimisation
     LOOP+:  cpu time     12.9492: real time     13.1380
    4ORBIT:  cpu time      0.0000: real time      0.0000

 total amount of memory used by VASP MPI-rank0    80234. kBytes
=======================================================================

   base      :      30000. kBytes
   nonlr-proj:       4528. kBytes
   fftplans  :      18113. kBytes
   grid      :       6881. kBytes
   one-center:         18. kBytes
   wavefun   :      20694. kBytes
 
  
  
 General timing and accounting informations for this job:
 ========================================================
  
                  Total CPU time used (sec):       59.016
                            User time (sec):       55.692
                          System time (sec):        3.323
                         Elapsed time (sec):       62.866
  
                   Maximum memory used (kb):      409584.
                   Average memory used (kb):          N/A
  
                          Minor page faults:        95009
                          Major page faults:            0
                 Voluntary context switches:         9038
