<?xml version="1.0" encoding="ISO-8859-1"?>
<modeling>
 <generator>
  <i name="program" type="string">vasp </i>
  <i name="version" type="string">6.4.3  </i>
  <i name="subversion" type="string">19Mar24 (build Oct 21 2024 22:36:34) complex                          parallel </i>
  <i name="platform" type="string">LinuxIFC </i>
  <i name="date" type="string">2024 11 01 </i>
  <i name="time" type="string">22:50:03 </i>
 </generator>
 <incar>
  <i type="string" name="SYSTEM">Si64</i>
  <i type="int" name="ISTART">     0</i>
  <i type="string" name="PREC">Accurate</i>
  <i type="string" name="ALGO">Fast</i>
  <i type="logical" name="ADDGRID"> T  </i>
  <i type="int" name="ICHARG">     2</i>
  <i type="int" name="NELM">    60</i>
  <i type="int" name="NELMIN">     8</i>
  <i type="int" name="IBRION">     2</i>
  <i name="EDIFF">      0.00000100</i>
  <i name="EDIFFG">     -0.01000000</i>
  <i type="int" name="NSW">    60</i>
  <i type="int" name="ISIF">     2</i>
  <i name="ENCUT">    400.00000000</i>
  <i type="string" name="LREAL">Auto</i>
  <i type="int" name="ISMEAR">     1</i>
  <i name="SIGMA">      0.20000000</i>
  <i type="logical" name="LWAVE"> F  </i>
  <i type="logical" name="LCHARG"> F  </i>
  <i type="logical" name="GGA_COMPAT"> F  </i>
  <i type="string" name="GGA">PS</i>
 </incar>
 <primitive_cell>
  <structure name="primitive_cell" >
   <crystal>
    <varray name="basis" >
     <v>       0.02691025       2.69103340      -2.69103340 </v>
     <v>       0.02691025       2.69103340       2.69103340 </v>
     <v>       2.71794390      -2.66412314       0.00000000 </v>
    </varray>
    <i name="volume">     39.75070769 </i>
    <varray name="rec_basis" >
     <v>       0.18035514       0.18399868      -0.18580223 </v>
     <v>       0.18035514       0.18399868       0.18580223 </v>
     <v>       0.36435380      -0.00364353      -0.00000000 </v>
    </varray>
   </crystal>
   <varray name="positions" >
    <v>       0.00000000       0.00000000       0.00000000 </v>
    <v>       0.25000000       0.75000000       0.50000000 </v>
   </varray>
  </structure>
  <varray name="primitive_index" >
   <v type="int" >        1 </v>
   <v type="int" >       15 </v>
  </varray>
 </primitive_cell>
 <kpoints>
  <generation param="Gamma">
   <v type="int" name="divisions">       2        2        2 </v>
   <v name="usershift">      0.00000000       0.00000000       0.00000000 </v>
   <v name="genvec1">      0.50000000      -0.00000000       0.00000000 </v>
   <v name="genvec2">      0.00000000       0.50000000       0.00000000 </v>
   <v name="genvec3">      0.00000000       0.00000000       0.50000000 </v>
   <v name="shift">      0.00000000       0.00000000       0.00000000 </v>
  </generation>
  <varray name="kpointlist" >
   <v>       0.00000000       0.00000000       0.00000000 </v>
   <v>       0.50000000       0.00000000       0.00000000 </v>
   <v>       0.00000000       0.50000000       0.00000000 </v>
   <v>       0.50000000       0.50000000       0.00000000 </v>
   <v>       0.00000000       0.00000000       0.50000000 </v>
   <v>       0.50000000       0.00000000       0.50000000 </v>
   <v>       0.00000000       0.50000000       0.50000000 </v>
   <v>       0.50000000       0.50000000       0.50000000 </v>
  </varray>
  <varray name="weights" >
   <v>       0.12500000 </v>
   <v>       0.12500000 </v>
   <v>       0.12500000 </v>
   <v>       0.12500000 </v>
   <v>       0.12500000 </v>
   <v>       0.12500000 </v>
   <v>       0.12500000 </v>
   <v>       0.12500000 </v>
  </varray>
 </kpoints>
 <parameters>
  <separator name="general" >
   <i type="string" name="SYSTEM">Si64</i>
   <i type="logical" name="LCOMPAT"> F  </i>
  </separator>
  <separator name="electronic" >
   <i type="string" name="PREC">accura</i>
   <i name="ENMAX">    400.00000000</i>
   <i name="ENAUG">    322.06900000</i>
   <i name="EDIFF">      0.00000100</i>
   <i type="int" name="IALGO">    68</i>
   <i type="int" name="IWAVPR">    11</i>
   <i type="int" name="NBANDS">   162</i>
   <i type="int" name="NBANDSLOW">    -1</i>
   <i type="int" name="NBANDSHIGH">    -1</i>
   <i name="NELECT">    256.00000000</i>
   <i type="int" name="TURBO">     0</i>
   <i type="int" name="IRESTART">     0</i>
   <i type="int" name="NREBOOT">     0</i>
   <i type="int" name="NMIN">     0</i>
   <i name="EREF">      0.00000000</i>
   <separator name="electronic smearing" >
    <i type="int" name="ISMEAR">     1</i>
    <i name="SIGMA">      0.20000000</i>
    <i name="KSPACING">      0.50000000</i>
    <i type="logical" name="KGAMMA"> T  </i>
    <i type="logical" name="KBLOWUP"> T  </i>
   </separator>
   <separator name="electronic projectors" >
    <i type="logical" name="LREAL"> T  </i>
    <v name="ROPT">     -0.00025000</v>
    <i type="int" name="LMAXPAW">  -100</i>
    <i type="int" name="LMAXMIX">     2</i>
    <i type="logical" name="NLSPLINE"> F  </i>
   </separator>
   <separator name="electronic startup" >
    <i type="int" name="ISTART">     0</i>
    <i type="int" name="ICHARG">     2</i>
    <i type="int" name="INIWAV">     1</i>
   </separator>
   <separator name="electronic spin" >
    <i type="int" name="ISPIN">     1</i>
    <i type="logical" name="LNONCOLLINEAR"> F  </i>
    <v name="MAGMOM">      1.00000000      1.00000000      1.00000000      1.00000000      1.00000000      1.00000000      1.00000000      1.00000000      1.00000000      1.00000000      1.00000000      1.00000000      1.00000000      1.00000000      1.00000000      1.00000000      1.00000000      1.00000000      1.00000000      1.00000000
      1.00000000      1.00000000      1.00000000      1.00000000      1.00000000      1.00000000      1.00000000      1.00000000      1.00000000      1.00000000      1.00000000      1.00000000      1.00000000      1.00000000      1.00000000      1.00000000      1.00000000      1.00000000      1.00000000      1.00000000
      1.00000000      1.00000000      1.00000000      1.00000000      1.00000000      1.00000000      1.00000000      1.00000000      1.00000000      1.00000000      1.00000000      1.00000000      1.00000000      1.00000000      1.00000000      1.00000000      1.00000000      1.00000000      1.00000000      1.00000000
      1.00000000      1.00000000      1.00000000      1.00000000</v>
    <i name="NUPDOWN">     -1.00000000</i>
    <i type="logical" name="LSORBIT"> F  </i>
    <v name="SAXIS">      0.00000000      0.00000000      1.00000000</v>
    <i type="logical" name="LSPIRAL"> F  </i>
    <v name="QSPIRAL">      0.00000000      0.00000000      0.00000000</v>
    <i type="logical" name="LZEROZ"> F  </i>
   </separator>
   <separator name="electronic exchange-correlation" >
    <i type="logical" name="LASPH"> F  </i>
   </separator>
   <separator name="electronic convergence" >
    <i type="int" name="NELM">    60</i>
    <i type="int" name="NELMDL">    -5</i>
    <i type="int" name="NELMIN">     8</i>
    <i name="ENINI">    400.00000000</i>
    <separator name="electronic convergence detail" >
     <i type="logical" name="LDIAG"> T  </i>
     <i type="logical" name="LSUBROT"> F  </i>
     <i name="WEIMIN">      0.00100000</i>
     <i name="EBREAK">      0.00000000</i>
     <i name="DEPER">      0.30000000</i>
     <i type="int" name="NRMM">     4</i>
     <i name="TIME">      0.40000000</i>
    </separator>
   </separator>
   <separator name="electronic mixer" >
    <i name="AMIX">      0.40000000</i>
    <i name="BMIX">      1.00000000</i>
    <i name="AMIN">      0.10000000</i>
    <i name="AMIX_MAG">      1.60000000</i>
    <i name="BMIX_MAG">      1.00000000</i>
    <separator name="electronic mixer details" >
     <i type="int" name="IMIX">     4</i>
     <i type="logical" name="MIXFIRST"> F  </i>
     <i type="int" name="MAXMIX">   -45</i>
     <i name="WC">    100.00000000</i>
     <i type="int" name="INIMIX">     1</i>
     <i type="int" name="MIXPRE">     1</i>
     <i type="int" name="MREMOVE">     5</i>
    </separator>
   </separator>
   <separator name="electronic dipolcorrection" >
    <i type="logical" name="LDIPOL"> F  </i>
    <i type="logical" name="LMONO"> F  </i>
    <i type="int" name="IDIPOL">     0</i>
    <i name="EPSILON">      1.00000000</i>
    <v name="DIPOL">   -100.00000000   -100.00000000   -100.00000000</v>
    <i name="EFIELD">      0.00000000</i>
    <i type="logical" name="LVACPOTAV"> F  </i>
   </separator>
  </separator>
  <separator name="grids" >
   <i type="int" name="NGX">    72</i>
   <i type="int" name="NGY">    70</i>
   <i type="int" name="NGZ">    70</i>
   <i type="int" name="NGXF">   144</i>
   <i type="int" name="NGYF">   140</i>
   <i type="int" name="NGZF">   140</i>
   <i type="logical" name="ADDGRID"> T  </i>
  </separator>
  <separator name="ionic" >
   <i type="int" name="NSW">    60</i>
   <i type="int" name="IBRION">     2</i>
   <i type="int" name="MDALGO">     0</i>
   <i type="int" name="ISIF">     2</i>
   <i name="PSTRESS">      0.00000000</i>
   <i name="EDIFFG">     -0.01000000</i>
   <i type="int" name="NFREE">     1</i>
   <i name="POTIM">      0.50000000</i>
   <i name="SMASS">     -3.00000000</i>
   <i name="SCALEE">      1.00000000</i>
  </separator>
  <separator name="ionic md" >
   <i name="TEBEG">      0.00010000</i>
   <i name="TEEND">      0.00010000</i>
   <i type="int" name="NBLOCK">     1</i>
   <i type="int" name="KBLOCK">    60</i>
   <i type="int" name="NPACO">   256</i>
   <i name="APACO">     10.00000000</i>
  </separator>
  <separator name="symmetry" >
   <i type="int" name="ISYM">     2</i>
   <i name="SYMPREC">      0.00001000</i>
  </separator>
  <separator name="dos" >
   <i type="int" name="LORBIT">     0</i>
   <v name="RWIGS">     -1.00000000</v>
   <i type="int" name="NEDOS">   301</i>
   <i name="EMIN">     10.00000000</i>
   <i name="EMAX">    -10.00000000</i>
   <i name="EFERMI">      0.00000000</i>
  </separator>
  <separator name="writing" >
   <i type="int" name="NWRITE">     2</i>
   <i type="logical" name="LWAVE"> F  </i>
   <i type="logical" name="LDOWNSAMPLE"> F  </i>
   <i type="logical" name="LCHARG"> F  </i>
   <i type="logical" name="LPARD"> F  </i>
   <i type="logical" name="LVTOT"> F  </i>
   <i type="logical" name="LVHAR"> F  </i>
   <i type="logical" name="LELF"> F  </i>
   <i type="logical" name="LOPTICS"> F  </i>
   <v name="STM">      0.00000000      0.00000000      0.00000000      0.00000000      0.00000000      0.00000000      0.00000000</v>
  </separator>
  <separator name="performance" >
   <i type="int" name="NPAR">     2</i>
   <i type="int" name="NSIM">     4</i>
   <i type="int" name="NBLK">    -1</i>
   <i type="logical" name="LPLANE"> T  </i>
   <i type="logical" name="LSCALAPACK"> T  </i>
   <i type="logical" name="LSCAAWARE"> F  </i>
   <i type="logical" name="LSCALU"> F  </i>
   <i type="logical" name="LASYNC"> F  </i>
   <i type="logical" name="LORBITALREAL"> F  </i>
  </separator>
  <separator name="miscellaneous" >
   <i type="int" name="IDIOT">     3</i>
   <i type="int" name="PHON_NSTRUCT">    -1</i>
   <i type="logical" name="LMUSIC"> F  </i>
   <v name="POMASS">     28.08500000</v>
   <v name="DARWINR">      0.00000000</v>
   <v name="DARWINV">      1.00000000</v>
   <i type="logical" name="LCORR"> T  </i>
  </separator>
  <i type="logical" name="GGA_COMPAT"> F  </i>
  <i type="logical" name="LBERRY"> F  </i>
  <i type="int" name="ICORELEVEL">     0</i>
  <i type="logical" name="LDAU"> F  </i>
  <i type="int" name="I_CONSTRAINED_M">     0</i>
  <separator name="electronic exchange-correlation" >
   <i type="string" name="GGA    ">PS</i>
   <i type="string" name="XC_C">1</i>
   <i type="int" name="VOSKOWN">     0</i>
   <i type="logical" name="LHFCALC"> F  </i>
   <i type="string" name="PRECFOCK"></i>
   <i type="logical" name="LSYMGRAD"> F  </i>
   <i type="logical" name="LHFONE"> F  </i>
   <i type="logical" name="LRHFCALC"> F  </i>
   <i type="logical" name="LTHOMAS"> F  </i>
   <i type="logical" name="LMODELHF"> F  </i>
   <i type="logical" name="LFOCKACE"> F  </i>
   <i name="ENCUT4O">     -1.00000000</i>
   <i type="int" name="EXXOEP">     0</i>
   <i type="int" name="FOURORBIT">     0</i>
   <i name="AEXX">      0.00000000</i>
   <i name="HFALPHA">      0.00000000</i>
   <i name="MCALPHA">      0.00000000</i>
   <i name="ALDAX">      1.00000000</i>
   <i name="AGGAX">      1.00000000</i>
   <i name="AMGGAX">      1.00000000</i>
   <i name="ALDAC">      1.00000000</i>
   <i name="AGGAC">      1.00000000</i>
   <i name="AMGGAC">      1.00000000</i>
   <i type="int" name="NKREDX">     1</i>
   <i type="int" name="NKREDY">     1</i>
   <i type="int" name="NKREDZ">     1</i>
   <i type="logical" name="SHIFTRED"> F  </i>
   <i type="logical" name="ODDONLY"> F  </i>
   <i type="logical" name="EVENONLY"> F  </i>
   <i type="int" name="LMAXFOCK">     0</i>
   <i type="int" name="NMAXFOCKAE">     0</i>
   <i type="logical" name="LFOCKAEDFT"> F  </i>
   <i name="HFSCREEN">      0.00000000</i>
   <i name="HFSCREENC">      0.00000000</i>
   <i type="int" name="NBANDSGWLOW">     0</i>
  </separator>
  <separator name="vdW DFT" >
   <i type="logical" name="LUSE_VDW"> F  </i>
   <i type="int" name="IVDW_NL">    -1</i>
   <i type="logical" name="LSPIN_VDW"> F  </i>
   <i name="ZAB_VDW">     -0.84910000</i>
   <i name="GAMMA_VDW">      1.39626340</i>
   <i name="ALPHA_VDW">      0.00000000</i>
   <i name="PARAM1">      0.12340000</i>
   <i name="PARAM2">      1.00000000</i>
   <i name="BPARAM">      6.30000000</i>
   <i name="CPARAM">      0.00930000</i>
  </separator>
  <separator name="model GW" >
   <i type="int" name="MODEL_GW">     0</i>
   <i name="MODEL_EPS0">     11.92521231</i>
   <i name="MODEL_ALPHA">      1.00000000</i>
  </separator>
  <separator name="linear response parameters" >
   <i type="logical" name="LEPSILON"> F  </i>
   <i type="logical" name="LRPA"> F  </i>
   <i type="logical" name="LNABLA"> F  </i>
   <i type="logical" name="LVEL"> F  </i>
   <i name="CSHIFT">      0.10000000</i>
   <i name="OMEGAMAX">     -1.00000000</i>
   <i name="DEG_THRESHOLD">      0.00200000</i>
   <i name="RTIME">     -0.10000000</i>
   <i name="WPLASMAI">      0.00000000</i>
   <v name="DFIELD">      0.00000000      0.00000000      0.00000000</v>
   <v name="WPLASMA">      0.00000000      0.00000000      0.00000000      0.00000000      0.00000000      0.00000000      0.00000000      0.00000000      0.00000000</v>
  </separator>
  <separator name="orbital magnetization" >
   <i type="logical" name="NUCIND"> F  </i>
   <v name="MAGPOS">      0.00000000      0.00000000      0.00000000</v>
   <i type="logical" name="LNICSALL"> T  </i>
   <i type="logical" name="ORBITALMAG"> F  </i>
   <i type="logical" name="LMAGBLOCH"> F  </i>
   <i type="logical" name="LCHIMAG"> F  </i>
   <i type="logical" name="LGAUGE"> T  </i>
   <i type="int" name="MAGATOM">     0</i>
   <v name="MAGDIPOL">      0.00000000      0.00000000      0.00000000</v>
   <v name="AVECCONST">      0.00000000      0.00000000      0.00000000</v>
  </separator>
  <separator name="response functions" >
   <i type="logical" name="LALL_IN_ONE"> F  </i>
   <i type="int" name="IALL_IN_ONE">    -1</i>
   <i type="int" name="NBANDS_WAVE">    -1</i>
   <i type="logical" name="LFINITE_TEMPERATURE"> F  </i>
   <i type="logical" name="LADDER"> F  </i>
   <i type="logical" name="LRPAFORCE"> F  </i>
   <i type="logical" name="LFXC"> F  </i>
   <i type="logical" name="LHARTREE"> T  </i>
   <i type="int" name="IBSE">     0</i>
   <v type="int" name="KPOINT">    -1     0     0     0</v>
   <i type="logical" name="LTCTC"> F  </i>
   <i type="logical" name="LTCTE"> F  </i>
   <i type="logical" name="LTETE"> F  </i>
   <i type="logical" name="LTRIPLET"> F  </i>
   <i type="logical" name="LFXCEPS"> F  </i>
   <i type="logical" name="LFXHEG"> F  </i>
   <i type="int" name="NATURALO">     2</i>
   <i type="logical" name="LHOLEGF"> F  </i>
   <i type="logical" name="L2ORDER"> F  </i>
   <i type="logical" name="LDMP1"> F  </i>
   <i type="logical" name="LMP2LT"> F  </i>
   <i type="logical" name="LSMP2LT"> F  </i>
   <i type="logical" name="LGWLF"> F  </i>
   <i name="ENCUTGW">     -1.60000002</i>
   <i name="ENCUTGWSOFT">     -1.60000002</i>
   <i name="ENCUTLF">     -1.00000000</i>
   <i type="logical" name="ESF_SPLINES"> F  </i>
   <i name="ESF_CONV">      0.01000000</i>
   <i type="int" name="ESF_NINTER">    15</i>
   <i type="int" name="LMAXMP2">    -1</i>
   <i name="SCISSOR">      0.00000000</i>
   <i type="int" name="NOMEGA">     0</i>
   <i type="int" name="NOMEGAR">     0</i>
   <i type="int" name="NBANDSGW">    -1</i>
   <i type="int" name="NBANDSO">    -1</i>
   <i type="int" name="NBANDSV">    -1</i>
   <i type="int" name="NELMGW">     1</i>
   <i type="int" name="NELMHF">     1</i>
   <i type="int" name="DIM">     3</i>
   <i type="int" name="IESPILON">     4</i>
   <i type="int" name="ANTIRES">     0</i>
   <i name="OMEGAMAX">    -30.00000000</i>
   <i name="OMEGAMIN">    -30.00000000</i>
   <i name="OMEGATL">   -200.00000000</i>
   <i type="int" name="OMEGAGRID">     0</i>
   <i name="CSHIFT">     -0.10000000</i>
   <i type="logical" name="LSELFENERGY"> F  </i>
   <i type="logical" name="LSPECTRAL"> F  </i>
   <i type="logical" name="LSPECTRALGW"> F  </i>
   <i type="logical" name="LSINGLES"> F  </i>
   <i type="logical" name="LFERMIGW"> F  </i>
   <i type="logical" name="ODDONLYGW"> F  </i>
   <i type="logical" name="EVENONLYGW"> F  </i>
   <i type="int" name="NKREDLFX">     1</i>
   <i type="int" name="NKREDLFY">     1</i>
   <i type="int" name="NKREDLFZ">     1</i>
   <i type="int" name="MAXMEM">  2800</i>
   <i type="int" name="TELESCOPE">     0</i>
   <i type="int" name="NTAUPAR">    -1</i>
   <i type="int" name="NOMEGAPAR">    -1</i>
   <i name="DAMP_NEWTON">      0.80000001</i>
   <i name="LAMBDA">      1.00000000</i>
  </separator>
  <separator name="External order field" >
   <i name="OFIELD_KAPPA">      0.00000000</i>
   <v name="OFIELD_K">      0.00000000      0.00000000      0.00000000</v>
   <i name="OFIELD_Q6_NEAR">      0.00000000</i>
   <i name="OFIELD_Q6_FAR">      0.00000000</i>
   <i name="OFIELD_A">      0.00000000</i>
  </separator>
  <separator name="optional k-points parameters" >
   <i type="int" name="KPOINTS_OPT_MODE">     1</i>
   <i type="logical" name="LKPOINTS_OPT"> F  </i>
  </separator>
 </parameters>
 <atominfo>
  <atoms>      64 </atoms>
  <types>       1 </types>
  <array name="atoms" >
   <dimension dim="1">ion</dimension>
   <field type="string">element</field>
   <field type="int">atomtype</field>
   <set>
    <rc><c>Si</c><c>   1</c></rc>
    <rc><c>Si</c><c>   1</c></rc>
    <rc><c>Si</c><c>   1</c></rc>
    <rc><c>Si</c><c>   1</c></rc>
    <rc><c>Si</c><c>   1</c></rc>
    <rc><c>Si</c><c>   1</c></rc>
    <rc><c>Si</c><c>   1</c></rc>
    <rc><c>Si</c><c>   1</c></rc>
    <rc><c>Si</c><c>   1</c></rc>
    <rc><c>Si</c><c>   1</c></rc>
    <rc><c>Si</c><c>   1</c></rc>
    <rc><c>Si</c><c>   1</c></rc>
    <rc><c>Si</c><c>   1</c></rc>
    <rc><c>Si</c><c>   1</c></rc>
    <rc><c>Si</c><c>   1</c></rc>
    <rc><c>Si</c><c>   1</c></rc>
    <rc><c>Si</c><c>   1</c></rc>
    <rc><c>Si</c><c>   1</c></rc>
    <rc><c>Si</c><c>   1</c></rc>
    <rc><c>Si</c><c>   1</c></rc>
    <rc><c>Si</c><c>   1</c></rc>
    <rc><c>Si</c><c>   1</c></rc>
    <rc><c>Si</c><c>   1</c></rc>
    <rc><c>Si</c><c>   1</c></rc>
    <rc><c>Si</c><c>   1</c></rc>
    <rc><c>Si</c><c>   1</c></rc>
    <rc><c>Si</c><c>   1</c></rc>
    <rc><c>Si</c><c>   1</c></rc>
    <rc><c>Si</c><c>   1</c></rc>
    <rc><c>Si</c><c>   1</c></rc>
    <rc><c>Si</c><c>   1</c></rc>
    <rc><c>Si</c><c>   1</c></rc>
    <rc><c>Si</c><c>   1</c></rc>
    <rc><c>Si</c><c>   1</c></rc>
    <rc><c>Si</c><c>   1</c></rc>
    <rc><c>Si</c><c>   1</c></rc>
    <rc><c>Si</c><c>   1</c></rc>
    <rc><c>Si</c><c>   1</c></rc>
    <rc><c>Si</c><c>   1</c></rc>
    <rc><c>Si</c><c>   1</c></rc>
    <rc><c>Si</c><c>   1</c></rc>
    <rc><c>Si</c><c>   1</c></rc>
    <rc><c>Si</c><c>   1</c></rc>
    <rc><c>Si</c><c>   1</c></rc>
    <rc><c>Si</c><c>   1</c></rc>
    <rc><c>Si</c><c>   1</c></rc>
    <rc><c>Si</c><c>   1</c></rc>
    <rc><c>Si</c><c>   1</c></rc>
    <rc><c>Si</c><c>   1</c></rc>
    <rc><c>Si</c><c>   1</c></rc>
    <rc><c>Si</c><c>   1</c></rc>
    <rc><c>Si</c><c>   1</c></rc>
    <rc><c>Si</c><c>   1</c></rc>
    <rc><c>Si</c><c>   1</c></rc>
    <rc><c>Si</c><c>   1</c></rc>
    <rc><c>Si</c><c>   1</c></rc>
    <rc><c>Si</c><c>   1</c></rc>
    <rc><c>Si</c><c>   1</c></rc>
    <rc><c>Si</c><c>   1</c></rc>
    <rc><c>Si</c><c>   1</c></rc>
    <rc><c>Si</c><c>   1</c></rc>
    <rc><c>Si</c><c>   1</c></rc>
    <rc><c>Si</c><c>   1</c></rc>
    <rc><c>Si</c><c>   1</c></rc>
   </set>
  </array>
  <array name="atomtypes" >
   <dimension dim="1">type</dimension>
   <field type="int">atomspertype</field>
   <field type="string">element</field>
   <field>mass</field>
   <field>valence</field>
   <field type="string">pseudopotential</field>
   <set>
    <rc><c>  64</c><c>Si</c><c>     28.08500000</c><c>      4.00000000</c><c>  PAW_PBE Si 05Jan2001                  </c></rc>
   </set>
  </array>
 </atominfo>
 <structure name="initialpos" >
  <crystal>
   <varray name="basis" >
    <v>      10.97941662       0.10764102       0.00000000 </v>
    <v>       0.10764102      10.76413359       0.00000000 </v>
    <v>       0.00000000       0.00000000      10.76413359 </v>
   </varray>
   <i name="volume">   1272.02264620 </i>
   <varray name="rec_basis" >
    <v>       0.09108845      -0.00091088       0.00000000 </v>
    <v>      -0.00091088       0.09291022       0.00000000 </v>
    <v>       0.00000000       0.00000000       0.09290111 </v>
   </varray>
  </crystal>
  <varray name="positions" >
   <v>       0.00000000       0.00000000       0.00000000 </v>
   <v>       0.00000000       0.00000000       0.50000000 </v>
   <v>       0.00000000       0.50000000       0.00000000 </v>
   <v>       0.00000000       0.50000000       0.50000000 </v>
   <v>       0.50000000       0.00000000       0.00000000 </v>
   <v>       0.50000000       0.00000000       0.50000000 </v>
   <v>       0.50000000       0.50000000       0.00000000 </v>
   <v>       0.50000000       0.50000000       0.50000000 </v>
   <v>       0.37500000       0.37500000       0.12500000 </v>
   <v>       0.37500000       0.37500000       0.62500000 </v>
   <v>       0.37500000       0.87500000       0.12500000 </v>
   <v>       0.37500000       0.87500000       0.62500000 </v>
   <v>       0.87500000       0.37500000       0.12500000 </v>
   <v>       0.87500000       0.37500000       0.62500000 </v>
   <v>       0.87500000       0.87500000       0.12500000 </v>
   <v>       0.87500000       0.87500000       0.62500000 </v>
   <v>       0.00000000       0.25000000       0.25000000 </v>
   <v>       0.00000000       0.25000000       0.75000000 </v>
   <v>       0.00000000       0.75000000       0.25000000 </v>
   <v>       0.00000000       0.75000000       0.75000000 </v>
   <v>       0.50000000       0.25000000       0.25000000 </v>
   <v>       0.50000000       0.25000000       0.75000000 </v>
   <v>       0.50000000       0.75000000       0.25000000 </v>
   <v>       0.50000000       0.75000000       0.75000000 </v>
   <v>       0.37500000       0.12500000       0.37500000 </v>
   <v>       0.37500000       0.12500000       0.87500000 </v>
   <v>       0.37500000       0.62500000       0.37500000 </v>
   <v>       0.37500000       0.62500000       0.87500000 </v>
   <v>       0.87500000       0.12500000       0.37500000 </v>
   <v>       0.87500000       0.12500000       0.87500000 </v>
   <v>       0.87500000       0.62500000       0.37500000 </v>
   <v>       0.87500000       0.62500000       0.87500000 </v>
   <v>       0.25000000       0.00000000       0.25000000 </v>
   <v>       0.25000000       0.00000000       0.75000000 </v>
   <v>       0.25000000       0.50000000       0.25000000 </v>
   <v>       0.25000000       0.50000000       0.75000000 </v>
   <v>       0.75000000       0.00000000       0.25000000 </v>
   <v>       0.75000000       0.00000000       0.75000000 </v>
   <v>       0.75000000       0.50000000       0.25000000 </v>
   <v>       0.75000000       0.50000000       0.75000000 </v>
   <v>       0.12500000       0.37500000       0.37500000 </v>
   <v>       0.12500000       0.37500000       0.87500000 </v>
   <v>       0.12500000       0.87500000       0.37500000 </v>
   <v>       0.12500000       0.87500000       0.87500000 </v>
   <v>       0.62500000       0.37500000       0.37500000 </v>
   <v>       0.62500000       0.37500000       0.87500000 </v>
   <v>       0.62500000       0.87500000       0.37500000 </v>
   <v>       0.62500000       0.87500000       0.87500000 </v>
   <v>       0.25000000       0.25000000       0.00000000 </v>
   <v>       0.25000000       0.25000000       0.50000000 </v>
   <v>       0.25000000       0.75000000       0.00000000 </v>
   <v>       0.25000000       0.75000000       0.50000000 </v>
   <v>       0.75000000       0.25000000       0.00000000 </v>
   <v>       0.75000000       0.25000000       0.50000000 </v>
   <v>       0.75000000       0.75000000       0.00000000 </v>
   <v>       0.75000000       0.75000000       0.50000000 </v>
   <v>       0.12500000       0.12500000       0.12500000 </v>
   <v>       0.12500000       0.12500000       0.62500000 </v>
   <v>       0.12500000       0.62500000       0.12500000 </v>
   <v>       0.12500000       0.62500000       0.62500000 </v>
   <v>       0.62500000       0.12500000       0.12500000 </v>
   <v>       0.62500000       0.12500000       0.62500000 </v>
   <v>       0.62500000       0.62500000       0.12500000 </v>
   <v>       0.62500000       0.62500000       0.62500000 </v>
  </varray>
 </structure>
 <calculation>
  <scstep>
   <time name="dav">    1.27    1.34</time>
   <time name="total">    1.46    1.55</time>
   <energy>
    <i name="alphaZ">    108.39758566 </i>
    <i name="ewald">  -7330.76444071 </i>
    <i name="hartreedc">   -348.78465975 </i>
    <i name="XCdc">   -557.75577106 </i>
    <i name="pawpsdc">   5598.62625415 </i>
    <i name="pawaedc">  -4492.17844134 </i>
    <i name="eentropy">      0.01331977 </i>
    <i name="bandstr">   1016.63641864 </i>
    <i name="atom">   6564.79586099 </i>
    <i name="e_fr_energy">    558.98612636 </i>
    <i name="e_wo_entrp">    558.97280659 </i>
    <i name="e_0_energy">    558.98168643 </i>
   </energy>
  </scstep>
  <scstep>
   <time name="dav">    1.34    1.36</time>
   <time name="total">    1.34    1.36</time>
   <energy>
    <i name="e_fr_energy">   -311.27672965 </i>
    <i name="e_wo_entrp">   -311.29025125 </i>
    <i name="e_0_energy">   -311.28123685 </i>
   </energy>
  </scstep>
  <scstep>
   <time name="dav">    1.36    1.38</time>
   <time name="total">    1.36    1.39</time>
   <energy>
    <i name="e_fr_energy">   -373.09205774 </i>
    <i name="e_wo_entrp">   -373.09884135 </i>
    <i name="e_0_energy">   -373.09431895 </i>
   </energy>
  </scstep>
  <scstep>
   <time name="dav">    1.34    1.36</time>
   <time name="total">    1.34    1.36</time>
   <energy>
    <i name="e_fr_energy">   -374.65598639 </i>
    <i name="e_wo_entrp">   -374.66349883 </i>
    <i name="e_0_energy">   -374.65849054 </i>
   </energy>
  </scstep>
  <scstep>
   <time name="dav">    1.37    1.39</time>
   <time name="total">    1.64    1.67</time>
   <energy>
    <i name="e_fr_energy">   -374.70130213 </i>
    <i name="e_wo_entrp">   -374.70881527 </i>
    <i name="e_0_energy">   -374.70380651 </i>
   </energy>
  </scstep>
  <scstep>
   <time name="diag">    0.14    0.14</time>
   <time name="diis">    0.71    0.72</time>
   <time name="orth">    0.02    0.02</time>
   <time name="total">    1.27    1.30</time>
   <energy>
    <i name="e_fr_energy">   -369.58988031 </i>
    <i name="e_wo_entrp">   -369.60129081 </i>
    <i name="e_0_energy">   -369.59368381 </i>
   </energy>
  </scstep>
  <scstep>
   <time name="diag">    0.14    0.14</time>
   <time name="diis">    0.70    0.70</time>
   <time name="orth">    0.02    0.02</time>
   <time name="total">    1.27    1.29</time>
   <energy>
    <i name="e_fr_energy">   -367.26323644 </i>
    <i name="e_wo_entrp">   -367.28802090 </i>
    <i name="e_0_energy">   -367.27149793 </i>
   </energy>
  </scstep>
  <scstep>
   <time name="diag">    0.14    0.14</time>
   <time name="diis">    0.70    0.70</time>
   <time name="orth">    0.02    0.02</time>
   <time name="total">    1.26    1.31</time>
   <energy>
    <i name="e_fr_energy">   -367.30829733 </i>
    <i name="e_wo_entrp">   -367.33452033 </i>
    <i name="e_0_energy">   -367.31703833 </i>
   </energy>
  </scstep>
  <scstep>
   <time name="diag">    0.13    0.13</time>
   <time name="diis">    0.71    0.71</time>
   <time name="orth">    0.02    0.02</time>
   <time name="total">    1.27    1.29</time>
   <energy>
    <i name="e_fr_energy">   -367.32806694 </i>
    <i name="e_wo_entrp">   -367.35413186 </i>
    <i name="e_0_energy">   -367.33675525 </i>
   </energy>
  </scstep>
  <scstep>
   <time name="diag">    0.13    0.13</time>
   <time name="diis">    0.73    0.73</time>
   <time name="orth">    0.02    0.02</time>
   <time name="total">    1.29    1.30</time>
   <energy>
    <i name="e_fr_energy">   -367.33170837 </i>
    <i name="e_wo_entrp">   -367.35774655 </i>
    <i name="e_0_energy">   -367.34038776 </i>
   </energy>
  </scstep>
  <scstep>
   <time name="diag">    0.13    0.13</time>
   <time name="diis">    0.70    0.70</time>
   <time name="orth">    0.02    0.02</time>
   <time name="total">    1.25    1.27</time>
   <energy>
    <i name="e_fr_energy">   -367.32905979 </i>
    <i name="e_wo_entrp">   -367.35533278 </i>
    <i name="e_0_energy">   -367.33781745 </i>
   </energy>
  </scstep>
  <scstep>
   <time name="diag">    0.13    0.13</time>
   <time name="diis">    0.69    0.69</time>
   <time name="orth">    0.02    0.02</time>
   <time name="total">    1.25    1.27</time>
   <energy>
    <i name="e_fr_energy">   -367.32922083 </i>
    <i name="e_wo_entrp">   -367.35549699 </i>
    <i name="e_0_energy">   -367.33797955 </i>
   </energy>
  </scstep>
  <scstep>
   <time name="diag">    0.13    0.13</time>
   <time name="diis">    0.75    0.75</time>
   <time name="orth">    0.02    0.02</time>
   <time name="total">    1.30    1.32</time>
   <energy>
    <i name="e_fr_energy">   -367.32927446 </i>
    <i name="e_wo_entrp">   -367.35555231 </i>
    <i name="e_0_energy">   -367.33803374 </i>
   </energy>
  </scstep>
  <scstep>
   <time name="diag">    0.13    0.14</time>
   <time name="diis">    0.67    0.69</time>
   <time name="orth">    0.02    0.02</time>
   <time name="total">    1.22    1.27</time>
   <energy>
    <i name="e_fr_energy">   -367.32931375 </i>
    <i name="e_wo_entrp">   -367.35558971 </i>
    <i name="e_0_energy">   -367.33807241 </i>
   </energy>
  </scstep>
  <scstep>
   <time name="diag">    0.13    0.13</time>
   <time name="diis">    0.71    0.71</time>
   <time name="orth">    0.02    0.02</time>
   <time name="total">    1.26    1.29</time>
   <energy>
    <i name="e_fr_energy">   -367.32935671 </i>
    <i name="e_wo_entrp">   -367.35563746 </i>
    <i name="e_0_energy">   -367.33811696 </i>
   </energy>
  </scstep>
  <scstep>
   <time name="diag">    0.14    0.14</time>
   <time name="diis">    0.69    0.69</time>
   <time name="orth">    0.02    0.02</time>
   <time name="total">    1.26    1.28</time>
   <energy>
    <i name="e_fr_energy">   -367.32938248 </i>
    <i name="e_wo_entrp">   -367.35566708 </i>
    <i name="e_0_energy">   -367.33814401 </i>
   </energy>
  </scstep>
  <scstep>
   <time name="diag">    0.15    0.15</time>
   <time name="diis">    0.73    0.79</time>
   <time name="orth">    0.02    0.02</time>
   <time name="total">    1.30    1.39</time>
   <energy>
    <i name="e_fr_energy">   -367.32938849 </i>
    <i name="e_wo_entrp">   -367.35567483 </i>
    <i name="e_0_energy">   -367.33815060 </i>
   </energy>
  </scstep>
  <scstep>
   <time name="diag">    0.14    0.14</time>
   <time name="diis">    0.49    0.49</time>
   <time name="orth">    0.02    0.02</time>
   <time name="total">    0.80    0.82</time>
   <energy>
    <i name="alphaZ">    108.39758566 </i>
    <i name="ewald">  -7330.76444071 </i>
    <i name="hartreedc">   -465.45164883 </i>
    <i name="XCdc">   -538.09857388 </i>
    <i name="pawpsdc">  28207.90837687 </i>
    <i name="pawaedc"> -27108.52458779 </i>
    <i name="eentropy">      0.02628613 </i>
    <i name="bandstr">    194.38175245 </i>
    <i name="atom">   6564.79586099 </i>
    <i name="e_fr_energy">   -367.32938910 </i>
    <i name="e_wo_entrp">   -367.35567524 </i>
    <i name="e_0_energy">   -367.33815115 </i>
   </energy>
  </scstep>
  <structure>
   <crystal>
    <varray name="basis" >
     <v>      10.97941662       0.10764102       0.00000000 </v>
     <v>       0.10764102      10.76413359       0.00000000 </v>
     <v>       0.00000000       0.00000000      10.76413359 </v>
    </varray>
    <i name="volume">   1272.02264620 </i>
    <varray name="rec_basis" >
     <v>       0.09108845      -0.00091088       0.00000000 </v>
     <v>      -0.00091088       0.09291022       0.00000000 </v>
     <v>       0.00000000       0.00000000       0.09290111 </v>
    </varray>
   </crystal>
   <varray name="positions" >
    <v>       0.00000000       0.00000000       0.00000000 </v>
    <v>       0.00000000       0.00000000       0.50000000 </v>
    <v>       0.00000000       0.50000000       0.00000000 </v>
    <v>       0.00000000       0.50000000       0.50000000 </v>
    <v>       0.50000000       0.00000000       0.00000000 </v>
    <v>       0.50000000       0.00000000       0.50000000 </v>
    <v>       0.50000000       0.50000000       0.00000000 </v>
    <v>       0.50000000       0.50000000       0.50000000 </v>
    <v>       0.37500000       0.37500000       0.12500000 </v>
    <v>       0.37500000       0.37500000       0.62500000 </v>
    <v>       0.37500000       0.87500000       0.12500000 </v>
    <v>       0.37500000       0.87500000       0.62500000 </v>
    <v>       0.87500000       0.37500000       0.12500000 </v>
    <v>       0.87500000       0.37500000       0.62500000 </v>
    <v>       0.87500000       0.87500000       0.12500000 </v>
    <v>       0.87500000       0.87500000       0.62500000 </v>
    <v>       0.00000000       0.25000000       0.25000000 </v>
    <v>       0.00000000       0.25000000       0.75000000 </v>
    <v>       0.00000000       0.75000000       0.25000000 </v>
    <v>       0.00000000       0.75000000       0.75000000 </v>
    <v>       0.50000000       0.25000000       0.25000000 </v>
    <v>       0.50000000       0.25000000       0.75000000 </v>
    <v>       0.50000000       0.75000000       0.25000000 </v>
    <v>       0.50000000       0.75000000       0.75000000 </v>
    <v>       0.37500000       0.12500000       0.37500000 </v>
    <v>       0.37500000       0.12500000       0.87500000 </v>
    <v>       0.37500000       0.62500000       0.37500000 </v>
    <v>       0.37500000       0.62500000       0.87500000 </v>
    <v>       0.87500000       0.12500000       0.37500000 </v>
    <v>       0.87500000       0.12500000       0.87500000 </v>
    <v>       0.87500000       0.62500000       0.37500000 </v>
    <v>       0.87500000       0.62500000       0.87500000 </v>
    <v>       0.25000000       0.00000000       0.25000000 </v>
    <v>       0.25000000       0.00000000       0.75000000 </v>
    <v>       0.25000000       0.50000000       0.25000000 </v>
    <v>       0.25000000       0.50000000       0.75000000 </v>
    <v>       0.75000000       0.00000000       0.25000000 </v>
    <v>       0.75000000       0.00000000       0.75000000 </v>
    <v>       0.75000000       0.50000000       0.25000000 </v>
    <v>       0.75000000       0.50000000       0.75000000 </v>
    <v>       0.12500000       0.37500000       0.37500000 </v>
    <v>       0.12500000       0.37500000       0.87500000 </v>
    <v>       0.12500000       0.87500000       0.37500000 </v>
    <v>       0.12500000       0.87500000       0.87500000 </v>
    <v>       0.62500000       0.37500000       0.37500000 </v>
    <v>       0.62500000       0.37500000       0.87500000 </v>
    <v>       0.62500000       0.87500000       0.37500000 </v>
    <v>       0.62500000       0.87500000       0.87500000 </v>
    <v>       0.25000000       0.25000000       0.00000000 </v>
    <v>       0.25000000       0.25000000       0.50000000 </v>
    <v>       0.25000000       0.75000000       0.00000000 </v>
    <v>       0.25000000       0.75000000       0.50000000 </v>
    <v>       0.75000000       0.25000000       0.00000000 </v>
    <v>       0.75000000       0.25000000       0.50000000 </v>
    <v>       0.75000000       0.75000000       0.00000000 </v>
    <v>       0.75000000       0.75000000       0.50000000 </v>
    <v>       0.12500000       0.12500000       0.12500000 </v>
    <v>       0.12500000       0.12500000       0.62500000 </v>
    <v>       0.12500000       0.62500000       0.12500000 </v>
    <v>       0.12500000       0.62500000       0.62500000 </v>
    <v>       0.62500000       0.12500000       0.12500000 </v>
    <v>       0.62500000       0.12500000       0.62500000 </v>
    <v>       0.62500000       0.62500000       0.12500000 </v>
    <v>       0.62500000       0.62500000       0.62500000 </v>
   </varray>
  </structure>
  <varray name="forces" >
   <v>      -0.00000000      -0.00000000       0.20492484 </v>
   <v>      -0.00000000       0.00000000       0.20492484 </v>
   <v>      -0.00000000      -0.00000000       0.20492484 </v>
   <v>      -0.00000000       0.00000000       0.20492484 </v>
   <v>      -0.00000000       0.00000000       0.20492484 </v>
   <v>       0.00000000       0.00000000       0.20492484 </v>
   <v>       0.00000000       0.00000000       0.20492484 </v>
   <v>       0.00000000       0.00000000       0.20492484 </v>
   <v>      -0.00000000       0.00000000      -0.20492484 </v>
   <v>      -0.00000000      -0.00000000      -0.20492484 </v>
   <v>      -0.00000000      -0.00000000      -0.20492484 </v>
   <v>      -0.00000000       0.00000000      -0.20492484 </v>
   <v>       0.00000000       0.00000000      -0.20492484 </v>
   <v>       0.00000000       0.00000000      -0.20492484 </v>
   <v>       0.00000000      -0.00000000      -0.20492484 </v>
   <v>       0.00000000       0.00000000      -0.20492484 </v>
   <v>      -0.00000000      -0.00000000       0.20492484 </v>
   <v>      -0.00000000       0.00000000       0.20492484 </v>
   <v>      -0.00000000      -0.00000000       0.20492484 </v>
   <v>      -0.00000000      -0.00000000       0.20492484 </v>
   <v>       0.00000000       0.00000000       0.20492484 </v>
   <v>       0.00000000       0.00000000       0.20492484 </v>
   <v>      -0.00000000       0.00000000       0.20492484 </v>
   <v>      -0.00000000      -0.00000000       0.20492484 </v>
   <v>      -0.00000000      -0.00000000      -0.20492484 </v>
   <v>      -0.00000000      -0.00000000      -0.20492484 </v>
   <v>      -0.00000000      -0.00000000      -0.20492484 </v>
   <v>      -0.00000000      -0.00000000      -0.20492484 </v>
   <v>       0.00000000      -0.00000000      -0.20492484 </v>
   <v>       0.00000000       0.00000000      -0.20492484 </v>
   <v>       0.00000000       0.00000000      -0.20492484 </v>
   <v>       0.00000000       0.00000000      -0.20492484 </v>
   <v>      -0.00000000      -0.00000000       0.20492484 </v>
   <v>       0.00000000      -0.00000000       0.20492484 </v>
   <v>      -0.00000000      -0.00000000       0.20492484 </v>
   <v>       0.00000000       0.00000000       0.20492484 </v>
   <v>       0.00000000       0.00000000       0.20492484 </v>
   <v>       0.00000000      -0.00000000       0.20492484 </v>
   <v>       0.00000000       0.00000000       0.20492484 </v>
   <v>       0.00000000       0.00000000       0.20492484 </v>
   <v>       0.00000000       0.00000000      -0.20492484 </v>
   <v>       0.00000000       0.00000000      -0.20492484 </v>
   <v>       0.00000000       0.00000000      -0.20492484 </v>
   <v>       0.00000000       0.00000000      -0.20492484 </v>
   <v>      -0.00000000      -0.00000000      -0.20492484 </v>
   <v>      -0.00000000      -0.00000000      -0.20492484 </v>
   <v>      -0.00000000      -0.00000000      -0.20492484 </v>
   <v>      -0.00000000      -0.00000000      -0.20492484 </v>
   <v>       0.00000000      -0.00000000       0.20492484 </v>
   <v>       0.00000000      -0.00000000       0.20492484 </v>
   <v>      -0.00000000      -0.00000000       0.20492484 </v>
   <v>      -0.00000000       0.00000000       0.20492484 </v>
   <v>       0.00000000       0.00000000       0.20492484 </v>
   <v>       0.00000000      -0.00000000       0.20492484 </v>
   <v>       0.00000000       0.00000000       0.20492484 </v>
   <v>       0.00000000       0.00000000       0.20492484 </v>
   <v>       0.00000000       0.00000000      -0.20492484 </v>
   <v>       0.00000000       0.00000000      -0.20492484 </v>
   <v>       0.00000000       0.00000000      -0.20492484 </v>
   <v>       0.00000000       0.00000000      -0.20492484 </v>
   <v>      -0.00000000      -0.00000000      -0.20492484 </v>
   <v>      -0.00000000      -0.00000000      -0.20492484 </v>
   <v>      -0.00000000      -0.00000000      -0.20492484 </v>
   <v>      -0.00000000       0.00000000      -0.20492484 </v>
  </varray>
  <varray name="stress" >
   <v>      -2.81153546     -20.72598244       0.00000000 </v>
   <v>     -20.72598247      16.62618781       0.00000000 </v>
   <v>       0.00000000       0.00000000      16.24616985 </v>
  </varray>
  <energy>
   <i name="e_fr_energy">   -367.32938910 </i>
   <i name="e_wo_entrp">   -367.35567524 </i>
   <i name="e_0_energy">   -367.33815115 </i>
  </energy>
  <time name="totalsc">   26.83   27.46</time>
 </calculation>
 <calculation>
  <scstep>
   <time name="dav">    1.27    1.30</time>
   <time name="total">    1.66    1.70</time>
   <energy>
    <i name="alphaZ">    108.39758566 </i>
    <i name="ewald">  -7331.60534156 </i>
    <i name="hartreedc">   -465.02558341 </i>
    <i name="XCdc">   -538.11454564 </i>
    <i name="pawpsdc">  28208.87745852 </i>
    <i name="pawaedc"> -27109.49348590 </i>
    <i name="eentropy">      0.01905270 </i>
    <i name="bandstr">    194.78429468 </i>
    <i name="atom">   6564.79586099 </i>
    <i name="e_fr_energy">   -367.36470398 </i>
    <i name="e_wo_entrp">   -367.38375668 </i>
    <i name="e_0_energy">   -367.37105488 </i>
   </energy>
  </scstep>
  <scstep>
   <time name="diag">    0.13    0.13</time>
   <time name="diis">    0.70    0.70</time>
   <time name="orth">    0.02    0.02</time>
   <time name="total">    1.26    1.28</time>
   <energy>
    <i name="e_fr_energy">   -367.37304449 </i>
    <i name="e_wo_entrp">   -367.39199629 </i>
    <i name="e_0_energy">   -367.37936176 </i>
   </energy>
  </scstep>
  <scstep>
   <time name="diag">    0.13    0.13</time>
   <time name="diis">    0.71    0.72</time>
   <time name="orth">    0.02    0.02</time>
   <time name="total">    1.27    1.29</time>
   <energy>
    <i name="e_fr_energy">   -367.37438636 </i>
    <i name="e_wo_entrp">   -367.39357722 </i>
    <i name="e_0_energy">   -367.38078331 </i>
   </energy>
  </scstep>
  <scstep>
   <time name="diag">    0.13    0.13</time>
   <time name="diis">    0.72    0.72</time>
   <time name="orth">    0.02    0.02</time>
   <time name="total">    1.28    1.30</time>
   <energy>
    <i name="e_fr_energy">   -367.37440759 </i>
    <i name="e_wo_entrp">   -367.39383817 </i>
    <i name="e_0_energy">   -367.38088445 </i>
   </energy>
  </scstep>
  <scstep>
   <time name="diag">    0.13    0.13</time>
   <time name="diis">    0.70    0.70</time>
   <time name="orth">    0.02    0.02</time>
   <time name="total">    1.26    1.28</time>
   <energy>
    <i name="e_fr_energy">   -367.37442121 </i>
    <i name="e_wo_entrp">   -367.39394789 </i>
    <i name="e_0_energy">   -367.38093010 </i>
   </energy>
  </scstep>
  <scstep>
   <time name="diag">    0.13    0.13</time>
   <time name="diis">    0.76    0.76</time>
   <time name="orth">    0.02    0.02</time>
   <time name="total">    1.32    1.34</time>
   <energy>
    <i name="e_fr_energy">   -367.37442953 </i>
    <i name="e_wo_entrp">   -367.39395385 </i>
    <i name="e_0_energy">   -367.38093764 </i>
   </energy>
  </scstep>
  <scstep>
   <time name="diag">    0.13    0.13</time>
   <time name="diis">    0.61    0.61</time>
   <time name="orth">    0.02    0.02</time>
   <time name="total">    1.19    1.21</time>
   <energy>
    <i name="e_fr_energy">   -367.37443050 </i>
    <i name="e_wo_entrp">   -367.39395392 </i>
    <i name="e_0_energy">   -367.38093830 </i>
   </energy>
  </scstep>
  <scstep>
   <time name="diag">    0.14    0.14</time>
   <time name="diis">    0.49    0.49</time>
   <time name="orth">    0.02    0.02</time>
   <time name="total">    0.80    0.82</time>
   <energy>
    <i name="alphaZ">    108.39758566 </i>
    <i name="ewald">  -7331.60534156 </i>
    <i name="hartreedc">   -464.90688286 </i>
    <i name="XCdc">   -538.13689431 </i>
    <i name="pawpsdc">  28181.70586458 </i>
    <i name="pawaedc"> -27082.30514997 </i>
    <i name="eentropy">      0.01952364 </i>
    <i name="bandstr">    194.66100318 </i>
    <i name="atom">   6564.79586099 </i>
    <i name="e_fr_energy">   -367.37443066 </i>
    <i name="e_wo_entrp">   -367.39395429 </i>
    <i name="e_0_energy">   -367.38093854 </i>
   </energy>
  </scstep>
  <structure>
   <crystal>
    <varray name="basis" >
     <v>      10.97941662       0.10764102       0.00000000 </v>
     <v>       0.10764102      10.76413359       0.00000000 </v>
     <v>       0.00000000       0.00000000      10.76413359 </v>
    </varray>
    <i name="volume">   1272.02264620 </i>
    <varray name="rec_basis" >
     <v>       0.09108845      -0.00091088       0.00000000 </v>
     <v>      -0.00091088       0.09291022       0.00000000 </v>
     <v>       0.00000000       0.00000000       0.09290111 </v>
    </varray>
   </crystal>
   <varray name="positions" >
    <v>       1.00000000       1.00000000       0.00091843 </v>
    <v>       1.00000000       0.00000000       0.50091843 </v>
    <v>       1.00000000       0.50000000       0.00091843 </v>
    <v>       1.00000000       0.50000000       0.50091843 </v>
    <v>       0.50000000       0.00000000       0.00091843 </v>
    <v>       0.50000000       0.00000000       0.50091843 </v>
    <v>       0.50000000       0.50000000       0.00091843 </v>
    <v>       0.50000000       0.50000000       0.50091843 </v>
    <v>       0.37500000       0.37500000       0.12408157 </v>
    <v>       0.37500000       0.37500000       0.62408157 </v>
    <v>       0.37500000       0.87500000       0.12408157 </v>
    <v>       0.37500000       0.87500000       0.62408157 </v>
    <v>       0.87500000       0.37500000       0.12408157 </v>
    <v>       0.87500000       0.37500000       0.62408157 </v>
    <v>       0.87500000       0.87500000       0.12408157 </v>
    <v>       0.87500000       0.87500000       0.62408157 </v>
    <v>       1.00000000       0.25000000       0.25091843 </v>
    <v>       1.00000000       0.25000000       0.75091843 </v>
    <v>       1.00000000       0.75000000       0.25091843 </v>
    <v>       1.00000000       0.75000000       0.75091843 </v>
    <v>       0.50000000       0.25000000       0.25091843 </v>
    <v>       0.50000000       0.25000000       0.75091843 </v>
    <v>       0.50000000       0.75000000       0.25091843 </v>
    <v>       0.50000000       0.75000000       0.75091843 </v>
    <v>       0.37500000       0.12500000       0.37408157 </v>
    <v>       0.37500000       0.12500000       0.87408157 </v>
    <v>       0.37500000       0.62500000       0.37408157 </v>
    <v>       0.37500000       0.62500000       0.87408157 </v>
    <v>       0.87500000       0.12500000       0.37408157 </v>
    <v>       0.87500000       0.12500000       0.87408157 </v>
    <v>       0.87500000       0.62500000       0.37408157 </v>
    <v>       0.87500000       0.62500000       0.87408157 </v>
    <v>       0.25000000       1.00000000       0.25091843 </v>
    <v>       0.25000000       1.00000000       0.75091843 </v>
    <v>       0.25000000       0.50000000       0.25091843 </v>
    <v>       0.25000000       0.50000000       0.75091843 </v>
    <v>       0.75000000       0.00000000       0.25091843 </v>
    <v>       0.75000000       1.00000000       0.75091843 </v>
    <v>       0.75000000       0.50000000       0.25091843 </v>
    <v>       0.75000000       0.50000000       0.75091843 </v>
    <v>       0.12500000       0.37500000       0.37408157 </v>
    <v>       0.12500000       0.37500000       0.87408157 </v>
    <v>       0.12500000       0.87500000       0.37408157 </v>
    <v>       0.12500000       0.87500000       0.87408157 </v>
    <v>       0.62500000       0.37500000       0.37408157 </v>
    <v>       0.62500000       0.37500000       0.87408157 </v>
    <v>       0.62500000       0.87500000       0.37408157 </v>
    <v>       0.62500000       0.87500000       0.87408157 </v>
    <v>       0.25000000       0.25000000       0.00091843 </v>
    <v>       0.25000000       0.25000000       0.50091843 </v>
    <v>       0.25000000       0.75000000       0.00091843 </v>
    <v>       0.25000000       0.75000000       0.50091843 </v>
    <v>       0.75000000       0.25000000       0.00091843 </v>
    <v>       0.75000000       0.25000000       0.50091843 </v>
    <v>       0.75000000       0.75000000       0.00091843 </v>
    <v>       0.75000000       0.75000000       0.50091843 </v>
    <v>       0.12500000       0.12500000       0.12408157 </v>
    <v>       0.12500000       0.12500000       0.62408157 </v>
    <v>       0.12500000       0.62500000       0.12408157 </v>
    <v>       0.12500000       0.62500000       0.62408157 </v>
    <v>       0.62500000       0.12500000       0.12408157 </v>
    <v>       0.62500000       0.12500000       0.62408157 </v>
    <v>       0.62500000       0.62500000       0.12408157 </v>
    <v>       0.62500000       0.62500000       0.62408157 </v>
   </varray>
  </structure>
  <varray name="forces" >
   <v>      -0.00000000       0.00000000      -0.06114179 </v>
   <v>       0.00000000       0.00000000      -0.06114179 </v>
   <v>      -0.00000000      -0.00000000      -0.06114179 </v>
   <v>      -0.00000000      -0.00000000      -0.06114179 </v>
   <v>       0.00000000       0.00000000      -0.06114179 </v>
   <v>      -0.00000000      -0.00000000      -0.06114179 </v>
   <v>       0.00000000       0.00000000      -0.06114179 </v>
   <v>       0.00000000       0.00000000      -0.06114179 </v>
   <v>       0.00000000       0.00000000       0.06114179 </v>
   <v>      -0.00000000       0.00000000       0.06114179 </v>
   <v>      -0.00000000      -0.00000000       0.06114179 </v>
   <v>      -0.00000000      -0.00000000       0.06114179 </v>
   <v>      -0.00000000       0.00000000       0.06114179 </v>
   <v>       0.00000000      -0.00000000       0.06114179 </v>
   <v>      -0.00000000       0.00000000       0.06114179 </v>
   <v>       0.00000000      -0.00000000       0.06114179 </v>
   <v>      -0.00000000       0.00000000      -0.06114179 </v>
   <v>      -0.00000000       0.00000000      -0.06114179 </v>
   <v>      -0.00000000       0.00000000      -0.06114179 </v>
   <v>       0.00000000      -0.00000000      -0.06114179 </v>
   <v>       0.00000000       0.00000000      -0.06114179 </v>
   <v>       0.00000000       0.00000000      -0.06114179 </v>
   <v>       0.00000000      -0.00000000      -0.06114179 </v>
   <v>       0.00000000      -0.00000000      -0.06114179 </v>
   <v>      -0.00000000       0.00000000       0.06114179 </v>
   <v>      -0.00000000       0.00000000       0.06114179 </v>
   <v>       0.00000000      -0.00000000       0.06114179 </v>
   <v>       0.00000000      -0.00000000       0.06114179 </v>
   <v>      -0.00000000       0.00000000       0.06114179 </v>
   <v>      -0.00000000       0.00000000       0.06114179 </v>
   <v>      -0.00000000      -0.00000000       0.06114179 </v>
   <v>      -0.00000000      -0.00000000       0.06114179 </v>
   <v>      -0.00000000      -0.00000000      -0.06114179 </v>
   <v>      -0.00000000      -0.00000000      -0.06114179 </v>
   <v>      -0.00000000       0.00000000      -0.06114179 </v>
   <v>       0.00000000       0.00000000      -0.06114179 </v>
   <v>      -0.00000000      -0.00000000      -0.06114179 </v>
   <v>       0.00000000      -0.00000000      -0.06114179 </v>
   <v>      -0.00000000      -0.00000000      -0.06114179 </v>
   <v>       0.00000000      -0.00000000      -0.06114179 </v>
   <v>       0.00000000       0.00000000       0.06114179 </v>
   <v>       0.00000000       0.00000000       0.06114179 </v>
   <v>      -0.00000000       0.00000000       0.06114179 </v>
   <v>      -0.00000000       0.00000000       0.06114179 </v>
   <v>      -0.00000000      -0.00000000       0.06114179 </v>
   <v>       0.00000000      -0.00000000       0.06114179 </v>
   <v>      -0.00000000       0.00000000       0.06114179 </v>
   <v>      -0.00000000       0.00000000       0.06114179 </v>
   <v>       0.00000000       0.00000000      -0.06114179 </v>
   <v>       0.00000000       0.00000000      -0.06114179 </v>
   <v>      -0.00000000       0.00000000      -0.06114179 </v>
   <v>      -0.00000000       0.00000000      -0.06114179 </v>
   <v>      -0.00000000      -0.00000000      -0.06114179 </v>
   <v>      -0.00000000      -0.00000000      -0.06114179 </v>
   <v>       0.00000000      -0.00000000      -0.06114179 </v>
   <v>      -0.00000000       0.00000000      -0.06114179 </v>
   <v>       0.00000000       0.00000000       0.06114179 </v>
   <v>       0.00000000       0.00000000       0.06114179 </v>
   <v>       0.00000000       0.00000000       0.06114179 </v>
   <v>       0.00000000       0.00000000       0.06114179 </v>
   <v>      -0.00000000       0.00000000       0.06114179 </v>
   <v>       0.00000000      -0.00000000       0.06114179 </v>
   <v>      -0.00000000       0.00000000       0.06114179 </v>
   <v>       0.00000000      -0.00000000       0.06114179 </v>
  </varray>
  <varray name="stress" >
   <v>      -3.25757373     -12.36449236       0.00000000 </v>
   <v>     -12.36449239      16.19250259       0.00000000 </v>
   <v>       0.00000000       0.00000000      15.38422611 </v>
  </varray>
  <energy>
   <i name="e_fr_energy">   -367.37443066 </i>
   <i name="e_wo_entrp">   -367.39395429 </i>
   <i name="e_0_energy">   -367.38093854 </i>
  </energy>
  <time name="totalsc">   13.63   13.83</time>
 </calculation>
 <calculation>
  <scstep>
   <time name="dav">    1.29    1.30</time>
   <time name="total">    1.69    1.70</time>
   <energy>
    <i name="alphaZ">    108.39758566 </i>
    <i name="ewald">  -7331.43610141 </i>
    <i name="hartreedc">   -465.00591532 </i>
    <i name="XCdc">   -538.13242456 </i>
    <i name="pawpsdc">  28181.25085161 </i>
    <i name="pawaedc"> -27081.85009599 </i>
    <i name="eentropy">      0.02188456 </i>
    <i name="bandstr">    194.57993771 </i>
    <i name="atom">   6564.79586099 </i>
    <i name="e_fr_energy">   -367.37841676 </i>
    <i name="e_wo_entrp">   -367.40030132 </i>
    <i name="e_0_energy">   -367.38571161 </i>
   </energy>
  </scstep>
  <scstep>
   <time name="diag">    0.13    0.13</time>
   <time name="diis">    0.70    0.70</time>
   <time name="orth">    0.02    0.02</time>
   <time name="total">    1.27    1.27</time>
   <energy>
    <i name="e_fr_energy">   -367.37886217 </i>
    <i name="e_wo_entrp">   -367.40076024 </i>
    <i name="e_0_energy">   -367.38616153 </i>
   </energy>
  </scstep>
  <scstep>
   <time name="diag">    0.13    0.13</time>
   <time name="diis">    0.71    0.71</time>
   <time name="orth">    0.02    0.02</time>
   <time name="total">    1.26    1.28</time>
   <energy>
    <i name="e_fr_energy">   -367.37893049 </i>
    <i name="e_wo_entrp">   -367.40077638 </i>
    <i name="e_0_energy">   -367.38621246 </i>
   </energy>
  </scstep>
  <scstep>
   <time name="diag">    0.13    0.13</time>
   <time name="diis">    0.72    0.72</time>
   <time name="orth">    0.02    0.02</time>
   <time name="total">    1.27    1.29</time>
   <energy>
    <i name="e_fr_energy">   -367.37893160 </i>
    <i name="e_wo_entrp">   -367.40072888 </i>
    <i name="e_0_energy">   -367.38619736 </i>
   </energy>
  </scstep>
  <scstep>
   <time name="diag">    0.13    0.13</time>
   <time name="diis">    0.69    0.70</time>
   <time name="orth">    0.02    0.02</time>
   <time name="total">    1.26    1.27</time>
   <energy>
    <i name="e_fr_energy">   -367.37893246 </i>
    <i name="e_wo_entrp">   -367.40071047 </i>
    <i name="e_0_energy">   -367.38619180 </i>
   </energy>
  </scstep>
  <scstep>
   <time name="diag">    0.13    0.13</time>
   <time name="diis">    0.52    0.52</time>
   <time name="orth">    0.02    0.02</time>
   <time name="total">    1.08    1.10</time>
   <energy>
    <i name="e_fr_energy">   -367.37893282 </i>
    <i name="e_wo_entrp">   -367.40071116 </i>
    <i name="e_0_energy">   -367.38619226 </i>
   </energy>
  </scstep>
  <scstep>
   <time name="diag">    0.13    0.13</time>
   <time name="diis">    0.44    0.44</time>
   <time name="orth">    0.02    0.02</time>
   <time name="total">    0.99    1.02</time>
   <energy>
    <i name="e_fr_energy">   -367.37893287 </i>
    <i name="e_wo_entrp">   -367.40071155 </i>
    <i name="e_0_energy">   -367.38619243 </i>
   </energy>
  </scstep>
  <scstep>
   <time name="diag">    0.13    0.13</time>
   <time name="diis">    0.40    0.41</time>
   <time name="orth">    0.02    0.02</time>
   <time name="total">    0.71    0.73</time>
   <energy>
    <i name="alphaZ">    108.39758566 </i>
    <i name="ewald">  -7331.43610141 </i>
    <i name="hartreedc">   -465.04820462 </i>
    <i name="XCdc">   -538.12581322 </i>
    <i name="pawpsdc">  28188.82667207 </i>
    <i name="pawaedc"> -27089.42962594 </i>
    <i name="eentropy">      0.02177865 </i>
    <i name="bandstr">    194.61891491 </i>
    <i name="atom">   6564.79586099 </i>
    <i name="e_fr_energy">   -367.37893290 </i>
    <i name="e_wo_entrp">   -367.40071155 </i>
    <i name="e_0_energy">   -367.38619245 </i>
   </energy>
  </scstep>
  <structure>
   <crystal>
    <varray name="basis" >
     <v>      10.97941662       0.10764102       0.00000000 </v>
     <v>       0.10764102      10.76413359       0.00000000 </v>
     <v>       0.00000000       0.00000000      10.76413359 </v>
    </varray>
    <i name="volume">   1272.02264620 </i>
    <varray name="rec_basis" >
     <v>       0.09108845      -0.00091088       0.00000000 </v>
     <v>      -0.00091088       0.09291022       0.00000000 </v>
     <v>       0.00000000       0.00000000       0.09290111 </v>
    </varray>
   </crystal>
   <varray name="positions" >
    <v>       0.00000000       0.00000000       0.00070478 </v>
    <v>       0.00000000       0.00000000       0.50070478 </v>
    <v>       0.00000000       0.50000000       0.00070478 </v>
    <v>       0.00000000       0.50000000       0.50070478 </v>
    <v>       0.50000000       0.00000000       0.00070478 </v>
    <v>       0.50000000       0.00000000       0.50070478 </v>
    <v>       0.50000000       0.50000000       0.00070478 </v>
    <v>       0.50000000       0.50000000       0.50070478 </v>
    <v>       0.37500000       0.37500000       0.12429522 </v>
    <v>       0.37500000       0.37500000       0.62429522 </v>
    <v>       0.37500000       0.87500000       0.12429522 </v>
    <v>       0.37500000       0.87500000       0.62429522 </v>
    <v>       0.87500000       0.37500000       0.12429522 </v>
    <v>       0.87500000       0.37500000       0.62429522 </v>
    <v>       0.87500000       0.87500000       0.12429522 </v>
    <v>       0.87500000       0.87500000       0.62429522 </v>
    <v>       0.00000000       0.25000000       0.25070478 </v>
    <v>       0.00000000       0.25000000       0.75070478 </v>
    <v>       0.00000000       0.75000000       0.25070478 </v>
    <v>       0.00000000       0.75000000       0.75070478 </v>
    <v>       0.50000000       0.25000000       0.25070478 </v>
    <v>       0.50000000       0.25000000       0.75070478 </v>
    <v>       0.50000000       0.75000000       0.25070478 </v>
    <v>       0.50000000       0.75000000       0.75070478 </v>
    <v>       0.37500000       0.12500000       0.37429522 </v>
    <v>       0.37500000       0.12500000       0.87429522 </v>
    <v>       0.37500000       0.62500000       0.37429522 </v>
    <v>       0.37500000       0.62500000       0.87429522 </v>
    <v>       0.87500000       0.12500000       0.37429522 </v>
    <v>       0.87500000       0.12500000       0.87429522 </v>
    <v>       0.87500000       0.62500000       0.37429522 </v>
    <v>       0.87500000       0.62500000       0.87429522 </v>
    <v>       0.25000000       0.00000000       0.25070478 </v>
    <v>       0.25000000       0.00000000       0.75070478 </v>
    <v>       0.25000000       0.50000000       0.25070478 </v>
    <v>       0.25000000       0.50000000       0.75070478 </v>
    <v>       0.75000000       0.00000000       0.25070478 </v>
    <v>       0.75000000       0.00000000       0.75070478 </v>
    <v>       0.75000000       0.50000000       0.25070478 </v>
    <v>       0.75000000       0.50000000       0.75070478 </v>
    <v>       0.12500000       0.37500000       0.37429522 </v>
    <v>       0.12500000       0.37500000       0.87429522 </v>
    <v>       0.12500000       0.87500000       0.37429522 </v>
    <v>       0.12500000       0.87500000       0.87429522 </v>
    <v>       0.62500000       0.37500000       0.37429522 </v>
    <v>       0.62500000       0.37500000       0.87429522 </v>
    <v>       0.62500000       0.87500000       0.37429522 </v>
    <v>       0.62500000       0.87500000       0.87429522 </v>
    <v>       0.25000000       0.25000000       0.00070478 </v>
    <v>       0.25000000       0.25000000       0.50070478 </v>
    <v>       0.25000000       0.75000000       0.00070478 </v>
    <v>       0.25000000       0.75000000       0.50070478 </v>
    <v>       0.75000000       0.25000000       0.00070478 </v>
    <v>       0.75000000       0.25000000       0.50070478 </v>
    <v>       0.75000000       0.75000000       0.00070478 </v>
    <v>       0.75000000       0.75000000       0.50070478 </v>
    <v>       0.12500000       0.12500000       0.12429522 </v>
    <v>       0.12500000       0.12500000       0.62429522 </v>
    <v>       0.12500000       0.62500000       0.12429522 </v>
    <v>       0.12500000       0.62500000       0.62429522 </v>
    <v>       0.62500000       0.12500000       0.12429522 </v>
    <v>       0.62500000       0.12500000       0.62429522 </v>
    <v>       0.62500000       0.62500000       0.12429522 </v>
    <v>       0.62500000       0.62500000       0.62429522 </v>
   </varray>
  </structure>
  <varray name="forces" >
   <v>       0.00000000       0.00000000       0.00004796 </v>
   <v>      -0.00000000      -0.00000000       0.00004796 </v>
   <v>       0.00000000      -0.00000000       0.00004796 </v>
   <v>      -0.00000000      -0.00000000       0.00004796 </v>
   <v>      -0.00000000       0.00000000       0.00004796 </v>
   <v>       0.00000000       0.00000000       0.00004796 </v>
   <v>      -0.00000000       0.00000000       0.00004796 </v>
   <v>       0.00000000       0.00000000       0.00004796 </v>
   <v>      -0.00000000      -0.00000000      -0.00004796 </v>
   <v>      -0.00000000      -0.00000000      -0.00004796 </v>
   <v>      -0.00000000       0.00000000      -0.00004796 </v>
   <v>       0.00000000       0.00000000      -0.00004796 </v>
   <v>       0.00000000      -0.00000000      -0.00004796 </v>
   <v>      -0.00000000      -0.00000000      -0.00004796 </v>
   <v>       0.00000000      -0.00000000      -0.00004796 </v>
   <v>       0.00000000      -0.00000000      -0.00004796 </v>
   <v>      -0.00000000      -0.00000000       0.00004796 </v>
   <v>       0.00000000      -0.00000000       0.00004796 </v>
   <v>       0.00000000       0.00000000       0.00004796 </v>
   <v>      -0.00000000       0.00000000       0.00004796 </v>
   <v>      -0.00000000       0.00000000       0.00004796 </v>
   <v>       0.00000000       0.00000000       0.00004796 </v>
   <v>       0.00000000       0.00000000       0.00004796 </v>
   <v>       0.00000000       0.00000000       0.00004796 </v>
   <v>       0.00000000      -0.00000000      -0.00004796 </v>
   <v>      -0.00000000       0.00000000      -0.00004796 </v>
   <v>      -0.00000000       0.00000000      -0.00004796 </v>
   <v>      -0.00000000      -0.00000000      -0.00004796 </v>
   <v>       0.00000000      -0.00000000      -0.00004796 </v>
   <v>       0.00000000      -0.00000000      -0.00004796 </v>
   <v>      -0.00000000      -0.00000000      -0.00004796 </v>
   <v>       0.00000000      -0.00000000      -0.00004796 </v>
   <v>       0.00000000       0.00000000       0.00004796 </v>
   <v>       0.00000000       0.00000000       0.00004796 </v>
   <v>       0.00000000      -0.00000000       0.00004796 </v>
   <v>      -0.00000000      -0.00000000       0.00004796 </v>
   <v>      -0.00000000       0.00000000       0.00004796 </v>
   <v>       0.00000000       0.00000000       0.00004796 </v>
   <v>      -0.00000000      -0.00000000       0.00004796 </v>
   <v>      -0.00000000      -0.00000000       0.00004796 </v>
   <v>      -0.00000000       0.00000000      -0.00004796 </v>
   <v>       0.00000000       0.00000000      -0.00004796 </v>
   <v>       0.00000000       0.00000000      -0.00004796 </v>
   <v>       0.00000000       0.00000000      -0.00004796 </v>
   <v>      -0.00000000      -0.00000000      -0.00004796 </v>
   <v>      -0.00000000      -0.00000000      -0.00004796 </v>
   <v>       0.00000000       0.00000000      -0.00004796 </v>
   <v>      -0.00000000       0.00000000      -0.00004796 </v>
   <v>      -0.00000000      -0.00000000       0.00004796 </v>
   <v>       0.00000000      -0.00000000       0.00004796 </v>
   <v>       0.00000000      -0.00000000       0.00004796 </v>
   <v>       0.00000000       0.00000000       0.00004796 </v>
   <v>      -0.00000000       0.00000000       0.00004796 </v>
   <v>      -0.00000000      -0.00000000       0.00004796 </v>
   <v>      -0.00000000      -0.00000000       0.00004796 </v>
   <v>      -0.00000000      -0.00000000       0.00004796 </v>
   <v>       0.00000000       0.00000000      -0.00004796 </v>
   <v>       0.00000000       0.00000000      -0.00004796 </v>
   <v>       0.00000000       0.00000000      -0.00004796 </v>
   <v>       0.00000000       0.00000000      -0.00004796 </v>
   <v>      -0.00000000      -0.00000000      -0.00004796 </v>
   <v>      -0.00000000       0.00000000      -0.00004796 </v>
   <v>      -0.00000000       0.00000000      -0.00004796 </v>
   <v>      -0.00000000      -0.00000000      -0.00004796 </v>
  </varray>
  <varray name="stress" >
   <v>      -3.19657131     -14.32056563       0.00000000 </v>
   <v>     -14.32056565      16.27214741       0.00000000 </v>
   <v>       0.00000000       0.00000000      15.60225762 </v>
  </varray>
  <energy>
   <i name="e_fr_energy">   -367.37893290 </i>
   <i name="e_wo_entrp">   -367.40071155 </i>
   <i name="e_0_energy">   -367.38619245 </i>
  </energy>
  <time name="totalsc">   12.95   13.14</time>
  <eigenvalues>
   <array>
    <dimension dim="1">band</dimension>
    <dimension dim="2">kpoint</dimension>
    <dimension dim="3">spin</dimension>
    <field>eigene</field>
    <field>occ</field>
    <set>
     <set comment="spin 1">
      <set comment="kpoint 1">
       <r>   -6.1743    1.0000 </r>
       <r>   -5.1051    1.0000 </r>
       <r>   -5.1051    1.0000 </r>
       <r>   -5.0690    1.0000 </r>
       <r>   -5.0690    1.0000 </r>
       <r>   -5.0684    1.0000 </r>
       <r>   -5.0684    1.0000 </r>
       <r>   -4.1606    1.0000 </r>
       <r>   -4.1606    1.0000 </r>
       <r>   -4.1139    1.0000 </r>
       <r>   -4.1139    1.0000 </r>
       <r>   -4.1139    1.0000 </r>
       <r>   -4.1139    1.0000 </r>
       <r>   -4.0884    1.0000 </r>
       <r>   -4.0884    1.0000 </r>
       <r>   -4.0884    1.0000 </r>
       <r>   -4.0884    1.0000 </r>
       <r>   -4.0661    1.0000 </r>
       <r>   -4.0661    1.0000 </r>
       <r>   -3.8537    1.0000 </r>
       <r>   -3.8536    1.0000 </r>
       <r>   -3.7548    1.0000 </r>
       <r>   -3.7548    1.0000 </r>
       <r>   -2.0644    1.0000 </r>
       <r>   -2.0644    1.0000 </r>
       <r>   -1.9830    1.0000 </r>
       <r>   -1.9448    1.0000 </r>
       <r>   -1.9447    1.0000 </r>
       <r>   -1.9109    1.0000 </r>
       <r>   -1.8828    1.0000 </r>
       <r>   -1.8827    1.0000 </r>
       <r>   -1.8381    1.0000 </r>
       <r>   -1.8381    1.0000 </r>
       <r>   -1.8260    1.0000 </r>
       <r>   -1.8259    1.0000 </r>
       <r>   -1.8259    1.0000 </r>
       <r>   -1.8259    1.0000 </r>
       <r>   -1.7709    1.0000 </r>
       <r>   -1.7709    1.0000 </r>
       <r>   -1.7300    1.0000 </r>
       <r>   -1.7300    1.0000 </r>
       <r>   -1.2031    1.0000 </r>
       <r>   -1.2031    1.0000 </r>
       <r>   -1.1630    1.0000 </r>
       <r>   -1.1630    1.0000 </r>
       <r>    0.3131    1.0000 </r>
       <r>    0.3131    1.0000 </r>
       <r>    0.3131    1.0000 </r>
       <r>    0.3131    1.0000 </r>
       <r>    0.3748    1.0000 </r>
       <r>    0.3749    1.0000 </r>
       <r>    0.3831    1.0000 </r>
       <r>    0.3831    1.0000 </r>
       <r>    0.3831    1.0000 </r>
       <r>    0.3831    1.0000 </r>
       <r>    0.3923    1.0000 </r>
       <r>    0.3923    1.0000 </r>
       <r>    1.9054    1.0000 </r>
       <r>    1.9054    1.0000 </r>
       <r>    1.9113    1.0000 </r>
       <r>    1.9113    1.0000 </r>
       <r>    1.9264    1.0000 </r>
       <r>    1.9265    1.0000 </r>
       <r>    1.9265    1.0000 </r>
       <r>    1.9265    1.0000 </r>
       <r>    1.9477    1.0000 </r>
       <r>    1.9477    1.0000 </r>
       <r>    1.9578    1.0000 </r>
       <r>    1.9578    1.0000 </r>
       <r>    1.9637    1.0000 </r>
       <r>    1.9637    1.0000 </r>
       <r>    1.9637    1.0000 </r>
       <r>    1.9637    1.0000 </r>
       <r>    2.0522    1.0000 </r>
       <r>    2.0522    1.0000 </r>
       <r>    2.0735    1.0000 </r>
       <r>    2.0735    1.0000 </r>
       <r>    2.0735    1.0000 </r>
       <r>    2.0735    1.0000 </r>
       <r>    2.0882    1.0000 </r>
       <r>    2.0882    1.0000 </r>
       <r>    2.2534    1.0000 </r>
       <r>    2.2534    1.0000 </r>
       <r>    2.3928    1.0000 </r>
       <r>    2.3928    1.0000 </r>
       <r>    2.3974    1.0000 </r>
       <r>    2.3974    1.0000 </r>
       <r>    2.7955    1.0000 </r>
       <r>    2.9243    1.0000 </r>
       <r>    2.9243    1.0000 </r>
       <r>    3.0572    1.0000 </r>
       <r>    3.0767    1.0000 </r>
       <r>    3.0767    1.0000 </r>
       <r>    3.7837    1.0000 </r>
       <r>    3.7837    1.0000 </r>
       <r>    3.8853    1.0000 </r>
       <r>    3.8853    1.0000 </r>
       <r>    3.9287    1.0000 </r>
       <r>    3.9287    1.0000 </r>
       <r>    4.0250    1.0000 </r>
       <r>    4.0250    1.0000 </r>
       <r>    4.0261    1.0000 </r>
       <r>    4.0261    1.0000 </r>
       <r>    4.0343    1.0000 </r>
       <r>    4.0343    1.0000 </r>
       <r>    4.3804    1.0000 </r>
       <r>    4.3804    1.0000 </r>
       <r>    4.4681    1.0000 </r>
       <r>    4.4681    1.0000 </r>
       <r>    4.4681    1.0000 </r>
       <r>    4.4681    1.0000 </r>
       <r>    4.4855    1.0000 </r>
       <r>    4.4855    1.0000 </r>
       <r>    4.5620    1.0000 </r>
       <r>    4.5620    1.0000 </r>
       <r>    4.6294    1.0000 </r>
       <r>    4.6294    1.0000 </r>
       <r>    4.6294    1.0000 </r>
       <r>    4.6294    1.0000 </r>
       <r>    4.6326    1.0000 </r>
       <r>    4.6326    1.0000 </r>
       <r>    4.7191    1.0000 </r>
       <r>    4.7191    1.0000 </r>
       <r>    4.7986    1.0000 </r>
       <r>    4.7986    1.0000 </r>
       <r>    5.7279    1.0089 </r>
       <r>    5.9125    1.0291 </r>
       <r>    5.9648    0.9854 </r>
       <r>    6.2420    0.0784 </r>
       <r>    6.3891   -0.0337 </r>
       <r>    6.3891   -0.0337 </r>
       <r>    6.5391   -0.0059 </r>
       <r>    6.5475   -0.0051 </r>
       <r>    6.5475   -0.0051 </r>
       <r>    6.8386   -0.0000 </r>
       <r>    6.8386   -0.0000 </r>
       <r>    6.8433   -0.0000 </r>
       <r>    6.8433   -0.0000 </r>
       <r>    7.0007   -0.0000 </r>
       <r>    7.0007   -0.0000 </r>
       <r>    7.2326   -0.0000 </r>
       <r>    7.2326   -0.0000 </r>
       <r>    7.4498   -0.0000 </r>
       <r>    7.4498   -0.0000 </r>
       <r>    8.0676   -0.0000 </r>
       <r>    8.0676   -0.0000 </r>
       <r>    8.1727   -0.0000 </r>
       <r>    8.1727   -0.0000 </r>
       <r>    8.1727   -0.0000 </r>
       <r>    8.1727   -0.0000 </r>
       <r>    8.2834   -0.0000 </r>
       <r>    8.2834   -0.0000 </r>
       <r>    8.2867   -0.0000 </r>
       <r>    8.3238   -0.0000 </r>
       <r>    8.3593   -0.0000 </r>
       <r>    8.3593   -0.0000 </r>
       <r>    8.3593   -0.0000 </r>
       <r>    8.3593   -0.0000 </r>
       <r>    8.5172   -0.0000 </r>
       <r>    8.8824   -0.0000 </r>
       <r>    8.8958   -0.0000 </r>
       <r>    8.9053   -0.0000 </r>
      </set>
      <set comment="kpoint 2">
       <r>   -5.9048    1.0000 </r>
       <r>   -5.9048    1.0000 </r>
       <r>   -4.8478    1.0000 </r>
       <r>   -4.8478    1.0000 </r>
       <r>   -4.8238    1.0000 </r>
       <r>   -4.8238    1.0000 </r>
       <r>   -4.8238    1.0000 </r>
       <r>   -4.8238    1.0000 </r>
       <r>   -4.7987    1.0000 </r>
       <r>   -4.7987    1.0000 </r>
       <r>   -3.9912    1.0000 </r>
       <r>   -3.9912    1.0000 </r>
       <r>   -3.9912    1.0000 </r>
       <r>   -3.9912    1.0000 </r>
       <r>   -3.9296    1.0000 </r>
       <r>   -3.9296    1.0000 </r>
       <r>   -3.9296    1.0000 </r>
       <r>   -3.9296    1.0000 </r>
       <r>   -3.8050    1.0000 </r>
       <r>   -3.8050    1.0000 </r>
       <r>   -3.1009    1.0000 </r>
       <r>   -3.1009    1.0000 </r>
       <r>   -3.0385    1.0000 </r>
       <r>   -3.0385    1.0000 </r>
       <r>   -3.0385    1.0000 </r>
       <r>   -3.0385    1.0000 </r>
       <r>   -2.9754    1.0000 </r>
       <r>   -2.9754    1.0000 </r>
       <r>   -1.9128    1.0000 </r>
       <r>   -1.9128    1.0000 </r>
       <r>   -1.9068    1.0000 </r>
       <r>   -1.9068    1.0000 </r>
       <r>   -1.8291    1.0000 </r>
       <r>   -1.8291    1.0000 </r>
       <r>   -1.8268    1.0000 </r>
       <r>   -1.8268    1.0000 </r>
       <r>   -0.7388    1.0000 </r>
       <r>   -0.7388    1.0000 </r>
       <r>   -0.7145    1.0000 </r>
       <r>   -0.7145    1.0000 </r>
       <r>   -0.7145    1.0000 </r>
       <r>   -0.7145    1.0000 </r>
       <r>   -0.6939    1.0000 </r>
       <r>   -0.6939    1.0000 </r>
       <r>   -0.6265    1.0000 </r>
       <r>   -0.6265    1.0000 </r>
       <r>   -0.6265    1.0000 </r>
       <r>   -0.6265    1.0000 </r>
       <r>   -0.5597    1.0000 </r>
       <r>   -0.5597    1.0000 </r>
       <r>   -0.5597    1.0000 </r>
       <r>   -0.5597    1.0000 </r>
       <r>    0.0094    1.0000 </r>
       <r>    0.0094    1.0000 </r>
       <r>    1.5641    1.0000 </r>
       <r>    1.5641    1.0000 </r>
       <r>    1.5780    1.0000 </r>
       <r>    1.5780    1.0000 </r>
       <r>    1.5819    1.0000 </r>
       <r>    1.5819    1.0000 </r>
       <r>    1.5819    1.0000 </r>
       <r>    1.5819    1.0000 </r>
       <r>    1.5872    1.0000 </r>
       <r>    1.5872    1.0000 </r>
       <r>    1.5872    1.0000 </r>
       <r>    1.5872    1.0000 </r>
       <r>    1.5949    1.0000 </r>
       <r>    1.5949    1.0000 </r>
       <r>    1.6096    1.0000 </r>
       <r>    1.6096    1.0000 </r>
       <r>    2.2796    1.0000 </r>
       <r>    2.2796    1.0000 </r>
       <r>    2.3558    1.0000 </r>
       <r>    2.3558    1.0000 </r>
       <r>    2.3735    1.0000 </r>
       <r>    2.3735    1.0000 </r>
       <r>    2.4529    1.0000 </r>
       <r>    2.4529    1.0000 </r>
       <r>    3.0760    1.0000 </r>
       <r>    3.0760    1.0000 </r>
       <r>    3.1030    1.0000 </r>
       <r>    3.1030    1.0000 </r>
       <r>    3.1101    1.0000 </r>
       <r>    3.1101    1.0000 </r>
       <r>    3.1101    1.0000 </r>
       <r>    3.1101    1.0000 </r>
       <r>    3.1340    1.0000 </r>
       <r>    3.1340    1.0000 </r>
       <r>    3.1649    1.0000 </r>
       <r>    3.1649    1.0000 </r>
       <r>    3.1649    1.0000 </r>
       <r>    3.1649    1.0000 </r>
       <r>    3.2038    1.0000 </r>
       <r>    3.2038    1.0000 </r>
       <r>    3.2038    1.0000 </r>
       <r>    3.2038    1.0000 </r>
       <r>    3.2290    1.0000 </r>
       <r>    3.2290    1.0000 </r>
       <r>    3.3181    1.0000 </r>
       <r>    3.3181    1.0000 </r>
       <r>    3.3187    1.0000 </r>
       <r>    3.3187    1.0000 </r>
       <r>    3.3469    1.0000 </r>
       <r>    3.3469    1.0000 </r>
       <r>    3.3469    1.0000 </r>
       <r>    3.3469    1.0000 </r>
       <r>    4.3469    1.0000 </r>
       <r>    4.3469    1.0000 </r>
       <r>    4.3952    1.0000 </r>
       <r>    4.3952    1.0000 </r>
       <r>    4.3952    1.0000 </r>
       <r>    4.3952    1.0000 </r>
       <r>    4.4422    1.0000 </r>
       <r>    4.4422    1.0000 </r>
       <r>    4.4483    1.0000 </r>
       <r>    4.4483    1.0000 </r>
       <r>    4.6637    1.0000 </r>
       <r>    4.6637    1.0000 </r>
       <r>    4.6637    1.0000 </r>
       <r>    4.6637    1.0000 </r>
       <r>    4.7157    1.0000 </r>
       <r>    4.7157    1.0000 </r>
       <r>    4.7157    1.0000 </r>
       <r>    4.7157    1.0000 </r>
       <r>    5.0987    1.0000 </r>
       <r>    5.0987    1.0000 </r>
       <r>    5.1109    1.0000 </r>
       <r>    5.1109    1.0000 </r>
       <r>    6.4776   -0.0152 </r>
       <r>    6.4776   -0.0152 </r>
       <r>    7.3302   -0.0000 </r>
       <r>    7.3302   -0.0000 </r>
       <r>    7.4537   -0.0000 </r>
       <r>    7.4537   -0.0000 </r>
       <r>    7.6144   -0.0000 </r>
       <r>    7.6144   -0.0000 </r>
       <r>    7.6560   -0.0000 </r>
       <r>    7.6560   -0.0000 </r>
       <r>    7.8195   -0.0000 </r>
       <r>    7.8195   -0.0000 </r>
       <r>    7.8817   -0.0000 </r>
       <r>    7.8817   -0.0000 </r>
       <r>    8.0982   -0.0000 </r>
       <r>    8.0982   -0.0000 </r>
       <r>    8.1453   -0.0000 </r>
       <r>    8.1453   -0.0000 </r>
       <r>    8.1453   -0.0000 </r>
       <r>    8.1454   -0.0000 </r>
       <r>    8.2072   -0.0000 </r>
       <r>    8.2072   -0.0000 </r>
       <r>    8.2072   -0.0000 </r>
       <r>    8.2073   -0.0000 </r>
       <r>    8.2206   -0.0000 </r>
       <r>    8.2206   -0.0000 </r>
       <r>    8.3352   -0.0000 </r>
       <r>    8.3352   -0.0000 </r>
       <r>    8.3353   -0.0000 </r>
       <r>    8.3354   -0.0000 </r>
       <r>    8.4985   -0.0000 </r>
       <r>    8.5002   -0.0000 </r>
       <r>    8.6524   -0.0000 </r>
       <r>    8.6556   -0.0000 </r>
      </set>
      <set comment="kpoint 3">
       <r>   -5.8953    1.0000 </r>
       <r>   -5.8953    1.0000 </r>
[...]
      </set>
     </set>
    </set>
   </array>
  </eigenvalues>
  <separator name="orbital magnetization" >
   <v name="MAGDIPOLOUT">      0.00000000      0.00000000      0.00000000</v>
  </separator>
  <dos>
   <i name="efermi">      6.12129561 </i>
   <total>
    <array>
     <dimension dim="1">gridpoints</dimension>
     <dimension dim="2">spin</dimension>
     <field>energy</field>
     <field>total</field>
     <field>integrated</field>
     <set>
      <set comment="spin 1">
       <r>    -8.1743     0.0000     0.0000 </r>
       <r>    -8.1095     0.0000     0.0000 </r>
       <r>    -8.0447     0.0000     0.0000 </r>
       <r>    -7.9799     0.0000     0.0000 </r>
       <r>    -7.9151     0.0000     0.0000 </r>
       <r>    -7.8503     0.0000     0.0000 </r>
       <r>    -7.7855    -0.0000    -0.0000 </r>
       <r>    -7.7207    -0.0000    -0.0000 </r>
       <r>    -7.6559    -0.0000    -0.0000 </r>
       <r>    -7.5911    -0.0000    -0.0000 </r>
       <r>    -7.5263    -0.0000    -0.0000 </r>
       <r>    -7.4615    -0.0000    -0.0000 </r>
       <r>    -7.3967    -0.0000    -0.0000 </r>
       <r>    -7.3319    -0.0000    -0.0000 </r>
       <r>    -7.2671    -0.0000    -0.0000 </r>
       <r>    -7.2023    -0.0000    -0.0000 </r>
       <r>    -7.1375    -0.0000    -0.0000 </r>
       <r>    -7.0727    -0.0000    -0.0000 </r>
       <r>    -7.0079    -0.0000    -0.0000 </r>
       <r>    -6.9432    -0.0000    -0.0000 </r>
       <r>    -6.8784    -0.0000    -0.0000 </r>
       <r>    -6.8136    -0.0001    -0.0000 </r>
       <r>    -6.7488    -0.0006    -0.0000 </r>
       <r>    -6.6840    -0.0029    -0.0002 </r>
       <r>    -6.6192    -0.0104    -0.0009 </r>
       <r>    -6.5544    -0.0284    -0.0027 </r>
       <r>    -6.4896    -0.0536    -0.0062 </r>
       <r>    -6.4248    -0.0551    -0.0098 </r>
       <r>    -6.3600     0.0283    -0.0080 </r>
       <r>    -6.2952     0.2274     0.0068 </r>
       <r>    -6.2304     0.4719     0.0374 </r>
       <r>    -6.1656     0.6892     0.0820 </r>
       <r>    -6.1008     1.0750     0.1517 </r>
       <r>    -6.0360     2.0593     0.2851 </r>
       <r>    -5.9712     3.6799     0.5235 </r>
       <r>    -5.9064     5.2133     0.8613 </r>
       <r>    -5.8416     6.0746     1.2550 </r>
       <r>    -5.7768     6.9215     1.7034 </r>
       <r>    -5.7120     8.8082     2.2742 </r>
       <r>    -5.6472    11.1804     2.9986 </r>
       <r>    -5.5824    12.1159     3.7837 </r>
       <r>    -5.5176    10.9636     4.4941 </r>
       <r>    -5.4528     9.2332     5.0923 </r>
       <r>    -5.3881     8.2577     5.6274 </r>
       <r>    -5.3233     7.5431     6.1162 </r>
       <r>    -5.2585     6.2446     6.5208 </r>
       <r>    -5.1937     4.8187     6.8330 </r>
       <r>    -5.1289     4.2911     7.1111 </r>
       <r>    -5.0641     5.1772     7.4465 </r>
       <r>    -4.9993     7.9973     7.9647 </r>
       <r>    -4.9345    13.3320     8.8286 </r>
       <r>    -4.8697    20.1042    10.1313 </r>
       <r>    -4.8049    25.4130    11.7779 </r>
       <r>    -4.7401    27.6346    13.5685 </r>
       <r>    -4.6753    27.9406    15.3790 </r>
       <r>    -4.6105    27.2082    17.1419 </r>
       <r>    -4.5457    23.8002    18.6841 </r>
       <r>    -4.4809    16.4771    19.7518 </r>
       <r>    -4.4161     7.4850    20.2368 </r>
       <r>    -4.3513     0.8868    20.2942 </r>
       <r>    -4.2865    -0.7756    20.2440 </r>
       <r>    -4.2217     2.7962    20.4251 </r>
       <r>    -4.1569    10.5409    21.1081 </r>
       <r>    -4.0921    20.1742    22.4153 </r>
       <r>    -4.0273    28.1619    24.2401 </r>
       <r>    -3.9625    31.1024    26.2554 </r>
       <r>    -3.8977    28.0140    28.0706 </r>
       <r>    -3.8330    21.3267    29.4525 </r>
       <r>    -3.7682    15.4313    30.4524 </r>
       <r>    -3.7034    14.1179    31.3672 </r>
       <r>    -3.6386    18.7460    32.5818 </r>
       <r>    -3.5738    27.6158    34.3712 </r>
       <r>    -3.5090    36.7577    36.7530 </r>
       <r>    -3.4442    42.3068    39.4943 </r>
       <r>    -3.3794    42.7645    42.2652 </r>
       <r>    -3.3146    39.0708    44.7969 </r>
       <r>    -3.2498    33.2969    46.9544 </r>
       <r>    -3.1850    27.9208    48.7635 </r>
       <r>    -3.1202    25.1006    50.3899 </r>
       <r>    -3.0554    24.8019    51.9970 </r>
       <r>    -2.9906    24.0235    53.5536 </r>
       <r>    -2.9258    19.6353    54.8259 </r>
       <r>    -2.8610    11.9736    55.6018 </r>
       <r>    -2.7962     4.4010    55.8869 </r>
       <r>    -2.7314    -0.2689    55.8695 </r>
       <r>    -2.6666    -1.6149    55.7649 </r>
       <r>    -2.6018    -0.3874    55.7398 </r>
       <r>    -2.5370     2.8311    55.9232 </r>
       <r>    -2.4722     7.1511    56.3866 </r>
       <r>    -2.4074    10.5681    57.0713 </r>
       <r>    -2.3426    10.9088    57.7782 </r>
       <r>    -2.2778     7.9081    58.2906 </r>
       <r>    -2.2131     3.9228    58.5448 </r>
       <r>    -2.1483     2.4739    58.7051 </r>
       <r>    -2.0835     6.1337    59.1025 </r>
       <r>    -2.0187    15.0067    60.0749 </r>
       <r>    -1.9539    26.0475    61.7627 </r>
       <r>    -1.8891    33.9582    63.9630 </r>
       <r>    -1.8243    34.2684    66.1835 </r>
       <r>    -1.7595    26.7047    67.9138 </r>
       <r>    -1.6947    15.5497    68.9214 </r>
       <r>    -1.6299     6.4396    69.3386 </r>
       <r>    -1.5651     2.6902    69.5129 </r>
       <r>    -1.5003     4.0142    69.7730 </r>
       <r>    -1.4355     7.6254    70.2671 </r>
       <r>    -1.3707    10.2992    70.9345 </r>
       <r>    -1.3059    10.3211    71.6032 </r>
       <r>    -1.2411     8.5264    72.1557 </r>
       <r>    -1.1763     7.7496    72.6579 </r>
       <r>    -1.1115    10.6212    73.3461 </r>
       <r>    -1.0467    16.8328    74.4368 </r>
       <r>    -0.9819    22.6144    75.9021 </r>
       <r>    -0.9171    24.4237    77.4846 </r>
       <r>    -0.8523    23.5325    79.0095 </r>
       <r>    -0.7875    25.3734    80.6535 </r>
       <r>    -0.7227    33.7684    82.8416 </r>
       <r>    -0.6580    46.4703    85.8527 </r>
       <r>    -0.5932    55.9327    89.4769 </r>
       <r>    -0.5284    54.4742    93.0066 </r>
       <r>    -0.4636    40.6791    95.6424 </r>
       <r>    -0.3988    21.5766    97.0405 </r>
       <r>    -0.3340     7.4679    97.5244 </r>
       <r>    -0.2692     4.2592    97.8004 </r>
       <r>    -0.2044    10.3537    98.4713 </r>
       <r>    -0.1396    19.0783    99.7075 </r>
       <r>    -0.0748    23.5721   101.2348 </r>
       <r>    -0.0100    21.1841   102.6075 </r>
       <r>     0.0548    14.5162   103.5481 </r>
       <r>     0.1196     8.3052   104.0862 </r>
       <r>     0.1844     5.6048   104.4494 </r>
       <r>     0.2492     6.8746   104.8948 </r>
       <r>     0.3140    11.2429   105.6233 </r>
       <r>     0.3788    17.3642   106.7484 </r>
       <r>     0.4436    23.3538   108.2617 </r>
       <r>     0.5084    26.7974   109.9980 </r>
       <r>     0.5732    25.6077   111.6573 </r>
       <r>     0.6380    19.5989   112.9272 </r>
       <r>     0.7028    11.2270   113.6547 </r>
       <r>     0.7676     4.0285   113.9157 </r>
       <r>     0.8324     0.0344   113.9180 </r>
       <r>     0.8971    -1.1160   113.8456 </r>
       <r>     0.9619    -0.9394   113.7848 </r>
       <r>     1.0267    -0.6761   113.7410 </r>
       <r>     1.0915    -0.9163   113.6816 </r>
       <r>     1.1563    -1.7620   113.5674 </r>
       <r>     1.2211    -2.5187   113.4042 </r>
       <r>     1.2859    -0.8785   113.3473 </r>
       <r>     1.3507     6.8557   113.7915 </r>
       <r>     1.4155    22.6708   115.2605 </r>
       <r>     1.4803    42.3657   118.0056 </r>
       <r>     1.5451    55.5782   121.6069 </r>
       <r>     1.6099    53.6114   125.0806 </r>
       <r>     1.6747    38.2304   127.5578 </r>
       <r>     1.7395    20.8568   128.9093 </r>
       <r>     1.8043    12.2940   129.7059 </r>
       <r>     1.8691    14.1718   130.6241 </r>
       <r>     1.9339    19.9753   131.9184 </r>
       <r>     1.9987    22.7518   133.3927 </r>
       <r>     2.0635    21.7843   134.8042 </r>
       <r>     2.1283    23.0390   136.2970 </r>
       <r>     2.1931    33.3246   138.4563 </r>
       <r>     2.2579    52.9410   141.8867 </r>
       <r>     2.3227    73.3670   146.6406 </r>
       <r>     2.3875    82.7225   152.0007 </r>
       <r>     2.4523    74.6526   156.8378 </r>
       <r>     2.5170    52.8722   160.2637 </r>
       <r>     2.5818    27.7170   162.0597 </r>
       <r>     2.6466     8.4228   162.6055 </r>
       <r>     2.7114    -1.8575   162.4851 </r>
       <r>     2.7762    -4.7614   162.1766 </r>
       <r>     2.8410    -1.8016   162.0598 </r>
       <r>     2.9058     8.4062   162.6045 </r>
       <r>     2.9706    27.4377   164.3824 </r>
       <r>     3.0354    51.8621   167.7428 </r>
       <r>     3.1002    72.6678   172.4514 </r>
       <r>     3.1650    81.6750   177.7436 </r>
       <r>     3.2298    77.9792   182.7963 </r>
       <r>     3.2946    67.0701   187.1422 </r>
       <r>     3.3594    54.9997   190.7060 </r>
       <r>     3.4242    45.1304   193.6302 </r>
       <r>     3.4890    39.1375   196.1662 </r>
       <r>     3.5538    37.9009   198.6220 </r>
       <r>     3.6186    40.1411   201.2230 </r>
       <r>     3.6834    41.8324   203.9335 </r>
       <r>     3.7482    39.2708   206.4781 </r>
       <r>     3.8130    33.1546   208.6264 </r>
       <r>     3.8778    28.1123   210.4480 </r>
       <r>     3.9426    27.5133   212.2307 </r>
       <r>     4.0074    30.0894   214.1804 </r>
       <r>     4.0721    32.3721   216.2780 </r>
       <r>     4.1369    33.0952   218.4224 </r>
       <r>     4.2017    34.1885   220.6377 </r>
       <r>     4.2665    38.1382   223.1089 </r>
       <r>     4.3313    45.0772   226.0297 </r>
       <r>     4.3961    52.1911   229.4115 </r>
       <r>     4.4609    55.7107   233.0213 </r>
       <r>     4.5257    53.6533   236.4978 </r>
       <r>     4.5905    46.7311   239.5258 </r>
       <r>     4.6553    36.9819   241.9221 </r>
       <r>     4.7201    26.4200   243.6340 </r>
       <r>     4.7849    17.1026   244.7421 </r>
       <r>     4.8497    11.1961   245.4676 </r>
       <r>     4.9145     9.9465   246.1121 </r>
       <r>     4.9793    12.7230   246.9365 </r>
       <r>     5.0441    17.1856   248.0501 </r>
       <r>     5.1089    20.2284   249.3608 </r>
       <r>     5.1737    19.4256   250.6195 </r>
       <r>     5.2385    14.6636   251.5696 </r>
       <r>     5.3033     8.4932   252.1199 </r>
       <r>     5.3681     4.2875   252.3978 </r>
       <r>     5.4329     3.7641   252.6416 </r>
       <r>     5.4977     6.1097   253.0375 </r>
       <r>     5.5625     9.0153   253.6217 </r>
       <r>     5.6272    10.3296   254.2910 </r>
       <r>     5.6920     9.2405   254.8898 </r>
       <r>     5.7568     6.5387   255.3134 </r>
       <r>     5.8216     3.8260   255.5613 </r>
       <r>     5.8864     2.1813   255.7027 </r>
       <r>     5.9512     1.5039   255.8001 </r>
       <r>     6.0160     1.1613   255.8754 </r>
       <r>     6.0808     1.0354   255.9425 </r>
       <r>     6.1456     1.6458   256.0491 </r>
       <r>     6.2104     3.2942   256.2626 </r>
       <r>     6.2752     5.4211   256.6138 </r>
       <r>     6.3400     7.0367   257.0698 </r>
       <r>     6.4048     7.6013   257.5623 </r>
       <r>     6.4696     7.1989   258.0288 </r>
       <r>     6.5344     6.0963   258.4238 </r>
       <r>     6.5992     4.6992   258.7283 </r>
       <r>     6.6640     3.8620   258.9785 </r>
       <r>     6.7288     4.5121   259.2709 </r>
       <r>     6.7936     6.6732   259.7033 </r>
       <r>     6.8584     9.3021   260.3060 </r>
       <r>     6.9232    11.3789   261.0433 </r>
       <r>     6.9880    12.8647   261.8769 </r>
       <r>     7.0528    14.4631   262.8140 </r>
       <r>     7.1176    16.8472   263.9057 </r>
       <r>     7.1824    20.1367   265.2104 </r>
       <r>     7.2471    23.5205   266.7345 </r>
       <r>     7.3119    25.3572   268.3775 </r>
       <r>     7.3767    24.4722   269.9632 </r>
       <r>     7.4415    21.7956   271.3755 </r>
       <r>     7.5063    20.1550   272.6814 </r>
       <r>     7.5711    21.7447   274.0904 </r>
       <r>     7.6359    26.0644   275.7793 </r>
       <r>     7.7007    31.0515   277.7913 </r>
       <r>     7.7655    35.6327   280.1001 </r>
       <r>     7.8303    39.8392   282.6816 </r>
       <r>     7.8951    43.1377   285.4767 </r>
       <r>     7.9599    44.8151   288.3805 </r>
       <r>     8.0247    45.8419   291.3509 </r>
       <r>     8.0895    48.1357   294.4699 </r>
       <r>     8.1543    51.7735   297.8246 </r>
       <r>     8.2191    54.7232   301.3705 </r>
       <r>     8.2839    55.3469   304.9567 </r>
       <r>     8.3487    53.4615   308.4208 </r>
       <r>     8.4135    49.0651   311.6000 </r>
       <r>     8.4783    41.9827   314.3203 </r>
       <r>     8.5431    33.1894   316.4708 </r>
       <r>     8.6079    25.1021   318.0974 </r>
       <r>     8.6727    19.8166   319.3814 </r>
       <r>     8.7375    17.3711   320.5070 </r>
       <r>     8.8022    15.9618   321.5412 </r>
       <r>     8.8670    13.6702   322.4270 </r>
       <r>     8.9318     9.9133   323.0693 </r>
       <r>     8.9966     5.5931   323.4318 </r>
       <r>     9.0614     2.2057   323.5747 </r>
       <r>     9.1262     0.6900   323.6194 </r>
       <r>     9.1910     0.8140   323.6721 </r>
       <r>     9.2558     1.5030   323.7695 </r>
       <r>     9.3206     1.7591   323.8835 </r>
       <r>     9.3854     1.3334   323.9699 </r>
       <r>     9.4502     0.6279   324.0106 </r>
       <r>     9.5150     0.1064   324.0175 </r>
       <r>     9.5798    -0.0949   324.0113 </r>
       <r>     9.6446    -0.0985   324.0049 </r>
       <r>     9.7094    -0.0515   324.0016 </r>
       <r>     9.7742    -0.0186   324.0004 </r>
       <r>     9.8390    -0.0050   324.0001 </r>
       <r>     9.9038    -0.0010   324.0000 </r>
       <r>     9.9686    -0.0002   324.0000 </r>
       <r>    10.0334    -0.0000   324.0000 </r>
       <r>    10.0982    -0.0000   324.0000 </r>
       <r>    10.1630    -0.0000   324.0000 </r>
       <r>    10.2278    -0.0000   324.0000 </r>
       <r>    10.2926    -0.0000   324.0000 </r>
       <r>    10.3573    -0.0000   324.0000 </r>
       <r>    10.4221    -0.0000   324.0000 </r>
       <r>    10.4869    -0.0000   324.0000 </r>
       <r>    10.5517     0.0000   324.0000 </r>
       <r>    10.6165     0.0000   324.0000 </r>
       <r>    10.6813     0.0000   324.0000 </r>
       <r>    10.7461     0.0000   324.0000 </r>
       <r>    10.8109     0.0000   324.0000 </r>
       <r>    10.8757     0.0000   324.0000 </r>
       <r>    10.9405     0.0000   324.0000 </r>
       <r>    11.0053     0.0000   324.0000 </r>
       <r>    11.0701     0.0000   324.0000 </r>
       <r>    11.1349     0.0000   324.0000 </r>
       <r>    11.1997     0.0000   324.0000 </r>
       <r>    11.2645     0.0000   324.0000 </r>
      </set>
     </set>
    </array>
   </total>
  </dos>
 </calculation>
 <structure name="finalpos" >
  <crystal>
   <varray name="basis" >
    <v>      10.97941662       0.10764102       0.00000000 </v>
    <v>       0.10764102      10.76413359       0.00000000 </v>
    <v>       0.00000000       0.00000000      10.76413359 </v>
   </varray>
   <i name="volume">   1272.02264620 </i>
   <varray name="rec_basis" >
    <v>       0.09108845      -0.00091088       0.00000000 </v>
    <v>      -0.00091088       0.09291022       0.00000000 </v>
    <v>       0.00000000       0.00000000       0.09290111 </v>
   </varray>
  </crystal>
  <varray name="positions" >
   <v>       0.00000000       0.00000000       0.00070478 </v>
   <v>       0.00000000       0.00000000       0.50070478 </v>
   <v>       0.00000000       0.50000000       0.00070478 </v>
   <v>       0.00000000       0.50000000       0.50070478 </v>
   <v>       0.50000000       0.00000000       0.00070478 </v>
   <v>       0.50000000       0.00000000       0.50070478 </v>
   <v>       0.50000000       0.50000000       0.00070478 </v>
   <v>       0.50000000       0.50000000       0.50070478 </v>
   <v>       0.37500000       0.37500000       0.12429522 </v>
   <v>       0.37500000       0.37500000       0.62429522 </v>
   <v>       0.37500000       0.87500000       0.12429522 </v>
   <v>       0.37500000       0.87500000       0.62429522 </v>
   <v>       0.87500000       0.37500000       0.12429522 </v>
   <v>       0.87500000       0.37500000       0.62429522 </v>
   <v>       0.87500000       0.87500000       0.12429522 </v>
   <v>       0.87500000       0.87500000       0.62429522 </v>
   <v>       0.00000000       0.25000000       0.25070478 </v>
   <v>       0.00000000       0.25000000       0.75070478 </v>
   <v>       0.00000000       0.75000000       0.25070478 </v>
   <v>       0.00000000       0.75000000       0.75070478 </v>
   <v>       0.50000000       0.25000000       0.25070478 </v>
   <v>       0.50000000       0.25000000       0.75070478 </v>
   <v>       0.50000000       0.75000000       0.25070478 </v>
   <v>       0.50000000       0.75000000       0.75070478 </v>
   <v>       0.37500000       0.12500000       0.37429522 </v>
   <v>       0.37500000       0.12500000       0.87429522 </v>
   <v>       0.37500000       0.62500000       0.37429522 </v>
   <v>       0.37500000       0.62500000       0.87429522 </v>
   <v>       0.87500000       0.12500000       0.37429522 </v>
   <v>       0.87500000       0.12500000       0.87429522 </v>
   <v>       0.87500000       0.62500000       0.37429522 </v>
   <v>       0.87500000       0.62500000       0.87429522 </v>
   <v>       0.25000000       0.00000000       0.25070478 </v>
   <v>       0.25000000       0.00000000       0.75070478 </v>
   <v>       0.25000000       0.50000000       0.25070478 </v>
   <v>       0.25000000       0.50000000       0.75070478 </v>
   <v>       0.75000000       0.00000000       0.25070478 </v>
   <v>       0.75000000       0.00000000       0.75070478 </v>
   <v>       0.75000000       0.50000000       0.25070478 </v>
   <v>       0.75000000       0.50000000       0.75070478 </v>
   <v>       0.12500000       0.37500000       0.37429522 </v>
   <v>       0.12500000       0.37500000       0.87429522 </v>
   <v>       0.12500000       0.87500000       0.37429522 </v>
   <v>       0.12500000       0.87500000       0.87429522 </v>
   <v>       0.62500000       0.37500000       0.37429522 </v>
   <v>       0.62500000       0.37500000       0.87429522 </v>
   <v>       0.62500000       0.87500000       0.37429522 </v>
   <v>       0.62500000       0.87500000       0.87429522 </v>
   <v>       0.25000000       0.25000000       0.00070478 </v>
   <v>       0.25000000       0.25000000       0.50070478 </v>
   <v>       0.25000000       0.75000000       0.00070478 </v>
   <v>       0.25000000       0.75000000       0.50070478 </v>
   <v>       0.75000000       0.25000000       0.00070478 </v>
   <v>       0.75000000       0.25000000       0.50070478 </v>
   <v>       0.75000000       0.75000000       0.00070478 </v>
   <v>       0.75000000       0.75000000       0.50070478 </v>
   <v>       0.12500000       0.12500000       0.12429522 </v>
   <v>       0.12500000       0.12500000       0.62429522 </v>
   <v>       0.12500000       0.62500000       0.12429522 </v>
   <v>       0.12500000       0.62500000       0.62429522 </v>
   <v>       0.62500000       0.12500000       0.12429522 </v>
   <v>       0.62500000       0.12500000       0.62429522 </v>
   <v>       0.62500000       0.62500000       0.12429522 </v>
   <v>       0.62500000       0.62500000       0.62429522 </v>
  </varray>
 </structure>
</modeling>
