       N       E                     dE             d eps       ncg     rms          rms(c)
DAV:   1     0.574691465937E+03    0.57469E+03   -0.85039E+04  2592   0.107E+03
DAV:   2    -0.309207971723E+03   -0.88390E+03   -0.83899E+03  3088   0.176E+02
DAV:   3    -0.372373110582E+03   -0.63165E+02   -0.61887E+02  3160   0.413E+01
DAV:   4    -0.373990820182E+03   -0.16177E+01   -0.16053E+01  3120   0.794E+00
DAV:   5    -0.374041539778E+03   -0.50720E-01   -0.50590E-01  3112   0.131E+00    0.309E+01
RMM:   6    -0.367904056835E+03    0.61375E+01   -0.32348E+00  2592   0.283E+00    0.186E+01
RMM:   7    -0.365247920743E+03    0.26561E+01   -0.81401E+00  2650   0.448E+00    0.119E+00
RMM:   8    -0.365281491480E+03   -0.33571E-01   -0.75171E-01  2614   0.170E+00    0.546E-01
RMM:   9    -0.365305093628E+03   -0.23602E-01   -0.22753E-01  2669   0.831E-01    0.614E-01
RMM:  10    -0.365309669058E+03   -0.45754E-02   -0.40613E-02  2728   0.391E-01    0.838E-01
RMM:  11    -0.365304946732E+03    0.47223E-02   -0.14257E-02  2592   0.238E-01    0.634E-01
RMM:  12    -0.365305125719E+03   -0.17899E-03   -0.19322E-03  2617   0.104E-01    0.620E-01
RMM:  13    -0.365305195841E+03   -0.70122E-04   -0.37240E-04  2735   0.425E-02    0.696E-01
RMM:  14    -0.365305181887E+03    0.13954E-04   -0.10270E-04  2600   0.253E-02    0.254E-01
RMM:  15    -0.365305264148E+03   -0.82261E-04   -0.43390E-05  2633   0.138E-02    0.241E-01
RMM:  16    -0.365305316985E+03   -0.52837E-04   -0.26470E-05  2592   0.117E-02    0.191E-01
RMM:  17    -0.365305324493E+03   -0.75084E-05   -0.78188E-06  2591   0.712E-03    0.510E-02
RMM:  18    -0.365305329443E+03   -0.49499E-05   -0.36142E-06  1917   0.450E-03    0.981E-03
RMM:  19    -0.365305330412E+03   -0.96882E-06   -0.95143E-07  1565   0.220E-03
   1 F= -.36530533E+03 E0= -.36531560E+03  d E =-.365305E+03
       N       E                     dE             d eps       ncg     rms          rms(c)
DAV:   1    -0.365316069408E+03   -0.10740E-01   -0.76074E-01  2960   0.168E+00    0.407E-01
RMM:   2    -0.365319680484E+03   -0.36111E-02   -0.37489E-02  2592   0.414E-01    0.165E-01
RMM:   3    -0.365320093331E+03   -0.41285E-03   -0.57620E-03  2638   0.182E-01    0.680E-02
RMM:   4    -0.365320072743E+03    0.20588E-04   -0.77656E-04  2630   0.754E-02    0.253E-02
RMM:   5    -0.365320079693E+03   -0.69503E-05   -0.14749E-04  2694   0.297E-02    0.549E-03
RMM:   6    -0.365320082811E+03   -0.31175E-05   -0.31061E-05  2695   0.127E-02    0.128E-03
RMM:   7    -0.365320083241E+03   -0.43001E-06   -0.47279E-06  1919   0.483E-03    0.742E-04
RMM:   8    -0.365320083289E+03   -0.47939E-07   -0.84970E-07  1537   0.202E-03
   2 F= -.36532008E+03 E0= -.36532827E+03  d E =-.147529E-01
       N       E                     dE             d eps       ncg     rms          rms(c)
DAV:   1    -0.365323990110E+03   -0.39069E-02   -0.79314E-02  2928   0.541E-01    0.131E-01
RMM:   2    -0.365324358721E+03   -0.36861E-03   -0.38147E-03  2592   0.133E-01    0.534E-02
RMM:   3    -0.365324399144E+03   -0.40423E-04   -0.57078E-04  2640   0.582E-02    0.216E-02
RMM:   4    -0.365324397235E+03    0.19096E-05   -0.76500E-05  2624   0.240E-02    0.807E-03
RMM:   5    -0.365324397906E+03   -0.67101E-06   -0.14677E-05  2578   0.945E-03    0.175E-03
RMM:   6    -0.365324398143E+03   -0.23763E-06   -0.28831E-06  1777   0.404E-03    0.460E-04
RMM:   7    -0.365324398207E+03   -0.63221E-07   -0.53496E-07  1500   0.166E-03    0.210E-04
RMM:   8    -0.365324398229E+03   -0.22570E-07   -0.13063E-07  1072   0.831E-04
   3 F= -.36532440E+03 E0= -.36533347E+03  d E =-.190678E-01
