 vasp.6.4.3 19Mar24 (build Oct 21 2024 22:36:34) complex                        
  
 executed on             LinuxIFC date 2024.11.01  22:55:27
 running   96 mpi-ranks, on    1 nodes
 distrk:  each k-point on   24 cores,    4 groups
 distr:  one band on NCORE=  12 cores,    2 groups


--------------------------------------------------------------------------------------------------------


 INCAR:
   SYSTEM = Si64
   ISTART = 0
   ICHARG = 2
   LREAL = Auto
   PREC = Accurate
   LWAVE = .False.
   LCHARG = .False.
   ADDGRID = .True.
   ENCUT = 400
   GGA = PS
   GGA_COMPAT = .FALSE.
   ISMEAR = 1
   SIGMA = 0.2
   NELM = 60
   NELMIN = 8
   EDIFF = 1e-06
   EDIFFG = -0.01
   NSW = 60
   IBRION = 2
   ISIF = 2
   KPAR = 4
   NPAR = 2
   ALGO = Fast

 POTCAR:    PAW_PBE Si 05Jan2001                  
 POTCAR:    PAW_PBE Si 05Jan2001                  
   VRHFIN =Si: s2p2                                                                                 
   LEXCH  = PE                                                                                      
   EATOM  =   103.0669 eV,    7.5752 Ry                                                             
                                                                                                    
   TITEL  = PAW_PBE Si 05Jan2001                                                                    
   LULTRA =        F    use ultrasoft PP ?                                                          
   IUNSCR =        1    unscreen: 0-lin 1-nonlin 2-no                                               
   RPACOR =    1.500    partial core radius                                                         
   POMASS =   28.085; ZVAL   =    4.000    mass and valenz                                          
   RCORE  =    1.900    outmost cutoff radius                                                       
   RWIGS  =    2.480; RWIGS  =    1.312    wigner-seitz radius (au A)                               
   ENMAX  =  245.345; ENMIN  =  184.009 eV                                                          
   ICORE  =        2    local potential                                                             
   LCOR   =        T    correct aug charges                                                         
   LPAW   =        T    paw PP                                                                      
   EAUG   =  322.069                                                                                
   DEXC   =    0.000                                                                                
   RMAX   =    1.950    core radius for proj-oper                                                   
   RAUG   =    1.300    factor for augmentation sphere                                              
   RDEP   =    1.993    radius for radial grids                                                     
   RDEPT  =    1.837    core radius for aug-charge                                                  
                                                                                                    
   Atomic configuration                                                                             
    6 entries                                                                                       
     n  l   j            E        occ.                                                              
     1  0  0.50     -1785.8828   2.0000                                                             
     2  0  0.50      -139.4969   2.0000                                                             
     2  1  1.50       -95.5546   6.0000                                                             
     3  0  0.50       -10.8127   2.0000                                                             
     3  1  0.50        -4.0811   2.0000                                                             
     3  2  1.50        -4.0817   0.0000                                                             
   Description                                                                                      
     l       E           TYP  RCUT    TYP  RCUT                                                     
     0    -10.8127223     23  1.900                                                                 
     0     -7.6451159     23  1.900                                                                 
     1     -4.0811372     23  1.900                                                                 
     1      2.4879257     23  1.900                                                                 
     2     -4.0817478      7  1.900                                                                 
  local pseudopotential read in
  partial core-charges read in
  partial kinetic energy density read in
  atomic valenz-charges read in
  non local Contribution for L=           0  read in
    real space projection operators read in
  non local Contribution for L=           0  read in
    real space projection operators read in
  non local Contribution for L=           1  read in
    real space projection operators read in
  non local Contribution for L=           1  read in
    real space projection operators read in
    PAW grid and wavefunctions read in
 
   number of l-projection  operators is LMAX  =           4
   number of lm-projection operators is LMMAX =           8
 
 Optimization of the real space projectors (new method)

 maximal supplied QI-value         = 19.84
 optimisation between [QCUT,QGAM] = [ 10.12, 20.44] = [ 28.68,116.96] Ry 
 Optimized for a Real-space Cutoff    1.38 Angstroem

   l    n(q)    QCUT    max X(q) W(low)/X(q) W(high)/X(q)  e(spline) 
   0      8    10.119   159.560    0.58E-04    0.11E-03    0.54E-07
   0      8    10.119   115.863    0.56E-04    0.11E-03    0.54E-07
   1      8    10.119    88.339    0.22E-03    0.17E-03    0.19E-06
   1      8    10.119    48.592    0.22E-03    0.17E-03    0.18E-06
 -----------------------------------------------------------------------------
|                                                                             |
|               ----> ADVICE to this user running VASP <----                  |
|                                                                             |
|     You enforced a specific xc type in the INCAR file but a different       |
|     type was found in the POTCAR file.                                      |
|     I HOPE YOU KNOW WHAT YOU ARE DOING!                                     |
|                                                                             |
 -----------------------------------------------------------------------------

  PAW_PBE Si 05Jan2001                  :
 energy of atom  1       EATOM= -103.0669
 kinetic energy error for atom=    0.0012 (will be added to EATOM!!)
 
 
 POSCAR: Si8
  positions in direct lattice
  velocities in cartesian coordinates


 exchange-correlation table for PS
   RHO(1)=    0.500       N(1)  =     2000
   RHO(2)=  100.500       N(2)  =     4000
 


--------------------------------------------------------------------------------------------------------


 ion  position               nearest neighbor table
   1  0.000  0.000  0.000-  15 2.29  57 2.29  44 2.30  30 2.30
   2  0.000  0.000  0.500-  16 2.29  58 2.29  43 2.30  29 2.30
   3  0.000  0.500  0.000-  13 2.29  59 2.29  42 2.30  32 2.30
   4  0.000  0.500  0.500-  14 2.29  60 2.29  41 2.30  31 2.30
   5  0.500  0.000  0.000-  11 2.29  61 2.29  48 2.30  26 2.30
   6  0.500  0.000  0.500-  12 2.29  62 2.29  47 2.30  25 2.30
   7  0.500  0.500  0.000-   9 2.29  63 2.29  46 2.30  28 2.30
   8  0.500  0.500  0.500-  10 2.29  64 2.29  45 2.30  27 2.30
   9  0.375  0.375  0.125-   7 2.29  49 2.29  35 2.30  21 2.30
  10  0.375  0.375  0.625-   8 2.29  50 2.29  36 2.30  22 2.30
  11  0.375  0.875  0.125-   5 2.29  51 2.29  33 2.30  23 2.30
  12  0.375  0.875  0.625-   6 2.29  52 2.29  34 2.30  24 2.30
  13  0.875  0.375  0.125-   3 2.29  53 2.29  39 2.30  17 2.30
  14  0.875  0.375  0.625-   4 2.29  54 2.29  40 2.30  18 2.30
  15  0.875  0.875  0.125-   1 2.29  55 2.29  37 2.30  19 2.30
  16  0.875  0.875  0.625-   2 2.29  56 2.29  38 2.30  20 2.30
  17  0.000  0.250  0.250-  29 2.29  41 2.29  13 2.30  57 2.30
  18  0.000  0.250  0.750-  30 2.29  42 2.29  14 2.30  58 2.30
  19  0.000  0.750  0.250-  31 2.29  43 2.29  15 2.30  59 2.30
  20  0.000  0.750  0.750-  32 2.29  44 2.29  16 2.30  60 2.30
  21  0.500  0.250  0.250-  25 2.29  45 2.29   9 2.30  61 2.30
  22  0.500  0.250  0.750-  26 2.29  46 2.29  10 2.30  62 2.30
  23  0.500  0.750  0.250-  27 2.29  47 2.29  11 2.30  63 2.30
  24  0.500  0.750  0.750-  28 2.29  48 2.29  12 2.30  64 2.30
  25  0.375  0.125  0.375-  21 2.29  33 2.29   6 2.30  50 2.30
  26  0.375  0.125  0.875-  22 2.29  34 2.29   5 2.30  49 2.30
  27  0.375  0.625  0.375-  23 2.29  35 2.29   8 2.30  52 2.30
  28  0.375  0.625  0.875-  24 2.29  36 2.29   7 2.30  51 2.30
  29  0.875  0.125  0.375-  17 2.29  37 2.29   2 2.30  54 2.30
  30  0.875  0.125  0.875-  18 2.29  38 2.29   1 2.30  53 2.30
  31  0.875  0.625  0.375-  19 2.29  39 2.29   4 2.30  56 2.30
  32  0.875  0.625  0.875-  20 2.29  40 2.29   3 2.30  55 2.30
  33  0.250  0.000  0.250-  25 2.29  43 2.29  11 2.30  57 2.30
  34  0.250  0.000  0.750-  26 2.29  44 2.29  12 2.30  58 2.30
  35  0.250  0.500  0.250-  27 2.29  41 2.29   9 2.30  59 2.30
  36  0.250  0.500  0.750-  28 2.29  42 2.29  10 2.30  60 2.30
  37  0.750  0.000  0.250-  29 2.29  47 2.29  15 2.30  61 2.30
  38  0.750  0.000  0.750-  30 2.29  48 2.29  16 2.30  62 2.30
  39  0.750  0.500  0.250-  31 2.29  45 2.29  13 2.30  63 2.30
  40  0.750  0.500  0.750-  32 2.29  46 2.29  14 2.30  64 2.30
  41  0.125  0.375  0.375-  17 2.29  35 2.29   4 2.30  50 2.30
  42  0.125  0.375  0.875-  18 2.29  36 2.29   3 2.30  49 2.30
  43  0.125  0.875  0.375-  19 2.29  33 2.29   2 2.30  52 2.30
  44  0.125  0.875  0.875-  20 2.29  34 2.29   1 2.30  51 2.30
  45  0.625  0.375  0.375-  21 2.29  39 2.29   8 2.30  54 2.30
  46  0.625  0.375  0.875-  22 2.29  40 2.29   7 2.30  53 2.30
  47  0.625  0.875  0.375-  23 2.29  37 2.29   6 2.30  56 2.30
  48  0.625  0.875  0.875-  24 2.29  38 2.29   5 2.30  55 2.30
  49  0.250  0.250  0.000-   9 2.29  57 2.29  42 2.30  26 2.30
  50  0.250  0.250  0.500-  10 2.29  58 2.29  41 2.30  25 2.30
  51  0.250  0.750  0.000-  11 2.29  59 2.29  44 2.30  28 2.30
  52  0.250  0.750  0.500-  12 2.29  60 2.29  43 2.30  27 2.30
  53  0.750  0.250  0.000-  13 2.29  61 2.29  46 2.30  30 2.30
  54  0.750  0.250  0.500-  14 2.29  62 2.29  45 2.30  29 2.30
  55  0.750  0.750  0.000-  15 2.29  63 2.29  48 2.30  32 2.30
  56  0.750  0.750  0.500-  16 2.29  64 2.29  47 2.30  31 2.30
  57  0.125  0.125  0.125-   1 2.29  49 2.29  33 2.30  17 2.30
  58  0.125  0.125  0.625-   2 2.29  50 2.29  34 2.30  18 2.30
  59  0.125  0.625  0.125-   3 2.29  51 2.29  35 2.30  19 2.30
  60  0.125  0.625  0.625-   4 2.29  52 2.29  36 2.30  20 2.30
  61  0.625  0.125  0.125-   5 2.29  53 2.29  37 2.30  21 2.30
  62  0.625  0.125  0.625-   6 2.29  54 2.29  38 2.30  22 2.30
  63  0.625  0.625  0.125-   7 2.29  55 2.29  39 2.30  23 2.30
  64  0.625  0.625  0.625-   8 2.29  56 2.29  40 2.30  24 2.30
 
  LATTYP: Found a simple monoclinic cell.
 ALAT       =    10.5326208820
 B/A-ratio  =     1.0100881528
 C/A-ratio  =     1.0101007787
 COS(beta)  =    -0.0100501815
  
  Lattice vectors:
  
 A1 = (  10.5324865554,  -0.0531940079,   0.0000000000)
 A2 = (   0.0000000000,   0.0000000000, -10.6388755712)
 A3 = (  -0.0531940079,  10.6388755712,   0.0000000000)


Analysis of symmetry for initial positions (statically):
=====================================================================
 Subroutine PRICEL returns following result:
 
  LATTYP: Found a base centered monoclinic cell.
 ALAT       =     5.2663104410
 B/A-ratio  =     1.0100881528
 C/A-ratio  =     0.7071068149
 COS(beta)  =    -0.6999284146
  
  Lattice vectors:
  
 A1 = (  -2.6331216389,   0.0132985020,  -2.6597188928)
 A2 = (  -2.6331216389,   0.0132985020,   2.6597188928)
 A3 = (   2.6198231369,   2.6464203908,  -0.0000000000)
 
  32 primitive cells build up your supercell.
 

 Routine SETGRP: Setting up the symmetry group for a 
 simple monoclinic supercell.


 Subroutine GETGRP returns: Found  4 space group operations
 (whereof  2 operations were pure point group operations)
 out of a pool of  4 trial point group operations.


The static configuration has the point symmetry C_2 .
 The point group associated with its full space group is C_2h.


Analysis of symmetry for dynamics (positions and initial velocities):
=====================================================================
 Subroutine PRICEL returns following result:
 
  LATTYP: Found a base centered monoclinic cell.
 ALAT       =     5.2663104410
 B/A-ratio  =     1.0100881528
 C/A-ratio  =     0.7071068149
 COS(beta)  =    -0.6999284146
  
  Lattice vectors:
  
 A1 = (  -2.6331216389,   0.0132985020,  -2.6597188928)
 A2 = (  -2.6331216389,   0.0132985020,   2.6597188928)
 A3 = (   2.6198231369,   2.6464203908,  -0.0000000000)
 
  32 primitive cells build up your supercell.
 

 Routine SETGRP: Setting up the symmetry group for a 
 simple monoclinic supercell.


 Subroutine GETGRP returns: Found  4 space group operations
 (whereof  2 operations were pure point group operations)
 out of a pool of  4 trial point group operations.


The dynamic configuration has the point symmetry C_2 .
 The point group associated with its full space group is C_2h.


 Subroutine INISYM returns: Found  4 space group operations
 (whereof  2 operations are pure point group operations),
 and found    32 'primitive' translations


----------------------------------------------------------------------------------------

                                     Primitive cell                                     

  volume of cell :      37.2530

  direct lattice vectors                    reciprocal lattice vectors
    -2.633121639  0.013298502 -2.659718893    -0.188944017  0.187045078 -0.187989791
    -2.633121639  0.013298502  2.659718893    -0.188944017  0.187045078  0.187989791
     2.619823137  2.646420391 -0.000000000     0.001898922  0.375989077  0.000000000

  length of vectors
     3.742674312  3.742674312  3.723844002     0.325616131  0.325616131  0.375993873

  position of ions in fractional coordinates (direct lattice)
     0.000000000  0.000000000  0.000000000
     0.750000000  0.250000000  0.500000000

  ion indices of the primitive-cell ions
   primitive index   ion index
                 1           1
                 2          15

----------------------------------------------------------------------------------------

 
 
 KPOINTS: Automatic mesh                          

Automatic generation of k-mesh.
 Grid dimensions read from file:
 generate k-points for:    2    2    2

 Generating k-lattice:

  Cartesian coordinates                     Fractional coordinates (reciprocal lattice)
     0.047473370  0.000237365  0.000000000     0.500000000 -0.000000000  0.000000000
     0.000237365  0.046998635  0.000000000    -0.000000000  0.500000000  0.000000000
     0.000000000  0.000000000  0.046997448     0.000000000  0.000000000  0.500000000

  Length of vectors
     0.047473963  0.046999234  0.046997448

  Shift w.r.t. Gamma in fractional coordinates (k-lattice)
     0.000000000  0.000000000  0.000000000

 
 Subroutine IBZKPT returns following result:
 ===========================================
 
 Found      8 irreducible k-points:
 
 Following reciprocal coordinates:
            Coordinates               Weight
  0.000000  0.000000  0.000000      1.000000
  0.500000 -0.000000  0.000000      1.000000
 -0.000000  0.500000  0.000000      1.000000
  0.500000  0.500000  0.000000      1.000000
  0.000000  0.000000  0.500000      1.000000
  0.500000 -0.000000  0.500000      1.000000
 -0.000000  0.500000  0.500000      1.000000
  0.500000  0.500000  0.500000      1.000000
 
 Following cartesian coordinates:
            Coordinates               Weight
  0.000000  0.000000  0.000000      1.000000
  0.047473  0.000237  0.000000      1.000000
  0.000237  0.046999  0.000000      1.000000
  0.047711  0.047236  0.000000      1.000000
  0.000000  0.000000  0.046997      1.000000
  0.047473  0.000237  0.046997      1.000000
  0.000237  0.046999  0.046997      1.000000
  0.047711  0.047236  0.046997      1.000000
 


--------------------------------------------------------------------------------------------------------




 Dimension of arrays:
   k-points           NKPTS =      8   k-points in BZ     NKDIM =      8   number of bands    NBANDS=    162
   number of dos      NEDOS =    301   number of ions     NIONS =     64
   non local maximal  LDIM  =      4   non local SUM 2l+1 LMDIM =      8
   total plane-waves  NPLWV = 343000
   max r-space proj   IRMAX =   3221   max aug-charges    IRDMAX=  77152
   dimension x,y,z NGX =    70 NGY =   70 NGZ =   70
   dimension x,y,z NGXF=   140 NGYF=  140 NGZF=  140
   support grid    NGXF=   280 NGYF=  280 NGZF=  280
   ions per type =              64
   NGX,Y,Z   is equivalent  to a cutoff of  11.05, 10.94, 10.94 a.u.
   NGXF,Y,Z  is equivalent  to a cutoff of  22.10, 21.88, 21.88 a.u.

 SYSTEM =  Si64                                    
 POSCAR =  Si8                                     

 Startparameter for this run:
   NWRITE =      2    write-flag & timer
   PREC   = accura    normal or accurate (medium, high low for compatibility)
   ISTART =      0    job   : 0-new  1-cont  2-samecut
   ICHARG =      2    charge: 1-file 2-atom 10-const
   ISPIN  =      1    spin polarized calculation?
   LNONCOLLINEAR =      F non collinear calculations
   LSORBIT =      F    spin-orbit coupling
   INIWAV =      1    electr: 0-lowe 1-rand  2-diag
   LASPH  =      F    aspherical Exc in radial PAW
 Electronic Relaxation 1
   ENCUT  =  400.0 eV  29.40 Ry    5.42 a.u.  17.18 17.35 17.35*2*pi/ulx,y,z
   ENINI  =  400.0     initial cutoff
   ENAUG  =  322.1 eV  augmentation charge cutoff
   NELM   =     60;   NELMIN=  8; NELMDL= -5     # of ELM steps 
   EDIFF  = 0.1E-05   stopping-criterion for ELM
   LREAL  =      T    real-space projection
   NLSPLINE    = F    spline interpolate recip. space projectors
   LCOMPAT=      F    compatible to vasp.4.4
   GGA_COMPAT  = F    GGA compatible to vasp.4.4-vasp.4.6
   LMAXPAW     = -100 max onsite density
   LMAXMIX     =    2 max onsite mixed and CHGCAR
   VOSKOWN=      0    Vosko Wilk Nusair interpolation
   ROPT   =   -0.00025
 Ionic relaxation
   EDIFFG = -.1E-01   stopping-criterion for IOM
   NSW    =     60    number of steps for IOM
   NBLOCK =      1;   KBLOCK =     60    inner block; outer block 
   IBRION =      2    ionic relax: 0-MD 1-quasi-New 2-CG
   NFREE  =      1    steps in history (QN), initial steepest desc. (CG)
   ISIF   =      2    stress and relaxation
   IWAVPR =     11    prediction:  0-non 1-charg 2-wave 3-comb
   ISYM   =      2    0-nonsym 1-usesym 2-fastsym
   LCORR  =      T    Harris-Foulkes like correction to forces

   POTIM  = 0.5000    time-step for ionic-motion
   TEIN   =    0.0    initial temperature
   TEBEG  =    0.0;   TEEND  =   0.0 temperature during run
   SMASS  =  -3.00    Nose mass-parameter (am)
   estimated Nose-frequenzy (Omega)   =  0.10E-29 period in steps = 0.13E+47 mass=  -0.254E-26a.u.
   SCALEE = 1.0000    scale energy and forces
   NPACO  =    256;   APACO  = 10.0  distance and # of slots for P.C.
   PSTRESS=    0.0 pullay stress

  Mass of Ions in am
   POMASS =  28.09
  Ionic Valenz
   ZVAL   =   4.00
  Atomic Wigner-Seitz radii
   RWIGS  =  -1.00
  virtual crystal weights 
   VCA    =   1.00
   NELECT =     256.0000    total number of electrons
   NUPDOWN=      -1.0000    fix difference up-down

 DOS related values:
   EMIN   =  10.00;   EMAX   =-10.00  energy-range for DOS
   EFERMI =   0.00;   METHOD = LEGACY      
   ISMEAR =     1;   SIGMA  =   0.20  broadening in eV -4-tet -1-fermi 0-gaus

 Electronic relaxation 2 (details)
   IALGO  =     68    algorithm
   LDIAG  =      T    sub-space diagonalisation (order eigenvalues)
   LSUBROT=      F    optimize rotation matrix (better conditioning)
   TURBO    =      0    0=normal 1=particle mesh
   IRESTART =      0    0=no restart 2=restart with 2 vectors
   NREBOOT  =      0    no. of reboots
   NMIN     =      0    reboot dimension
   EREF     =   0.00    reference energy to select bands
   IMIX   =      4    mixing-type and parameters
     AMIX     =   0.40;   BMIX     =  1.00
     AMIX_MAG =   1.60;   BMIX_MAG =  1.00
     AMIN     =   0.10
     WC   =   100.;   INIMIX=   1;  MIXPRE=   1;  MAXMIX= -45

 Intra band minimization:
   WEIMIN = 0.0010     energy-eigenvalue tresh-hold
   EBREAK =  0.15E-08  absolut break condition
   DEPER  =   0.30     relativ break condition  

   TIME   =   0.40     timestep for ELM

  volume/ion in A,a.u.               =      18.63       125.70
  Fermi-wavevector in a.u.,A,eV,Ry     =   0.980357  1.852607 13.076563  0.961100
  Thomas-Fermi vector in A             =   2.111281
 
 Write flags
   LWAVE        =      F    write WAVECAR
   LDOWNSAMPLE  =      F    k-point downsampling of WAVECAR
   LCHARG       =      F    write CHGCAR
   LVTOT        =      F    write LOCPOT, total local potential
   LVHAR        =      F    write LOCPOT, Hartree potential only
   WRT_POTENTIAL= false  ! write potential to hdf5 file
   LELF         =      F    write electronic localiz. function (ELF)
   LORBIT       =      0    0 simple, 1 ext, 2 COOP (PROOUT), +10 PAW based schemes


 Dipole corrections
   LMONO      =      F    monopole corrections only (constant potential shift)
   LDIPOL     =      F    correct potential (dipole corrections)
   IDIPOL     =      0    1-x, 2-y, 3-z, 4-all directions 
   EPSILON    =  1.0000000 bulk dielectric constant
   LVACPOTAV  =      F  vacuum potentials using an averaging scheme for the charge density
   VACPOTFLAT =  0.1000000 required flatness to determine vacuum potential
 Exchange correlation treatment:
   GGA     = PS    functional components
   XC_C    = 1    coefficients multiplying the functional components
   LIBXC   =     F    Libxc                    
   VOSKOWN =     0    Vosko Wilk Nusair interpolation
   LHFCALC =     F    Hartree Fock is set to
   LHFONE  =     F    Hartree Fock one center treatment
   AEXX    =    0.0000 exact exchange contribution

 Parameters of functionals:
   PS:
     No parameter
 
 Van der Waals corrections
   IVDW    =     0    specifies the selected vdW correction

 Linear response parameters
   LEPSILON=     F    determine dielectric tensor
   LRPA    =     F    only Hartree local field effects (RPA)
   LNABLA  =     F    use nabla operator in PAW spheres
   LVEL    =     F    velocity operator in full k-point grid
   CSHIFT  =0.1000    complex shift for real part using Kramers Kronig
   OMEGAMAX=  -1.0    maximum frequency
   DEG_THRESHOLD= 0.2000000E-02 threshold for treating states as degnerate
   RTIME   =   -0.100 relaxation time in fs
  (WPLASMAI=    0.000 imaginary part of plasma frequency in eV, 0.658/RTIME)
   DFIELD  = 0.0000000 0.0000000 0.0000000 field for delta impulse in time
 
  Optional k-point grid parameters
   LKPOINTS_OPT  =     F    use optional k-point grid
   KPOINTS_OPT_MODE=     1    mode for optional k-point grid
 
 Orbital magnetization related:
   ORBITALMAG=     F  switch on orbital magnetization
   LCHIMAG   =     F  perturbation theory with respect to B field
   DQ        =  0.001000  dq finite difference perturbation B field
   LLRAUG    =     F  two centre corrections for induced B field
   LBONE     =     F  B-component reconstruction in AE one-centre
   LVGVCALC  =     T  calculate vGv susceptibility
   LVGVAPPL  =     F  apply vGv susceptibility instead of pGv for G=0

 Random number generation:
   RANDOM_GENERATOR = DEFAULT
   PCG_SEED         = not used


--------------------------------------------------------------------------------------------------------


 conjugate gradient relaxation of ions
 charge density and potential will be updated during run
 non-spin polarized calculation
 RMM-DIIS sequential band-by-band and
  variant of blocked Davidson during initial phase
 perform sub-space diagonalisation
    before iterative eigenvector-optimisation
 modified Broyden-mixing scheme, WC =      100.0
 initial mixing is a Kerker type mixing with AMIX =  0.4000 and BMIX =      1.0000
 Hartree-type preconditioning will be used
 using additional bands           34
 real space projection scheme for non local part
 use partial core corrections
 calculate Harris-corrections to forces 
   (improved forces if not selfconsistent)
 use gradient corrections 
 use of overlap-Matrix (Vanderbilt PP)
 Methfessel and Paxton  Order N= 1 SIGMA  =   0.20


--------------------------------------------------------------------------------------------------------


  energy-cutoff  :      400.00
  volume of cell :     1192.10
      direct lattice vectors                 reciprocal lattice vectors
    10.532486555 -0.053194008  0.000000000     0.094946739  0.000474730  0.000000000
    -0.053194008 10.638875571  0.000000000     0.000474730  0.093997269  0.000000000
     0.000000000  0.000000000 10.638875571     0.000000000  0.000000000  0.093994896

  length of vectors
    10.532620882 10.639008554 10.638875571     0.094947926  0.093998468  0.093994896


 
 k-points in units of 2pi/SCALE and weight: Automatic mesh                          
   0.00000000  0.00000000  0.00000000       0.125
   0.04747338  0.00023737  0.00000000       0.125
   0.00023737  0.04699864  0.00000000       0.125
   0.04771074  0.04723601  0.00000000       0.125
   0.00000000  0.00000000  0.04699745       0.125
   0.04747338  0.00023737  0.04699745       0.125
   0.00023737  0.04699864  0.04699745       0.125
   0.04771074  0.04723601  0.04699745       0.125
 
 k-points in reciprocal lattice and weights: Automatic mesh                          
   0.00000000  0.00000000  0.00000000       0.125
   0.50000000 -0.00000000  0.00000000       0.125
  -0.00000000  0.50000000  0.00000000       0.125
   0.50000000  0.50000000  0.00000000       0.125
   0.00000000  0.00000000  0.50000000       0.125
   0.50000000 -0.00000000  0.50000000       0.125
  -0.00000000  0.50000000  0.50000000       0.125
   0.50000000  0.50000000  0.50000000       0.125
 
 position of ions in fractional coordinates (direct lattice) 
   0.00000000  0.00000000  0.00000000
   0.00000000  0.00000000  0.50000000
   0.00000000  0.50000000  0.00000000
   0.00000000  0.50000000  0.50000000
   0.50000000  0.00000000  0.00000000
   0.50000000  0.00000000  0.50000000
   0.50000000  0.50000000  0.00000000
   0.50000000  0.50000000  0.50000000
   0.37500000  0.37500000  0.12500000
   0.37500000  0.37500000  0.62500000
   0.37500000  0.87500000  0.12500000
   0.37500000  0.87500000  0.62500000
   0.87500000  0.37500000  0.12500000
   0.87500000  0.37500000  0.62500000
   0.87500000  0.87500000  0.12500000
   0.87500000  0.87500000  0.62500000
   0.00000000  0.25000000  0.25000000
   0.00000000  0.25000000  0.75000000
   0.00000000  0.75000000  0.25000000
   0.00000000  0.75000000  0.75000000
   0.50000000  0.25000000  0.25000000
   0.50000000  0.25000000  0.75000000
   0.50000000  0.75000000  0.25000000
   0.50000000  0.75000000  0.75000000
   0.37500000  0.12500000  0.37500000
   0.37500000  0.12500000  0.87500000
   0.37500000  0.62500000  0.37500000
   0.37500000  0.62500000  0.87500000
   0.87500000  0.12500000  0.37500000
   0.87500000  0.12500000  0.87500000
   0.87500000  0.62500000  0.37500000
   0.87500000  0.62500000  0.87500000
   0.25000000  0.00000000  0.25000000
   0.25000000  0.00000000  0.75000000
   0.25000000  0.50000000  0.25000000
   0.25000000  0.50000000  0.75000000
   0.75000000  0.00000000  0.25000000
   0.75000000  0.00000000  0.75000000
   0.75000000  0.50000000  0.25000000
   0.75000000  0.50000000  0.75000000
   0.12500000  0.37500000  0.37500000
   0.12500000  0.37500000  0.87500000
   0.12500000  0.87500000  0.37500000
   0.12500000  0.87500000  0.87500000
   0.62500000  0.37500000  0.37500000
   0.62500000  0.37500000  0.87500000
   0.62500000  0.87500000  0.37500000
   0.62500000  0.87500000  0.87500000
   0.25000000  0.25000000  0.00000000
   0.25000000  0.25000000  0.50000000
   0.25000000  0.75000000  0.00000000
   0.25000000  0.75000000  0.50000000
   0.75000000  0.25000000  0.00000000
   0.75000000  0.25000000  0.50000000
   0.75000000  0.75000000  0.00000000
   0.75000000  0.75000000  0.50000000
   0.12500000  0.12500000  0.12500000
   0.12500000  0.12500000  0.62500000
   0.12500000  0.62500000  0.12500000
   0.12500000  0.62500000  0.62500000
   0.62500000  0.12500000  0.12500000
   0.62500000  0.12500000  0.62500000
   0.62500000  0.62500000  0.12500000
   0.62500000  0.62500000  0.62500000
 
 position of ions in cartesian coordinates  (Angst):
   0.00000000  0.00000000  0.00000000
   0.00000000  0.00000000  5.31943779
  -0.02659700  5.31943779  0.00000000
  -0.02659700  5.31943779  5.31943779
   5.26624328 -0.02659700  0.00000000
   5.26624328 -0.02659700  5.31943779
   5.23964627  5.29284078  0.00000000
   5.23964627  5.29284078  5.31943779
   3.92973471  3.96963059  1.32985945
   3.92973471  3.96963059  6.64929723
   3.90313770  9.28906837  1.32985945
   3.90313770  9.28906837  6.64929723
   9.19597798  3.94303358  1.32985945
   9.19597798  3.94303358  6.64929723
   9.16938098  9.26247137  1.32985945
   9.16938098  9.26247137  6.64929723
  -0.01329850  2.65971889  2.65971889
  -0.01329850  2.65971889  7.97915668
  -0.03989551  7.97915668  2.65971889
  -0.03989551  7.97915668  7.97915668
   5.25294478  2.63312189  2.65971889
   5.25294478  2.63312189  7.97915668
   5.22634777  7.95255967  2.65971889
   5.22634777  7.95255967  7.97915668
   3.94303321  1.30991169  3.98957834
   3.94303321  1.30991169  9.30901612
   3.91643620  6.62934948  3.98957834
   3.91643620  6.62934948  9.30901612
   9.20927649  1.28331469  3.98957834
   9.20927649  1.28331469  9.30901612
   9.18267948  6.60275248  3.98957834
   9.18267948  6.60275248  9.30901612
   2.63312164 -0.01329850  2.65971889
   2.63312164 -0.01329850  7.97915668
   2.60652463  5.30613928  2.65971889
   2.60652463  5.30613928  7.97915668
   7.89936492 -0.03989551  2.65971889
   7.89936492 -0.03989551  7.97915668
   7.87276791  5.27954228  2.65971889
   7.87276791  5.27954228  7.97915668
   1.29661307  3.98292909  3.98957834
   1.29661307  3.98292909  9.30901612
   1.27001606  9.30236687  3.98957834
   1.27001606  9.30236687  9.30901612
   6.56285634  3.95633208  3.98957834
   6.56285634  3.95633208  9.30901612
   6.53625934  9.27576987  3.98957834
   6.53625934  9.27576987  9.30901612
   2.61982314  2.64642039  0.00000000
   2.61982314  2.64642039  5.31943779
   2.59322613  7.96585818  0.00000000
   2.59322613  7.96585818  5.31943779
   7.88606641  2.61982339  0.00000000
   7.88606641  2.61982339  5.31943779
   7.85946941  7.93926117  0.00000000
   7.85946941  7.93926117  5.31943779
   1.30991157  1.32321020  1.32985945
   1.30991157  1.32321020  6.64929723
   1.28331456  6.64264798  1.32985945
   1.28331456  6.64264798  6.64929723
   6.57615485  1.29661319  1.32985945
   6.57615485  1.29661319  6.64929723
   6.54955784  6.61605098  1.32985945
   6.54955784  6.61605098  6.64929723
 


--------------------------------------------------------------------------------------------------------


 k-point     1 :   0.0000 0.0000 0.0000  plane waves:   21705
 k-point     2 :   0.5000-0.0000 0.0000  plane waves:   21648
 k-point     3 :  -0.0000 0.5000 0.0000  plane waves:   21648
 k-point     4 :   0.5000 0.5000 0.0000  plane waves:   21648
 k-point     5 :   0.0000 0.0000 0.5000  plane waves:   21622
 k-point     6 :   0.5000-0.0000 0.5000  plane waves:   21636
 k-point     7 :  -0.0000 0.5000 0.5000  plane waves:   21600
 k-point     8 :   0.5000 0.5000 0.5000  plane waves:   21680

 maximum and minimum number of plane-waves per node :      1836     1778

 maximum number of plane-waves:     21705
 maximum index in each direction: 
   IXMAX=   17   IYMAX=   17   IZMAX=   17
   IXMIN=  -17   IYMIN=  -17   IZMIN=  -17


 real space projection operators:
  total allocation   :      12320.50 KBytes
  max/ min on nodes  :       1066.00        892.75


 parallel 3D FFT for wavefunctions:
    minimum data exchange during FFTs selected (reduces bandwidth)
 parallel 3D FFT for charge:
    minimum data exchange during FFTs selected (reduces bandwidth)


 total amount of memory used by VASP MPI-rank0    78872. kBytes
=======================================================================

   base      :      30000. kBytes
   nonlr-proj:       4760. kBytes
   fftplans  :      17991. kBytes
   grid      :       6881. kBytes
   one-center:         18. kBytes
   wavefun   :      19222. kBytes
 
     INWAV:  cpu time      0.0000: real time      0.0000
 Broyden mixing: mesh for mixing (old mesh)
   NGX = 35   NGY = 35   NGZ = 35
  (NGX  =140   NGY  =140   NGZ  =140)
  gives a total of  42875 points

 initial charge density was supplied:
 charge density of overlapping atoms calculated
 number of electron     256.0000000 magnetization 
 keeping initial charge density in first step


--------------------------------------------------------------------------------------------------------


 Maximum index for non-local projection operator          288
 Maximum index for augmentation-charges         3823 (set IRDMAX)


--------------------------------------------------------------------------------------------------------


 First call to EWALD:  gamma=   0.167
 Maximum number of real-space cells 3x 3x 3
 Maximum number of reciprocal cells 3x 3x 3

    FEWALD:  cpu time      0.0049: real time      0.0049


--------------------------------------- Ionic step        1  -------------------------------------------




--------------------------------------- Iteration      1(   1)  ---------------------------------------


    POTLOK:  cpu time      0.0908: real time      0.0997
    SETDIJ:  cpu time      0.0869: real time      0.0874
     EDDAV:  cpu time      1.2362: real time      1.3025
       DOS:  cpu time      0.0103: real time      0.0134
    --------------------------------------------
      LOOP:  cpu time      1.4242: real time      1.5029

 eigenvalue-minimisations  :  2592
 total energy-change (2. order) : 0.5746915E+03  (-0.8503888E+04)
 number of electron     256.0000000 magnetization 
 augmentation part      256.0000000 magnetization 

 Free energy of the ion-electron system (eV)
  ---------------------------------------------------
  alpha Z        PSCENC =       115.66528892
  Ewald energy   TEWEN  =     -7491.14399602
  -Hartree energ DENC   =      -318.42818561
  -exchange      EXHF   =         0.00000000
  -V(xc)+E(xc)   XCENC  =      -549.98729980
  PAW double counting   =      5598.62625415    -4492.17844134
  entropy T*S    EENTRO =         0.03698400
  eigenvalues    EBANDS =      1147.30500064
  atomic energy  EATOM  =      6564.79586099
  Solvation  Ediel_sol  =         0.00000000
  ---------------------------------------------------
  free energy    TOTEN  =       574.69146594 eV

  energy without entropy =      574.65448193  energy(sigma->0) =      574.67913794


--------------------------------------------------------------------------------------------------------




--------------------------------------- Iteration      1(   2)  ---------------------------------------


     EDDAV:  cpu time      1.3176: real time      1.3273
       DOS:  cpu time      0.0013: real time      0.0013
    --------------------------------------------
      LOOP:  cpu time      1.3190: real time      1.3287

 eigenvalue-minimisations  :  3088
 total energy-change (2. order) :-0.8838994E+03  (-0.8389869E+03)
 number of electron     256.0000000 magnetization 
 augmentation part      256.0000000 magnetization 

 Free energy of the ion-electron system (eV)
  ---------------------------------------------------
  alpha Z        PSCENC =       115.66528892
  Ewald energy   TEWEN  =     -7491.14399602
  -Hartree energ DENC   =      -318.42818561
  -exchange      EXHF   =         0.00000000
  -V(xc)+E(xc)   XCENC  =      -549.98729980
  PAW double counting   =      5598.62625415    -4492.17844134
  entropy T*S    EENTRO =         0.00967113
  eigenvalues    EBANDS =       263.43287585
  atomic energy  EATOM  =      6564.79586099
  Solvation  Ediel_sol  =         0.00000000
  ---------------------------------------------------
  free energy    TOTEN  =      -309.20797172 eV

  energy without entropy =     -309.21764285  energy(sigma->0) =     -309.21119543


--------------------------------------------------------------------------------------------------------




--------------------------------------- Iteration      1(   3)  ---------------------------------------


     EDDAV:  cpu time      1.3513: real time      1.3673
       DOS:  cpu time      0.0017: real time      0.0017
    --------------------------------------------
      LOOP:  cpu time      1.3530: real time      1.3691

 eigenvalue-minimisations  :  3160
 total energy-change (2. order) :-0.6316514E+02  (-0.6188729E+02)
 number of electron     256.0000000 magnetization 
 augmentation part      256.0000000 magnetization 

 Free energy of the ion-electron system (eV)
  ---------------------------------------------------
  alpha Z        PSCENC =       115.66528892
  Ewald energy   TEWEN  =     -7491.14399602
  -Hartree energ DENC   =      -318.42818561
  -exchange      EXHF   =         0.00000000
  -V(xc)+E(xc)   XCENC  =      -549.98729980
  PAW double counting   =      5598.62625415    -4492.17844134
  entropy T*S    EENTRO =         0.00716943
  eigenvalues    EBANDS =       200.27023869
  atomic energy  EATOM  =      6564.79586099
  Solvation  Ediel_sol  =         0.00000000
  ---------------------------------------------------
  free energy    TOTEN  =      -372.37311058 eV

  energy without entropy =     -372.38028001  energy(sigma->0) =     -372.37550039


--------------------------------------------------------------------------------------------------------




--------------------------------------- Iteration      1(   4)  ---------------------------------------


     EDDAV:  cpu time      1.3140: real time      1.3308
       DOS:  cpu time      0.0014: real time      0.0014
    --------------------------------------------
      LOOP:  cpu time      1.3154: real time      1.3322

 eigenvalue-minimisations  :  3120
 total energy-change (2. order) :-0.1617710E+01  (-0.1605265E+01)
 number of electron     256.0000000 magnetization 
 augmentation part      256.0000000 magnetization 

 Free energy of the ion-electron system (eV)
  ---------------------------------------------------
  alpha Z        PSCENC =       115.66528892
  Ewald energy   TEWEN  =     -7491.14399602
  -Hartree energ DENC   =      -318.42818561
  -exchange      EXHF   =         0.00000000
  -V(xc)+E(xc)   XCENC  =      -549.98729980
  PAW double counting   =      5598.62625415    -4492.17844134
  entropy T*S    EENTRO =         0.00824976
  eigenvalues    EBANDS =       198.65144876
  atomic energy  EATOM  =      6564.79586099
  Solvation  Ediel_sol  =         0.00000000
  ---------------------------------------------------
  free energy    TOTEN  =      -373.99082018 eV

  energy without entropy =     -373.99906994  energy(sigma->0) =     -373.99357010


--------------------------------------------------------------------------------------------------------




--------------------------------------- Iteration      1(   5)  ---------------------------------------


     EDDAV:  cpu time      1.2937: real time      1.3142
       DOS:  cpu time      0.0012: real time      0.0012
    CHARGE:  cpu time      0.2491: real time      0.2521
    MIXING:  cpu time      0.0118: real time      0.0128
    --------------------------------------------
      LOOP:  cpu time      1.5558: real time      1.5804

 eigenvalue-minimisations  :  3112
 total energy-change (2. order) :-0.5071960E-01  (-0.5058972E-01)
 number of electron     255.9999998 magnetization 
 augmentation part      -15.1387833 magnetization 

 Broyden mixing:
  rms(total) = 0.30885E+01    rms(broyden)= 0.30885E+01
  rms(prec ) = 0.33997E+01
  weight for this iteration     100.00

 Free energy of the ion-electron system (eV)
  ---------------------------------------------------
  alpha Z        PSCENC =       115.66528892
  Ewald energy   TEWEN  =     -7491.14399602
  -Hartree energ DENC   =      -318.42818561
  -exchange      EXHF   =         0.00000000
  -V(xc)+E(xc)   XCENC  =      -549.98729980
  PAW double counting   =      5598.62625415    -4492.17844134
  entropy T*S    EENTRO =         0.00822981
  eigenvalues    EBANDS =       198.60074911
  atomic energy  EATOM  =      6564.79586099
  Solvation  Ediel_sol  =         0.00000000
  ---------------------------------------------------
  free energy    TOTEN  =      -374.04153978 eV

  energy without entropy =     -374.04976959  energy(sigma->0) =     -374.04428305


--------------------------------------------------------------------------------------------------------




--------------------------------------- Iteration      1(   6)  ---------------------------------------


    POTLOK:  cpu time      0.0742: real time      0.0889
    SETDIJ:  cpu time      0.0711: real time      0.0713
    EDDIAG:  cpu time      0.1377: real time      0.1410
  RMM-DIIS:  cpu time      0.6991: real time      0.7055
    ORTHCH:  cpu time      0.0196: real time      0.0196
       DOS:  cpu time      0.0017: real time      0.0017
    CHARGE:  cpu time      0.2347: real time      0.2352
    MIXING:  cpu time      0.0068: real time      0.0087
    --------------------------------------------
      LOOP:  cpu time      1.2448: real time      1.2720

 eigenvalue-minimisations  :  2592
 total energy-change (2. order) : 0.6137483E+01  (-0.3234804E+00)
 number of electron     255.9999998 magnetization 
 augmentation part      -14.9493808 magnetization 

 Broyden mixing:
  rms(total) = 0.18644E+01    rms(broyden)= 0.18644E+01
  rms(prec ) = 0.20383E+01
  weight for this iteration     100.00

 eigenvalues of (default mixing * dielectric matrix)
  average eigenvalue GAMMA=   2.5166
  2.5166

 Free energy of the ion-electron system (eV)
  ---------------------------------------------------
  alpha Z        PSCENC =       115.66528892
  Ewald energy   TEWEN  =     -7491.14399602
  -Hartree energ DENC   =      -368.26191566
  -exchange      EXHF   =         0.00000000
  -V(xc)+E(xc)   XCENC  =      -542.08631964
  PAW double counting   =     13390.21074294   -12287.83870187
  entropy T*S    EENTRO =         0.02282834
  eigenvalues    EBANDS =       250.73215515
  atomic energy  EATOM  =      6564.79586099
  Solvation  Ediel_sol  =         0.00000000
  ---------------------------------------------------
  free energy    TOTEN  =      -367.90405683 eV

  energy without entropy =     -367.92688518  energy(sigma->0) =     -367.91166628


--------------------------------------------------------------------------------------------------------




--------------------------------------- Iteration      1(   7)  ---------------------------------------


    POTLOK:  cpu time      0.0729: real time      0.0884
    SETDIJ:  cpu time      0.0714: real time      0.0716
    EDDIAG:  cpu time      0.1312: real time      0.1326
  RMM-DIIS:  cpu time      0.6932: real time      0.6955
    ORTHCH:  cpu time      0.0208: real time      0.0208
       DOS:  cpu time      0.0014: real time      0.0014
    CHARGE:  cpu time      0.2349: real time      0.2355
    MIXING:  cpu time      0.0070: real time      0.0071
    --------------------------------------------
      LOOP:  cpu time      1.2328: real time      1.2528

 eigenvalue-minimisations  :  2650
 total energy-change (2. order) : 0.2656136E+01  (-0.8140134E+00)
 number of electron     255.9999998 magnetization 
 augmentation part      -14.6819897 magnetization 

 Broyden mixing:
  rms(total) = 0.11945E+00    rms(broyden)= 0.11945E+00
  rms(prec ) = 0.14969E+00
  weight for this iteration     100.00

 eigenvalues of (default mixing * dielectric matrix)
  average eigenvalue GAMMA=   2.3035
  2.3035  2.3035

 Free energy of the ion-electron system (eV)
  ---------------------------------------------------
  alpha Z        PSCENC =       115.66528892
  Ewald energy   TEWEN  =     -7491.14399602
  -Hartree energ DENC   =      -450.23003020
  -exchange      EXHF   =         0.00000000
  -V(xc)+E(xc)   XCENC  =      -528.50041006
  PAW double counting   =     32764.56539553   -31667.92704650
  entropy T*S    EENTRO =         0.02585361
  eigenvalues    EBANDS =       327.50116298
  atomic energy  EATOM  =      6564.79586099
  Solvation  Ediel_sol  =         0.00000000
  ---------------------------------------------------
  free energy    TOTEN  =      -365.24792074 eV

  energy without entropy =     -365.27377435  energy(sigma->0) =     -365.25653861


--------------------------------------------------------------------------------------------------------




--------------------------------------- Iteration      1(   8)  ---------------------------------------


    POTLOK:  cpu time      0.0722: real time      0.0896
    SETDIJ:  cpu time      0.0729: real time      0.0731
    EDDIAG:  cpu time      0.1365: real time      0.1368
  RMM-DIIS:  cpu time      0.7158: real time      0.7178
    ORTHCH:  cpu time      0.0206: real time      0.0223
       DOS:  cpu time      0.0015: real time      0.0015
    CHARGE:  cpu time      0.2448: real time      0.2616
    MIXING:  cpu time      0.0047: real time      0.0047
    --------------------------------------------
      LOOP:  cpu time      1.2690: real time      1.3073

 eigenvalue-minimisations  :  2614
 total energy-change (2. order) :-0.3357074E-01  (-0.7517128E-01)
 number of electron     255.9999998 magnetization 
 augmentation part      -14.7414516 magnetization 

 Broyden mixing:
  rms(total) = 0.54553E-01    rms(broyden)= 0.54553E-01
  rms(prec ) = 0.58443E-01
  weight for this iteration     100.00

 eigenvalues of (default mixing * dielectric matrix)
  average eigenvalue GAMMA=   2.0978
  2.5590  1.8673  1.8673

 Free energy of the ion-electron system (eV)
  ---------------------------------------------------
  alpha Z        PSCENC =       115.66528892
  Ewald energy   TEWEN  =     -7491.14399602
  -Hartree energ DENC   =      -440.86538749
  -exchange      EXHF   =         0.00000000
  -V(xc)+E(xc)   XCENC  =      -529.28712147
  PAW double counting   =     32564.34041219   -31466.59472199
  entropy T*S    EENTRO =         0.03058552
  eigenvalues    EBANDS =       317.77758787
  atomic energy  EATOM  =      6564.79586099
  Solvation  Ediel_sol  =         0.00000000
  ---------------------------------------------------
  free energy    TOTEN  =      -365.28149148 eV

  energy without entropy =     -365.31207700  energy(sigma->0) =     -365.29168665


--------------------------------------------------------------------------------------------------------




--------------------------------------- Iteration      1(   9)  ---------------------------------------


    POTLOK:  cpu time      0.0759: real time      0.0885
    SETDIJ:  cpu time      0.0716: real time      0.0721
    EDDIAG:  cpu time      0.1369: real time      0.1373
  RMM-DIIS:  cpu time      0.7127: real time      0.7168
    ORTHCH:  cpu time      0.0196: real time      0.0197
       DOS:  cpu time      0.0019: real time      0.0019
    CHARGE:  cpu time      0.2344: real time      0.2350
    MIXING:  cpu time      0.0061: real time      0.0061
    --------------------------------------------
      LOOP:  cpu time      1.2593: real time      1.2774

 eigenvalue-minimisations  :  2669
 total energy-change (2. order) :-0.2360215E-01  (-0.2275279E-01)
 number of electron     255.9999998 magnetization 
 augmentation part      -14.7260277 magnetization 

 Broyden mixing:
  rms(total) = 0.61393E-01    rms(broyden)= 0.61393E-01
  rms(prec ) = 0.69999E-01
  weight for this iteration     100.00

 eigenvalues of (default mixing * dielectric matrix)
  average eigenvalue GAMMA=   1.8797
  2.5497  2.2915  2.2915  0.3863

 Free energy of the ion-electron system (eV)
  ---------------------------------------------------
  alpha Z        PSCENC =       115.66528892
  Ewald energy   TEWEN  =     -7491.14399602
  -Hartree energ DENC   =      -444.38969231
  -exchange      EXHF   =         0.00000000
  -V(xc)+E(xc)   XCENC  =      -528.81827736
  PAW double counting   =     33005.75522654   -31908.32016673
  entropy T*S    EENTRO =         0.02955875
  eigenvalues    EBANDS =       321.12110358
  atomic energy  EATOM  =      6564.79586099
  Solvation  Ediel_sol  =         0.00000000
  ---------------------------------------------------
  free energy    TOTEN  =      -365.30509363 eV

  energy without entropy =     -365.33465238  energy(sigma->0) =     -365.31494655


--------------------------------------------------------------------------------------------------------




--------------------------------------- Iteration      1(  10)  ---------------------------------------


    POTLOK:  cpu time      0.0733: real time      0.0886
    SETDIJ:  cpu time      0.0711: real time      0.0713
    EDDIAG:  cpu time      0.1329: real time      0.1332
  RMM-DIIS:  cpu time      0.7246: real time      0.7286
    ORTHCH:  cpu time      0.0197: real time      0.0198
       DOS:  cpu time      0.0017: real time      0.0017
    CHARGE:  cpu time      0.2359: real time      0.2365
    MIXING:  cpu time      0.0061: real time      0.0061
    --------------------------------------------
      LOOP:  cpu time      1.2652: real time      1.2858

 eigenvalue-minimisations  :  2728
 total energy-change (2. order) :-0.4575429E-02  (-0.4061334E-02)
 number of electron     255.9999998 magnetization 
 augmentation part      -14.7321503 magnetization 

 Broyden mixing:
  rms(total) = 0.83760E-01    rms(broyden)= 0.83760E-01
  rms(prec ) = 0.91577E-01
  weight for this iteration     100.00

 eigenvalues of (default mixing * dielectric matrix)
  average eigenvalue GAMMA=   1.5891
  2.6658  2.2441  1.7891  0.6233  0.6233

 Free energy of the ion-electron system (eV)
  ---------------------------------------------------
  alpha Z        PSCENC =       115.66528892
  Ewald energy   TEWEN  =     -7491.14399602
  -Hartree energ DENC   =      -444.55878014
  -exchange      EXHF   =         0.00000000
  -V(xc)+E(xc)   XCENC  =      -528.79999217
  PAW double counting   =     33045.58129627   -31948.15373960
  entropy T*S    EENTRO =         0.02947499
  eigenvalues    EBANDS =       321.27491769
  atomic energy  EATOM  =      6564.79586099
  Solvation  Ediel_sol  =         0.00000000
  ---------------------------------------------------
  free energy    TOTEN  =      -365.30966906 eV

  energy without entropy =     -365.33914405  energy(sigma->0) =     -365.31949406


--------------------------------------------------------------------------------------------------------




--------------------------------------- Iteration      1(  11)  ---------------------------------------


    POTLOK:  cpu time      0.0765: real time      0.0876
    SETDIJ:  cpu time      0.0701: real time      0.0717
    EDDIAG:  cpu time      0.1308: real time      0.1311
  RMM-DIIS:  cpu time      0.6886: real time      0.6905
    ORTHCH:  cpu time      0.0201: real time      0.0202
       DOS:  cpu time      0.0014: real time      0.0014
    CHARGE:  cpu time      0.2328: real time      0.2359
    MIXING:  cpu time      0.0061: real time      0.0061
    --------------------------------------------
      LOOP:  cpu time      1.2262: real time      1.2443

 eigenvalue-minimisations  :  2592
 total energy-change (2. order) : 0.4722326E-02  (-0.1425740E-02)
 number of electron     255.9999998 magnetization 
 augmentation part      -14.7471856 magnetization 

 Broyden mixing:
  rms(total) = 0.63373E-01    rms(broyden)= 0.63373E-01
  rms(prec ) = 0.63965E-01
  weight for this iteration     100.00

 eigenvalues of (default mixing * dielectric matrix)
  average eigenvalue GAMMA=   1.4452
  2.5606  2.5606  1.3582  0.9964  0.8994  0.2961

 Free energy of the ion-electron system (eV)
  ---------------------------------------------------
  alpha Z        PSCENC =       115.66528892
  Ewald energy   TEWEN  =     -7491.14399602
  -Hartree energ DENC   =      -441.76416352
  -exchange      EXHF   =         0.00000000
  -V(xc)+E(xc)   XCENC  =      -529.01498573
  PAW double counting   =     32967.27153189   -31869.56937867
  entropy T*S    EENTRO =         0.03069559
  eigenvalues    EBANDS =       318.42419980
  atomic energy  EATOM  =      6564.79586099
  Solvation  Ediel_sol  =         0.00000000
  ---------------------------------------------------
  free energy    TOTEN  =      -365.30494673 eV

  energy without entropy =     -365.33564232  energy(sigma->0) =     -365.31517859


--------------------------------------------------------------------------------------------------------




--------------------------------------- Iteration      1(  12)  ---------------------------------------


    POTLOK:  cpu time      0.0726: real time      0.0888
    SETDIJ:  cpu time      0.0718: real time      0.0720
    EDDIAG:  cpu time      0.1310: real time      0.1313
  RMM-DIIS:  cpu time      0.6886: real time      0.6926
    ORTHCH:  cpu time      0.0207: real time      0.0207
       DOS:  cpu time      0.0012: real time      0.0012
    CHARGE:  cpu time      0.2340: real time      0.2346
    MIXING:  cpu time      0.0065: real time      0.0065
    --------------------------------------------
      LOOP:  cpu time      1.2265: real time      1.2477

 eigenvalue-minimisations  :  2617
 total energy-change (2. order) :-0.1789869E-03  (-0.1932221E-03)
 number of electron     255.9999998 magnetization 
 augmentation part      -14.7502172 magnetization 

 Broyden mixing:
  rms(total) = 0.62027E-01    rms(broyden)= 0.62027E-01
  rms(prec ) = 0.62419E-01
  weight for this iteration     100.00

 eigenvalues of (default mixing * dielectric matrix)
  average eigenvalue GAMMA=   1.4081
  2.5681  2.5681  1.6544  1.0084  0.9345  0.7313  0.3916

 Free energy of the ion-electron system (eV)
  ---------------------------------------------------
  alpha Z        PSCENC =       115.66528892
  Ewald energy   TEWEN  =     -7491.14399602
  -Hartree energ DENC   =      -441.63294591
  -exchange      EXHF   =         0.00000000
  -V(xc)+E(xc)   XCENC  =      -529.03907337
  PAW double counting   =     32886.74840392   -31789.05650049
  entropy T*S    EENTRO =         0.03072076
  eigenvalues    EBANDS =       318.32711547
  atomic energy  EATOM  =      6564.79586099
  Solvation  Ediel_sol  =         0.00000000
  ---------------------------------------------------
  free energy    TOTEN  =      -365.30512572 eV

  energy without entropy =     -365.33584648  energy(sigma->0) =     -365.31536597


--------------------------------------------------------------------------------------------------------




--------------------------------------- Iteration      1(  13)  ---------------------------------------


    POTLOK:  cpu time      0.0731: real time      0.0887
    SETDIJ:  cpu time      0.0713: real time      0.0714
    EDDIAG:  cpu time      0.1322: real time      0.1326
  RMM-DIIS:  cpu time      0.7300: real time      0.7339
    ORTHCH:  cpu time      0.0203: real time      0.0204
       DOS:  cpu time      0.0013: real time      0.0013
    CHARGE:  cpu time      0.2346: real time      0.2352
    MIXING:  cpu time      0.0066: real time      0.0066
    --------------------------------------------
      LOOP:  cpu time      1.2694: real time      1.2900

 eigenvalue-minimisations  :  2735
 total energy-change (2. order) :-0.7012203E-04  (-0.3724000E-04)
 number of electron     255.9999998 magnetization 
 augmentation part      -14.7508093 magnetization 

 Broyden mixing:
  rms(total) = 0.69619E-01    rms(broyden)= 0.69619E-01
  rms(prec ) = 0.69972E-01
  weight for this iteration     100.00

 eigenvalues of (default mixing * dielectric matrix)
  average eigenvalue GAMMA=   1.7376
  3.0866  3.0866  2.4447  2.1053  0.9944  0.8808  0.8808  0.4219

 Free energy of the ion-electron system (eV)
  ---------------------------------------------------
  alpha Z        PSCENC =       115.66528892
  Ewald energy   TEWEN  =     -7491.14399602
  -Hartree energ DENC   =      -441.66836569
  -exchange      EXHF   =         0.00000000
  -V(xc)+E(xc)   XCENC  =      -529.02820748
  PAW double counting   =     32948.90827717   -31851.21809175
  entropy T*S    EENTRO =         0.03072295
  eigenvalues    EBANDS =       318.35331506
  atomic energy  EATOM  =      6564.79586099
  Solvation  Ediel_sol  =         0.00000000
  ---------------------------------------------------
  free energy    TOTEN  =      -365.30519584 eV

  energy without entropy =     -365.33591879  energy(sigma->0) =     -365.31543682


--------------------------------------------------------------------------------------------------------




--------------------------------------- Iteration      1(  14)  ---------------------------------------


    POTLOK:  cpu time      0.0742: real time      0.0885
    SETDIJ:  cpu time      0.0716: real time      0.0718
    EDDIAG:  cpu time      0.1318: real time      0.1321
  RMM-DIIS:  cpu time      0.6892: real time      0.6928
    ORTHCH:  cpu time      0.0198: real time      0.0199
       DOS:  cpu time      0.0013: real time      0.0013
    CHARGE:  cpu time      0.2344: real time      0.2350
    MIXING:  cpu time      0.0064: real time      0.0065
    --------------------------------------------
      LOOP:  cpu time      1.2289: real time      1.2478

 eigenvalue-minimisations  :  2600
 total energy-change (2. order) : 0.1395428E-04  (-0.1027023E-04)
 number of electron     255.9999998 magnetization 
 augmentation part      -14.7510322 magnetization 

 Broyden mixing:
  rms(total) = 0.25406E-01    rms(broyden)= 0.25406E-01
  rms(prec ) = 0.25823E-01
  weight for this iteration     100.00

 eigenvalues of (default mixing * dielectric matrix)
  average eigenvalue GAMMA=   1.5008
  2.5682  2.5682  2.5163  1.9857  0.9297  0.9445  0.9445  0.4376  0.6129

 Free energy of the ion-electron system (eV)
  ---------------------------------------------------
  alpha Z        PSCENC =       115.66528892
  Ewald energy   TEWEN  =     -7491.14399602
  -Hartree energ DENC   =      -441.43866727
  -exchange      EXHF   =         0.00000000
  -V(xc)+E(xc)   XCENC  =      -529.08196220
  PAW double counting   =     32555.74474783   -31458.08125817
  entropy T*S    EENTRO =         0.03074890
  eigenvalues    EBANDS =       318.20405513
  atomic energy  EATOM  =      6564.79586099
  Solvation  Ediel_sol  =         0.00000000
  ---------------------------------------------------
  free energy    TOTEN  =      -365.30518189 eV

  energy without entropy =     -365.33593078  energy(sigma->0) =     -365.31543152


--------------------------------------------------------------------------------------------------------




--------------------------------------- Iteration      1(  15)  ---------------------------------------


    POTLOK:  cpu time      0.0776: real time      0.0898
    SETDIJ:  cpu time      0.0685: real time      0.0713
    EDDIAG:  cpu time      0.1316: real time      0.1319
  RMM-DIIS:  cpu time      0.7056: real time      0.7076
    ORTHCH:  cpu time      0.0198: real time      0.0199
       DOS:  cpu time      0.0013: real time      0.0013
    CHARGE:  cpu time      0.2330: real time      0.2349
    MIXING:  cpu time      0.0063: real time      0.0063
    --------------------------------------------
      LOOP:  cpu time      1.2438: real time      1.2631

 eigenvalue-minimisations  :  2633
 total energy-change (2. order) :-0.8226129E-04  (-0.4338999E-05)
 number of electron     255.9999998 magnetization 
 augmentation part      -14.7513416 magnetization 

 Broyden mixing:
  rms(total) = 0.24088E-01    rms(broyden)= 0.24088E-01
  rms(prec ) = 0.24342E-01
  weight for this iteration     100.00

 eigenvalues of (default mixing * dielectric matrix)
  average eigenvalue GAMMA=   1.4358
  2.6131  2.6131  2.3954  1.8248  1.0011  1.0011  0.8858  0.8000  0.8000  0.4231

 Free energy of the ion-electron system (eV)
  ---------------------------------------------------
  alpha Z        PSCENC =       115.66528892
  Ewald energy   TEWEN  =     -7491.14399602
  -Hartree energ DENC   =      -441.44563947
  -exchange      EXHF   =         0.00000000
  -V(xc)+E(xc)   XCENC  =      -529.07048730
  PAW double counting   =     32602.15905446   -31504.49023805
  entropy T*S    EENTRO =         0.03078615
  eigenvalues    EBANDS =       318.19410617
  atomic energy  EATOM  =      6564.79586099
  Solvation  Ediel_sol  =         0.00000000
  ---------------------------------------------------
  free energy    TOTEN  =      -365.30526415 eV

  energy without entropy =     -365.33605030  energy(sigma->0) =     -365.31552620


--------------------------------------------------------------------------------------------------------




--------------------------------------- Iteration      1(  16)  ---------------------------------------


    POTLOK:  cpu time      0.0745: real time      0.0897
    SETDIJ:  cpu time      0.0714: real time      0.0715
    EDDIAG:  cpu time      0.1327: real time      0.1330
  RMM-DIIS:  cpu time      0.6966: real time      0.7002
    ORTHCH:  cpu time      0.0205: real time      0.0205
       DOS:  cpu time      0.0027: real time      0.0027
    CHARGE:  cpu time      0.2415: real time      0.2420
    MIXING:  cpu time      0.0069: real time      0.0069
    --------------------------------------------
      LOOP:  cpu time      1.2466: real time      1.2666

 eigenvalue-minimisations  :  2592
 total energy-change (2. order) :-0.5283669E-04  (-0.2647013E-05)
 number of electron     255.9999998 magnetization 
 augmentation part      -14.7509382 magnetization 

 Broyden mixing:
  rms(total) = 0.19056E-01    rms(broyden)= 0.19056E-01
  rms(prec ) = 0.19167E-01
  weight for this iteration     100.00

 eigenvalues of (default mixing * dielectric matrix)
  average eigenvalue GAMMA=   1.5032
  2.6883  2.6883  2.2917  2.2917  1.2442  1.2442  0.9545  0.9545  0.8755  0.8755
  0.4262

 Free energy of the ion-electron system (eV)
  ---------------------------------------------------
  alpha Z        PSCENC =       115.66528892
  Ewald energy   TEWEN  =     -7491.14399602
  -Hartree energ DENC   =      -441.59019468
  -exchange      EXHF   =         0.00000000
  -V(xc)+E(xc)   XCENC  =      -529.05393070
  PAW double counting   =     32622.09783035   -31524.43058420
  entropy T*S    EENTRO =         0.03078589
  eigenvalues    EBANDS =       318.32362246
  atomic energy  EATOM  =      6564.79586099
  Solvation  Ediel_sol  =         0.00000000
  ---------------------------------------------------
  free energy    TOTEN  =      -365.30531698 eV

  energy without entropy =     -365.33610287  energy(sigma->0) =     -365.31557895


--------------------------------------------------------------------------------------------------------




--------------------------------------- Iteration      1(  17)  ---------------------------------------


    POTLOK:  cpu time      0.0777: real time      0.0915
    SETDIJ:  cpu time      0.0709: real time      0.0711
    EDDIAG:  cpu time      0.1349: real time      0.1353
  RMM-DIIS:  cpu time      0.6797: real time      0.6835
    ORTHCH:  cpu time      0.0203: real time      0.0203
       DOS:  cpu time      0.0015: real time      0.0015
    CHARGE:  cpu time      0.2372: real time      0.2378
    MIXING:  cpu time      0.0073: real time      0.0073
    --------------------------------------------
      LOOP:  cpu time      1.2295: real time      1.2484

 eigenvalue-minimisations  :  2591
 total energy-change (2. order) :-0.7508386E-05  (-0.7818847E-06)
 number of electron     255.9999998 magnetization 
 augmentation part      -14.7508715 magnetization 

 Broyden mixing:
  rms(total) = 0.51031E-02    rms(broyden)= 0.51031E-02
  rms(prec ) = 0.51814E-02
  weight for this iteration     100.00

 eigenvalues of (default mixing * dielectric matrix)
  average eigenvalue GAMMA=   1.6898
  2.9410  2.9410  2.1754  2.1754  2.5272  1.9857  0.9967  0.9967  1.0971  1.0971
  0.9190  0.4257

 Free energy of the ion-electron system (eV)
  ---------------------------------------------------
  alpha Z        PSCENC =       115.66528892
  Ewald energy   TEWEN  =     -7491.14399602
  -Hartree energ DENC   =      -441.56863306
  -exchange      EXHF   =         0.00000000
  -V(xc)+E(xc)   XCENC  =      -529.06528803
  PAW double counting   =     32521.55911995   -31423.89266724
  entropy T*S    EENTRO =         0.03080027
  eigenvalues    EBANDS =       318.31418971
  atomic energy  EATOM  =      6564.79586099
  Solvation  Ediel_sol  =         0.00000000
  ---------------------------------------------------
  free energy    TOTEN  =      -365.30532449 eV

  energy without entropy =     -365.33612476  energy(sigma->0) =     -365.31559125


--------------------------------------------------------------------------------------------------------




--------------------------------------- Iteration      1(  18)  ---------------------------------------


    POTLOK:  cpu time      0.0754: real time      0.0897
    SETDIJ:  cpu time      0.0715: real time      0.0716
    EDDIAG:  cpu time      0.1299: real time      0.1302
  RMM-DIIS:  cpu time      0.5220: real time      0.5257
    ORTHCH:  cpu time      0.0197: real time      0.0197
       DOS:  cpu time      0.0017: real time      0.0017
    CHARGE:  cpu time      0.2354: real time      0.2359
    MIXING:  cpu time      0.0068: real time      0.0068
    --------------------------------------------
      LOOP:  cpu time      1.0623: real time      1.0815

 eigenvalue-minimisations  :  1917
 total energy-change (2. order) :-0.4949870E-05  (-0.3614189E-06)
 number of electron     255.9999998 magnetization 
 augmentation part      -14.7507146 magnetization 

 Broyden mixing:
  rms(total) = 0.98113E-03    rms(broyden)= 0.98106E-03
  rms(prec ) = 0.10168E-02
  weight for this iteration     100.00

 eigenvalues of (default mixing * dielectric matrix)
  average eigenvalue GAMMA=   1.5880
  2.8888  2.8888  1.9187  1.9187  2.5243  2.0643  0.9832  0.9832  1.0630  1.0630
  0.9139  0.4257  1.0079

 Free energy of the ion-electron system (eV)
  ---------------------------------------------------
  alpha Z        PSCENC =       115.66528892
  Ewald energy   TEWEN  =     -7491.14399602
  -Hartree energ DENC   =      -441.59315841
  -exchange      EXHF   =         0.00000000
  -V(xc)+E(xc)   XCENC  =      -529.06406835
  PAW double counting   =     32505.60968687   -31407.94336135
  entropy T*S    EENTRO =         0.03080557
  eigenvalues    EBANDS =       318.33761233
  atomic energy  EATOM  =      6564.79586099
  Solvation  Ediel_sol  =         0.00000000
  ---------------------------------------------------
  free energy    TOTEN  =      -365.30532944 eV

  energy without entropy =     -365.33613502  energy(sigma->0) =     -365.31559797


--------------------------------------------------------------------------------------------------------




--------------------------------------- Iteration      1(  19)  ---------------------------------------


    POTLOK:  cpu time      0.0733: real time      0.0881
    SETDIJ:  cpu time      0.0709: real time      0.0711
    EDDIAG:  cpu time      0.1299: real time      0.1321
  RMM-DIIS:  cpu time      0.4462: real time      0.4473
    ORTHCH:  cpu time      0.0197: real time      0.0197
       DOS:  cpu time      0.0014: real time      0.0014
    --------------------------------------------
      LOOP:  cpu time      0.7414: real time      0.7596

 eigenvalue-minimisations  :  1565
 total energy-change (2. order) :-0.9688229E-06  (-0.9514276E-07)
 number of electron     255.9999998 magnetization 
 augmentation part      -14.7507146 magnetization 

 Free energy of the ion-electron system (eV)
  ---------------------------------------------------
  alpha Z        PSCENC =       115.66528892
  Ewald energy   TEWEN  =     -7491.14399602
  -Hartree energ DENC   =      -441.60970589
  -exchange      EXHF   =         0.00000000
  -V(xc)+E(xc)   XCENC  =      -529.06246664
  PAW double counting   =     32508.23217252   -31410.56587031
  entropy T*S    EENTRO =         0.03080601
  eigenvalues    EBANDS =       318.35258001
  atomic energy  EATOM  =      6564.79586099
  Solvation  Ediel_sol  =         0.00000000
  ---------------------------------------------------
  free energy    TOTEN  =      -365.30533041 eV

  energy without entropy =     -365.33613642  energy(sigma->0) =     -365.31559908


--------------------------------------------------------------------------------------------------------




 average (electrostatic) potential at core
  the test charge radii are     0.9892
  (the norm of the test charge is              1.0000)
       1 -82.2052       2 -82.2052       3 -82.2052       4 -82.2052       5 -82.2052
       6 -82.2052       7 -82.2052       8 -82.2052       9 -82.2052      10 -82.2052
      11 -82.2052      12 -82.2052      13 -82.2052      14 -82.2052      15 -82.2052
      16 -82.2052      17 -82.2052      18 -82.2052      19 -82.2052      20 -82.2052
      21 -82.2052      22 -82.2052      23 -82.2052      24 -82.2052      25 -82.2052
      26 -82.2052      27 -82.2052      28 -82.2052      29 -82.2052      30 -82.2052
      31 -82.2052      32 -82.2052      33 -82.2052      34 -82.2052      35 -82.2052
      36 -82.2052      37 -82.2052      38 -82.2052      39 -82.2052      40 -82.2052
      41 -82.2052      42 -82.2052      43 -82.2052      44 -82.2052      45 -82.2052
      46 -82.2052      47 -82.2052      48 -82.2052      49 -82.2052      50 -82.2052
      51 -82.2052      52 -82.2052      53 -82.2052      54 -82.2052      55 -82.2052
      56 -82.2052      57 -82.2052      58 -82.2052      59 -82.2052      60 -82.2052
      61 -82.2052      62 -82.2052      63 -82.2052      64 -82.2052
 
 
 
 E-fermi :   6.7503     XC(G=0):  -9.8318     alpha+bet :-12.8765

 val. band max:        6.6011899492   @ k =   0.0000   0.0000   0.0000
 cond. band min:       6.8638710873   @ k =   0.5000  -0.0000   0.0000
 fundamental gap:      0.2626811381
 Fermi energy:         6.7502676564

 k-point     1 :       0.0000    0.0000    0.0000
  band No.  band energies     occupation 
      1      -5.9572      2.00000
      2      -4.8089      2.00000
      3      -4.8089      2.00000
      4      -4.8087      2.00000
      5      -4.8087      2.00000
      6      -4.7885      2.00000
      7      -4.7885      2.00000
      8      -3.7876      2.00000
      9      -3.7876      2.00000
     10      -3.7716      2.00000
     11      -3.7716      2.00000
     12      -3.7716      2.00000
     13      -3.7716      2.00000
     14      -3.7569      2.00000
     15      -3.7569      2.00000
     16      -3.7569      2.00000
     17      -3.7569      2.00000
     18      -3.7256      2.00000
     19      -3.7256      2.00000
     20      -3.4524      2.00000
     21      -3.4524      2.00000
     22      -3.3810      2.00000
     23      -3.3810      2.00000
     24      -1.5895      2.00000
     25      -1.5485      2.00000
     26      -1.5485      2.00000
     27      -1.5085      2.00000
     28      -1.4823      2.00000
     29      -1.4823      2.00000
     30      -1.3823      2.00000
     31      -1.3823      2.00000
     32      -1.3601      2.00000
     33      -1.3601      2.00000
     34      -1.3129      2.00000
     35      -1.3129      2.00000
     36      -1.3129      2.00000
     37      -1.3129      2.00000
     38      -1.2872      2.00000
     39      -1.2872      2.00000
     40      -1.2657      2.00000
     41      -1.2657      2.00000
     42      -0.8328      2.00000
     43      -0.8328      2.00000
     44      -0.8210      2.00000
     45      -0.8210      2.00000
     46       0.8816      2.00000
     47       0.8816      2.00000
     48       0.8991      2.00000
     49       0.8991      2.00000
     50       0.8991      2.00000
     51       0.8992      2.00000
     52       0.9160      2.00000
     53       0.9160      2.00000
     54       0.9394      2.00000
     55       0.9394      2.00000
     56       0.9394      2.00000
     57       0.9394      2.00000
     58       2.3150      2.00000
     59       2.3150      2.00000
     60       2.3173      2.00000
     61       2.3173      2.00000
     62       2.3220      2.00000
     63       2.3220      2.00000
     64       2.3237      2.00000
     65       2.3237      2.00000
     66       2.3237      2.00000
     67       2.3238      2.00000
     68       2.3249      2.00000
     69       2.3249      2.00000
     70       2.4242      2.00000
     71       2.4242      2.00000
     72       2.4368      2.00000
     73       2.4368      2.00000
     74       2.4368      2.00000
     75       2.4368      2.00000
     76       2.4488      2.00000
     77       2.4488      2.00000
     78       2.4967      2.00000
     79       2.4967      2.00000
     80       2.4967      2.00000
     81       2.4967      2.00000
     82       3.0098      2.00000
     83       3.0098      2.00000
     84       3.0114      2.00000
     85       3.0114      2.00000
     86       3.0886      2.00000
     87       3.0886      2.00000
     88       3.4244      2.00000
     89       3.4244      2.00000
     90       3.4475      2.00000
     91       3.5069      2.00000
     92       3.5069      2.00000
     93       3.5667      2.00000
     94       4.4581      2.00000
     95       4.4581      2.00000
     96       4.4581      2.00000
     97       4.4581      2.00000
     98       4.4689      2.00000
     99       4.4689      2.00000
    100       4.5108      2.00000
    101       4.5108      2.00000
    102       4.5331      2.00000
    103       4.5331      2.00000
    104       4.5763      2.00000
    105       4.5763      2.00000
    106       5.0716      2.00000
    107       5.0716      2.00000
    108       5.0717      2.00000
    109       5.0717      2.00000
    110       5.1283      2.00000
    111       5.1283      2.00000
    112       5.1568      2.00000
    113       5.1568      2.00000
    114       5.1568      2.00000
    115       5.1568      2.00000
    116       5.1863      2.00000
    117       5.1864      2.00000
    118       5.2037      2.00000
    119       5.2037      2.00000
    120       5.2575      2.00000
    121       5.2575      2.00000
    122       5.3076      2.00000
    123       5.3076      2.00000
    124       5.3588      2.00000
    125       5.3588      2.00000
    126       6.5218      2.06859
    127       6.5243      2.06777
    128       6.6012      1.94946
    129       6.9290     -0.02055
    130       6.9290     -0.02055
    131       6.9510     -0.05105
    132       7.0127     -0.06883
    133       7.0127     -0.06883
    134       7.0754     -0.04379
    135       7.4540     -0.00001
    136       7.4540     -0.00001
    137       7.5361     -0.00000
    138       7.5361     -0.00000
    139       7.5363     -0.00000
    140       7.5363     -0.00000
    141       8.2164     -0.00000
    142       8.2164     -0.00000
    143       8.3124     -0.00000
    144       8.3125     -0.00000
    145       8.8732     -0.00000
    146       8.8733     -0.00000
    147       8.8734     -0.00000
    148       8.8752     -0.00000
    149       8.9376     -0.00000
    150       8.9384     -0.00000
    151       8.9710     -0.00000
    152       8.9716     -0.00000
    153       8.9717     -0.00000
    154       8.9786     -0.00000
    155       9.0031     -0.00000
    156       9.0075     -0.00000
    157       9.0098     -0.00000
    158       9.0962     -0.00000
    159       9.1785     -0.00000
    160       9.5412     -0.00000
    161       9.5644     -0.00000
    162       9.6082     -0.00000

 k-point     2 :       0.5000   -0.0000    0.0000
  band No.  band energies     occupation 
      1      -5.6624      2.00000
      2      -5.6624      2.00000
      3      -4.5538      2.00000
      4      -4.5538      2.00000
      5      -4.5385      2.00000
      6      -4.5385      2.00000
      7      -4.5385      2.00000
      8      -4.5385      2.00000
      9      -4.5228      2.00000
     10      -4.5228      2.00000
     11      -3.6361      2.00000
     12      -3.6361      2.00000
     13      -3.6361      2.00000
     14      -3.6361      2.00000
     15      -3.5937      2.00000
     16      -3.5937      2.00000
     17      -3.5937      2.00000
     18      -3.5937      2.00000
     19      -3.3705      2.00000
     20      -3.3705      2.00000
     21      -2.6281      2.00000
     22      -2.6281      2.00000
     23      -2.5837      2.00000
     24      -2.5837      2.00000
     25      -2.5837      2.00000
     26      -2.5837      2.00000
     27      -2.5387      2.00000
     28      -2.5387      2.00000
     29      -1.4928      2.00000
     30      -1.4928      2.00000
     31      -1.4783      2.00000
     32      -1.4783      2.00000
     33      -1.4180      2.00000
     34      -1.4180      2.00000
     35      -1.4044      2.00000
     36      -1.4044      2.00000
     37      -0.2469      2.00000
     38      -0.2469      2.00000
     39      -0.2142      2.00000
     40      -0.2142      2.00000
     41      -0.2142      2.00000
     42      -0.2142      2.00000
     43      -0.1830      2.00000
     44      -0.1830      2.00000
     45      -0.1462      2.00000
     46      -0.1462      2.00000
     47      -0.1462      2.00000
     48      -0.1462      2.00000
     49      -0.1343      2.00000
     50      -0.1343      2.00000
     51      -0.1343      2.00000
     52      -0.1343      2.00000
     53       0.7396      2.00000
     54       0.7396      2.00000
     55       1.9036      2.00000
     56       1.9036      2.00000
     57       1.9051      2.00000
     58       1.9051      2.00000
     59       1.9051      2.00000
     60       1.9051      2.00000
     61       1.9067      2.00000
     62       1.9067      2.00000
     63       2.1510      2.00000
     64       2.1510      2.00000
     65       2.1609      2.00000
     66       2.1609      2.00000
     67       2.1609      2.00000
     68       2.1609      2.00000
     69       2.1729      2.00000
     70       2.1729      2.00000
     71       2.7959      2.00000
     72       2.7959      2.00000
     73       2.8205      2.00000
     74       2.8205      2.00000
     75       2.8387      2.00000
     76       2.8387      2.00000
     77       2.8639      2.00000
     78       2.8639      2.00000
     79       3.5631      2.00000
     80       3.5631      2.00000
     81       3.5852      2.00000
     82       3.5852      2.00000
     83       3.5852      2.00000
     84       3.5852      2.00000
     85       3.6045      2.00000
     86       3.6045      2.00000
     87       3.6878      2.00000
     88       3.6878      2.00000
     89       3.6880      2.00000
     90       3.6880      2.00000
     91       3.7493      2.00000
     92       3.7493      2.00000
     93       3.7693      2.00000
     94       3.7693      2.00000
     95       3.7693      2.00000
     96       3.7693      2.00000
     97       3.7889      2.00000
     98       3.7889      2.00000
     99       3.9483      2.00000
    100       3.9483      2.00000
    101       3.9483      2.00000
    102       3.9483      2.00000
    103       4.0039      2.00000
    104       4.0039      2.00000
[...]
  0.000   0.000   4.168   0.000   0.000   7.764   0.000  -0.000
 -0.001  -0.001   0.000   4.168   0.000   0.000   7.764   0.000
  0.000   0.000   0.000   0.000   4.168  -0.000   0.000   7.764
  0.000   0.000   7.764   0.000  -0.000  14.474   0.000  -0.000
 -0.001  -0.002   0.000   7.764   0.000   0.000  14.474   0.000
  0.000   0.000  -0.000   0.000   7.764  -0.000   0.000  14.474
 total augmentation occupancy for first ion, spin component:           1
  6.562  -2.632  -0.000   0.027   0.000   0.000  -0.010   0.000
 -2.632   1.163   0.000  -0.014   0.000  -0.000   0.005  -0.000
 -0.000   0.000   3.219   0.000   0.001  -0.742  -0.000   0.001
  0.027  -0.014   0.000   3.219   0.000  -0.000  -0.742   0.000
  0.000   0.000   0.001  -0.000   3.198   0.001   0.000  -0.734
  0.000  -0.000  -0.742  -0.000   0.001   0.180   0.000  -0.000
 -0.010   0.005  -0.000  -0.742   0.000   0.000   0.180  -0.000
  0.000   0.000   0.001  -0.000  -0.734  -0.000   0.000   0.178


------------------------ aborting loop because EDIFF is reached ----------------------------------------


    CHARGE:  cpu time      0.2376: real time      0.2383
    FORLOC:  cpu time      0.0230: real time      0.0231
    FORNL :  cpu time      0.6740: real time      0.6817
    STRESS:  cpu time      2.1038: real time      2.1154
    FORCOR:  cpu time      0.0849: real time      0.0851
    FORHAR:  cpu time      0.0342: real time      0.0343
    MIXING:  cpu time      0.0206: real time      0.0208
    OFIELD:  cpu time      0.0001: real time      0.0001

  FORCE on cell =-STRESS in cart. coord.  units (eV):
  Direction    XX          YY          ZZ          XY          YZ          ZX
  --------------------------------------------------------------------------------------
  Alpha Z   115.66529   115.66529   115.66529
  Ewald   -2520.15678 -2485.63416 -2485.60053     4.96511     0.00000    -0.00000
  Hartree   143.60856   148.95187   148.89404     4.18112    -0.00000    -0.00000
  E(xc)    -831.92253  -832.24394  -832.25301    -0.01020    -0.00000    -0.00000
  Local    -872.00963  -912.88831  -912.95873   -10.12838    -0.00000    -0.00000
  n-local  2529.05939  2534.32297  2534.48716    -0.24381    -0.00000     0.00000
  augment  -369.96193  -369.95267  -369.96295    -0.33500     0.00000     0.00000
  Kinetic  1871.07945  1861.17530  1861.01383     7.20522     0.00000    -0.00000
  Fock        0.00000     0.00000     0.00000     0.00000     0.00000     0.00000
  -------------------------------------------------------------------------------------
  Total      65.36182    59.39636    59.28510     5.63405     0.00000     0.00000
  in kB      87.84627    79.82869    79.67916     7.57217     0.00000     0.00000
  external pressure =       82.45 kB  Pullay stress =        0.00 kB


 VOLUME and BASIS-vectors are now :
 -----------------------------------------------------------------------------
  energy-cutoff  :      400.00
  volume of cell :     1192.10
      direct lattice vectors                 reciprocal lattice vectors
    10.532486555 -0.053194008  0.000000000     0.094946739  0.000474730  0.000000000
    -0.053194008 10.638875571  0.000000000     0.000474730  0.093997269  0.000000000
     0.000000000  0.000000000 10.638875571     0.000000000  0.000000000  0.093994896

  length of vectors
    10.532620882 10.639008554 10.638875571     0.094947926  0.093998468  0.093994896


 FORCES acting on ions
    electron-ion (+dipol)            ewald-force                    non-local-force                 convergence-correction
 -----------------------------------------------------------------------------------------------
   -.173E-08 -.198E-08 0.844E+00   0.444E-14 0.133E-14 -.596E+00   0.428E-20 0.113E-19 -.248E+00   0.381E-13 -.689E-13 -.136E-04
   -.173E-08 -.198E-08 0.844E+00   0.444E-14 0.107E-13 -.596E+00   0.251E-20 -.171E-20 -.248E+00   -.992E-14 0.562E-13 -.136E-04
   -.173E-08 -.198E-08 0.844E+00   -.124E-13 0.666E-14 -.596E+00   -.676E-20 -.217E-20 -.248E+00   0.238E-13 0.649E-13 -.136E-04
   -.173E-08 -.198E-08 0.844E+00   0.355E-14 0.844E-14 -.596E+00   0.355E-20 -.753E-20 -.248E+00   -.383E-14 -.553E-13 -.136E-04
   -.173E-08 -.198E-08 0.844E+00   0.666E-15 0.755E-14 -.596E+00   -.715E-20 -.327E-20 -.248E+00   -.332E-13 -.651E-13 -.136E-04
   -.173E-08 -.198E-08 0.844E+00   0.222E-14 0.151E-13 -.596E+00   0.657E-20 -.115E-19 -.248E+00   0.137E-13 0.479E-13 -.136E-04
   -.173E-08 -.198E-08 0.844E+00   -.577E-14 0.124E-13 -.596E+00   0.271E-20 0.131E-19 -.248E+00   -.145E-13 0.578E-13 -.136E-04
   -.173E-08 -.198E-08 0.844E+00   -.355E-14 0.142E-13 -.596E+00   0.263E-20 0.233E-21 -.248E+00   0.613E-14 -.467E-13 -.136E-04
   0.341E-08 0.355E-08 -.844E+00   0.133E-14 0.169E-13 0.596E+00   -.302E-20 -.880E-20 0.248E+00   0.141E-13 -.286E-13 0.136E-04
   0.341E-08 0.355E-08 -.844E+00   0.178E-14 0.178E-13 0.596E+00   0.553E-20 0.341E-20 0.248E+00   -.390E-14 -.946E-14 0.136E-04
   0.341E-08 0.355E-08 -.844E+00   0.577E-14 0.133E-13 0.596E+00   -.424E-20 -.207E-20 0.248E+00   -.842E-14 0.191E-13 0.136E-04
   0.341E-08 0.355E-08 -.844E+00   0.711E-14 0.160E-13 0.596E+00   -.946E-20 -.145E-19 0.248E+00   -.394E-14 0.662E-14 0.136E-04
   0.341E-08 0.355E-08 -.844E+00   0.755E-14 0.977E-14 0.596E+00   -.599E-20 0.159E-20 0.248E+00   -.225E-13 0.746E-14 0.136E-04
   0.341E-08 0.355E-08 -.844E+00   0.213E-13 0.178E-13 0.596E+00   -.112E-19 -.114E-19 0.248E+00   0.858E-14 -.631E-13 0.136E-04
   0.341E-08 0.355E-08 -.844E+00   0.178E-13 0.164E-13 0.596E+00   -.356E-20 0.212E-20 0.248E+00   -.744E-15 -.181E-13 0.136E-04
   0.341E-08 0.355E-08 -.844E+00   0.249E-13 0.124E-13 0.596E+00   0.101E-19 0.108E-19 0.248E+00   0.156E-13 0.621E-13 0.136E-04
   -.173E-08 -.198E-08 0.844E+00   -.107E-13 -.488E-14 -.596E+00   -.252E-20 0.159E-20 -.248E+00   -.898E-14 -.296E-13 -.136E-04
   -.173E-08 -.198E-08 0.844E+00   -.888E-14 0.488E-14 -.596E+00   -.575E-20 -.595E-20 -.248E+00   0.245E-13 -.497E-13 -.136E-04
   -.173E-08 -.198E-08 0.844E+00   -.622E-14 0.113E-13 -.596E+00   0.366E-20 -.127E-19 -.248E+00   -.952E-15 0.297E-13 -.136E-04
   -.173E-08 -.198E-08 0.844E+00   0.622E-14 0.622E-14 -.596E+00   0.854E-21 -.259E-19 -.248E+00   0.143E-13 0.582E-13 -.136E-04
   -.173E-08 -.198E-08 0.844E+00   0.910E-14 0.400E-14 -.596E+00   0.430E-20 -.120E-19 -.248E+00   0.143E-13 -.399E-13 -.136E-04
   -.173E-08 -.198E-08 0.844E+00   0.107E-13 0.888E-15 -.596E+00   0.111E-20 -.113E-19 -.248E+00   -.180E-13 -.376E-14 -.136E-04
   -.173E-08 -.198E-08 0.844E+00   0.222E-14 0.222E-14 -.596E+00   -.237E-20 0.263E-20 -.248E+00   0.148E-14 0.417E-13 -.136E-04
   -.173E-08 -.198E-08 0.844E+00   0.107E-13 0.711E-14 -.596E+00   -.668E-20 -.867E-20 -.248E+00   -.411E-14 0.615E-14 -.136E-04
   0.341E-08 0.355E-08 -.844E+00   0.444E-15 0.129E-13 0.596E+00   0.235E-20 0.214E-20 0.248E+00   -.869E-14 0.119E-13 0.136E-04
   0.341E-08 0.355E-08 -.844E+00   -.666E-14 0.120E-13 0.596E+00   0.166E-20 -.498E-20 0.248E+00   -.341E-14 -.584E-13 0.136E-04
   0.341E-08 0.355E-08 -.844E+00   0.178E-14 0.113E-13 0.596E+00   -.876E-21 0.212E-19 0.248E+00   -.428E-13 -.118E-13 0.136E-04
   0.341E-08 0.355E-08 -.844E+00   0.533E-14 0.445E-14 0.596E+00   -.115E-20 0.119E-19 0.248E+00   0.577E-13 0.556E-13 0.136E-04
   0.341E-08 0.355E-08 -.844E+00   0.218E-13 0.124E-13 0.596E+00   -.246E-21 0.282E-19 0.248E+00   0.123E-13 0.109E-13 0.136E-04
   0.341E-08 0.355E-08 -.844E+00   0.147E-13 0.120E-13 0.596E+00   -.260E-20 0.158E-19 0.248E+00   0.102E-14 -.733E-13 0.136E-04
   0.341E-08 0.355E-08 -.844E+00   0.231E-13 0.109E-13 0.596E+00   0.159E-20 0.275E-20 0.248E+00   0.415E-13 -.809E-14 0.136E-04
   0.341E-08 0.355E-08 -.844E+00   0.533E-14 0.105E-13 0.596E+00   0.237E-20 -.474E-20 0.248E+00   -.592E-13 0.720E-13 0.136E-04
   -.173E-08 -.198E-08 0.844E+00   -.147E-13 -.799E-14 -.596E+00   0.166E-22 -.736E-20 -.248E+00   -.196E-13 0.248E-13 -.136E-04
   -.173E-08 -.198E-08 0.844E+00   -.115E-13 -.400E-14 -.596E+00   0.147E-21 0.138E-20 -.248E+00   0.822E-14 -.409E-13 -.136E-04
   -.173E-08 -.198E-08 0.844E+00   -.147E-13 -.933E-14 -.596E+00   -.318E-20 0.128E-19 -.248E+00   -.322E-13 -.264E-13 -.136E-04
   -.173E-08 -.198E-08 0.844E+00   -.187E-13 -.164E-13 -.596E+00   0.172E-20 0.184E-19 -.248E+00   0.580E-13 0.380E-13 -.136E-04
   -.173E-08 -.198E-08 0.844E+00   0.511E-14 -.129E-13 -.596E+00   -.149E-20 0.150E-19 -.248E+00   0.164E-13 0.363E-13 -.136E-04
   -.173E-08 -.198E-08 0.844E+00   0.799E-14 -.124E-13 -.596E+00   0.264E-20 0.192E-19 -.248E+00   -.183E-13 -.545E-13 -.136E-04
   -.173E-08 -.198E-08 0.844E+00   0.444E-14 -.182E-13 -.596E+00   0.157E-21 -.893E-20 -.248E+00   0.268E-13 -.357E-13 -.136E-04
   -.173E-08 -.197E-08 0.844E+00   -.142E-13 -.178E-13 -.596E+00   -.314E-21 0.179E-20 -.248E+00   -.674E-13 0.476E-13 -.136E-04
   0.341E-08 0.355E-08 -.844E+00   0.215E-13 0.355E-14 0.596E+00   -.183E-20 -.137E-20 0.248E+00   -.417E-13 -.681E-13 0.136E-04
   0.341E-08 0.355E-08 -.844E+00   -.347E-16 0.000E+00 0.596E+00   -.425E-20 0.821E-20 0.248E+00   0.788E-13 0.317E-14 0.136E-04
   0.341E-08 0.355E-08 -.844E+00   -.158E-14 -.711E-14 0.596E+00   0.168E-20 -.248E-19 0.248E+00   -.425E-13 0.601E-13 0.136E-04
   0.341E-08 0.355E-08 -.844E+00   0.304E-13 -.711E-14 0.596E+00   0.235E-20 -.212E-19 0.248E+00   0.601E-13 -.809E-14 0.136E-04
   0.341E-08 0.355E-08 -.844E+00   0.397E-14 0.000E+00 0.596E+00   0.159E-20 -.200E-19 0.248E+00   0.441E-13 -.100E-12 0.136E-04
   0.341E-08 0.355E-08 -.844E+00   -.491E-14 0.000E+00 0.596E+00   0.485E-20 -.150E-19 0.248E+00   -.693E-13 0.638E-13 0.136E-04
   0.341E-08 0.355E-08 -.844E+00   -.245E-13 0.000E+00 0.596E+00   -.137E-20 -.687E-20 0.248E+00   0.479E-13 0.912E-13 0.136E-04
   0.341E-08 0.355E-08 -.844E+00   0.262E-14 -.355E-14 0.596E+00   -.523E-20 0.173E-20 0.248E+00   -.568E-13 -.679E-13 0.136E-04
   -.173E-08 -.198E-08 0.844E+00   0.666E-15 -.275E-13 -.596E+00   0.150E-20 -.646E-20 -.248E+00   0.606E-13 -.241E-13 -.136E-04
   -.173E-08 -.198E-08 0.844E+00   -.799E-14 -.169E-13 -.596E+00   0.152E-20 0.127E-19 -.248E+00   -.519E-13 -.419E-13 -.136E-04
   -.173E-08 -.198E-08 0.844E+00   0.622E-14 -.124E-13 -.596E+00   -.182E-20 -.330E-20 -.248E+00   0.528E-13 0.267E-13 -.136E-04
   -.173E-08 -.198E-08 0.844E+00   -.266E-14 -.124E-13 -.596E+00   -.138E-19 0.983E-20 -.248E+00   -.398E-13 0.434E-13 -.136E-04
   -.173E-08 -.198E-08 0.844E+00   -.331E-13 -.151E-13 -.596E+00   0.747E-21 0.735E-21 -.248E+00   -.670E-13 -.480E-14 -.136E-04
   -.173E-08 -.198E-08 0.844E+00   -.204E-13 -.187E-13 -.596E+00   -.111E-19 -.408E-20 -.248E+00   0.433E-13 -.505E-13 -.136E-04
   -.173E-08 -.198E-08 0.844E+00   -.844E-14 -.115E-13 -.596E+00   0.411E-20 0.297E-20 -.248E+00   -.631E-13 0.136E-13 -.136E-04
   -.173E-08 -.198E-08 0.844E+00   -.107E-13 -.142E-13 -.596E+00   0.710E-21 0.719E-20 -.248E+00   0.388E-13 0.482E-13 -.136E-04
   0.341E-08 0.355E-08 -.844E+00   0.677E-14 -.833E-14 0.596E+00   0.443E-20 0.107E-19 0.248E+00   0.515E-13 -.383E-13 0.136E-04
   0.341E-08 0.355E-08 -.844E+00   -.591E-14 -.125E-14 0.596E+00   -.744E-20 -.806E-21 0.248E+00   -.362E-13 -.264E-13 0.136E-04
   0.341E-08 0.355E-08 -.844E+00   -.130E-13 -.806E-14 0.596E+00   -.413E-20 -.432E-20 0.248E+00   0.113E-13 0.430E-13 0.136E-04
   0.341E-08 0.355E-08 -.844E+00   -.183E-13 -.889E-14 0.596E+00   0.275E-20 -.813E-20 0.248E+00   0.252E-13 0.220E-13 0.136E-04
   0.341E-08 0.355E-08 -.844E+00   0.427E-14 -.133E-13 0.596E+00   -.160E-20 -.583E-20 0.248E+00   -.340E-13 -.180E-13 0.136E-04
   0.341E-08 0.355E-08 -.844E+00   -.121E-14 0.864E-15 0.596E+00   0.179E-20 -.142E-21 0.248E+00   0.267E-13 -.232E-13 0.136E-04
   0.341E-08 0.355E-08 -.844E+00   0.100E-14 -.990E-14 0.596E+00   0.351E-20 0.889E-20 0.248E+00   -.121E-14 0.195E-13 0.136E-04
   0.341E-08 0.355E-08 -.844E+00   0.104E-13 -.178E-13 0.596E+00   -.496E-20 0.437E-21 0.248E+00   -.228E-13 0.185E-13 0.136E-04
 -----------------------------------------------------------------------------------------------
   0.540E-07 0.504E-07 -.239E-04   0.388E-13 0.623E-14 -.305E-13   -.441E-19 -.271E-19 0.572E-14   0.266E-13 -.504E-13 -.623E-10
 
 
 POSITION                                       TOTAL-FORCE (eV/Angst)
 -----------------------------------------------------------------------------------
     -0.00000      0.00000     10.63446        -0.000000      0.000000     -0.000143
     -0.00000      0.00000      5.31502        -0.000000     -0.000000     -0.000143
     -0.02660      5.31944     10.63446         0.000000     -0.000000     -0.000143
     -0.02660      5.31944      5.31502         0.000000     -0.000000     -0.000143
      5.26624     -0.02660     10.63446        -0.000000      0.000000     -0.000143
      5.26624     -0.02660      5.31502        -0.000000      0.000000     -0.000143
      5.23965      5.29284     10.63446         0.000000     -0.000000     -0.000143
      5.23965      5.29284      5.31502         0.000000     -0.000000     -0.000143
      3.92973      3.96963      1.33428         0.000000     -0.000000      0.000143
      3.92973      3.96963      6.65371        -0.000000      0.000000      0.000143
      3.90314      9.28907      1.33428        -0.000000      0.000000      0.000143
      3.90314      9.28907      6.65371         0.000000      0.000000      0.000143
      9.19598      3.94303      1.33428         0.000000      0.000000      0.000143
      9.19598      3.94303      6.65371        -0.000000      0.000000      0.000143
      9.16938      9.26247      1.33428         0.000000      0.000000      0.000143
      9.16938      9.26247      6.65371        -0.000000      0.000000      0.000143
     -0.01330      2.65972      2.65530        -0.000000     -0.000000     -0.000143
     -0.01330      2.65972      7.97474         0.000000      0.000000     -0.000143
     -0.03990      7.97916      2.65530         0.000000      0.000000     -0.000143
     -0.03990      7.97916      7.97474         0.000000     -0.000000     -0.000143
      5.25294      2.63312      2.65530         0.000000     -0.000000     -0.000143
      5.25294      2.63312      7.97474         0.000000     -0.000000     -0.000143
      5.22635      7.95256      2.65530        -0.000000      0.000000     -0.000143
      5.22635      7.95256      7.97474        -0.000000      0.000000     -0.000143
      3.94303      1.30991      3.99399         0.000000     -0.000000      0.000143
      3.94303      1.30991      9.31343         0.000000     -0.000000      0.000143
      3.91644      6.62935      3.99399        -0.000000      0.000000      0.000143
      3.91644      6.62935      9.31343        -0.000000     -0.000000      0.000143
      9.20928      1.28331      3.99399         0.000000     -0.000000      0.000143
      9.20928      1.28331      9.31343        -0.000000     -0.000000      0.000143
      9.18268      6.60275      3.99399        -0.000000     -0.000000      0.000143
      9.18268      6.60275      9.31343        -0.000000     -0.000000      0.000143
      2.63312     -0.01330      2.65530        -0.000000      0.000000     -0.000143
      2.63312     -0.01330      7.97474        -0.000000      0.000000     -0.000143
      2.60652      5.30614      2.65530         0.000000     -0.000000     -0.000143
      2.60652      5.30614      7.97474         0.000000     -0.000000     -0.000143
      7.89936     -0.03990      2.65530        -0.000000      0.000000     -0.000143
      7.89936     -0.03990      7.97474        -0.000000      0.000000     -0.000143
      7.87277      5.27954      2.65530         0.000000     -0.000000     -0.000143
      7.87277      5.27954      7.97474         0.000000     -0.000000     -0.000143
      1.29661      3.98293      3.99399         0.000000      0.000000      0.000143
      1.29661      3.98293      9.31343         0.000000      0.000000      0.000143
      1.27002      9.30237      3.99399         0.000000      0.000000      0.000143
      1.27002      9.30237      9.31343         0.000000     -0.000000      0.000143
      6.56286      3.95633      3.99399         0.000000      0.000000      0.000143
      6.56286      3.95633      9.31343        -0.000000     -0.000000      0.000143
      6.53626      9.27577      3.99399        -0.000000      0.000000      0.000143
      6.53626      9.27577      9.31343         0.000000     -0.000000      0.000143
      2.61982      2.64642     10.63446         0.000000      0.000000     -0.000143
      2.61982      2.64642      5.31502        -0.000000      0.000000     -0.000143
      2.59323      7.96586     10.63446        -0.000000      0.000000     -0.000143
      2.59323      7.96586      5.31502         0.000000     -0.000000     -0.000143
      7.88607      2.61982     10.63446         0.000000      0.000000     -0.000143
      7.88607      2.61982      5.31502         0.000000     -0.000000     -0.000143
      7.85947      7.93926     10.63446        -0.000000      0.000000     -0.000143
      7.85947      7.93926      5.31502         0.000000      0.000000     -0.000143
      1.30991      1.32321      1.33428         0.000000     -0.000000      0.000143
      1.30991      1.32321      6.65371         0.000000     -0.000000      0.000143
      1.28331      6.64265      1.33428        -0.000000     -0.000000      0.000143
      1.28331      6.64265      6.65371        -0.000000      0.000000      0.000143
      6.57615      1.29661      1.33428         0.000000     -0.000000      0.000143
      6.57615      1.29661      6.65371         0.000000      0.000000      0.000143
      6.54956      6.61605      1.33428        -0.000000     -0.000000      0.000143
      6.54956      6.61605      6.65371        -0.000000     -0.000000      0.000143
 -----------------------------------------------------------------------------------
    total drift:                                0.000000      0.000000     -0.000024


--------------------------------------------------------------------------------------------------------



  FREE ENERGIE OF THE ION-ELECTRON SYSTEM (eV)
  ---------------------------------------------------
  free  energy   TOTEN  =      -365.32439823 eV

  energy  without entropy=     -365.35160094  energy(sigma->0) =     -365.33346580
 
 d Force = 0.4300682E-02[-0.193E-04, 0.862E-02]  d Energy = 0.4314941E-02-0.143E-04
 d Force =-0.7293884E-01[-0.804E-01,-0.655E-01]  d Ewald  =-0.7292916E-01-0.968E-05


--------------------------------------------------------------------------------------------------------


    POTLOK:  cpu time      0.1433: real time      0.1440


--------------------------------------------------------------------------------------------------------




--------------------------------------------------------------------------------------------------------


  
 reached required accuracy - stopping structural energy minimisation
     LOOP+:  cpu time     12.7229: real time     12.9123
    4ORBIT:  cpu time      0.0000: real time      0.0000

 total amount of memory used by VASP MPI-rank0    78872. kBytes
=======================================================================

   base      :      30000. kBytes
   nonlr-proj:       4760. kBytes
   fftplans  :      17991. kBytes
   grid      :       6881. kBytes
   one-center:         18. kBytes
   wavefun   :      19222. kBytes
 
  
  
 General timing and accounting informations for this job:
 ========================================================
  
                  Total CPU time used (sec):       58.845
                            User time (sec):       55.659
                          System time (sec):        3.186
                         Elapsed time (sec):       62.633
  
                   Maximum memory used (kb):      405984.
                   Average memory used (kb):          N/A
  
                          Minor page faults:        93280
                          Major page faults:            0
                 Voluntary context switches:         9817
