Si64                                    
           1
    10.532487   -0.053194    0.000000
    -0.053194   10.638876    0.000000
     0.000000    0.000000   10.638876
   Si
    64
Direct configuration=     1
   0.00000000  0.00000000  0.00000000
   0.00000000  0.00000000  0.50000000
   0.00000000  0.50000000  0.00000000
   0.00000000  0.50000000  0.50000000
   0.50000000  0.00000000  0.00000000
   0.50000000  0.00000000  0.50000000
   0.50000000  0.50000000  0.00000000
   0.50000000  0.50000000  0.50000000
   0.37500000  0.37500000  0.12500000
   0.37500000  0.37500000  0.62500000
   0.37500000  0.87500000  0.12500000
   0.37500000  0.87500000  0.62500000
   0.87500000  0.37500000  0.12500000
   0.87500000  0.37500000  0.62500000
   0.87500000  0.87500000  0.12500000
   0.87500000  0.87500000  0.62500000
   0.00000000  0.25000000  0.25000000
   0.00000000  0.25000000  0.75000000
   0.00000000  0.75000000  0.25000000
   0.00000000  0.75000000  0.75000000
   0.50000000  0.25000000  0.25000000
   0.50000000  0.25000000  0.75000000
   0.50000000  0.75000000  0.25000000
   0.50000000  0.75000000  0.75000000
   0.37500000  0.12500000  0.37500000
   0.37500000  0.12500000  0.87500000
   0.37500000  0.62500000  0.37500000
   0.37500000  0.62500000  0.87500000
   0.87500000  0.12500000  0.37500000
   0.87500000  0.12500000  0.87500000
   0.87500000  0.62500000  0.37500000
   0.87500000  0.62500000  0.87500000
   0.25000000  0.00000000  0.25000000
   0.25000000  0.00000000  0.75000000
   0.25000000  0.50000000  0.25000000
   0.25000000  0.50000000  0.75000000
   0.75000000  0.00000000  0.25000000
   0.75000000  0.00000000  0.75000000
   0.75000000  0.50000000  0.25000000
   0.75000000  0.50000000  0.75000000
   0.12500000  0.37500000  0.37500000
   0.12500000  0.37500000  0.87500000
   0.12500000  0.87500000  0.37500000
   0.12500000  0.87500000  0.87500000
   0.62500000  0.37500000  0.37500000
   0.62500000  0.37500000  0.87500000
   0.62500000  0.87500000  0.37500000
   0.62500000  0.87500000  0.87500000
   0.25000000  0.25000000  0.00000000
   0.25000000  0.25000000  0.50000000
   0.25000000  0.75000000  0.00000000
   0.25000000  0.75000000  0.50000000
   0.75000000  0.25000000  0.00000000
   0.75000000  0.25000000  0.50000000
   0.75000000  0.75000000  0.00000000
   0.75000000  0.75000000  0.50000000
   0.12500000  0.12500000  0.12500000
   0.12500000  0.12500000  0.62500000
   0.12500000  0.62500000  0.12500000
   0.12500000  0.62500000  0.62500000
   0.62500000  0.12500000  0.12500000
   0.62500000  0.12500000  0.62500000
   0.62500000  0.62500000  0.12500000
   0.62500000  0.62500000  0.62500000
Direct configuration=     2
   1.00000000  0.00000000  0.99938696
   1.00000000  0.00000000  0.49938696
   0.00000000  0.50000000  0.99938696
   0.00000000  0.50000000  0.49938696
   0.50000000  0.00000000  0.99938696
   0.50000000  0.00000000  0.49938696
   0.50000000  0.50000000  0.99938696
   0.50000000  0.50000000  0.49938696
   0.37500000  0.37500000  0.12561304
   0.37500000  0.37500000  0.62561304
   0.37500000  0.87500000  0.12561304
   0.37500000  0.87500000  0.62561304
   0.87500000  0.37500000  0.12561304
   0.87500000  0.37500000  0.62561304
   0.87500000  0.87500000  0.12561304
   0.87500000  0.87500000  0.62561304
   1.00000000  0.25000000  0.24938696
   0.00000000  0.25000000  0.74938696
   1.00000000  0.75000000  0.24938696
   1.00000000  0.75000000  0.74938696
   0.50000000  0.25000000  0.24938696
   0.50000000  0.25000000  0.74938696
   0.50000000  0.75000000  0.24938696
   0.50000000  0.75000000  0.74938696
   0.37500000  0.12500000  0.37561304
   0.37500000  0.12500000  0.87561304
   0.37500000  0.62500000  0.37561304
   0.37500000  0.62500000  0.87561304
   0.87500000  0.12500000  0.37561304
   0.87500000  0.12500000  0.87561304
   0.87500000  0.62500000  0.37561304
   0.87500000  0.62500000  0.87561304
   0.25000000  0.00000000  0.24938696
   0.25000000  0.00000000  0.74938696
   0.25000000  0.50000000  0.24938696
   0.25000000  0.50000000  0.74938696
   0.75000000  0.00000000  0.24938696
   0.75000000  0.00000000  0.74938696
   0.75000000  0.50000000  0.24938696
   0.75000000  0.50000000  0.74938696
   0.12500000  0.37500000  0.37561304
   0.12500000  0.37500000  0.87561304
   0.12500000  0.87500000  0.37561304
   0.12500000  0.87500000  0.87561304
   0.62500000  0.37500000  0.37561304
   0.62500000  0.37500000  0.87561304
   0.62500000  0.87500000  0.37561304
   0.62500000  0.87500000  0.87561304
   0.25000000  0.25000000  0.99938696
   0.25000000  0.25000000  0.49938696
   0.25000000  0.75000000  0.99938696
   0.25000000  0.75000000  0.49938696
   0.75000000  0.25000000  0.99938696
   0.75000000  0.25000000  0.49938696
   0.75000000  0.75000000  0.99938696
   0.75000000  0.75000000  0.49938696
   0.12500000  0.12500000  0.12561304
   0.12500000  0.12500000  0.62561304
   0.12500000  0.62500000  0.12561304
   0.12500000  0.62500000  0.62561304
   0.62500000  0.12500000  0.12561304
   0.62500000  0.12500000  0.62561304
   0.62500000  0.62500000  0.12561304
   0.62500000  0.62500000  0.62561304
Direct configuration=     3
   0.00000000  0.00000000  0.99958494
   0.00000000  0.00000000  0.49958494
   0.00000000  0.50000000  0.99958494
   0.00000000  0.50000000  0.49958494
   0.50000000  0.00000000  0.99958494
   0.50000000  0.00000000  0.49958494
   0.50000000  0.50000000  0.99958494
   0.50000000  0.50000000  0.49958494
   0.37500000  0.37500000  0.12541506
   0.37500000  0.37500000  0.62541506
   0.37500000  0.87500000  0.12541506
   0.37500000  0.87500000  0.62541506
   0.87500000  0.37500000  0.12541506
   0.87500000  0.37500000  0.62541506
   0.87500000  0.87500000  0.12541506
   0.87500000  0.87500000  0.62541506
   0.00000000  0.25000000  0.24958494
   0.00000000  0.25000000  0.74958494
   0.00000000  0.75000000  0.24958494
   0.00000000  0.75000000  0.74958494
   0.50000000  0.25000000  0.24958494
   0.50000000  0.25000000  0.74958494
   0.50000000  0.75000000  0.24958494
   0.50000000  0.75000000  0.74958494
   0.37500000  0.12500000  0.37541506
   0.37500000  0.12500000  0.87541506
   0.37500000  0.62500000  0.37541506
   0.37500000  0.62500000  0.87541506
   0.87500000  0.12500000  0.37541506
   0.87500000  0.12500000  0.87541506
   0.87500000  0.62500000  0.37541506
   0.87500000  0.62500000  0.87541506
   0.25000000  0.00000000  0.24958494
   0.25000000  0.00000000  0.74958494
   0.25000000  0.50000000  0.24958494
   0.25000000  0.50000000  0.74958494
   0.75000000  0.00000000  0.24958494
   0.75000000  0.00000000  0.74958494
   0.75000000  0.50000000  0.24958494
   0.75000000  0.50000000  0.74958494
   0.12500000  0.37500000  0.37541506
   0.12500000  0.37500000  0.87541506
   0.12500000  0.87500000  0.37541506
   0.12500000  0.87500000  0.87541506
   0.62500000  0.37500000  0.37541506
   0.62500000  0.37500000  0.87541506
   0.62500000  0.87500000  0.37541506
   0.62500000  0.87500000  0.87541506
   0.25000000  0.25000000  0.99958494
   0.25000000  0.25000000  0.49958494
   0.25000000  0.75000000  0.99958494
   0.25000000  0.75000000  0.49958494
   0.75000000  0.25000000  0.99958494
   0.75000000  0.25000000  0.49958494
   0.75000000  0.75000000  0.99958494
   0.75000000  0.75000000  0.49958494
   0.12500000  0.12500000  0.12541506
   0.12500000  0.12500000  0.62541506
   0.12500000  0.62500000  0.12541506
   0.12500000  0.62500000  0.62541506
   0.62500000  0.12500000  0.12541506
   0.62500000  0.12500000  0.62541506
   0.62500000  0.62500000  0.12541506
   0.62500000  0.62500000  0.62541506
