       N       E                     dE             d eps       ncg     rms          rms(c)
DAV:   1     0.561009341162E+03    0.56101E+03   -0.84407E+04  2592   0.106E+03
DAV:   2    -0.310673337412E+03   -0.87168E+03   -0.82676E+03  3088   0.172E+02
DAV:   3    -0.373200200648E+03   -0.62527E+02   -0.61374E+02  3136   0.411E+01
DAV:   4    -0.374818304021E+03   -0.16181E+01   -0.16066E+01  3168   0.798E+00
DAV:   5    -0.374865310777E+03   -0.47007E-01   -0.46912E-01  3088   0.128E+00    0.293E+01
RMM:   6    -0.369369461009E+03    0.54958E+01   -0.28146E+00  2592   0.263E+00    0.177E+01
RMM:   7    -0.366924480755E+03    0.24450E+01   -0.71787E+00  2647   0.420E+00    0.105E+00
RMM:   8    -0.366964045430E+03   -0.39565E-01   -0.67988E-01  2623   0.160E+00    0.513E-01
RMM:   9    -0.366984945651E+03   -0.20900E-01   -0.19566E-01  2672   0.779E-01    0.588E-01
RMM:  10    -0.366988622281E+03   -0.36766E-02   -0.33186E-02  2736   0.362E-01    0.793E-01
RMM:  11    -0.366985464125E+03    0.31582E-02   -0.12360E-02  2592   0.222E-01    0.631E-01
RMM:  12    -0.366985623116E+03   -0.15899E-03   -0.18119E-03  2608   0.101E-01    0.613E-01
RMM:  13    -0.366985679244E+03   -0.56128E-04   -0.34019E-04  2744   0.410E-02    0.713E-01
RMM:  14    -0.366985718024E+03   -0.38779E-04   -0.93194E-05  2602   0.240E-02    0.317E-01
RMM:  15    -0.366985779291E+03   -0.61268E-04   -0.31484E-05  2646   0.123E-02    0.266E-01
RMM:  16    -0.366985822259E+03   -0.42967E-04   -0.28469E-05  2592   0.120E-02    0.151E-01
RMM:  17    -0.366985831261E+03   -0.90019E-05   -0.91656E-06  2590   0.714E-03    0.523E-02
RMM:  18    -0.366985833204E+03   -0.19437E-05   -0.21523E-06  1619   0.342E-03    0.128E-02
RMM:  19    -0.366985833705E+03   -0.50030E-06   -0.10772E-06  1562   0.225E-03
   1 F= -.36698583E+03 E0= -.36699590E+03  d E =-.366986E+03
       N       E                     dE             d eps       ncg     rms          rms(c)
DAV:   1    -0.367007172939E+03   -0.21340E-01   -0.12032E+00  2944   0.210E+00    0.488E-01
RMM:   2    -0.367013137368E+03   -0.59644E-02   -0.61803E-02  2593   0.524E-01    0.199E-01
RMM:   3    -0.367013965477E+03   -0.82811E-03   -0.96587E-03  2642   0.234E-01    0.837E-02
RMM:   4    -0.367013956206E+03    0.92709E-05   -0.13284E-03  2658   0.974E-02    0.307E-02
RMM:   5    -0.367013966768E+03   -0.10563E-04   -0.23728E-04  2684   0.382E-02    0.676E-03
RMM:   6    -0.367013972056E+03   -0.52876E-05   -0.52707E-05  2783   0.165E-02    0.115E-03
RMM:   7    -0.367013972739E+03   -0.68325E-06   -0.72323E-06  2059   0.598E-03    0.124E-03
RMM:   8    -0.367013972838E+03   -0.99242E-07   -0.12894E-06  1628   0.251E-03
   2 F= -.36701397E+03 E0= -.36702169E+03  d E =-.281391E-01
       N       E                     dE             d eps       ncg     rms          rms(c)
DAV:   1    -0.367018151015E+03   -0.41783E-02   -0.91689E-02  2952   0.578E-01    0.135E-01
RMM:   2    -0.367018598830E+03   -0.44782E-03   -0.46163E-03  2592   0.144E-01    0.553E-02
RMM:   3    -0.367018659072E+03   -0.60241E-04   -0.70898E-04  2642   0.641E-02    0.227E-02
RMM:   4    -0.367018658704E+03    0.36711E-06   -0.97211E-05  2653   0.267E-02    0.838E-03
RMM:   5    -0.367018659520E+03   -0.81562E-06   -0.17485E-05  2601   0.104E-02    0.176E-03
RMM:   6    -0.367018659850E+03   -0.32997E-06   -0.37950E-06  1836   0.458E-03    0.319E-04
RMM:   7    -0.367018659915E+03   -0.64577E-07   -0.64507E-07  1540   0.184E-03    0.287E-04
RMM:   8    -0.367018659943E+03   -0.28353E-07   -0.16900E-07  1194   0.918E-04
   3 F= -.36701866E+03 E0= -.36702723E+03  d E =-.328262E-01
