 vasp.6.4.3 19Mar24 (build Oct 21 2024 22:36:34) complex                        
  
 executed on             LinuxIFC date 2024.11.01  22:47:30
 running   96 mpi-ranks, on    1 nodes
 distrk:  each k-point on   24 cores,    4 groups
 distr:  one band on NCORE=  12 cores,    2 groups


--------------------------------------------------------------------------------------------------------


 INCAR:
   SYSTEM = Si64
   ISTART = 0
   ICHARG = 2
   LREAL = Auto
   PREC = Accurate
   LWAVE = .False.
   LCHARG = .False.
   ADDGRID = .True.
   ENCUT = 400
   GGA = PS
   GGA_COMPAT = .FALSE.
   ISMEAR = 1
   SIGMA = 0.2
   NELM = 60
   NELMIN = 8
   EDIFF = 1e-06
   EDIFFG = -0.01
   NSW = 60
   IBRION = 2
   ISIF = 2
   KPAR = 4
   NPAR = 2
   ALGO = Fast

 POTCAR:    PAW_PBE Si 05Jan2001                  
 POTCAR:    PAW_PBE Si 05Jan2001                  
   VRHFIN =Si: s2p2                                                                                 
   LEXCH  = PE                                                                                      
   EATOM  =   103.0669 eV,    7.5752 Ry                                                             
                                                                                                    
   TITEL  = PAW_PBE Si 05Jan2001                                                                    
   LULTRA =        F    use ultrasoft PP ?                                                          
   IUNSCR =        1    unscreen: 0-lin 1-nonlin 2-no                                               
   RPACOR =    1.500    partial core radius                                                         
   POMASS =   28.085; ZVAL   =    4.000    mass and valenz                                          
   RCORE  =    1.900    outmost cutoff radius                                                       
   RWIGS  =    2.480; RWIGS  =    1.312    wigner-seitz radius (au A)                               
   ENMAX  =  245.345; ENMIN  =  184.009 eV                                                          
   ICORE  =        2    local potential                                                             
   LCOR   =        T    correct aug charges                                                         
   LPAW   =        T    paw PP                                                                      
   EAUG   =  322.069                                                                                
   DEXC   =    0.000                                                                                
   RMAX   =    1.950    core radius for proj-oper                                                   
   RAUG   =    1.300    factor for augmentation sphere                                              
   RDEP   =    1.993    radius for radial grids                                                     
   RDEPT  =    1.837    core radius for aug-charge                                                  
                                                                                                    
   Atomic configuration                                                                             
    6 entries                                                                                       
     n  l   j            E        occ.                                                              
     1  0  0.50     -1785.8828   2.0000                                                             
     2  0  0.50      -139.4969   2.0000                                                             
     2  1  1.50       -95.5546   6.0000                                                             
     3  0  0.50       -10.8127   2.0000                                                             
     3  1  0.50        -4.0811   2.0000                                                             
     3  2  1.50        -4.0817   0.0000                                                             
   Description                                                                                      
     l       E           TYP  RCUT    TYP  RCUT                                                     
     0    -10.8127223     23  1.900                                                                 
     0     -7.6451159     23  1.900                                                                 
     1     -4.0811372     23  1.900                                                                 
     1      2.4879257     23  1.900                                                                 
     2     -4.0817478      7  1.900                                                                 
  local pseudopotential read in
  partial core-charges read in
  partial kinetic energy density read in
  atomic valenz-charges read in
  non local Contribution for L=           0  read in
    real space projection operators read in
  non local Contribution for L=           0  read in
    real space projection operators read in
  non local Contribution for L=           1  read in
    real space projection operators read in
  non local Contribution for L=           1  read in
    real space projection operators read in
    PAW grid and wavefunctions read in
 
   number of l-projection  operators is LMAX  =           4
   number of lm-projection operators is LMMAX =           8
 
 Optimization of the real space projectors (new method)

 maximal supplied QI-value         = 19.84
 optimisation between [QCUT,QGAM] = [ 10.12, 20.44] = [ 28.68,116.96] Ry 
 Optimized for a Real-space Cutoff    1.38 Angstroem

   l    n(q)    QCUT    max X(q) W(low)/X(q) W(high)/X(q)  e(spline) 
   0      8    10.119   159.560    0.58E-04    0.11E-03    0.54E-07
   0      8    10.119   115.863    0.56E-04    0.11E-03    0.54E-07
   1      8    10.119    88.339    0.22E-03    0.17E-03    0.19E-06
   1      8    10.119    48.592    0.22E-03    0.17E-03    0.18E-06
 -----------------------------------------------------------------------------
|                                                                             |
|               ----> ADVICE to this user running VASP <----                  |
|                                                                             |
|     You enforced a specific xc type in the INCAR file but a different       |
|     type was found in the POTCAR file.                                      |
|     I HOPE YOU KNOW WHAT YOU ARE DOING!                                     |
|                                                                             |
 -----------------------------------------------------------------------------

  PAW_PBE Si 05Jan2001                  :
 energy of atom  1       EATOM= -103.0669
 kinetic energy error for atom=    0.0012 (will be added to EATOM!!)
 
 
 POSCAR: Si8
  positions in direct lattice
  velocities in cartesian coordinates


 exchange-correlation table for PS
   RHO(1)=    0.500       N(1)  =     2000
   RHO(2)=  100.500       N(2)  =     4000
 


--------------------------------------------------------------------------------------------------------


 ion  position               nearest neighbor table
   1  0.000  0.000  0.000-  15 2.31  57 2.31  44 2.34  30 2.34
   2  0.000  0.000  0.500-  16 2.31  58 2.31  43 2.34  29 2.34
   3  0.000  0.500  0.000-  13 2.31  59 2.31  42 2.34  32 2.34
   4  0.000  0.500  0.500-  14 2.31  60 2.31  41 2.34  31 2.34
   5  0.500  0.000  0.000-  11 2.31  61 2.31  48 2.34  26 2.34
   6  0.500  0.000  0.500-  12 2.31  62 2.31  47 2.34  25 2.34
   7  0.500  0.500  0.000-   9 2.31  63 2.31  46 2.34  28 2.34
   8  0.500  0.500  0.500-  10 2.31  64 2.31  45 2.34  27 2.34
   9  0.375  0.375  0.125-   7 2.31  49 2.31  35 2.34  21 2.34
  10  0.375  0.375  0.625-   8 2.31  50 2.31  36 2.34  22 2.34
  11  0.375  0.875  0.125-   5 2.31  51 2.31  33 2.34  23 2.34
  12  0.375  0.875  0.625-   6 2.31  52 2.31  34 2.34  24 2.34
  13  0.875  0.375  0.125-   3 2.31  53 2.31  39 2.34  17 2.34
  14  0.875  0.375  0.625-   4 2.31  54 2.31  40 2.34  18 2.34
  15  0.875  0.875  0.125-   1 2.31  55 2.31  37 2.34  19 2.34
  16  0.875  0.875  0.625-   2 2.31  56 2.31  38 2.34  20 2.34
  17  0.000  0.250  0.250-  29 2.31  41 2.31  13 2.34  57 2.34
  18  0.000  0.250  0.750-  30 2.31  42 2.31  14 2.34  58 2.34
  19  0.000  0.750  0.250-  31 2.31  43 2.31  15 2.34  59 2.34
  20  0.000  0.750  0.750-  32 2.31  44 2.31  16 2.34  60 2.34
  21  0.500  0.250  0.250-  25 2.31  45 2.31   9 2.34  61 2.34
  22  0.500  0.250  0.750-  26 2.31  46 2.31  10 2.34  62 2.34
  23  0.500  0.750  0.250-  27 2.31  47 2.31  11 2.34  63 2.34
  24  0.500  0.750  0.750-  28 2.31  48 2.31  12 2.34  64 2.34
  25  0.375  0.125  0.375-  21 2.31  33 2.31   6 2.34  50 2.34
  26  0.375  0.125  0.875-  22 2.31  34 2.31   5 2.34  49 2.34
  27  0.375  0.625  0.375-  23 2.31  35 2.31   8 2.34  52 2.34
  28  0.375  0.625  0.875-  24 2.31  36 2.31   7 2.34  51 2.34
  29  0.875  0.125  0.375-  17 2.31  37 2.31   2 2.34  54 2.34
  30  0.875  0.125  0.875-  18 2.31  38 2.31   1 2.34  53 2.34
  31  0.875  0.625  0.375-  19 2.31  39 2.31   4 2.34  56 2.34
  32  0.875  0.625  0.875-  20 2.31  40 2.31   3 2.34  55 2.34
  33  0.250  0.000  0.250-  25 2.31  43 2.31  11 2.34  57 2.34
  34  0.250  0.000  0.750-  26 2.31  44 2.31  12 2.34  58 2.34
  35  0.250  0.500  0.250-  27 2.31  41 2.31   9 2.34  59 2.34
  36  0.250  0.500  0.750-  28 2.31  42 2.31  10 2.34  60 2.34
  37  0.750  0.000  0.250-  29 2.31  47 2.31  15 2.34  61 2.34
  38  0.750  0.000  0.750-  30 2.31  48 2.31  16 2.34  62 2.34
  39  0.750  0.500  0.250-  31 2.31  45 2.31  13 2.34  63 2.34
  40  0.750  0.500  0.750-  32 2.31  46 2.31  14 2.34  64 2.34
  41  0.125  0.375  0.375-  17 2.31  35 2.31   4 2.34  50 2.34
  42  0.125  0.375  0.875-  18 2.31  36 2.31   3 2.34  49 2.34
  43  0.125  0.875  0.375-  19 2.31  33 2.31   2 2.34  52 2.34
  44  0.125  0.875  0.875-  20 2.31  34 2.31   1 2.34  51 2.34
  45  0.625  0.375  0.375-  21 2.31  39 2.31   8 2.34  54 2.34
  46  0.625  0.375  0.875-  22 2.31  40 2.31   7 2.34  53 2.34
  47  0.625  0.875  0.375-  23 2.31  37 2.31   6 2.34  56 2.34
  48  0.625  0.875  0.875-  24 2.31  38 2.31   5 2.34  55 2.34
  49  0.250  0.250  0.000-   9 2.31  57 2.31  42 2.34  26 2.34
  50  0.250  0.250  0.500-  10 2.31  58 2.31  41 2.34  25 2.34
  51  0.250  0.750  0.000-  11 2.31  59 2.31  44 2.34  28 2.34
  52  0.250  0.750  0.500-  12 2.31  60 2.31  43 2.34  27 2.34
  53  0.750  0.250  0.000-  13 2.31  61 2.31  46 2.34  30 2.34
  54  0.750  0.250  0.500-  14 2.31  62 2.31  45 2.34  29 2.34
  55  0.750  0.750  0.000-  15 2.31  63 2.31  48 2.34  32 2.34
  56  0.750  0.750  0.500-  16 2.31  64 2.31  47 2.34  31 2.34
  57  0.125  0.125  0.125-   1 2.31  49 2.31  33 2.34  17 2.34
  58  0.125  0.125  0.625-   2 2.31  50 2.31  34 2.34  18 2.34
  59  0.125  0.625  0.125-   3 2.31  51 2.31  35 2.34  19 2.34
  60  0.125  0.625  0.625-   4 2.31  52 2.31  36 2.34  20 2.34
  61  0.625  0.125  0.125-   5 2.31  53 2.31  37 2.34  21 2.34
  62  0.625  0.125  0.625-   6 2.31  54 2.31  38 2.34  22 2.34
  63  0.625  0.625  0.125-   7 2.31  55 2.31  39 2.34  23 2.34
  64  0.625  0.625  0.625-   8 2.31  56 2.31  40 2.34  24 2.34
 
  LATTYP: Found a simple monoclinic cell.
 ALAT       =    10.6365988926
 B/A-ratio  =     1.0151990033
 C/A-ratio  =     1.0152275554
 COS(beta)  =    -0.0151133552
  
  Lattice vectors:
  
 A1 = (  10.6362905708,  -0.0809870120,   0.0000000000)
 A2 = (   0.0000000000,   0.0000000000, -10.7982645947)
 A3 = (  -0.0809870120,  10.7982645947,   0.0000000000)


Analysis of symmetry for initial positions (statically):
=====================================================================
 Subroutine PRICEL returns following result:
 
  LATTYP: Found a base centered monoclinic cell.
 ALAT       =     5.3182994463
 B/A-ratio  =     1.0151990033
 C/A-ratio  =     0.7071067812
 COS(beta)  =    -0.6962572921
  
  Lattice vectors:
  
 A1 = (  -2.6590726427,   0.0202467530,  -2.6995661487)
 A2 = (  -2.6590726427,   0.0202467530,   2.6995661487)
 A3 = (   2.6388258897,   2.6793193957,   0.0000000000)
 
  32 primitive cells build up your supercell.
 

 Routine SETGRP: Setting up the symmetry group for a 
 simple monoclinic supercell.


 Subroutine GETGRP returns: Found  4 space group operations
 (whereof  2 operations were pure point group operations)
 out of a pool of  4 trial point group operations.


The static configuration has the point symmetry C_2 .
 The point group associated with its full space group is C_2h.


Analysis of symmetry for dynamics (positions and initial velocities):
=====================================================================
 Subroutine PRICEL returns following result:
 
  LATTYP: Found a base centered monoclinic cell.
 ALAT       =     5.3182994463
 B/A-ratio  =     1.0151990033
 C/A-ratio  =     0.7071067812
 COS(beta)  =    -0.6962572921
  
  Lattice vectors:
  
 A1 = (  -2.6590726427,   0.0202467530,  -2.6995661487)
 A2 = (  -2.6590726427,   0.0202467530,   2.6995661487)
 A3 = (   2.6388258897,   2.6793193957,   0.0000000000)
 
  32 primitive cells build up your supercell.
 

 Routine SETGRP: Setting up the symmetry group for a 
 simple monoclinic supercell.


 Subroutine GETGRP returns: Found  4 space group operations
 (whereof  2 operations were pure point group operations)
 out of a pool of  4 trial point group operations.


The dynamic configuration has the point symmetry C_2 .
 The point group associated with its full space group is C_2h.


 Subroutine INISYM returns: Found  4 space group operations
 (whereof  2 operations are pure point group operations),
 and found    32 'primitive' translations


----------------------------------------------------------------------------------------

                                     Primitive cell                                     

  volume of cell :      38.7546

  direct lattice vectors                    reciprocal lattice vectors
    -2.659072643  0.020246753 -2.699566149    -0.186635871  0.183815177 -0.185214947
    -2.659072643  0.020246753  2.699566149    -0.186635871  0.183815177  0.185214947
     2.638825890  2.679319396  0.000000000     0.002820694  0.370451048  0.000000000

  length of vectors
     3.789292103  3.789292103  3.760605603     0.320820112  0.320820112  0.370461787

  position of ions in fractional coordinates (direct lattice)
     0.000000000  0.000000000  0.000000000
     0.750000000  0.250000000  0.500000000

  ion indices of the primitive-cell ions
   primitive index   ion index
                 1           1
                 2          15

----------------------------------------------------------------------------------------

 
 
 KPOINTS: Automatic mesh                          

Automatic generation of k-mesh.
 Grid dimensions read from file:
 generate k-points for:    2    2    2

 Generating k-lattice:

  Cartesian coordinates                     Fractional coordinates (reciprocal lattice)
     0.047011555  0.000352587  0.000000000     0.500000000 -0.000000000  0.000000000
     0.000352587  0.046306381  0.000000000     0.000000000  0.500000000  0.000000000
     0.000000000  0.000000000  0.046303737     0.000000000  0.000000000  0.500000000

  Length of vectors
     0.047012877  0.046307723  0.046303737

  Shift w.r.t. Gamma in fractional coordinates (k-lattice)
     0.000000000  0.000000000  0.000000000

 
 Subroutine IBZKPT returns following result:
 ===========================================
 
 Found      8 irreducible k-points:
 
 Following reciprocal coordinates:
            Coordinates               Weight
  0.000000  0.000000  0.000000      1.000000
  0.500000 -0.000000  0.000000      1.000000
 -0.000000  0.500000  0.000000      1.000000
  0.500000  0.500000  0.000000      1.000000
  0.000000  0.000000  0.500000      1.000000
  0.500000 -0.000000  0.500000      1.000000
 -0.000000  0.500000  0.500000      1.000000
  0.500000  0.500000  0.500000      1.000000
 
 Following cartesian coordinates:
            Coordinates               Weight
  0.000000  0.000000  0.000000      1.000000
  0.047012  0.000353  0.000000      1.000000
  0.000353  0.046306  0.000000      1.000000
  0.047364  0.046659  0.000000      1.000000
  0.000000  0.000000  0.046304      1.000000
  0.047012  0.000353  0.046304      1.000000
  0.000353  0.046306  0.046304      1.000000
  0.047364  0.046659  0.046304      1.000000
 


--------------------------------------------------------------------------------------------------------




 Dimension of arrays:
   k-points           NKPTS =      8   k-points in BZ     NKDIM =      8   number of bands    NBANDS=    162
   number of dos      NEDOS =    301   number of ions     NIONS =     64
   non local maximal  LDIM  =      4   non local SUM 2l+1 LMDIM =      8
   total plane-waves  NPLWV = 343000
   max r-space proj   IRMAX =   3098   max aug-charges    IRDMAX=  74170
   dimension x,y,z NGX =    70 NGY =   70 NGZ =   70
   dimension x,y,z NGXF=   140 NGYF=  140 NGZF=  140
   support grid    NGXF=   280 NGYF=  280 NGZF=  280
   ions per type =              64
   NGX,Y,Z   is equivalent  to a cutoff of  10.94, 10.78, 10.78 a.u.
   NGXF,Y,Z  is equivalent  to a cutoff of  21.88, 21.55, 21.55 a.u.

 SYSTEM =  Si64                                    
 POSCAR =  Si8                                     

 Startparameter for this run:
   NWRITE =      2    write-flag & timer
   PREC   = accura    normal or accurate (medium, high low for compatibility)
   ISTART =      0    job   : 0-new  1-cont  2-samecut
   ICHARG =      2    charge: 1-file 2-atom 10-const
   ISPIN  =      1    spin polarized calculation?
   LNONCOLLINEAR =      F non collinear calculations
   LSORBIT =      F    spin-orbit coupling
   INIWAV =      1    electr: 0-lowe 1-rand  2-diag
   LASPH  =      F    aspherical Exc in radial PAW
 Electronic Relaxation 1
   ENCUT  =  400.0 eV  29.40 Ry    5.42 a.u.  17.35 17.61 17.61*2*pi/ulx,y,z
   ENINI  =  400.0     initial cutoff
   ENAUG  =  322.1 eV  augmentation charge cutoff
   NELM   =     60;   NELMIN=  8; NELMDL= -5     # of ELM steps 
   EDIFF  = 0.1E-05   stopping-criterion for ELM
   LREAL  =      T    real-space projection
   NLSPLINE    = F    spline interpolate recip. space projectors
   LCOMPAT=      F    compatible to vasp.4.4
   GGA_COMPAT  = F    GGA compatible to vasp.4.4-vasp.4.6
   LMAXPAW     = -100 max onsite density
   LMAXMIX     =    2 max onsite mixed and CHGCAR
   VOSKOWN=      0    Vosko Wilk Nusair interpolation
   ROPT   =   -0.00025
 Ionic relaxation
   EDIFFG = -.1E-01   stopping-criterion for IOM
   NSW    =     60    number of steps for IOM
   NBLOCK =      1;   KBLOCK =     60    inner block; outer block 
   IBRION =      2    ionic relax: 0-MD 1-quasi-New 2-CG
   NFREE  =      1    steps in history (QN), initial steepest desc. (CG)
   ISIF   =      2    stress and relaxation
   IWAVPR =     11    prediction:  0-non 1-charg 2-wave 3-comb
   ISYM   =      2    0-nonsym 1-usesym 2-fastsym
   LCORR  =      T    Harris-Foulkes like correction to forces

   POTIM  = 0.5000    time-step for ionic-motion
   TEIN   =    0.0    initial temperature
   TEBEG  =    0.0;   TEEND  =   0.0 temperature during run
   SMASS  =  -3.00    Nose mass-parameter (am)
   estimated Nose-frequenzy (Omega)   =  0.10E-29 period in steps = 0.13E+47 mass=  -0.259E-26a.u.
   SCALEE = 1.0000    scale energy and forces
   NPACO  =    256;   APACO  = 10.0  distance and # of slots for P.C.
   PSTRESS=    0.0 pullay stress

  Mass of Ions in am
   POMASS =  28.09
  Ionic Valenz
   ZVAL   =   4.00
  Atomic Wigner-Seitz radii
   RWIGS  =  -1.00
  virtual crystal weights 
   VCA    =   1.00
   NELECT =     256.0000    total number of electrons
   NUPDOWN=      -1.0000    fix difference up-down

 DOS related values:
   EMIN   =  10.00;   EMAX   =-10.00  energy-range for DOS
   EFERMI =   0.00;   METHOD = LEGACY      
   ISMEAR =     1;   SIGMA  =   0.20  broadening in eV -4-tet -1-fermi 0-gaus

 Electronic relaxation 2 (details)
   IALGO  =     68    algorithm
   LDIAG  =      T    sub-space diagonalisation (order eigenvalues)
   LSUBROT=      F    optimize rotation matrix (better conditioning)
   TURBO    =      0    0=normal 1=particle mesh
   IRESTART =      0    0=no restart 2=restart with 2 vectors
   NREBOOT  =      0    no. of reboots
   NMIN     =      0    reboot dimension
   EREF     =   0.00    reference energy to select bands
   IMIX   =      4    mixing-type and parameters
     AMIX     =   0.40;   BMIX     =  1.00
     AMIX_MAG =   1.60;   BMIX_MAG =  1.00
     AMIN     =   0.10
     WC   =   100.;   INIMIX=   1;  MIXPRE=   1;  MAXMIX= -45

 Intra band minimization:
   WEIMIN = 0.0010     energy-eigenvalue tresh-hold
   EBREAK =  0.15E-08  absolut break condition
   DEPER  =   0.30     relativ break condition  

   TIME   =   0.40     timestep for ELM

  volume/ion in A,a.u.               =      19.38       130.76
  Fermi-wavevector in a.u.,A,eV,Ry     =   0.967528  1.828364 12.736566  0.936111
  Thomas-Fermi vector in A             =   2.097422
 
 Write flags
   LWAVE        =      F    write WAVECAR
   LDOWNSAMPLE  =      F    k-point downsampling of WAVECAR
   LCHARG       =      F    write CHGCAR
   LVTOT        =      F    write LOCPOT, total local potential
   LVHAR        =      F    write LOCPOT, Hartree potential only
   WRT_POTENTIAL= false  ! write potential to hdf5 file
   LELF         =      F    write electronic localiz. function (ELF)
   LORBIT       =      0    0 simple, 1 ext, 2 COOP (PROOUT), +10 PAW based schemes


 Dipole corrections
   LMONO      =      F    monopole corrections only (constant potential shift)
   LDIPOL     =      F    correct potential (dipole corrections)
   IDIPOL     =      0    1-x, 2-y, 3-z, 4-all directions 
   EPSILON    =  1.0000000 bulk dielectric constant
   LVACPOTAV  =      F  vacuum potentials using an averaging scheme for the charge density
   VACPOTFLAT =  0.1000000 required flatness to determine vacuum potential
 Exchange correlation treatment:
   GGA     = PS    functional components
   XC_C    = 1    coefficients multiplying the functional components
   LIBXC   =     F    Libxc                    
   VOSKOWN =     0    Vosko Wilk Nusair interpolation
   LHFCALC =     F    Hartree Fock is set to
   LHFONE  =     F    Hartree Fock one center treatment
   AEXX    =    0.0000 exact exchange contribution

 Parameters of functionals:
   PS:
     No parameter
 
 Van der Waals corrections
   IVDW    =     0    specifies the selected vdW correction

 Linear response parameters
   LEPSILON=     F    determine dielectric tensor
   LRPA    =     F    only Hartree local field effects (RPA)
   LNABLA  =     F    use nabla operator in PAW spheres
   LVEL    =     F    velocity operator in full k-point grid
   CSHIFT  =0.1000    complex shift for real part using Kramers Kronig
   OMEGAMAX=  -1.0    maximum frequency
   DEG_THRESHOLD= 0.2000000E-02 threshold for treating states as degnerate
   RTIME   =   -0.100 relaxation time in fs
  (WPLASMAI=    0.000 imaginary part of plasma frequency in eV, 0.658/RTIME)
   DFIELD  = 0.0000000 0.0000000 0.0000000 field for delta impulse in time
 
  Optional k-point grid parameters
   LKPOINTS_OPT  =     F    use optional k-point grid
   KPOINTS_OPT_MODE=     1    mode for optional k-point grid
 
 Orbital magnetization related:
   ORBITALMAG=     F  switch on orbital magnetization
   LCHIMAG   =     F  perturbation theory with respect to B field
   DQ        =  0.001000  dq finite difference perturbation B field
   LLRAUG    =     F  two centre corrections for induced B field
   LBONE     =     F  B-component reconstruction in AE one-centre
   LVGVCALC  =     T  calculate vGv susceptibility
   LVGVAPPL  =     F  apply vGv susceptibility instead of pGv for G=0

 Random number generation:
   RANDOM_GENERATOR = DEFAULT
   PCG_SEED         = not used


--------------------------------------------------------------------------------------------------------


 conjugate gradient relaxation of ions
 charge density and potential will be updated during run
 non-spin polarized calculation
 RMM-DIIS sequential band-by-band and
  variant of blocked Davidson during initial phase
 perform sub-space diagonalisation
    before iterative eigenvector-optimisation
 modified Broyden-mixing scheme, WC =      100.0
 initial mixing is a Kerker type mixing with AMIX =  0.4000 and BMIX =      1.0000
 Hartree-type preconditioning will be used
 using additional bands           34
 real space projection scheme for non local part
 use partial core corrections
 calculate Harris-corrections to forces 
   (improved forces if not selfconsistent)
 use gradient corrections 
 use of overlap-Matrix (Vanderbilt PP)
 Methfessel and Paxton  Order N= 1 SIGMA  =   0.20


--------------------------------------------------------------------------------------------------------


  energy-cutoff  :      400.00
  volume of cell :     1240.15
      direct lattice vectors                 reciprocal lattice vectors
    10.636290571 -0.080987012  0.000000000     0.094023109  0.000705174  0.000000000
    -0.080987012 10.798264595  0.000000000     0.000705174  0.092612762  0.000000000
     0.000000000  0.000000000 10.798264595     0.000000000  0.000000000  0.092607473

  length of vectors
    10.636598893 10.798568292 10.798264595     0.094025754  0.092615447  0.092607473


 
 k-points in units of 2pi/SCALE and weight: Automatic mesh                          
   0.00000000  0.00000000  0.00000000       0.125
   0.04701156  0.00035259  0.00000000       0.125
   0.00035259  0.04630639  0.00000000       0.125
   0.04736415  0.04665897  0.00000000       0.125
   0.00000000  0.00000000  0.04630374       0.125
   0.04701156  0.00035259  0.04630374       0.125
   0.00035259  0.04630639  0.04630374       0.125
   0.04736415  0.04665897  0.04630374       0.125
 
 k-points in reciprocal lattice and weights: Automatic mesh                          
   0.00000000  0.00000000  0.00000000       0.125
   0.50000000 -0.00000000  0.00000000       0.125
  -0.00000000  0.50000000  0.00000000       0.125
   0.50000000  0.50000000  0.00000000       0.125
   0.00000000  0.00000000  0.50000000       0.125
   0.50000000 -0.00000000  0.50000000       0.125
  -0.00000000  0.50000000  0.50000000       0.125
   0.50000000  0.50000000  0.50000000       0.125
 
 position of ions in fractional coordinates (direct lattice) 
   0.00000000  0.00000000  0.00000000
   0.00000000  0.00000000  0.50000000
   0.00000000  0.50000000  0.00000000
   0.00000000  0.50000000  0.50000000
   0.50000000  0.00000000  0.00000000
   0.50000000  0.00000000  0.50000000
   0.50000000  0.50000000  0.00000000
   0.50000000  0.50000000  0.50000000
   0.37500000  0.37500000  0.12500000
   0.37500000  0.37500000  0.62500000
   0.37500000  0.87500000  0.12500000
   0.37500000  0.87500000  0.62500000
   0.87500000  0.37500000  0.12500000
   0.87500000  0.37500000  0.62500000
   0.87500000  0.87500000  0.12500000
   0.87500000  0.87500000  0.62500000
   0.00000000  0.25000000  0.25000000
   0.00000000  0.25000000  0.75000000
   0.00000000  0.75000000  0.25000000
   0.00000000  0.75000000  0.75000000
   0.50000000  0.25000000  0.25000000
   0.50000000  0.25000000  0.75000000
   0.50000000  0.75000000  0.25000000
   0.50000000  0.75000000  0.75000000
   0.37500000  0.12500000  0.37500000
   0.37500000  0.12500000  0.87500000
   0.37500000  0.62500000  0.37500000
   0.37500000  0.62500000  0.87500000
   0.87500000  0.12500000  0.37500000
   0.87500000  0.12500000  0.87500000
   0.87500000  0.62500000  0.37500000
   0.87500000  0.62500000  0.87500000
   0.25000000  0.00000000  0.25000000
   0.25000000  0.00000000  0.75000000
   0.25000000  0.50000000  0.25000000
   0.25000000  0.50000000  0.75000000
   0.75000000  0.00000000  0.25000000
   0.75000000  0.00000000  0.75000000
   0.75000000  0.50000000  0.25000000
   0.75000000  0.50000000  0.75000000
   0.12500000  0.37500000  0.37500000
   0.12500000  0.37500000  0.87500000
   0.12500000  0.87500000  0.37500000
   0.12500000  0.87500000  0.87500000
   0.62500000  0.37500000  0.37500000
   0.62500000  0.37500000  0.87500000
   0.62500000  0.87500000  0.37500000
   0.62500000  0.87500000  0.87500000
   0.25000000  0.25000000  0.00000000
   0.25000000  0.25000000  0.50000000
   0.25000000  0.75000000  0.00000000
   0.25000000  0.75000000  0.50000000
   0.75000000  0.25000000  0.00000000
   0.75000000  0.25000000  0.50000000
   0.75000000  0.75000000  0.00000000
   0.75000000  0.75000000  0.50000000
   0.12500000  0.12500000  0.12500000
   0.12500000  0.12500000  0.62500000
   0.12500000  0.62500000  0.12500000
   0.12500000  0.62500000  0.62500000
   0.62500000  0.12500000  0.12500000
   0.62500000  0.12500000  0.62500000
   0.62500000  0.62500000  0.12500000
   0.62500000  0.62500000  0.62500000
 
 position of ions in cartesian coordinates  (Angst):
   0.00000000  0.00000000  0.00000000
   0.00000000  0.00000000  5.39913230
  -0.04049351  5.39913230  0.00000000
  -0.04049351  5.39913230  5.39913230
   5.31814529 -0.04049351  0.00000000
   5.31814529 -0.04049351  5.39913230
   5.27765178  5.35863879  0.00000000
   5.27765178  5.35863879  5.39913230
   3.95823883  4.01897909  1.34978307
   3.95823883  4.01897909  6.74891537
   3.91774533  9.41811139  1.34978307
   3.91774533  9.41811139  6.74891537
   9.27638412  3.97848559  1.34978307
   9.27638412  3.97848559  6.74891537
   9.23589061  9.37761788  1.34978307
   9.23589061  9.37761788  6.74891537
  -0.02024675  2.69956615  2.69956615
  -0.02024675  2.69956615  8.09869845
  -0.06074026  8.09869845  2.69956615
  -0.06074026  8.09869845  8.09869845
   5.29789853  2.65907264  2.69956615
   5.29789853  2.65907264  8.09869845
   5.25740503  8.05820494  2.69956615
   5.25740503  8.05820494  8.09869845
   3.97848559  1.31941294  4.04934922
   3.97848559  1.31941294  9.44848152
   3.93799208  6.71854524  4.04934922
   3.93799208  6.71854524  9.44848152
   9.29663087  1.27891944  4.04934922
   9.29663087  1.27891944  9.44848152
   9.25613737  6.67805174  4.04934922
   9.25613737  6.67805174  9.44848152
   2.65907264 -0.02024675  2.69956615
   2.65907264 -0.02024675  8.09869845
   2.61857914  5.37888554  2.69956615
   2.61857914  5.37888554  8.09869845
   7.97721793 -0.06074026  2.69956615
   7.97721793 -0.06074026  8.09869845
   7.93672442  5.33839204  2.69956615
   7.93672442  5.33839204  8.09869845
   1.29916619  4.03922585  4.04934922
   1.29916619  4.03922585  9.44848152
   1.25867269  9.43835814  4.04934922
   1.25867269  9.43835814  9.44848152
   6.61731148  3.99873234  4.04934922
   6.61731148  3.99873234  9.44848152
   6.57681797  9.39786464  4.04934922
   6.57681797  9.39786464  9.44848152
   2.63882589  2.67931940  0.00000000
   2.63882589  2.67931940  5.39913230
   2.59833238  8.07845169  0.00000000
   2.59833238  8.07845169  5.39913230
   7.95697118  2.63882589  0.00000000
   7.95697118  2.63882589  5.39913230
   7.91647767  8.03795819  0.00000000
   7.91647767  8.03795819  5.39913230
   1.31941294  1.33965970  1.34978307
   1.31941294  1.33965970  6.74891537
   1.27891944  6.73879200  1.34978307
   1.27891944  6.73879200  6.74891537
   6.63755823  1.29916619  1.34978307
   6.63755823  1.29916619  6.74891537
   6.59706472  6.69829849  1.34978307
   6.59706472  6.69829849  6.74891537
 


--------------------------------------------------------------------------------------------------------


 k-point     1 :   0.0000 0.0000 0.0000  plane waves:   22577
 k-point     2 :   0.5000-0.0000 0.0000  plane waves:   22526
 k-point     3 :  -0.0000 0.5000 0.0000  plane waves:   22510
 k-point     4 :   0.5000 0.5000 0.0000  plane waves:   22504
 k-point     5 :   0.0000 0.0000 0.5000  plane waves:   22536
 k-point     6 :   0.5000-0.0000 0.5000  plane waves:   22548
 k-point     7 :  -0.0000 0.5000 0.5000  plane waves:   22520
 k-point     8 :   0.5000 0.5000 0.5000  plane waves:   22484

 maximum and minimum number of plane-waves per node :      1911     1851

 maximum number of plane-waves:     22577
 maximum index in each direction: 
   IXMAX=   17   IYMAX=   17   IZMAX=   17
   IXMIN=  -17   IYMIN=  -18   IZMIN=  -18


 real space projection operators:
  total allocation   :      11838.50 KBytes
  max/ min on nodes  :       1027.50        854.75


 parallel 3D FFT for wavefunctions:
    minimum data exchange during FFTs selected (reduces bandwidth)
 parallel 3D FFT for charge:
    minimum data exchange during FFTs selected (reduces bandwidth)


 total amount of memory used by VASP MPI-rank0    79755. kBytes
=======================================================================

   base      :      30000. kBytes
   nonlr-proj:       4563. kBytes
   fftplans  :      17993. kBytes
   grid      :       6881. kBytes
   one-center:         18. kBytes
   wavefun   :      20300. kBytes
 
     INWAV:  cpu time      0.0000: real time      0.0000
 Broyden mixing: mesh for mixing (old mesh)
   NGX = 35   NGY = 35   NGZ = 35
  (NGX  =140   NGY  =140   NGZ  =140)
  gives a total of  42875 points

 initial charge density was supplied:
 charge density of overlapping atoms calculated
 number of electron     256.0000000 magnetization 
 keeping initial charge density in first step


--------------------------------------------------------------------------------------------------------


 Maximum index for non-local projection operator          274
 Maximum index for augmentation-charges         3674 (set IRDMAX)


--------------------------------------------------------------------------------------------------------


 First call to EWALD:  gamma=   0.165
 Maximum number of real-space cells 3x 3x 3
 Maximum number of reciprocal cells 3x 3x 3

    FEWALD:  cpu time      0.0102: real time      0.0103


--------------------------------------- Ionic step        1  -------------------------------------------




--------------------------------------- Iteration      1(   1)  ---------------------------------------


    POTLOK:  cpu time      0.0926: real time      0.1018
    SETDIJ:  cpu time      0.0865: real time      0.0875
     EDDAV:  cpu time      1.2750: real time      1.3270
       DOS:  cpu time      0.0113: real time      0.0133
    --------------------------------------------
      LOOP:  cpu time      1.4654: real time      1.5296

 eigenvalue-minimisations  :  2592
 total energy-change (2. order) : 0.5610093E+03  (-0.8440681E+04)
 number of electron     256.0000000 magnetization 
 augmentation part      256.0000000 magnetization 

 Free energy of the ion-electron system (eV)
  ---------------------------------------------------
  alpha Z        PSCENC =       111.18370221
  Ewald energy   TEWEN  =     -7393.08322287
  -Hartree energ DENC   =      -336.74174385
  -exchange      EXHF   =         0.00000000
  -V(xc)+E(xc)   XCENC  =      -554.75141344
  PAW double counting   =      5598.62625415    -4492.17844134
  entropy T*S    EENTRO =         0.01232323
  eigenvalues    EBANDS =      1063.14602208
  atomic energy  EATOM  =      6564.79586099
  Solvation  Ediel_sol  =         0.00000000
  ---------------------------------------------------
  free energy    TOTEN  =       561.00934116 eV

  energy without entropy =      560.99701794  energy(sigma->0) =      561.00523342


--------------------------------------------------------------------------------------------------------




--------------------------------------- Iteration      1(   2)  ---------------------------------------


     EDDAV:  cpu time      1.3346: real time      1.3439
       DOS:  cpu time      0.0019: real time      0.0019
    --------------------------------------------
      LOOP:  cpu time      1.3365: real time      1.3458

 eigenvalue-minimisations  :  3088
 total energy-change (2. order) :-0.8716827E+03  (-0.8267637E+03)
 number of electron     256.0000000 magnetization 
 augmentation part      256.0000000 magnetization 

 Free energy of the ion-electron system (eV)
  ---------------------------------------------------
  alpha Z        PSCENC =       111.18370221
  Ewald energy   TEWEN  =     -7393.08322287
  -Hartree energ DENC   =      -336.74174385
  -exchange      EXHF   =         0.00000000
  -V(xc)+E(xc)   XCENC  =      -554.75141344
  PAW double counting   =      5598.62625415    -4492.17844134
  entropy T*S    EENTRO =         0.02472059
  eigenvalues    EBANDS =       191.45094614
  atomic energy  EATOM  =      6564.79586099
  Solvation  Ediel_sol  =         0.00000000
  ---------------------------------------------------
  free energy    TOTEN  =      -310.67333741 eV

  energy without entropy =     -310.69805800  energy(sigma->0) =     -310.68157761


--------------------------------------------------------------------------------------------------------




--------------------------------------- Iteration      1(   3)  ---------------------------------------


     EDDAV:  cpu time      1.3393: real time      1.3525
       DOS:  cpu time      0.0018: real time      0.0018
    --------------------------------------------
      LOOP:  cpu time      1.3410: real time      1.3543

 eigenvalue-minimisations  :  3136
 total energy-change (2. order) :-0.6252686E+02  (-0.6137362E+02)
 number of electron     256.0000000 magnetization 
 augmentation part      256.0000000 magnetization 

 Free energy of the ion-electron system (eV)
  ---------------------------------------------------
  alpha Z        PSCENC =       111.18370221
  Ewald energy   TEWEN  =     -7393.08322287
  -Hartree energ DENC   =      -336.74174385
  -exchange      EXHF   =         0.00000000
  -V(xc)+E(xc)   XCENC  =      -554.75141344
  PAW double counting   =      5598.62625415    -4492.17844134
  entropy T*S    EENTRO =         0.00783768
  eigenvalues    EBANDS =       128.94096581
  atomic energy  EATOM  =      6564.79586099
  Solvation  Ediel_sol  =         0.00000000
  ---------------------------------------------------
  free energy    TOTEN  =      -373.20020065 eV

  energy without entropy =     -373.20803833  energy(sigma->0) =     -373.20281321


--------------------------------------------------------------------------------------------------------




--------------------------------------- Iteration      1(   4)  ---------------------------------------


     EDDAV:  cpu time      1.3391: real time      1.3549
       DOS:  cpu time      0.0014: real time      0.0014
    --------------------------------------------
      LOOP:  cpu time      1.3406: real time      1.3563

 eigenvalue-minimisations  :  3168
 total energy-change (2. order) :-0.1618103E+01  (-0.1606573E+01)
 number of electron     256.0000000 magnetization 
 augmentation part      256.0000000 magnetization 

 Free energy of the ion-electron system (eV)
  ---------------------------------------------------
  alpha Z        PSCENC =       111.18370221
  Ewald energy   TEWEN  =     -7393.08322287
  -Hartree energ DENC   =      -336.74174385
  -exchange      EXHF   =         0.00000000
  -V(xc)+E(xc)   XCENC  =      -554.75141344
  PAW double counting   =      5598.62625415    -4492.17844134
  entropy T*S    EENTRO =         0.00826489
  eigenvalues    EBANDS =       127.32243524
  atomic energy  EATOM  =      6564.79586099
  Solvation  Ediel_sol  =         0.00000000
  ---------------------------------------------------
  free energy    TOTEN  =      -374.81830402 eV

  energy without entropy =     -374.82656891  energy(sigma->0) =     -374.82105898


--------------------------------------------------------------------------------------------------------




--------------------------------------- Iteration      1(   5)  ---------------------------------------


     EDDAV:  cpu time      1.3107: real time      1.3311
       DOS:  cpu time      0.0013: real time      0.0013
    CHARGE:  cpu time      0.2466: real time      0.2502
    MIXING:  cpu time      0.0087: real time      0.0100
    --------------------------------------------
      LOOP:  cpu time      1.5673: real time      1.5926

 eigenvalue-minimisations  :  3088
 total energy-change (2. order) :-0.4700676E-01  (-0.4691200E-01)
 number of electron     256.0000000 magnetization 
 augmentation part      -15.0397645 magnetization 

 Broyden mixing:
  rms(total) = 0.29350E+01    rms(broyden)= 0.29350E+01
  rms(prec ) = 0.32330E+01
  weight for this iteration     100.00

 Free energy of the ion-electron system (eV)
  ---------------------------------------------------
  alpha Z        PSCENC =       111.18370221
  Ewald energy   TEWEN  =     -7393.08322287
  -Hartree energ DENC   =      -336.74174385
  -exchange      EXHF   =         0.00000000
  -V(xc)+E(xc)   XCENC  =      -554.75141344
  PAW double counting   =      5598.62625415    -4492.17844134
  entropy T*S    EENTRO =         0.00822888
  eigenvalues    EBANDS =       127.27546448
  atomic energy  EATOM  =      6564.79586099
  Solvation  Ediel_sol  =         0.00000000
  ---------------------------------------------------
  free energy    TOTEN  =      -374.86531078 eV

  energy without entropy =     -374.87353966  energy(sigma->0) =     -374.86805374


--------------------------------------------------------------------------------------------------------




--------------------------------------- Iteration      1(   6)  ---------------------------------------


    POTLOK:  cpu time      0.0774: real time      0.0920
    SETDIJ:  cpu time      0.0691: real time      0.0692
    EDDIAG:  cpu time      0.1403: real time      0.1443
  RMM-DIIS:  cpu time      0.7069: real time      0.7108
    ORTHCH:  cpu time      0.0212: real time      0.0213
       DOS:  cpu time      0.0013: real time      0.0013
    CHARGE:  cpu time      0.2333: real time      0.2339
    MIXING:  cpu time      0.0057: real time      0.0077
    --------------------------------------------
      LOOP:  cpu time      1.2551: real time      1.2805

 eigenvalue-minimisations  :  2592
 total energy-change (2. order) : 0.5495850E+01  (-0.2814632E+00)
 number of electron     256.0000000 magnetization 
 augmentation part      -14.8675884 magnetization 

 Broyden mixing:
  rms(total) = 0.17677E+01    rms(broyden)= 0.17677E+01
  rms(prec ) = 0.19367E+01
  weight for this iteration     100.00

 eigenvalues of (default mixing * dielectric matrix)
  average eigenvalue GAMMA=   2.5087
  2.5087

 Free energy of the ion-electron system (eV)
  ---------------------------------------------------
  alpha Z        PSCENC =       111.18370221
  Ewald energy   TEWEN  =     -7393.08322287
  -Hartree energ DENC   =      -384.61516001
  -exchange      EXHF   =         0.00000000
  -V(xc)+E(xc)   XCENC  =      -547.18186733
  PAW double counting   =     12788.22346103   -11685.38847449
  entropy T*S    EENTRO =         0.02195530
  eigenvalues    EBANDS =       176.67428416
  atomic energy  EATOM  =      6564.79586099
  Solvation  Ediel_sol  =         0.00000000
  ---------------------------------------------------
  free energy    TOTEN  =      -369.36946101 eV

  energy without entropy =     -369.39141631  energy(sigma->0) =     -369.37677944


--------------------------------------------------------------------------------------------------------




--------------------------------------- Iteration      1(   7)  ---------------------------------------


    POTLOK:  cpu time      0.0741: real time      0.0890
    SETDIJ:  cpu time      0.0719: real time      0.0720
    EDDIAG:  cpu time      0.1396: real time      0.1400
  RMM-DIIS:  cpu time      0.7021: real time      0.7038
    ORTHCH:  cpu time      0.0209: real time      0.0210
       DOS:  cpu time      0.0017: real time      0.0017
    CHARGE:  cpu time      0.2344: real time      0.2354
    MIXING:  cpu time      0.0069: real time      0.0069
    --------------------------------------------
      LOOP:  cpu time      1.2516: real time      1.2698

 eigenvalue-minimisations  :  2647
 total energy-change (2. order) : 0.2444980E+01  (-0.7178689E+00)
 number of electron     256.0000000 magnetization 
 augmentation part      -14.6251383 magnetization 

 Broyden mixing:
  rms(total) = 0.10478E+00    rms(broyden)= 0.10478E+00
  rms(prec ) = 0.13186E+00
  weight for this iteration     100.00

 eigenvalues of (default mixing * dielectric matrix)
  average eigenvalue GAMMA=   2.2751
  2.2751  2.2751

 Free energy of the ion-electron system (eV)
  ---------------------------------------------------
  alpha Z        PSCENC =       111.18370221
  Ewald energy   TEWEN  =     -7393.08322287
  -Hartree energ DENC   =      -463.56822136
  -exchange      EXHF   =         0.00000000
  -V(xc)+E(xc)   XCENC  =      -534.12140929
  PAW double counting   =     30244.47006853   -29146.66065621
  entropy T*S    EENTRO =         0.02859247
  eigenvalues    EBANDS =       250.03080476
  atomic energy  EATOM  =      6564.79586099
  Solvation  Ediel_sol  =         0.00000000
  ---------------------------------------------------
  free energy    TOTEN  =      -366.92448076 eV

  energy without entropy =     -366.95307322  energy(sigma->0) =     -366.93401158


--------------------------------------------------------------------------------------------------------




--------------------------------------- Iteration      1(   8)  ---------------------------------------


    POTLOK:  cpu time      0.0735: real time      0.0866
    SETDIJ:  cpu time      0.0801: real time      0.0803
    EDDIAG:  cpu time      0.1434: real time      0.1439
  RMM-DIIS:  cpu time      0.7074: real time      0.7092
    ORTHCH:  cpu time      0.0213: real time      0.0214
       DOS:  cpu time      0.0020: real time      0.0020
    CHARGE:  cpu time      0.2348: real time      0.2357
    MIXING:  cpu time      0.0068: real time      0.0068
    --------------------------------------------
      LOOP:  cpu time      1.2691: real time      1.2858

 eigenvalue-minimisations  :  2623
 total energy-change (2. order) :-0.3956467E-01  (-0.6798770E-01)
 number of electron     256.0000000 magnetization 
 augmentation part      -14.6793662 magnetization 

 Broyden mixing:
  rms(total) = 0.51344E-01    rms(broyden)= 0.51344E-01
  rms(prec ) = 0.54835E-01
  weight for this iteration     100.00

 eigenvalues of (default mixing * dielectric matrix)
  average eigenvalue GAMMA=   2.0969
  2.5482  1.8712  1.8712

 Free energy of the ion-electron system (eV)
  ---------------------------------------------------
  alpha Z        PSCENC =       111.18370221
  Ewald energy   TEWEN  =     -7393.08322287
  -Hartree energ DENC   =      -455.54883750
  -exchange      EXHF   =         0.00000000
  -V(xc)+E(xc)   XCENC  =      -534.78193006
  PAW double counting   =     29933.14624162   -28834.37216027
  entropy T*S    EENTRO =         0.03011863
  eigenvalues    EBANDS =       241.66618181
  atomic energy  EATOM  =      6564.79586099
  Solvation  Ediel_sol  =         0.00000000
  ---------------------------------------------------
  free energy    TOTEN  =      -366.96404543 eV

  energy without entropy =     -366.99416406  energy(sigma->0) =     -366.97408497


--------------------------------------------------------------------------------------------------------




--------------------------------------- Iteration      1(   9)  ---------------------------------------


    POTLOK:  cpu time      0.0872: real time      0.0887
    SETDIJ:  cpu time      0.0733: real time      0.0735
    EDDIAG:  cpu time      0.1351: real time      0.1357
  RMM-DIIS:  cpu time      0.7149: real time      0.7166
    ORTHCH:  cpu time      0.0210: real time      0.0211
       DOS:  cpu time      0.0015: real time      0.0015
    CHARGE:  cpu time      0.2284: real time      0.2343
    MIXING:  cpu time      0.0079: real time      0.0079
    --------------------------------------------
      LOOP:  cpu time      1.2692: real time      1.2791

 eigenvalue-minimisations  :  2672
 total energy-change (2. order) :-0.2090022E-01  (-0.1956567E-01)
 number of electron     256.0000000 magnetization 
 augmentation part      -14.6675236 magnetization 

 Broyden mixing:
  rms(total) = 0.58848E-01    rms(broyden)= 0.58848E-01
  rms(prec ) = 0.66159E-01
  weight for this iteration     100.00

 eigenvalues of (default mixing * dielectric matrix)
  average eigenvalue GAMMA=   1.7534
  2.5425  2.1055  2.1055  0.2601

 Free energy of the ion-electron system (eV)
  ---------------------------------------------------
  alpha Z        PSCENC =       111.18370221
  Ewald energy   TEWEN  =     -7393.08322287
  -Hartree energ DENC   =      -458.47807529
  -exchange      EXHF   =         0.00000000
  -V(xc)+E(xc)   XCENC  =      -534.38201490
  PAW double counting   =     30305.74702163   -29207.21457075
  entropy T*S    EENTRO =         0.02990667
  eigenvalues    EBANDS =       244.41644665
  atomic energy  EATOM  =      6564.79586099
  Solvation  Ediel_sol  =         0.00000000
  ---------------------------------------------------
  free energy    TOTEN  =      -366.98494565 eV

  energy without entropy =     -367.01485232  energy(sigma->0) =     -366.99491454


--------------------------------------------------------------------------------------------------------




--------------------------------------- Iteration      1(  10)  ---------------------------------------


    POTLOK:  cpu time      0.0744: real time      0.0888
    SETDIJ:  cpu time      0.0738: real time      0.0740
    EDDIAG:  cpu time      0.1347: real time      0.1350
  RMM-DIIS:  cpu time      0.7439: real time      0.7457
    ORTHCH:  cpu time      0.0376: real time      0.0377
       DOS:  cpu time      0.0014: real time      0.0014
    CHARGE:  cpu time      0.2338: real time      0.2345
    MIXING:  cpu time      0.0078: real time      0.0078
    --------------------------------------------
      LOOP:  cpu time      1.3073: real time      1.3248

 eigenvalue-minimisations  :  2736
 total energy-change (2. order) :-0.3676630E-02  (-0.3318632E-02)
 number of electron     256.0000000 magnetization 
 augmentation part      -14.6737015 magnetization 

 Broyden mixing:
  rms(total) = 0.79254E-01    rms(broyden)= 0.79254E-01
  rms(prec ) = 0.85841E-01
  weight for this iteration     100.00

 eigenvalues of (default mixing * dielectric matrix)
  average eigenvalue GAMMA=   1.5781
  2.6777  2.2037  1.8048  0.6023  0.6023

 Free energy of the ion-electron system (eV)
  ---------------------------------------------------
  alpha Z        PSCENC =       111.18370221
  Ewald energy   TEWEN  =     -7393.08322287
  -Hartree energ DENC   =      -458.62307208
  -exchange      EXHF   =         0.00000000
  -V(xc)+E(xc)   XCENC  =      -534.36548208
  PAW double counting   =     30341.27845473   -29242.75188348
  entropy T*S    EENTRO =         0.02988580
  eigenvalues    EBANDS =       244.54713449
  atomic energy  EATOM  =      6564.79586099
  Solvation  Ediel_sol  =         0.00000000
  ---------------------------------------------------
  free energy    TOTEN  =      -366.98862228 eV

  energy without entropy =     -367.01850808  energy(sigma->0) =     -366.99858421


--------------------------------------------------------------------------------------------------------




--------------------------------------- Iteration      1(  11)  ---------------------------------------


    POTLOK:  cpu time      0.0744: real time      0.0882
    SETDIJ:  cpu time      0.0723: real time      0.0725
    EDDIAG:  cpu time      0.1341: real time      0.1345
  RMM-DIIS:  cpu time      0.6957: real time      0.6976
    ORTHCH:  cpu time      0.0208: real time      0.0209
       DOS:  cpu time      0.0020: real time      0.0020
    CHARGE:  cpu time      0.2335: real time      0.2342
    MIXING:  cpu time      0.0088: real time      0.0088
    --------------------------------------------
      LOOP:  cpu time      1.2416: real time      1.2586

 eigenvalue-minimisations  :  2592
 total energy-change (2. order) : 0.3158156E-02  (-0.1235969E-02)
 number of electron     256.0000000 magnetization 
 augmentation part      -14.6875526 magnetization 

 Broyden mixing:
  rms(total) = 0.63086E-01    rms(broyden)= 0.63086E-01
  rms(prec ) = 0.63628E-01
  weight for this iteration     100.00

 eigenvalues of (default mixing * dielectric matrix)
  average eigenvalue GAMMA=   1.4624
  2.5821  2.5821  1.2361  1.2361  0.8202  0.3175

 Free energy of the ion-electron system (eV)
  ---------------------------------------------------
  alpha Z        PSCENC =       111.18370221
  Ewald energy   TEWEN  =     -7393.08322287
  -Hartree energ DENC   =      -456.17286283
  -exchange      EXHF   =         0.00000000
  -V(xc)+E(xc)   XCENC  =      -534.53973224
  PAW double counting   =     30265.32759403   -29166.55297523
  entropy T*S    EENTRO =         0.03017483
  eigenvalues    EBANDS =       242.02599698
  atomic energy  EATOM  =      6564.79586099
  Solvation  Ediel_sol  =         0.00000000
  ---------------------------------------------------
  free energy    TOTEN  =      -366.98546412 eV

  energy without entropy =     -367.01563895  energy(sigma->0) =     -366.99552240


--------------------------------------------------------------------------------------------------------




--------------------------------------- Iteration      1(  12)  ---------------------------------------


    POTLOK:  cpu time      0.0767: real time      0.0919
    SETDIJ:  cpu time      0.0707: real time      0.0709
    EDDIAG:  cpu time      0.1337: real time      0.1340
  RMM-DIIS:  cpu time      0.6861: real time      0.6877
    ORTHCH:  cpu time      0.0209: real time      0.0209
       DOS:  cpu time      0.0016: real time      0.0016
    CHARGE:  cpu time      0.2334: real time      0.2341
    MIXING:  cpu time      0.0079: real time      0.0079
    --------------------------------------------
      LOOP:  cpu time      1.2308: real time      1.2490

 eigenvalue-minimisations  :  2608
 total energy-change (2. order) :-0.1589915E-03  (-0.1811877E-03)
 number of electron     256.0000000 magnetization 
 augmentation part      -14.6908861 magnetization 

 Broyden mixing:
  rms(total) = 0.61276E-01    rms(broyden)= 0.61276E-01
  rms(prec ) = 0.61613E-01
  weight for this iteration     100.00

 eigenvalues of (default mixing * dielectric matrix)
  average eigenvalue GAMMA=   1.3938
  2.5830  2.5830  0.7522  1.4401  1.1533  0.8448  0.4001

 Free energy of the ion-electron system (eV)
  ---------------------------------------------------
  alpha Z        PSCENC =       111.18370221
  Ewald energy   TEWEN  =     -7393.08322287
  -Hartree energ DENC   =      -455.99314766
  -exchange      EXHF   =         0.00000000
  -V(xc)+E(xc)   XCENC  =      -534.57045092
  PAW double counting   =     30180.00991796   -29081.24544362
  entropy T*S    EENTRO =         0.03017790
  eigenvalues    EBANDS =       241.88698288
  atomic energy  EATOM  =      6564.79586099
  Solvation  Ediel_sol  =         0.00000000
  ---------------------------------------------------
  free energy    TOTEN  =      -366.98562312 eV

  energy without entropy =     -367.01580102  energy(sigma->0) =     -366.99568242


--------------------------------------------------------------------------------------------------------




--------------------------------------- Iteration      1(  13)  ---------------------------------------


    POTLOK:  cpu time      0.0712: real time      0.0873
    SETDIJ:  cpu time      0.0758: real time      0.0759
    EDDIAG:  cpu time      0.1344: real time      0.1347
  RMM-DIIS:  cpu time      0.7212: real time      0.7229
    ORTHCH:  cpu time      0.0210: real time      0.0211
       DOS:  cpu time      0.0017: real time      0.0017
    CHARGE:  cpu time      0.2331: real time      0.2339
    MIXING:  cpu time      0.0091: real time      0.0091
    --------------------------------------------
      LOOP:  cpu time      1.2674: real time      1.2866

 eigenvalue-minimisations  :  2744
 total energy-change (2. order) :-0.5612812E-04  (-0.3401866E-04)
 number of electron     256.0000000 magnetization 
 augmentation part      -14.6913477 magnetization 

 Broyden mixing:
  rms(total) = 0.71280E-01    rms(broyden)= 0.71280E-01
  rms(prec ) = 0.71607E-01
  weight for this iteration     100.00

 eigenvalues of (default mixing * dielectric matrix)
  average eigenvalue GAMMA=   1.6237
  2.7521  2.7521  2.4470  1.9466  0.9936  0.8316  0.8316  0.4348

 Free energy of the ion-electron system (eV)
  ---------------------------------------------------
  alpha Z        PSCENC =       111.18370221
  Ewald energy   TEWEN  =     -7393.08322287
  -Hartree energ DENC   =      -456.04998094
  -exchange      EXHF   =         0.00000000
  -V(xc)+E(xc)   XCENC  =      -534.55728166
  PAW double counting   =     30251.22135256   -29152.45565811
  entropy T*S    EENTRO =         0.03017924
  eigenvalues    EBANDS =       241.92936932
  atomic energy  EATOM  =      6564.79586099
  Solvation  Ediel_sol  =         0.00000000
  ---------------------------------------------------
  free energy    TOTEN  =      -366.98567924 eV

  energy without entropy =     -367.01585849  energy(sigma->0) =     -366.99573899


--------------------------------------------------------------------------------------------------------




--------------------------------------- Iteration      1(  14)  ---------------------------------------


    POTLOK:  cpu time      0.0796: real time      0.0959
    SETDIJ:  cpu time      0.0726: real time      0.0728
    EDDIAG:  cpu time      0.1321: real time      0.1324
  RMM-DIIS:  cpu time      0.6863: real time      0.6883
    ORTHCH:  cpu time      0.0214: real time      0.0214
       DOS:  cpu time      0.0016: real time      0.0016
    CHARGE:  cpu time      0.2327: real time      0.2335
    MIXING:  cpu time      0.0070: real time      0.0070
    --------------------------------------------
      LOOP:  cpu time      1.2332: real time      1.2529

 eigenvalue-minimisations  :  2602
 total energy-change (2. order) :-0.3877930E-04  (-0.9319435E-05)
 number of electron     256.0000000 magnetization 
 augmentation part      -14.6916257 magnetization 

 Broyden mixing:
  rms(total) = 0.31662E-01    rms(broyden)= 0.31662E-01
  rms(prec ) = 0.31952E-01
  weight for this iteration     100.00

 eigenvalues of (default mixing * dielectric matrix)
  average eigenvalue GAMMA=   1.4585
  2.5771  2.5771  2.4419  1.8005  0.9636  0.9636  0.8730  0.4650  0.4650

 Free energy of the ion-electron system (eV)
  ---------------------------------------------------
  alpha Z        PSCENC =       111.18370221
  Ewald energy   TEWEN  =     -7393.08322287
  -Hartree energ DENC   =      -455.86787154
  -exchange      EXHF   =         0.00000000
  -V(xc)+E(xc)   XCENC  =      -534.59727638
  PAW double counting   =     29950.46507645   -28851.72632396
  entropy T*S    EENTRO =         0.03017798
  eigenvalues    EBANDS =       241.81415909
  atomic energy  EATOM  =      6564.79586099
  Solvation  Ediel_sol  =         0.00000000
  ---------------------------------------------------
  free energy    TOTEN  =      -366.98571802 eV

  energy without entropy =     -367.01589600  energy(sigma->0) =     -366.99577735


--------------------------------------------------------------------------------------------------------




--------------------------------------- Iteration      1(  15)  ---------------------------------------


    POTLOK:  cpu time      0.0815: real time      0.0939
    SETDIJ:  cpu time      0.0701: real time      0.0703
    EDDIAG:  cpu time      0.1335: real time      0.1338
  RMM-DIIS:  cpu time      0.7103: real time      0.7120
    ORTHCH:  cpu time      0.0207: real time      0.0208
       DOS:  cpu time      0.0015: real time      0.0015
    CHARGE:  cpu time      0.2322: real time      0.2330
    MIXING:  cpu time      0.0090: real time      0.0091
    --------------------------------------------
      LOOP:  cpu time      1.2589: real time      1.2743

 eigenvalue-minimisations  :  2646
 total energy-change (2. order) :-0.6126780E-04  (-0.3148447E-05)
 number of electron     256.0000000 magnetization 
 augmentation part      -14.6918388 magnetization 

 Broyden mixing:
  rms(total) = 0.26556E-01    rms(broyden)= 0.26556E-01
  rms(prec ) = 0.26767E-01
  weight for this iteration     100.00

 eigenvalues of (default mixing * dielectric matrix)
  average eigenvalue GAMMA=   1.4207
  2.6450  2.6450  2.3770  1.6482  0.9638  0.9638  0.8748  0.8253  0.8253  0.4390

 Free energy of the ion-electron system (eV)
  ---------------------------------------------------
  alpha Z        PSCENC =       111.18370221
  Ewald energy   TEWEN  =     -7393.08322287
  -Hartree energ DENC   =      -455.85895302
  -exchange      EXHF   =         0.00000000
  -V(xc)+E(xc)   XCENC  =      -534.59431264
  PAW double counting   =     29939.42900016   -28840.68655015
  entropy T*S    EENTRO =         0.03018628
  eigenvalues    EBANDS =       241.79850973
  atomic energy  EATOM  =      6564.79586099
  Solvation  Ediel_sol  =         0.00000000
  ---------------------------------------------------
  free energy    TOTEN  =      -366.98577929 eV

  energy without entropy =     -367.01596557  energy(sigma->0) =     -366.99584139


--------------------------------------------------------------------------------------------------------




--------------------------------------- Iteration      1(  16)  ---------------------------------------


    POTLOK:  cpu time      0.0782: real time      0.0982
    SETDIJ:  cpu time      0.0707: real time      0.0709
    EDDIAG:  cpu time      0.1400: real time      0.1404
  RMM-DIIS:  cpu time      0.7022: real time      0.7038
    ORTHCH:  cpu time      0.0210: real time      0.0214
       DOS:  cpu time      0.0017: real time      0.0017
    CHARGE:  cpu time      0.2351: real time      0.2356
    MIXING:  cpu time      0.0080: real time      0.0080
    --------------------------------------------
      LOOP:  cpu time      1.2569: real time      1.2800

 eigenvalue-minimisations  :  2592
 total energy-change (2. order) :-0.4296750E-04  (-0.2846946E-05)
 number of electron     256.0000000 magnetization 
 augmentation part      -14.6913330 magnetization 

 Broyden mixing:
  rms(total) = 0.15125E-01    rms(broyden)= 0.15125E-01
  rms(prec ) = 0.15211E-01
  weight for this iteration     100.00

 eigenvalues of (default mixing * dielectric matrix)
  average eigenvalue GAMMA=   1.3230
  2.6398  2.6398  2.3884  1.6005  0.8818  0.9662  0.9662  0.8718  0.8718  0.4405
  0.2865

 Free energy of the ion-electron system (eV)
  ---------------------------------------------------
  alpha Z        PSCENC =       111.18370221
  Ewald energy   TEWEN  =     -7393.08322287
  -Hartree energ DENC   =      -455.99362310
  -exchange      EXHF   =         0.00000000
  -V(xc)+E(xc)   XCENC  =      -534.58377319
  PAW double counting   =     29898.66219404   -28799.92301788
  entropy T*S    EENTRO =         0.03019190
  eigenvalues    EBANDS =       241.92586563
  atomic energy  EATOM  =      6564.79586099
  Solvation  Ediel_sol  =         0.00000000
  ---------------------------------------------------
  free energy    TOTEN  =      -366.98582226 eV

  energy without entropy =     -367.01601416  energy(sigma->0) =     -366.99588622


--------------------------------------------------------------------------------------------------------




--------------------------------------- Iteration      1(  17)  ---------------------------------------


    POTLOK:  cpu time      0.0808: real time      0.0964
    SETDIJ:  cpu time      0.0694: real time      0.0696
    EDDIAG:  cpu time      0.1332: real time      0.1335
  RMM-DIIS:  cpu time      0.6854: real time      0.6872
    ORTHCH:  cpu time      0.0204: real time      0.0208
       DOS:  cpu time      0.0022: real time      0.0022
    CHARGE:  cpu time      0.2338: real time      0.2343
    MIXING:  cpu time      0.0087: real time      0.0087
    --------------------------------------------
      LOOP:  cpu time      1.2339: real time      1.2528

 eigenvalue-minimisations  :  2590
 total energy-change (2. order) :-0.9001892E-05  (-0.9165554E-06)
 number of electron     256.0000000 magnetization 
 augmentation part      -14.6910661 magnetization 

 Broyden mixing:
  rms(total) = 0.52267E-02    rms(broyden)= 0.52266E-02
  rms(prec ) = 0.52696E-02
  weight for this iteration     100.00

 eigenvalues of (default mixing * dielectric matrix)
  average eigenvalue GAMMA=   1.6088
  2.3107  2.3107  2.6372  2.6372  2.5071  1.7730  1.0462  1.0462  0.4431  0.8285
  0.8285  0.9375

 Free energy of the ion-electron system (eV)
  ---------------------------------------------------
  alpha Z        PSCENC =       111.18370221
  Ewald energy   TEWEN  =     -7393.08322287
  -Hartree energ DENC   =      -456.02360012
  -exchange      EXHF   =         0.00000000
  -V(xc)+E(xc)   XCENC  =      -534.58656072
  PAW double counting   =     29839.06890494   -28740.33095644
  entropy T*S    EENTRO =         0.03019441
  eigenvalues    EBANDS =       241.95984633
  atomic energy  EATOM  =      6564.79586099
  Solvation  Ediel_sol  =         0.00000000
  ---------------------------------------------------
  free energy    TOTEN  =      -366.98583126 eV

  energy without entropy =     -367.01602567  energy(sigma->0) =     -366.99589606


--------------------------------------------------------------------------------------------------------




--------------------------------------- Iteration      1(  18)  ---------------------------------------


    POTLOK:  cpu time      0.0749: real time      0.0894
    SETDIJ:  cpu time      0.0740: real time      0.0742
    EDDIAG:  cpu time      0.1337: real time      0.1340
  RMM-DIIS:  cpu time      0.4690: real time      0.4701
    ORTHCH:  cpu time      0.0210: real time      0.0211
       DOS:  cpu time      0.0016: real time      0.0016
    CHARGE:  cpu time      0.2327: real time      0.2336
    MIXING:  cpu time      0.0078: real time      0.0079
    --------------------------------------------
      LOOP:  cpu time      1.0147: real time      1.0317

 eigenvalue-minimisations  :  1619
 total energy-change (2. order) :-0.1943671E-05  (-0.2152327E-06)
 number of electron     256.0000000 magnetization 
 augmentation part      -14.6909034 magnetization 

 Broyden mixing:
  rms(total) = 0.12781E-02    rms(broyden)= 0.12780E-02
  rms(prec ) = 0.13119E-02
  weight for this iteration     100.00

 eigenvalues of (default mixing * dielectric matrix)
  average eigenvalue GAMMA=   1.7497
  3.6750  3.6750  2.4159  2.2930  2.2930  1.6310  1.6310  1.1820  1.0251  0.4432
  0.8290  0.8290  0.8236

 Free energy of the ion-electron system (eV)
  ---------------------------------------------------
  alpha Z        PSCENC =       111.18370221
  Ewald energy   TEWEN  =     -7393.08322287
  -Hartree energ DENC   =      -456.04217311
  -exchange      EXHF   =         0.00000000
  -V(xc)+E(xc)   XCENC  =      -534.58696002
  PAW double counting   =     29815.97935026   -28717.24202768
  entropy T*S    EENTRO =         0.03019451
  eigenvalues    EBANDS =       241.97944250
  atomic energy  EATOM  =      6564.79586099
  Solvation  Ediel_sol  =         0.00000000
  ---------------------------------------------------
  free energy    TOTEN  =      -366.98583320 eV

  energy without entropy =     -367.01602771  energy(sigma->0) =     -366.99589804


--------------------------------------------------------------------------------------------------------




--------------------------------------- Iteration      1(  19)  ---------------------------------------


    POTLOK:  cpu time      0.0711: real time      0.0873
    SETDIJ:  cpu time      0.0752: real time      0.0754
    EDDIAG:  cpu time      0.1312: real time      0.1315
  RMM-DIIS:  cpu time      0.4509: real time      0.4520
    ORTHCH:  cpu time      0.0210: real time      0.0211
       DOS:  cpu time      0.0015: real time      0.0015
    --------------------------------------------
      LOOP:  cpu time      0.7508: real time      0.7686

 eigenvalue-minimisations  :  1562
 total energy-change (2. order) :-0.5003012E-06  (-0.1077201E-06)
 number of electron     256.0000000 magnetization 
 augmentation part      -14.6909034 magnetization 

 Free energy of the ion-electron system (eV)
  ---------------------------------------------------
  alpha Z        PSCENC =       111.18370221
  Ewald energy   TEWEN  =     -7393.08322287
  -Hartree energ DENC   =      -456.06534380
  -exchange      EXHF   =         0.00000000
  -V(xc)+E(xc)   XCENC  =      -534.58529976
  PAW double counting   =     29811.90826868   -28713.17071800
  entropy T*S    EENTRO =         0.03019480
  eigenvalues    EBANDS =       242.00072404
  atomic energy  EATOM  =      6564.79586099
  Solvation  Ediel_sol  =         0.00000000
  ---------------------------------------------------
  free energy    TOTEN  =      -366.98583370 eV

  energy without entropy =     -367.01602850  energy(sigma->0) =     -366.99589864


--------------------------------------------------------------------------------------------------------




 average (electrostatic) potential at core
  the test charge radii are     0.9892
  (the norm of the test charge is              1.0000)
       1 -82.6624       2 -82.6624       3 -82.6624       4 -82.6624       5 -82.6624
       6 -82.6624       7 -82.6624       8 -82.6624       9 -82.6625      10 -82.6625
      11 -82.6625      12 -82.6625      13 -82.6625      14 -82.6625      15 -82.6625
      16 -82.6625      17 -82.6624      18 -82.6624      19 -82.6624      20 -82.6624
      21 -82.6624      22 -82.6624      23 -82.6624      24 -82.6624      25 -82.6625
      26 -82.6625      27 -82.6625      28 -82.6625      29 -82.6625      30 -82.6625
      31 -82.6625      32 -82.6625      33 -82.6624      34 -82.6624      35 -82.6624
      36 -82.6624      37 -82.6624      38 -82.6624      39 -82.6624      40 -82.6624
      41 -82.6625      42 -82.6625      43 -82.6625      44 -82.6625      45 -82.6625
      46 -82.6625      47 -82.6625      48 -82.6625      49 -82.6624      50 -82.6624
      51 -82.6624      52 -82.6624      53 -82.6624      54 -82.6624      55 -82.6624
      56 -82.6624      57 -82.6625      58 -82.6625      59 -82.6625      60 -82.6625
      61 -82.6625      62 -82.6625      63 -82.6625      64 -82.6625
 
 
 
 E-fermi :   6.3742     XC(G=0):  -9.6784     alpha+bet :-12.3776

 val. band max:        6.2053452830   @ k =   0.0000   0.0000   0.0000
 cond. band min:       6.4848072563   @ k =   0.5000  -0.0000   0.0000
 fundamental gap:      0.2794619734
 Fermi energy:         6.3741637697

 k-point     1 :       0.0000    0.0000    0.0000
  band No.  band energies     occupation 
      1      -6.0917      2.00000
      2      -4.9845      2.00000
      3      -4.9845      2.00000
      4      -4.9840      2.00000
      5      -4.9840      2.00000
      6      -4.9550      2.00000
      7      -4.9550      2.00000
      8      -4.0124      2.00000
      9      -4.0124      2.00000
     10      -3.9881      2.00000
     11      -3.9881      2.00000
     12      -3.9881      2.00000
     13      -3.9881      2.00000
     14      -3.9674      2.00000
     15      -3.9674      2.00000
     16      -3.9674      2.00000
     17      -3.9673      2.00000
     18      -3.9211      2.00000
     19      -3.9211      2.00000
     20      -3.7087      2.00000
     21      -3.7087      2.00000
     22      -3.6042      2.00000
     23      -3.6042      2.00000
     24      -1.9028      2.00000
     25      -1.8407      2.00000
     26      -1.8407      2.00000
     27      -1.7806      2.00000
     28      -1.7465      2.00000
     29      -1.7465      2.00000
     30      -1.7146      2.00000
     31      -1.7145      2.00000
     32      -1.6827      2.00000
     33      -1.6827      2.00000
     34      -1.6135      2.00000
     35      -1.6135      2.00000
     36      -1.6135      2.00000
     37      -1.6135      2.00000
     38      -1.5747      2.00000
     39      -1.5747      2.00000
     40      -1.5442      2.00000
     41      -1.5442      2.00000
     42      -1.0559      2.00000
     43      -1.0559      2.00000
     44      -1.0355      2.00000
     45      -1.0355      2.00000
     46       0.5269      2.00000
     47       0.5269      2.00000
     48       0.5546      2.00000
     49       0.5546      2.00000
     50       0.5546      2.00000
     51       0.5546      2.00000
     52       0.5805      2.00000
     53       0.5805      2.00000
     54       0.6113      2.00000
     55       0.6113      2.00000
     56       0.6113      2.00000
     57       0.6113      2.00000
     58       2.0711      2.00000
     59       2.0711      2.00000
     60       2.0735      2.00000
     61       2.0735      2.00000
     62       2.0806      2.00000
     63       2.0806      2.00000
     64       2.0830      2.00000
     65       2.0830      2.00000
     66       2.0830      2.00000
     67       2.0830      2.00000
     68       2.0841      2.00000
     69       2.0841      2.00000
     70       2.1494      2.00000
     71       2.1494      2.00000
     72       2.1672      2.00000
     73       2.1672      2.00000
     74       2.1672      2.00000
     75       2.1672      2.00000
     76       2.1835      2.00000
     77       2.1835      2.00000
     78       2.2538      2.00000
     79       2.2538      2.00000
     80       2.2538      2.00000
     81       2.2538      2.00000
     82       2.5747      2.00000
     83       2.5747      2.00000
     84       2.5782      2.00000
     85       2.5782      2.00000
     86       2.6874      2.00000
     87       2.6874      2.00000
     88       3.0884      2.00000
     89       3.0884      2.00000
     90       3.1229      2.00000
     91       3.2079      2.00000
     92       3.2079      2.00000
     93       3.2939      2.00000
     94       4.0964      2.00000
     95       4.0964      2.00000
     96       4.0965      2.00000
     97       4.0965      2.00000
     98       4.1135      2.00000
     99       4.1135      2.00000
    100       4.1721      2.00000
    101       4.1721      2.00000
    102       4.2056      2.00000
    103       4.2057      2.00000
    104       4.2671      2.00000
    105       4.2671      2.00000
    106       4.6729      2.00000
    107       4.6729      2.00000
    108       4.6729      2.00000
    109       4.6729      2.00000
    110       4.7556      2.00000
    111       4.7556      2.00000
    112       4.7838      2.00000
    113       4.7838      2.00000
    114       4.7951      2.00000
    115       4.7951      2.00000
    116       4.7951      2.00000
    117       4.7951      2.00000
    118       4.8372      2.00000
    119       4.8372      2.00000
    120       4.8622      2.00000
    121       4.8622      2.00000
    122       4.9352      2.00000
    123       4.9352      2.00000
    124       5.0072      2.00000
    125       5.0072      2.00000
    126       6.0901      2.06201
    127       6.0922      2.06280
    128       6.2053      2.00097
    129       6.5695     -0.04503
    130       6.5695     -0.04503
    131       6.6030     -0.06869
    132       6.6922     -0.04703
    133       6.6922     -0.04703
    134       6.7836     -0.01368
    135       7.0498     -0.00002
    136       7.0498     -0.00002
    137       7.1718     -0.00000
    138       7.1718     -0.00000
    139       7.1724     -0.00000
    140       7.1724     -0.00000
    141       7.6301     -0.00000
    142       7.6301     -0.00000
    143       7.7678     -0.00000
    144       7.7678     -0.00000
    145       8.4123     -0.00000
    146       8.4123     -0.00000
    147       8.4126     -0.00000
    148       8.4135     -0.00000
    149       8.5045     -0.00000
    150       8.5052     -0.00000
    151       8.5284     -0.00000
    152       8.5553     -0.00000
    153       8.5556     -0.00000
    154       8.5558     -0.00000
    155       8.5570     -0.00000
    156       8.6114     -0.00000
    157       8.6126     -0.00000
    158       8.6572     -0.00000
    159       8.7798     -0.00000
    160       9.1493     -0.00000
    161       9.1791     -0.00000
    162       9.2159     -0.00000

 k-point     2 :       0.5000   -0.0000    0.0000
  band No.  band energies     occupation 
      1      -5.8049      2.00000
      2      -5.8049      2.00000
      3      -4.7451      2.00000
      4      -4.7451      2.00000
      5      -4.7227      2.00000
      6      -4.7227      2.00000
      7      -4.7227      2.00000
      8      -4.7227      2.00000
      9      -4.6994      2.00000
     10      -4.6994      2.00000
     11      -3.8720      2.00000
     12      -3.8720      2.00000
     13      -3.8720      2.00000
     14      -3.8720      2.00000
     15      -3.8093      2.00000
     16      -3.8093      2.00000
     17      -3.8093      2.00000
     18      -3.8093      2.00000
     19      -3.5776      2.00000
     20      -3.5776      2.00000
     21      -2.9026      2.00000
     22      -2.9026      2.00000
     23      -2.8376      2.00000
     24      -2.8376      2.00000
     25      -2.8376      2.00000
     26      -2.8376      2.00000
     27      -2.7713      2.00000
     28      -2.7713      2.00000
     29      -1.8152      2.00000
     30      -1.8152      2.00000
     31      -1.7922      2.00000
     32      -1.7922      2.00000
     33      -1.7039      2.00000
     34      -1.7039      2.00000
     35      -1.6828      2.00000
     36      -1.6828      2.00000
     37      -0.5879      2.00000
     38      -0.5879      2.00000
     39      -0.5384      2.00000
     40      -0.5384      2.00000
     41      -0.5384      2.00000
     42      -0.5384      2.00000
     43      -0.4921      2.00000
     44      -0.4921      2.00000
     45      -0.4005      2.00000
     46      -0.4005      2.00000
     47      -0.4005      2.00000
     48      -0.4005      2.00000
     49      -0.3872      2.00000
     50      -0.3872      2.00000
     51      -0.3872      2.00000
     52      -0.3872      2.00000
     53       0.4054      2.00000
     54       0.4054      2.00000
     55       1.6603      2.00000
     56       1.6603      2.00000
     57       1.6618      2.00000
     58       1.6618      2.00000
     59       1.6618      2.00000
     60       1.6618      2.00000
     61       1.6635      2.00000
     62       1.6635      2.00000
     63       1.7617      2.00000
     64       1.7617      2.00000
     65       1.7770      2.00000
     66       1.7770      2.00000
     67       1.7770      2.00000
     68       1.7770      2.00000
     69       1.7965      2.00000
     70       1.7965      2.00000
     71       2.5143      2.00000
     72       2.5143      2.00000
     73       2.5484      2.00000
     74       2.5484      2.00000
     75       2.5760      2.00000
     76       2.5760      2.00000
     77       2.6112      2.00000
     78       2.6112      2.00000
     79       3.2478      2.00000
     80       3.2478      2.00000
     81       3.2798      2.00000
     82       3.2798      2.00000
     83       3.2798      2.00000
     84       3.2798      2.00000
     85       3.3064      2.00000
     86       3.3064      2.00000
     87       3.3454      2.00000
     88       3.3454      2.00000
     89       3.3458      2.00000
     90       3.3458      2.00000
     91       3.4498      2.00000
     92       3.4498      2.00000
     93       3.4782      2.00000
     94       3.4782      2.00000
     95       3.4782      2.00000
     96       3.4782      2.00000
     97       3.5058      2.00000
     98       3.5058      2.00000
     99       3.6126      2.00000
    100       3.6126      2.00000
    101       3.6126      2.00000
    102       3.6126      2.00000
    103       3.6906      2.00000
    104       3.6906      2.00000
[...]
  0.000   0.000   4.173   0.000   0.000   7.773   0.000   0.000
 -0.001  -0.001   0.000   4.173   0.000   0.000   7.773   0.000
  0.000   0.000   0.000   0.000   4.173   0.000   0.000   7.774
  0.000   0.000   7.773   0.000   0.000  14.492   0.000   0.000
 -0.002  -0.002   0.000   7.773   0.000   0.000  14.492   0.000
  0.000   0.000   0.000   0.000   7.774   0.000   0.000  14.492
 total augmentation occupancy for first ion, spin component:           1
  6.199  -2.430  -0.000   0.041   0.000   0.000  -0.015  -0.000
 -2.430   1.061  -0.000  -0.021   0.000  -0.000   0.007   0.000
 -0.000  -0.000   3.066  -0.000   0.006  -0.696   0.000   0.001
  0.041  -0.021  -0.000   3.067   0.000   0.000  -0.696  -0.000
  0.000   0.000   0.006   0.000   3.037   0.001  -0.000  -0.684
  0.000  -0.000  -0.696   0.000   0.001   0.167  -0.000  -0.000
 -0.015   0.007   0.000  -0.696  -0.000  -0.000   0.167   0.000
 -0.000   0.000   0.001  -0.000  -0.684  -0.000   0.000   0.163


------------------------ aborting loop because EDIFF is reached ----------------------------------------


    CHARGE:  cpu time      0.3062: real time      0.3069
    FORLOC:  cpu time      0.0221: real time      0.0222
    FORNL :  cpu time      0.6828: real time      0.6847
    STRESS:  cpu time      2.1127: real time      2.1229
    FORCOR:  cpu time      0.0850: real time      0.0852
    FORHAR:  cpu time      0.0345: real time      0.0345
    MIXING:  cpu time      0.0306: real time      0.0307
    OFIELD:  cpu time      0.0001: real time      0.0001

  FORCE on cell =-STRESS in cart. coord.  units (eV):
  Direction    XX          YY          ZZ          XY          YZ          ZX
  --------------------------------------------------------------------------------------
  Alpha Z   111.18370   111.18370   111.18370
  Ewald   -2498.69938 -2447.47035 -2447.36705    11.12967     0.00000     0.00000
  Hartree   146.37919   154.76757   154.64075     6.76394    -0.00000    -0.00000
  E(xc)    -823.77671  -824.22762  -824.23860    -0.07892    -0.00000    -0.00000
  Local    -874.39593  -936.03290  -935.99609   -19.40977    -0.00000    -0.00000
  n-local  2499.45018  2507.01978  2507.18062     0.62520    -0.00000    -0.00000
  augment  -368.94621  -368.93838  -368.93854    -0.56291     0.00000     0.00000
  Kinetic  1843.17409  1828.24657  1827.93079    10.46789     0.00000    -0.00000
  Fock        0.00000     0.00000     0.00000     0.00000     0.00000     0.00000
  -------------------------------------------------------------------------------------
  Total      34.36893    24.54836    24.39559     8.93511     0.00000     0.00000
  in kB      44.40208    31.71464    31.51727    11.54349     0.00000     0.00000
  external pressure =       35.88 kB  Pullay stress =        0.00 kB


 VOLUME and BASIS-vectors are now :
 -----------------------------------------------------------------------------
  energy-cutoff  :      400.00
  volume of cell :     1240.15
      direct lattice vectors                 reciprocal lattice vectors
    10.636290571 -0.080987012  0.000000000     0.094023109  0.000705174  0.000000000
    -0.080987012 10.798264595  0.000000000     0.000705174  0.092612762  0.000000000
     0.000000000  0.000000000 10.798264595     0.000000000  0.000000000  0.092607473

  length of vectors
    10.636598893 10.798568292 10.798264595     0.094025754  0.092615447  0.092607473


 FORCES acting on ions
    electron-ion (+dipol)            ewald-force                    non-local-force                 convergence-correction
 -----------------------------------------------------------------------------------------------
   0.246E-08 0.178E-08 0.128E+01   0.844E-14 0.273E-13 -.908E+00   0.251E-20 0.980E-20 -.371E+00   0.201E-13 0.243E-13 -.144E-04
   0.246E-08 0.178E-08 0.128E+01   0.222E-14 0.235E-13 -.908E+00   -.111E-20 -.589E-20 -.371E+00   -.277E-13 -.727E-13 -.144E-04
   0.246E-08 0.178E-08 0.128E+01   0.115E-13 0.249E-13 -.908E+00   -.922E-22 -.674E-20 -.371E+00   -.778E-15 -.364E-13 -.144E-04
   0.246E-08 0.178E-08 0.128E+01   0.151E-13 0.169E-13 -.908E+00   -.870E-21 0.256E-20 -.371E+00   -.779E-14 0.646E-13 -.144E-04
   0.246E-08 0.178E-08 0.128E+01   0.400E-14 0.240E-13 -.908E+00   -.131E-21 -.135E-19 -.371E+00   -.145E-13 0.158E-13 -.144E-04
   0.246E-08 0.178E-08 0.128E+01   0.488E-14 0.169E-13 -.908E+00   -.986E-21 0.402E-20 -.371E+00   0.294E-13 -.644E-13 -.144E-04
   0.246E-08 0.178E-08 0.128E+01   0.311E-13 0.249E-13 -.908E+00   0.309E-20 0.125E-20 -.371E+00   0.237E-14 -.273E-13 -.144E-04
   0.246E-08 0.178E-08 0.128E+01   0.355E-14 0.178E-13 -.908E+00   -.169E-20 -.434E-20 -.371E+00   0.139E-13 0.600E-13 -.144E-04
   -.632E-09 -.499E-10 -.128E+01   0.182E-13 0.169E-13 0.908E+00   0.230E-21 -.133E-20 0.371E+00   -.176E-13 -.131E-12 0.144E-04
   -.632E-09 -.499E-10 -.128E+01   0.213E-13 0.142E-13 0.908E+00   0.100E-20 0.759E-20 0.371E+00   0.290E-13 0.125E-12 0.144E-04
   -.632E-09 -.495E-10 -.128E+01   0.280E-13 0.182E-13 0.908E+00   0.169E-20 0.843E-20 0.371E+00   -.966E-15 0.125E-12 0.144E-04
   -.632E-09 -.495E-10 -.128E+01   0.213E-13 0.213E-13 0.908E+00   -.145E-20 -.110E-19 0.371E+00   -.872E-14 -.131E-12 0.144E-04
   -.632E-09 -.490E-10 -.128E+01   0.266E-13 0.226E-13 0.908E+00   0.223E-21 0.839E-20 0.371E+00   0.138E-13 -.799E-13 0.144E-04
   -.632E-09 -.509E-10 -.128E+01   0.355E-14 0.195E-13 0.908E+00   -.177E-20 -.571E-20 0.371E+00   -.368E-13 0.590E-13 0.144E-04
   -.632E-09 -.499E-10 -.128E+01   0.164E-13 0.169E-13 0.908E+00   0.935E-21 -.633E-20 0.371E+00   0.749E-14 0.746E-13 0.144E-04
   -.632E-09 -.497E-10 -.128E+01   0.266E-13 0.888E-14 0.908E+00   0.993E-22 0.603E-20 0.371E+00   -.835E-15 -.682E-13 0.144E-04
   0.246E-08 0.178E-08 0.128E+01   0.644E-14 0.155E-14 -.908E+00   -.299E-20 0.247E-20 -.371E+00   0.669E-13 -.109E-12 -.144E-04
   0.246E-08 0.178E-08 0.128E+01   0.178E-14 0.799E-14 -.908E+00   0.228E-20 0.328E-20 -.371E+00   -.733E-13 0.267E-13 -.144E-04
   0.246E-08 0.178E-08 0.128E+01   0.240E-13 0.311E-14 -.908E+00   -.277E-20 -.229E-20 -.371E+00   0.429E-13 0.103E-12 -.144E-04
   0.246E-08 0.178E-08 0.128E+01   0.169E-13 0.666E-14 -.908E+00   0.115E-20 -.321E-22 -.371E+00   -.519E-13 -.291E-13 -.144E-04
   0.246E-08 0.178E-08 0.128E+01   0.195E-13 0.222E-14 -.908E+00   0.282E-21 -.594E-20 -.371E+00   -.691E-13 -.135E-12 -.144E-04
   0.246E-08 0.178E-08 0.128E+01   -.355E-14 0.178E-14 -.908E+00   0.244E-21 -.438E-20 -.371E+00   0.833E-13 0.916E-13 -.144E-04
   0.246E-08 0.178E-08 0.128E+01   0.888E-14 0.000E+00 -.908E+00   -.317E-20 0.571E-20 -.371E+00   -.305E-13 0.129E-12 -.144E-04
   0.246E-08 0.178E-08 0.128E+01   -.711E-14 0.107E-13 -.908E+00   0.396E-20 0.451E-20 -.371E+00   0.525E-13 -.882E-13 -.144E-04
   -.632E-09 -.505E-10 -.128E+01   0.240E-13 0.812E-14 0.908E+00   -.397E-20 0.590E-20 0.371E+00   -.109E-13 -.649E-13 0.144E-04
   -.632E-09 -.497E-10 -.128E+01   0.240E-13 -.232E-14 0.908E+00   0.555E-20 0.997E-21 0.371E+00   0.104E-13 0.107E-13 0.144E-04
   -.632E-09 -.494E-10 -.128E+01   0.107E-13 -.102E-13 0.908E+00   -.114E-20 -.571E-20 0.371E+00   -.180E-13 0.680E-13 0.144E-04
   -.632E-09 -.501E-10 -.128E+01   0.249E-13 -.847E-14 0.908E+00   0.278E-20 -.451E-20 0.371E+00   0.282E-13 -.298E-14 0.144E-04
   -.632E-09 -.497E-10 -.128E+01   0.178E-13 0.681E-14 0.908E+00   -.107E-20 -.586E-20 0.371E+00   0.229E-13 -.761E-13 0.144E-04
   -.632E-09 -.496E-10 -.128E+01   0.178E-13 -.736E-15 0.908E+00   0.227E-20 -.325E-20 0.371E+00   -.252E-13 -.509E-14 0.144E-04
   -.632E-09 -.500E-10 -.128E+01   0.888E-14 -.715E-14 0.908E+00   -.310E-20 0.566E-20 0.371E+00   0.260E-13 0.716E-13 0.144E-04
   -.632E-09 -.502E-10 -.128E+01   0.160E-13 -.626E-14 0.908E+00   0.487E-20 0.381E-22 0.371E+00   -.406E-13 0.321E-14 0.144E-04
   0.246E-08 0.178E-08 0.128E+01   -.211E-13 0.777E-14 -.908E+00   0.463E-20 0.728E-20 -.371E+00   0.374E-13 0.617E-14 -.144E-04
   0.246E-08 0.178E-08 0.128E+01   -.280E-13 -.311E-14 -.908E+00   -.220E-20 0.259E-20 -.371E+00   -.561E-13 -.489E-13 -.144E-04
   0.246E-08 0.178E-08 0.128E+01   -.178E-13 -.200E-14 -.908E+00   0.217E-20 -.334E-20 -.371E+00   0.818E-14 -.111E-13 -.144E-04
   0.246E-08 0.178E-08 0.128E+01   -.178E-13 0.355E-14 -.908E+00   -.148E-20 -.419E-20 -.371E+00   0.104E-13 0.347E-13 -.144E-04
   0.246E-08 0.178E-08 0.128E+01   -.122E-13 0.311E-14 -.908E+00   0.114E-20 0.115E-21 -.371E+00   -.373E-13 -.252E-13 -.144E-04
   0.246E-08 0.178E-08 0.128E+01   -.155E-13 0.000E+00 -.908E+00   -.115E-20 -.359E-20 -.371E+00   0.496E-13 -.197E-13 -.144E-04
   0.246E-08 0.178E-08 0.128E+01   -.218E-13 -.622E-14 -.908E+00   0.213E-20 0.295E-20 -.371E+00   -.138E-13 0.192E-13 -.144E-04
   0.246E-08 0.178E-08 0.128E+01   -.178E-13 0.000E+00 -.908E+00   -.206E-20 0.767E-21 -.371E+00   -.100E-13 0.126E-13 -.144E-04
   -.632E-09 -.500E-10 -.128E+01   -.590E-14 -.622E-14 0.908E+00   0.220E-20 0.331E-20 0.371E+00   0.188E-13 -.709E-14 0.144E-04
   -.632E-09 -.501E-10 -.128E+01   -.119E-13 -.622E-14 0.908E+00   -.123E-20 0.357E-20 0.371E+00   -.138E-13 -.195E-13 0.144E-04
   -.632E-09 -.500E-10 -.128E+01   -.157E-13 -.266E-14 0.908E+00   0.233E-20 -.296E-20 0.371E+00   0.673E-14 -.172E-15 0.144E-04
   -.632E-09 -.499E-10 -.128E+01   -.858E-14 -.977E-14 0.908E+00   -.132E-20 -.731E-21 0.371E+00   -.243E-13 0.118E-13 0.144E-04
   -.632E-09 -.492E-10 -.128E+01   0.761E-14 -.355E-14 0.908E+00   0.113E-20 -.390E-20 0.371E+00   -.215E-13 -.845E-14 0.144E-04
   -.632E-09 -.499E-10 -.128E+01   0.228E-14 -.355E-14 0.908E+00   -.284E-20 -.600E-20 0.371E+00   0.295E-13 -.220E-14 0.144E-04
   -.632E-09 -.503E-10 -.128E+01   -.173E-13 -.355E-14 0.908E+00   0.123E-20 0.334E-20 0.371E+00   -.185E-13 0.842E-14 0.144E-04
   -.632E-09 -.495E-10 -.128E+01   0.229E-14 -.355E-14 0.908E+00   -.636E-20 0.420E-20 0.371E+00   0.413E-13 -.331E-14 0.144E-04
   0.246E-08 0.178E-08 0.128E+01   -.331E-13 -.244E-13 -.908E+00   -.591E-21 0.595E-20 -.371E+00   0.174E-13 -.899E-13 -.144E-04
   0.246E-08 0.178E-08 0.128E+01   -.231E-13 -.173E-13 -.908E+00   0.566E-21 0.410E-20 -.371E+00   -.253E-13 0.312E-13 -.144E-04
   0.246E-08 0.178E-08 0.128E+01   -.244E-13 -.135E-13 -.908E+00   -.250E-20 0.572E-20 -.371E+00   0.247E-13 0.886E-13 -.144E-04
   0.246E-08 0.178E-08 0.128E+01   -.391E-13 -.129E-13 -.908E+00   -.578E-21 -.564E-20 -.371E+00   -.302E-13 -.331E-13 -.144E-04
   0.246E-08 0.178E-08 0.128E+01   -.977E-14 -.160E-13 -.908E+00   -.556E-21 0.783E-21 -.371E+00   -.176E-13 -.689E-13 -.144E-04
   0.246E-08 0.178E-08 0.128E+01   -.799E-14 -.160E-13 -.908E+00   -.379E-21 -.520E-20 -.371E+00   0.208E-13 0.104E-13 -.144E-04
   0.246E-08 0.178E-08 0.128E+01   -.533E-14 -.488E-14 -.908E+00   -.115E-20 0.282E-20 -.371E+00   -.274E-13 0.728E-13 -.144E-04
   0.246E-08 0.178E-08 0.128E+01   -.355E-14 -.107E-13 -.908E+00   -.208E-20 0.505E-20 -.371E+00   0.291E-13 -.190E-13 -.144E-04
   -.632E-09 -.501E-10 -.128E+01   -.169E-13 -.107E-13 0.908E+00   0.391E-21 0.252E-20 0.371E+00   0.797E-13 -.688E-13 0.144E-04
   -.632E-09 -.501E-10 -.128E+01   -.126E-13 -.178E-13 0.908E+00   0.220E-20 -.410E-20 0.371E+00   -.895E-13 -.554E-14 0.144E-04
   -.632E-09 -.499E-10 -.128E+01   -.113E-13 -.226E-13 0.908E+00   0.390E-21 -.572E-20 0.371E+00   0.318E-13 0.709E-13 0.144E-04
   -.632E-09 -.500E-10 -.128E+01   -.369E-14 -.232E-13 0.908E+00   0.111E-20 -.284E-20 0.371E+00   -.270E-13 0.127E-13 0.144E-04
   -.632E-09 -.497E-10 -.128E+01   -.257E-13 -.155E-13 0.908E+00   0.122E-20 -.757E-20 0.371E+00   -.816E-13 -.801E-13 0.144E-04
   -.632E-09 -.498E-10 -.128E+01   -.203E-13 -.225E-13 0.908E+00   0.605E-21 0.112E-21 0.371E+00   0.105E-12 0.285E-13 0.144E-04
   -.632E-09 -.500E-10 -.128E+01   -.873E-14 -.311E-13 0.908E+00   -.108E-20 0.225E-20 0.371E+00   -.277E-13 0.817E-13 0.144E-04
   -.632E-09 -.494E-10 -.128E+01   -.337E-14 -.253E-13 0.908E+00   0.819E-21 0.172E-20 0.371E+00   0.369E-13 -.260E-13 0.144E-04
 -----------------------------------------------------------------------------------------------
   0.585E-07 0.552E-07 -.288E-04   0.578E-14 0.806E-14 -.305E-13   0.357E-20 -.681E-20 -.511E-14   0.397E-13 -.116E-12 0.113E-09
 
 
 POSITION                                       TOTAL-FORCE (eV/Angst)
 -----------------------------------------------------------------------------------
     -0.00000      0.00000     10.79226         0.000000     -0.000000     -0.000182
     -0.00000      0.00000      5.39313        -0.000000      0.000000     -0.000182
     -0.04049      5.39913     10.79226        -0.000000      0.000000     -0.000182
     -0.04049      5.39913      5.39313        -0.000000      0.000000     -0.000182
      5.31815     -0.04049     10.79226         0.000000     -0.000000     -0.000182
      5.31815     -0.04049      5.39313         0.000000      0.000000     -0.000182
      5.27765      5.35864     10.79226         0.000000      0.000000     -0.000182
      5.27765      5.35864      5.39313        -0.000000      0.000000     -0.000182
      3.95824      4.01898      1.35578         0.000000     -0.000000      0.000182
      3.95824      4.01898      6.75492        -0.000000     -0.000000      0.000182
      3.91775      9.41811      1.35578        -0.000000      0.000000      0.000182
      3.91775      9.41811      6.75492        -0.000000      0.000000      0.000182
      9.27638      3.97849      1.35578         0.000000     -0.000000      0.000182
      9.27638      3.97849      6.75492        -0.000000     -0.000000      0.000182
      9.23589      9.37762      1.35578        -0.000000      0.000000      0.000182
      9.23589      9.37762      6.75492         0.000000     -0.000000      0.000182
     -0.02025      2.69957      2.69357        -0.000000     -0.000000     -0.000182
     -0.02025      2.69957      8.09270        -0.000000     -0.000000     -0.000182
     -0.06074      8.09870      2.69357        -0.000000      0.000000     -0.000182
     -0.06074      8.09870      8.09270        -0.000000      0.000000     -0.000182
      5.29790      2.65907      2.69357        -0.000000     -0.000000     -0.000182
      5.29790      2.65907      8.09270         0.000000     -0.000000     -0.000182
      5.25741      8.05820      2.69357         0.000000     -0.000000     -0.000182
      5.25741      8.05820      8.09270         0.000000     -0.000000     -0.000182
      3.97849      1.31941      4.05535         0.000000      0.000000      0.000182
      3.97849      1.31941      9.45448         0.000000      0.000000      0.000182
      3.93799      6.71855      4.05535        -0.000000     -0.000000      0.000182
      3.93799      6.71855      9.45448         0.000000     -0.000000      0.000182
      9.29663      1.27892      4.05535         0.000000      0.000000      0.000182
      9.29663      1.27892      9.45448         0.000000      0.000000      0.000182
      9.25614      6.67805      4.05535         0.000000     -0.000000      0.000182
      9.25614      6.67805      9.45448         0.000000      0.000000      0.000182
      2.65907     -0.02025      2.69357         0.000000     -0.000000     -0.000182
      2.65907     -0.02025      8.09270        -0.000000     -0.000000     -0.000182
      2.61858      5.37889      2.69357        -0.000000      0.000000     -0.000182
      2.61858      5.37889      8.09270        -0.000000      0.000000     -0.000182
      7.97722     -0.06074      2.69357         0.000000      0.000000     -0.000182
      7.97722     -0.06074      8.09270         0.000000     -0.000000     -0.000182
      7.93672      5.33839      2.69357         0.000000      0.000000     -0.000182
      7.93672      5.33839      8.09270         0.000000      0.000000     -0.000182
      1.29917      4.03923      4.05535        -0.000000     -0.000000      0.000182
      1.29917      4.03923      9.45448        -0.000000     -0.000000      0.000182
      1.25867      9.43836      4.05535        -0.000000      0.000000      0.000182
      1.25867      9.43836      9.45448        -0.000000      0.000000      0.000182
      6.61731      3.99873      4.05535         0.000000     -0.000000      0.000182
      6.61731      3.99873      9.45448         0.000000     -0.000000      0.000182
      6.57682      9.39786      4.05535        -0.000000      0.000000      0.000182
      6.57682      9.39786      9.45448         0.000000      0.000000      0.000182
      2.63883      2.67932     10.79226        -0.000000     -0.000000     -0.000182
      2.63883      2.67932      5.39313        -0.000000     -0.000000     -0.000182
      2.59833      8.07845     10.79226         0.000000     -0.000000     -0.000182
      2.59833      8.07845      5.39313        -0.000000      0.000000     -0.000182
      7.95697      2.63883     10.79226        -0.000000     -0.000000     -0.000182
      7.95697      2.63883      5.39313        -0.000000     -0.000000     -0.000182
      7.91648      8.03796     10.79226        -0.000000     -0.000000     -0.000182
      7.91648      8.03796      5.39313        -0.000000     -0.000000     -0.000182
      1.31941      1.33966      1.35578         0.000000      0.000000      0.000182
      1.31941      1.33966      6.75492         0.000000      0.000000      0.000182
      1.27892      6.73879      1.35578        -0.000000     -0.000000      0.000182
      1.27892      6.73879      6.75492         0.000000     -0.000000      0.000182
      6.63756      1.29917      1.35578         0.000000      0.000000      0.000182
      6.63756      1.29917      6.75492        -0.000000      0.000000      0.000182
      6.59706      6.69830      1.35578         0.000000     -0.000000      0.000182
      6.59706      6.69830      6.75492         0.000000     -0.000000      0.000182
 -----------------------------------------------------------------------------------
    total drift:                                0.000000      0.000000     -0.000029


--------------------------------------------------------------------------------------------------------



  FREE ENERGIE OF THE ION-ELECTRON SYSTEM (eV)
  ---------------------------------------------------
  free  energy   TOTEN  =      -367.01865994 eV

  energy  without entropy=     -367.04437388  energy(sigma->0) =     -367.02723126
 
 d Force = 0.4693817E-02[-0.267E-04, 0.941E-02]  d Energy = 0.4687105E-02 0.671E-05
 d Force =-0.1242691E+00[-0.133E+00,-0.116E+00]  d Ewald  =-0.1242782E+00 0.913E-05


--------------------------------------------------------------------------------------------------------


    POTLOK:  cpu time      0.1437: real time      0.1443


--------------------------------------------------------------------------------------------------------




--------------------------------------------------------------------------------------------------------


  
 reached required accuracy - stopping structural energy minimisation
     LOOP+:  cpu time     12.9589: real time     13.1081
    4ORBIT:  cpu time      0.0000: real time      0.0000

 total amount of memory used by VASP MPI-rank0    79755. kBytes
=======================================================================

   base      :      30000. kBytes
   nonlr-proj:       4563. kBytes
   fftplans  :      17993. kBytes
   grid      :       6881. kBytes
   one-center:         18. kBytes
   wavefun   :      20300. kBytes
 
  
  
 General timing and accounting informations for this job:
 ========================================================
  
                  Total CPU time used (sec):       59.695
                            User time (sec):       56.339
                          System time (sec):        3.356
                         Elapsed time (sec):       63.289
  
                   Maximum memory used (kb):      410444.
                   Average memory used (kb):          N/A
  
                          Minor page faults:        89770
                          Major page faults:            0
                 Voluntary context switches:         9829
