Si64                                    
           1
    10.636291   -0.080987    0.000000
    -0.080987   10.798265    0.000000
     0.000000    0.000000   10.798265
   Si
    64
Direct configuration=     1
   0.00000000  0.00000000  0.00000000
   0.00000000  0.00000000  0.50000000
   0.00000000  0.50000000  0.00000000
   0.00000000  0.50000000  0.50000000
   0.50000000  0.00000000  0.00000000
   0.50000000  0.00000000  0.50000000
   0.50000000  0.50000000  0.00000000
   0.50000000  0.50000000  0.50000000
   0.37500000  0.37500000  0.12500000
   0.37500000  0.37500000  0.62500000
   0.37500000  0.87500000  0.12500000
   0.37500000  0.87500000  0.62500000
   0.87500000  0.37500000  0.12500000
   0.87500000  0.37500000  0.62500000
   0.87500000  0.87500000  0.12500000
   0.87500000  0.87500000  0.62500000
   0.00000000  0.25000000  0.25000000
   0.00000000  0.25000000  0.75000000
   0.00000000  0.75000000  0.25000000
   0.00000000  0.75000000  0.75000000
   0.50000000  0.25000000  0.25000000
   0.50000000  0.25000000  0.75000000
   0.50000000  0.75000000  0.25000000
   0.50000000  0.75000000  0.75000000
   0.37500000  0.12500000  0.37500000
   0.37500000  0.12500000  0.87500000
   0.37500000  0.62500000  0.37500000
   0.37500000  0.62500000  0.87500000
   0.87500000  0.12500000  0.37500000
   0.87500000  0.12500000  0.87500000
   0.87500000  0.62500000  0.37500000
   0.87500000  0.62500000  0.87500000
   0.25000000  0.00000000  0.25000000
   0.25000000  0.00000000  0.75000000
   0.25000000  0.50000000  0.25000000
   0.25000000  0.50000000  0.75000000
   0.75000000  0.00000000  0.25000000
   0.75000000  0.00000000  0.75000000
   0.75000000  0.50000000  0.25000000
   0.75000000  0.50000000  0.75000000
   0.12500000  0.37500000  0.37500000
   0.12500000  0.37500000  0.87500000
   0.12500000  0.87500000  0.37500000
   0.12500000  0.87500000  0.87500000
   0.62500000  0.37500000  0.37500000
   0.62500000  0.37500000  0.87500000
   0.62500000  0.87500000  0.37500000
   0.62500000  0.87500000  0.87500000
   0.25000000  0.25000000  0.00000000
   0.25000000  0.25000000  0.50000000
   0.25000000  0.75000000  0.00000000
   0.25000000  0.75000000  0.50000000
   0.75000000  0.25000000  0.00000000
   0.75000000  0.25000000  0.50000000
   0.75000000  0.75000000  0.00000000
   0.75000000  0.75000000  0.50000000
   0.12500000  0.12500000  0.12500000
   0.12500000  0.12500000  0.62500000
   0.12500000  0.62500000  0.12500000
   0.12500000  0.62500000  0.62500000
   0.62500000  0.12500000  0.12500000
   0.62500000  0.12500000  0.62500000
   0.62500000  0.62500000  0.12500000
   0.62500000  0.62500000  0.62500000
Direct configuration=     2
   1.00000000  0.00000000  0.99923271
   1.00000000  0.00000000  0.49923271
   0.00000000  0.50000000  0.99923271
   0.00000000  0.50000000  0.49923271
   0.50000000  0.00000000  0.99923271
   0.50000000  0.00000000  0.49923271
   0.50000000  0.50000000  0.99923271
   0.50000000  0.50000000  0.49923271
   0.37500000  0.37500000  0.12576729
   0.37500000  0.37500000  0.62576729
   0.37500000  0.87500000  0.12576729
   0.37500000  0.87500000  0.62576729
   0.87500000  0.37500000  0.12576729
   0.87500000  0.37500000  0.62576729
   0.87500000  0.87500000  0.12576729
   0.87500000  0.87500000  0.62576729
   0.00000000  0.25000000  0.24923271
   0.00000000  0.25000000  0.74923271
   1.00000000  0.75000000  0.24923271
   0.00000000  0.75000000  0.74923271
   0.50000000  0.25000000  0.24923271
   0.50000000  0.25000000  0.74923271
   0.50000000  0.75000000  0.24923271
   0.50000000  0.75000000  0.74923271
   0.37500000  0.12500000  0.37576729
   0.37500000  0.12500000  0.87576729
   0.37500000  0.62500000  0.37576729
   0.37500000  0.62500000  0.87576729
   0.87500000  0.12500000  0.37576729
   0.87500000  0.12500000  0.87576729
   0.87500000  0.62500000  0.37576729
   0.87500000  0.62500000  0.87576729
   0.25000000  0.00000000  0.24923271
   0.25000000  0.00000000  0.74923271
   0.25000000  0.50000000  0.24923271
   0.25000000  0.50000000  0.74923271
   0.75000000  0.00000000  0.24923271
   0.75000000  0.00000000  0.74923271
   0.75000000  0.50000000  0.24923271
   0.75000000  0.50000000  0.74923271
   0.12500000  0.37500000  0.37576729
   0.12500000  0.37500000  0.87576729
   0.12500000  0.87500000  0.37576729
   0.12500000  0.87500000  0.87576729
   0.62500000  0.37500000  0.37576729
   0.62500000  0.37500000  0.87576729
   0.62500000  0.87500000  0.37576729
   0.62500000  0.87500000  0.87576729
   0.25000000  0.25000000  0.99923271
   0.25000000  0.25000000  0.49923271
   0.25000000  0.75000000  0.99923271
   0.25000000  0.75000000  0.49923271
   0.75000000  0.25000000  0.99923271
   0.75000000  0.25000000  0.49923271
   0.75000000  0.75000000  0.99923271
   0.75000000  0.75000000  0.49923271
   0.12500000  0.12500000  0.12576729
   0.12500000  0.12500000  0.62576729
   0.12500000  0.62500000  0.12576729
   0.12500000  0.62500000  0.62576729
   0.62500000  0.12500000  0.12576729
   0.62500000  0.12500000  0.62576729
   0.62500000  0.62500000  0.12576729
   0.62500000  0.62500000  0.62576729
Direct configuration=     3
   0.00000000  0.00000000  0.99944431
   0.00000000  0.00000000  0.49944431
   0.00000000  0.50000000  0.99944431
   0.00000000  0.50000000  0.49944431
   0.50000000  0.00000000  0.99944431
   0.50000000  0.00000000  0.49944431
   0.50000000  0.50000000  0.99944431
   0.50000000  0.50000000  0.49944431
   0.37500000  0.37500000  0.12555569
   0.37500000  0.37500000  0.62555569
   0.37500000  0.87500000  0.12555569
   0.37500000  0.87500000  0.62555569
   0.87500000  0.37500000  0.12555569
   0.87500000  0.37500000  0.62555569
   0.87500000  0.87500000  0.12555569
   0.87500000  0.87500000  0.62555569
   0.00000000  0.25000000  0.24944431
   0.00000000  0.25000000  0.74944431
   0.00000000  0.75000000  0.24944431
   0.00000000  0.75000000  0.74944431
   0.50000000  0.25000000  0.24944431
   0.50000000  0.25000000  0.74944431
   0.50000000  0.75000000  0.24944431
   0.50000000  0.75000000  0.74944431
   0.37500000  0.12500000  0.37555569
   0.37500000  0.12500000  0.87555569
   0.37500000  0.62500000  0.37555569
   0.37500000  0.62500000  0.87555569
   0.87500000  0.12500000  0.37555569
   0.87500000  0.12500000  0.87555569
   0.87500000  0.62500000  0.37555569
   0.87500000  0.62500000  0.87555569
   0.25000000  0.00000000  0.24944431
   0.25000000  0.00000000  0.74944431
   0.25000000  0.50000000  0.24944431
   0.25000000  0.50000000  0.74944431
   0.75000000  0.00000000  0.24944431
   0.75000000  0.00000000  0.74944431
   0.75000000  0.50000000  0.24944431
   0.75000000  0.50000000  0.74944431
   0.12500000  0.37500000  0.37555569
   0.12500000  0.37500000  0.87555569
   0.12500000  0.87500000  0.37555569
   0.12500000  0.87500000  0.87555569
   0.62500000  0.37500000  0.37555569
   0.62500000  0.37500000  0.87555569
   0.62500000  0.87500000  0.37555569
   0.62500000  0.87500000  0.87555569
   0.25000000  0.25000000  0.99944431
   0.25000000  0.25000000  0.49944431
   0.25000000  0.75000000  0.99944431
   0.25000000  0.75000000  0.49944431
   0.75000000  0.25000000  0.99944431
   0.75000000  0.25000000  0.49944431
   0.75000000  0.75000000  0.99944431
   0.75000000  0.75000000  0.49944431
   0.12500000  0.12500000  0.12555569
   0.12500000  0.12500000  0.62555569
   0.12500000  0.62500000  0.12555569
   0.12500000  0.62500000  0.62555569
   0.62500000  0.12500000  0.12555569
   0.62500000  0.12500000  0.62555569
   0.62500000  0.62500000  0.12555569
   0.62500000  0.62500000  0.62555569
