  64  64   0   0
  0.1904772E+02  0.1064695E-08  0.1070045E-08  0.1070042E-08  0.5000000E-15
  1.000000000000000E-004
  CAR 
 Si64                                    
     11.79568417     -8.03359786  301      6.56516010      1.00000000
     -8.034  0.0000E+00  0.0000E+00
     -7.968  0.0000E+00  0.0000E+00
     -7.901  0.0000E+00  0.0000E+00
     -7.835  0.0000E+00  0.0000E+00
     -7.769  0.0000E+00  0.0000E+00
     -7.703  0.0000E+00  0.0000E+00
     -7.637 -0.1739E-28 -0.1150E-29
     -7.571 -0.2975E-26 -0.1978E-27
     -7.505 -0.4101E-24 -0.2730E-25
     -7.439 -0.4532E-22 -0.3023E-23
     -7.373 -0.4016E-20 -0.2684E-21
     -7.307 -0.2851E-18 -0.1911E-19
     -7.240 -0.1621E-16 -0.1091E-17
     -7.174 -0.7138E-15 -0.4827E-16
     -7.108 -0.2598E-13 -0.1766E-14
     -7.042 -0.7532E-12 -0.5155E-13
     -6.976 -0.1743E-10 -0.1203E-11
     -6.910 -0.3213E-09 -0.2244E-10
     -6.844 -0.4710E-08 -0.3338E-09
     -6.778 -0.5478E-07 -0.3954E-08
     -6.712 -0.5034E-06 -0.3723E-07
     -6.646 -0.3637E-05 -0.2776E-06
     -6.579 -0.2049E-04 -0.1632E-05
     -6.513 -0.8885E-04 -0.7504E-05
     -6.447 -0.2898E-03 -0.2666E-04
     -6.381 -0.6775E-03 -0.7144E-04
     -6.315 -0.9906E-03 -0.1369E-03
     -6.249 -0.3329E-03 -0.1589E-03
     -6.183  0.2330E-02 -0.4909E-05
     -6.117  0.6550E-02  0.4280E-03
     -6.051  0.1019E-01  0.1101E-02
     -5.985  0.1361E-01  0.2001E-02
     -5.918  0.2364E-01  0.3564E-02
     -5.852  0.4671E-01  0.6651E-02
     -5.786  0.7570E-01  0.1165E-01
     -5.720  0.9409E-01  0.1787E-01
     -5.654  0.1015E+00  0.2458E-01
     -5.588  0.1204E+00  0.3254E-01
     -5.522  0.1612E+00  0.4320E-01
     -5.456  0.1959E+00  0.5615E-01
     -5.390  0.1922E+00  0.6886E-01
     -5.324  0.1606E+00  0.7947E-01
     -5.257  0.1369E+00  0.8852E-01
     -5.191  0.1298E+00  0.9710E-01
     -5.125  0.1174E+00  0.1049E+00
     -5.059  0.9184E-01  0.1109E+00
     -4.993  0.7134E-01  0.1156E+00
     -4.927  0.6995E-01  0.1203E+00
     -4.861  0.8949E-01  0.1262E+00
     -4.795  0.1422E+00  0.1356E+00
     -4.729  0.2409E+00  0.1515E+00
     -4.663  0.3550E+00  0.1750E+00
     -4.597  0.4254E+00  0.2031E+00
     -4.530  0.4400E+00  0.2322E+00
     -4.464  0.4412E+00  0.2613E+00
     -4.398  0.4389E+00  0.2903E+00
     -4.332  0.3835E+00  0.3157E+00
     -4.266  0.2517E+00  0.3323E+00
     -4.200  0.9751E-01  0.3388E+00
     -4.134 -0.5076E-02  0.3384E+00
     -4.068 -0.2473E-01  0.3368E+00
     -4.002  0.3363E-01  0.3390E+00
     -3.936  0.1547E+00  0.3492E+00
     -3.869  0.3112E+00  0.3698E+00
     -3.803  0.4525E+00  0.3997E+00
     -3.737  0.5179E+00  0.4340E+00
     -3.671  0.4773E+00  0.4655E+00
     -3.605  0.3638E+00  0.4896E+00
     -3.539  0.2527E+00  0.5063E+00
     -3.473  0.2131E+00  0.5203E+00
     -3.407  0.2753E+00  0.5385E+00
     -3.341  0.4175E+00  0.5661E+00
     -3.275  0.5707E+00  0.6039E+00
     -3.208  0.6623E+00  0.6476E+00
     -3.142  0.6705E+00  0.6920E+00
     -3.076  0.6235E+00  0.7332E+00
     -3.010  0.5523E+00  0.7697E+00
     -2.944  0.4733E+00  0.8010E+00
     -2.878  0.4140E+00  0.8283E+00
     -2.812  0.4039E+00  0.8550E+00
     -2.746  0.4164E+00  0.8825E+00
     -2.680  0.3769E+00  0.9075E+00
     -2.614  0.2561E+00  0.9244E+00
     -2.547  0.1098E+00  0.9316E+00
     -2.481  0.8525E-02  0.9322E+00
     -2.415 -0.3047E-01  0.9302E+00
     -2.349 -0.2828E-01  0.9283E+00
     -2.283  0.2013E-02  0.9285E+00
     -2.217  0.6309E-01  0.9326E+00
     -2.151  0.1427E+00  0.9421E+00
     -2.085  0.1972E+00  0.9551E+00
     -2.019  0.1838E+00  0.9672E+00
     -1.953  0.1090E+00  0.9744E+00
     -1.887  0.3145E-01  0.9765E+00
     -1.820  0.2114E-01  0.9779E+00
     -1.754  0.1193E+00  0.9858E+00
     -1.688  0.3117E+00  0.1006E+01
     -1.622  0.5165E+00  0.1041E+01
     -1.556  0.6201E+00  0.1082E+01
     -1.490  0.5583E+00  0.1118E+01
     -1.424  0.3708E+00  0.1143E+01
     -1.358  0.1658E+00  0.1154E+01
     -1.292  0.3929E-01  0.1157E+01
     -1.226  0.2515E-01  0.1158E+01
     -1.159  0.9503E-01  0.1164E+01
     -1.093  0.1821E+00  0.1176E+01
     -1.027  0.2207E+00  0.1191E+01
     -0.961  0.1960E+00  0.1204E+01
     -0.895  0.1616E+00  0.1215E+01
     -0.829  0.1900E+00  0.1227E+01
     -0.763  0.2864E+00  0.1246E+01
     -0.697  0.3647E+00  0.1270E+01
     -0.631  0.3431E+00  0.1293E+01
     -0.565  0.2628E+00  0.1310E+01
     -0.498  0.2722E+00  0.1328E+01
     -0.432  0.4705E+00  0.1359E+01
     -0.366  0.7866E+00  0.1411E+01
     -0.300  0.1021E+01  0.1479E+01
     -0.234  0.1007E+01  0.1545E+01
     -0.168  0.7410E+00  0.1594E+01
     -0.102  0.3762E+00  0.1619E+01
     -0.036  0.9010E-01  0.1625E+01
      0.030 -0.2688E-01  0.1624E+01
      0.096  0.2138E-01  0.1625E+01
      0.163  0.1764E+00  0.1637E+01
      0.229  0.3415E+00  0.1659E+01
      0.295  0.4147E+00  0.1687E+01
      0.361  0.3606E+00  0.1710E+01
      0.427  0.2378E+00  0.1726E+01
      0.493  0.1331E+00  0.1735E+01
      0.559  0.9495E-01  0.1741E+01
      0.625  0.1347E+00  0.1750E+01
      0.691  0.2462E+00  0.1766E+01
      0.757  0.3938E+00  0.1792E+01
      0.823  0.5034E+00  0.1826E+01
      0.890  0.5005E+00  0.1859E+01
      0.956  0.3741E+00  0.1883E+01
      1.022  0.1947E+00  0.1896E+01
      1.088  0.5251E-01  0.1900E+01
      1.154 -0.1389E-01  0.1899E+01
      1.220 -0.2528E-01  0.1897E+01
      1.286 -0.1915E-01  0.1896E+01
      1.352 -0.1810E-01  0.1895E+01
      1.418 -0.2521E-01  0.1893E+01
      1.484 -0.2485E-01  0.1891E+01
      1.551  0.1758E-01  0.1893E+01
      1.617  0.1377E+00  0.1902E+01
      1.683  0.3309E+00  0.1924E+01
      1.749  0.5320E+00  0.1959E+01
      1.815  0.6585E+00  0.2002E+01
      1.881  0.6754E+00  0.2047E+01
      1.947  0.6036E+00  0.2087E+01
      2.013  0.4896E+00  0.2119E+01
      2.079  0.3940E+00  0.2145E+01
      2.145  0.3698E+00  0.2170E+01
      2.212  0.4061E+00  0.2197E+01
      2.278  0.4208E+00  0.2224E+01
      2.344  0.3578E+00  0.2248E+01
      2.410  0.2831E+00  0.2267E+01
      2.476  0.3519E+00  0.2290E+01
      2.542  0.6572E+00  0.2333E+01
      2.608  0.1104E+01  0.2406E+01
      2.674  0.1436E+01  0.2501E+01
      2.740  0.1424E+01  0.2595E+01
      2.806  0.1060E+01  0.2665E+01
      2.873  0.5579E+00  0.2702E+01
      2.939  0.1582E+00  0.2713E+01
      3.005 -0.4704E-01  0.2710E+01
      3.071 -0.1027E+00  0.2703E+01
      3.137 -0.6596E-01  0.2698E+01
      3.203  0.6864E-01  0.2703E+01
      3.269  0.3278E+00  0.2725E+01
      3.335  0.6725E+00  0.2769E+01
      3.401  0.9881E+00  0.2834E+01
      3.467  0.1176E+01  0.2912E+01
      3.533  0.1224E+01  0.2993E+01
      3.600  0.1171E+01  0.3071E+01
      3.666  0.1049E+01  0.3140E+01
      3.732  0.8766E+00  0.3198E+01
      3.798  0.7073E+00  0.3245E+01
      3.864  0.6302E+00  0.3286E+01
      3.930  0.6844E+00  0.3331E+01
      3.996  0.7685E+00  0.3382E+01
      4.062  0.7211E+00  0.3430E+01
      4.128  0.5189E+00  0.3464E+01
      4.194  0.3201E+00  0.3485E+01
      4.261  0.2821E+00  0.3504E+01
      4.327  0.3978E+00  0.3530E+01
      4.393  0.5395E+00  0.3566E+01
      4.459  0.6151E+00  0.3607E+01
      4.525  0.6351E+00  0.3649E+01
      4.591  0.6434E+00  0.3691E+01
      4.657  0.6501E+00  0.3734E+01
      4.723  0.6556E+00  0.3777E+01
      4.789  0.6873E+00  0.3823E+01
      4.855  0.7672E+00  0.3874E+01
      4.922  0.8611E+00  0.3930E+01
      4.988  0.8815E+00  0.3989E+01
      5.054  0.7549E+00  0.4039E+01
      5.120  0.4984E+00  0.4072E+01
      5.186  0.2242E+00  0.4086E+01
      5.252  0.5909E-01  0.4090E+01
      5.318  0.6241E-01  0.4094E+01
      5.384  0.2007E+00  0.4108E+01
      5.450  0.3679E+00  0.4132E+01
      5.516  0.4445E+00  0.4161E+01
      5.583  0.3786E+00  0.4186E+01
      5.649  0.2213E+00  0.4201E+01
      5.715  0.7178E-01  0.4206E+01
      5.781 -0.2640E-02  0.4206E+01
      5.847  0.9070E-02  0.4206E+01
      5.913  0.8037E-01  0.4212E+01
      5.979  0.1622E+00  0.4222E+01
      6.045  0.2006E+00  0.4235E+01
      6.111  0.1745E+00  0.4247E+01
      6.177  0.1137E+00  0.4255E+01
      6.243  0.6446E-01  0.4259E+01
      6.310  0.4269E-01  0.4262E+01
      6.376  0.3222E-01  0.4264E+01
      6.442  0.1815E-01  0.4265E+01
      6.508  0.8038E-02  0.4265E+01
      6.574  0.2326E-01  0.4267E+01
      6.640  0.7487E-01  0.4272E+01
      6.706  0.1444E+00  0.4282E+01
      6.772  0.1894E+00  0.4294E+01
      6.838  0.1773E+00  0.4306E+01
      6.904  0.1150E+00  0.4313E+01
      6.971  0.4119E-01  0.4316E+01
      7.037 -0.5161E-02  0.4316E+01
      7.103  0.4831E-03  0.4316E+01
      7.169  0.6691E-01  0.4320E+01
      7.235  0.1734E+00  0.4332E+01
      7.301  0.2602E+00  0.4349E+01
      7.367  0.2700E+00  0.4367E+01
      7.433  0.2197E+00  0.4381E+01
      7.499  0.2029E+00  0.4395E+01
      7.565  0.2885E+00  0.4414E+01
      7.632  0.4245E+00  0.4442E+01
      7.698  0.4792E+00  0.4473E+01
      7.764  0.3841E+00  0.4499E+01
      7.830  0.2083E+00  0.4513E+01
      7.896  0.9209E-01  0.4519E+01
      7.962  0.1394E+00  0.4528E+01
      8.028  0.3603E+00  0.4552E+01
      8.094  0.6519E+00  0.4595E+01
      8.160  0.8353E+00  0.4650E+01
      8.226  0.7892E+00  0.4702E+01
      8.293  0.5734E+00  0.4740E+01
      8.359  0.3794E+00  0.4765E+01
      8.425  0.3489E+00  0.4788E+01
      8.491  0.4842E+00  0.4820E+01
      8.557  0.7223E+00  0.4868E+01
      8.623  0.1009E+01  0.4935E+01
      8.689  0.1259E+01  0.5018E+01
      8.755  0.1331E+01  0.5106E+01
      8.821  0.1141E+01  0.5181E+01
      8.887  0.7732E+00  0.5232E+01
      8.953  0.4215E+00  0.5260E+01
      9.020  0.2198E+00  0.5275E+01
      9.086  0.1679E+00  0.5286E+01
      9.152  0.2006E+00  0.5299E+01
      9.218  0.2700E+00  0.5317E+01
      9.284  0.3389E+00  0.5339E+01
      9.350  0.3529E+00  0.5363E+01
      9.416  0.2795E+00  0.5381E+01
      9.482  0.1534E+00  0.5391E+01
      9.548  0.4548E-01  0.5394E+01
      9.614 -0.4065E-02  0.5394E+01
      9.681 -0.4127E-02  0.5394E+01
      9.747  0.1530E-01  0.5395E+01
      9.813  0.2974E-01  0.5397E+01
      9.879  0.2955E-01  0.5399E+01
      9.945  0.1863E-01  0.5400E+01
     10.011  0.6655E-02  0.5400E+01
     10.077 -0.1434E-03  0.5400E+01
     10.143 -0.1842E-02  0.5400E+01
     10.209 -0.1298E-02  0.5400E+01
     10.275 -0.5542E-03  0.5400E+01
     10.342 -0.1686E-03  0.5400E+01
     10.408 -0.3852E-04  0.5400E+01
     10.474 -0.6778E-05  0.5400E+01
     10.540 -0.9301E-06  0.5400E+01
     10.606 -0.1004E-06  0.5400E+01
     10.672 -0.8559E-08  0.5400E+01
     10.738 -0.5791E-09  0.5400E+01
     10.804 -0.3116E-10  0.5400E+01
     10.870 -0.1337E-11  0.5400E+01
     10.936 -0.4576E-13  0.5400E+01
     11.003 -0.1246E-14  0.5400E+01
     11.069 -0.2799E-16  0.5400E+01
     11.135  0.0000E+00  0.5400E+01
     11.201  0.0000E+00  0.5400E+01
     11.267  0.0000E+00  0.5400E+01
     11.333  0.0000E+00  0.5400E+01
     11.399  0.0000E+00  0.5400E+01
     11.465  0.0000E+00  0.5400E+01
     11.531  0.0000E+00  0.5400E+01
     11.597  0.0000E+00  0.5400E+01
     11.663  0.0000E+00  0.5400E+01
     11.730  0.0000E+00  0.5400E+01
     11.796  0.0000E+00  0.5400E+01
