 vasp.6.4.3 19Mar24 (build Oct 21 2024 22:36:34) complex                        
  
 executed on             LinuxIFC date 2024.11.01  22:52:22
 running   96 mpi-ranks, on    1 nodes
 distrk:  each k-point on   24 cores,    4 groups
 distr:  one band on NCORE=  12 cores,    2 groups


--------------------------------------------------------------------------------------------------------


 INCAR:
   SYSTEM = Si64
   ISTART = 0
   ICHARG = 2
   LREAL = Auto
   PREC = Accurate
   LWAVE = .False.
   LCHARG = .False.
   ADDGRID = .True.
   ENCUT = 400
   GGA = PS
   GGA_COMPAT = .FALSE.
   ISMEAR = 1
   SIGMA = 0.2
   NELM = 60
   NELMIN = 8
   EDIFF = 1e-06
   EDIFFG = -0.01
   NSW = 60
   IBRION = 2
   ISIF = 2
   KPAR = 4
   NPAR = 2
   ALGO = Fast

 POTCAR:    PAW_PBE Si 05Jan2001                  
 POTCAR:    PAW_PBE Si 05Jan2001                  
   VRHFIN =Si: s2p2                                                                                 
   LEXCH  = PE                                                                                      
   EATOM  =   103.0669 eV,    7.5752 Ry                                                             
                                                                                                    
   TITEL  = PAW_PBE Si 05Jan2001                                                                    
   LULTRA =        F    use ultrasoft PP ?                                                          
   IUNSCR =        1    unscreen: 0-lin 1-nonlin 2-no                                               
   RPACOR =    1.500    partial core radius                                                         
   POMASS =   28.085; ZVAL   =    4.000    mass and valenz                                          
   RCORE  =    1.900    outmost cutoff radius                                                       
   RWIGS  =    2.480; RWIGS  =    1.312    wigner-seitz radius (au A)                               
   ENMAX  =  245.345; ENMIN  =  184.009 eV                                                          
   ICORE  =        2    local potential                                                             
   LCOR   =        T    correct aug charges                                                         
   LPAW   =        T    paw PP                                                                      
   EAUG   =  322.069                                                                                
   DEXC   =    0.000                                                                                
   RMAX   =    1.950    core radius for proj-oper                                                   
   RAUG   =    1.300    factor for augmentation sphere                                              
   RDEP   =    1.993    radius for radial grids                                                     
   RDEPT  =    1.837    core radius for aug-charge                                                  
                                                                                                    
   Atomic configuration                                                                             
    6 entries                                                                                       
     n  l   j            E        occ.                                                              
     1  0  0.50     -1785.8828   2.0000                                                             
     2  0  0.50      -139.4969   2.0000                                                             
     2  1  1.50       -95.5546   6.0000                                                             
     3  0  0.50       -10.8127   2.0000                                                             
     3  1  0.50        -4.0811   2.0000                                                             
     3  2  1.50        -4.0817   0.0000                                                             
   Description                                                                                      
     l       E           TYP  RCUT    TYP  RCUT                                                     
     0    -10.8127223     23  1.900                                                                 
     0     -7.6451159     23  1.900                                                                 
     1     -4.0811372     23  1.900                                                                 
     1      2.4879257     23  1.900                                                                 
     2     -4.0817478      7  1.900                                                                 
  local pseudopotential read in
  partial core-charges read in
  partial kinetic energy density read in
  atomic valenz-charges read in
  non local Contribution for L=           0  read in
    real space projection operators read in
  non local Contribution for L=           0  read in
    real space projection operators read in
  non local Contribution for L=           1  read in
    real space projection operators read in
  non local Contribution for L=           1  read in
    real space projection operators read in
    PAW grid and wavefunctions read in
 
   number of l-projection  operators is LMAX  =           4
   number of lm-projection operators is LMMAX =           8
 
 Optimization of the real space projectors (new method)

 maximal supplied QI-value         = 19.84
 optimisation between [QCUT,QGAM] = [ 10.12, 20.44] = [ 28.68,116.96] Ry 
 Optimized for a Real-space Cutoff    1.38 Angstroem

   l    n(q)    QCUT    max X(q) W(low)/X(q) W(high)/X(q)  e(spline) 
   0      8    10.119   159.560    0.58E-04    0.11E-03    0.54E-07
   0      8    10.119   115.863    0.56E-04    0.11E-03    0.54E-07
   1      8    10.119    88.339    0.22E-03    0.17E-03    0.19E-06
   1      8    10.119    48.592    0.22E-03    0.17E-03    0.18E-06
 -----------------------------------------------------------------------------
|                                                                             |
|               ----> ADVICE to this user running VASP <----                  |
|                                                                             |
|     You enforced a specific xc type in the INCAR file but a different       |
|     type was found in the POTCAR file.                                      |
|     I HOPE YOU KNOW WHAT YOU ARE DOING!                                     |
|                                                                             |
 -----------------------------------------------------------------------------

  PAW_PBE Si 05Jan2001                  :
 energy of atom  1       EATOM= -103.0669
 kinetic energy error for atom=    0.0012 (will be added to EATOM!!)
 
 
 POSCAR: Si8
  positions in direct lattice
  velocities in cartesian coordinates


 exchange-correlation table for PS
   RHO(1)=    0.500       N(1)  =     2000
   RHO(2)=  100.500       N(2)  =     4000
 


--------------------------------------------------------------------------------------------------------


 ion  position               nearest neighbor table
   1  0.000  0.000  0.000-  15 2.31  57 2.31  44 2.32  30 2.32
   2  0.000  0.000  0.500-  16 2.31  58 2.31  43 2.32  29 2.32
   3  0.000  0.500  0.000-  13 2.31  59 2.31  42 2.32  32 2.32
   4  0.000  0.500  0.500-  14 2.31  60 2.31  41 2.32  31 2.32
   5  0.500  0.000  0.000-  11 2.31  61 2.31  48 2.32  26 2.32
   6  0.500  0.000  0.500-  12 2.31  62 2.31  47 2.32  25 2.32
   7  0.500  0.500  0.000-   9 2.31  63 2.31  46 2.32  28 2.32
   8  0.500  0.500  0.500-  10 2.31  64 2.31  45 2.32  27 2.32
   9  0.375  0.375  0.125-   7 2.31  49 2.31  35 2.32  21 2.32
  10  0.375  0.375  0.625-   8 2.31  50 2.31  36 2.32  22 2.32
  11  0.375  0.875  0.125-   5 2.31  51 2.31  33 2.32  23 2.32
  12  0.375  0.875  0.625-   6 2.31  52 2.31  34 2.32  24 2.32
  13  0.875  0.375  0.125-   3 2.31  53 2.31  39 2.32  17 2.32
  14  0.875  0.375  0.625-   4 2.31  54 2.31  40 2.32  18 2.32
  15  0.875  0.875  0.125-   1 2.31  55 2.31  37 2.32  19 2.32
  16  0.875  0.875  0.625-   2 2.31  56 2.31  38 2.32  20 2.32
  17  0.000  0.250  0.250-  29 2.31  41 2.31  13 2.32  57 2.32
  18  0.000  0.250  0.750-  30 2.31  42 2.31  14 2.32  58 2.32
  19  0.000  0.750  0.250-  31 2.31  43 2.31  15 2.32  59 2.32
  20  0.000  0.750  0.750-  32 2.31  44 2.31  16 2.32  60 2.32
  21  0.500  0.250  0.250-  25 2.31  45 2.31   9 2.32  61 2.32
  22  0.500  0.250  0.750-  26 2.31  46 2.31  10 2.32  62 2.32
  23  0.500  0.750  0.250-  27 2.31  47 2.31  11 2.32  63 2.32
  24  0.500  0.750  0.750-  28 2.31  48 2.31  12 2.32  64 2.32
  25  0.375  0.125  0.375-  21 2.31  33 2.31   6 2.32  50 2.32
  26  0.375  0.125  0.875-  22 2.31  34 2.31   5 2.32  49 2.32
  27  0.375  0.625  0.375-  23 2.31  35 2.31   8 2.32  52 2.32
  28  0.375  0.625  0.875-  24 2.31  36 2.31   7 2.32  51 2.32
  29  0.875  0.125  0.375-  17 2.31  37 2.31   2 2.32  54 2.32
  30  0.875  0.125  0.875-  18 2.31  38 2.31   1 2.32  53 2.32
  31  0.875  0.625  0.375-  19 2.31  39 2.31   4 2.32  56 2.32
  32  0.875  0.625  0.875-  20 2.31  40 2.31   3 2.32  55 2.32
  33  0.250  0.000  0.250-  25 2.31  43 2.31  11 2.32  57 2.32
  34  0.250  0.000  0.750-  26 2.31  44 2.31  12 2.32  58 2.32
  35  0.250  0.500  0.250-  27 2.31  41 2.31   9 2.32  59 2.32
  36  0.250  0.500  0.750-  28 2.31  42 2.31  10 2.32  60 2.32
  37  0.750  0.000  0.250-  29 2.31  47 2.31  15 2.32  61 2.32
  38  0.750  0.000  0.750-  30 2.31  48 2.31  16 2.32  62 2.32
  39  0.750  0.500  0.250-  31 2.31  45 2.31  13 2.32  63 2.32
  40  0.750  0.500  0.750-  32 2.31  46 2.31  14 2.32  64 2.32
  41  0.125  0.375  0.375-  17 2.31  35 2.31   4 2.32  50 2.32
  42  0.125  0.375  0.875-  18 2.31  36 2.31   3 2.32  49 2.32
  43  0.125  0.875  0.375-  19 2.31  33 2.31   2 2.32  52 2.32
  44  0.125  0.875  0.875-  20 2.31  34 2.31   1 2.32  51 2.32
  45  0.625  0.375  0.375-  21 2.31  39 2.31   8 2.32  54 2.32
  46  0.625  0.375  0.875-  22 2.31  40 2.31   7 2.32  53 2.32
  47  0.625  0.875  0.375-  23 2.31  37 2.31   6 2.32  56 2.32
  48  0.625  0.875  0.875-  24 2.31  38 2.31   5 2.32  55 2.32
  49  0.250  0.250  0.000-   9 2.31  57 2.31  42 2.32  26 2.32
  50  0.250  0.250  0.500-  10 2.31  58 2.31  41 2.32  25 2.32
  51  0.250  0.750  0.000-  11 2.31  59 2.31  44 2.32  28 2.32
  52  0.250  0.750  0.500-  12 2.31  60 2.31  43 2.32  27 2.32
  53  0.750  0.250  0.000-  13 2.31  61 2.31  46 2.32  30 2.32
  54  0.750  0.250  0.500-  14 2.31  62 2.31  45 2.32  29 2.32
  55  0.750  0.750  0.000-  15 2.31  63 2.31  48 2.32  32 2.32
  56  0.750  0.750  0.500-  16 2.31  64 2.31  47 2.32  31 2.32
  57  0.125  0.125  0.125-   1 2.31  49 2.31  33 2.32  17 2.32
  58  0.125  0.125  0.625-   2 2.31  50 2.31  34 2.32  18 2.32
  59  0.125  0.625  0.125-   3 2.31  51 2.31  35 2.32  19 2.32
  60  0.125  0.625  0.625-   4 2.31  52 2.31  36 2.32  20 2.32
  61  0.625  0.125  0.125-   5 2.31  53 2.31  37 2.32  21 2.32
  62  0.625  0.125  0.625-   6 2.31  54 2.31  38 2.32  22 2.32
  63  0.625  0.625  0.125-   7 2.31  55 2.31  39 2.32  23 2.32
  64  0.625  0.625  0.625-   8 2.31  56 2.31  40 2.32  24 2.32
 
  LATTYP: Found a simple monoclinic cell.
 ALAT       =    10.6469521790
 B/A-ratio  =     1.0050219443
 C/A-ratio  =     1.0050250850
 COS(beta)  =    -0.0050125224
  
  Lattice vectors:
  
 A1 = (  10.6469185723,  -0.0267510040,   0.0000000000)
 A2 = (   0.0000000000,   0.0000000000, -10.7004205802)
 A3 = (  -0.0267510040,  10.7004205802,   0.0000000000)


Analysis of symmetry for initial positions (statically):
=====================================================================
 Subroutine PRICEL returns following result:
 
  LATTYP: Found a base centered monoclinic cell.
 ALAT       =     5.3234760895
 B/A-ratio  =     1.0050219443
 C/A-ratio  =     0.7071067812
 COS(beta)  =    -0.7035445817
  
  Lattice vectors:
  
 A1 = (  -2.6617296431,   0.0066877510,  -2.6751051451)
 A2 = (  -2.6617296431,   0.0066877510,   2.6751051451)
 A3 = (   2.6550418921,   2.6684173941,  -0.0000000000)
 
  32 primitive cells build up your supercell.
 

 Routine SETGRP: Setting up the symmetry group for a 
 simple monoclinic supercell.


 Subroutine GETGRP returns: Found  4 space group operations
 (whereof  2 operations were pure point group operations)
 out of a pool of  4 trial point group operations.


The static configuration has the point symmetry C_2 .
 The point group associated with its full space group is C_2h.


Analysis of symmetry for dynamics (positions and initial velocities):
=====================================================================
 Subroutine PRICEL returns following result:
 
  LATTYP: Found a base centered monoclinic cell.
 ALAT       =     5.3234760895
 B/A-ratio  =     1.0050219443
 C/A-ratio  =     0.7071067812
 COS(beta)  =    -0.7035445817
  
  Lattice vectors:
  
 A1 = (  -2.6617296431,   0.0066877510,  -2.6751051451)
 A2 = (  -2.6617296431,   0.0066877510,   2.6751051451)
 A3 = (   2.6550418921,   2.6684173941,  -0.0000000000)
 
  32 primitive cells build up your supercell.
 

 Routine SETGRP: Setting up the symmetry group for a 
 simple monoclinic supercell.


 Subroutine GETGRP returns: Found  4 space group operations
 (whereof  2 operations were pure point group operations)
 out of a pool of  4 trial point group operations.


The dynamic configuration has the point symmetry C_2 .
 The point group associated with its full space group is C_2h.


 Subroutine INISYM returns: Found  4 space group operations
 (whereof  2 operations are pure point group operations),
 and found    32 'primitive' translations


----------------------------------------------------------------------------------------

                                     Primitive cell                                     

  volume of cell :      38.0954

  direct lattice vectors                    reciprocal lattice vectors
    -2.661729643  0.006687751 -2.675105145    -0.187379337  0.186440094 -0.186908541
    -2.661729643  0.006687751  2.675105145    -0.187379337  0.186440094  0.186908541
     2.655041892  2.668417394 -0.000000000     0.000939243  0.373819430 -0.000000000

  length of vectors
     3.773729847  3.773729847  3.764266042     0.323737127  0.323737127  0.373820610

  position of ions in fractional coordinates (direct lattice)
     0.000000000  0.000000000  0.000000000
     0.750000000  0.250000000  0.500000000

  ion indices of the primitive-cell ions
   primitive index   ion index
                 1           1
                 2          15

----------------------------------------------------------------------------------------

 
 
 KPOINTS: Automatic mesh                          

Automatic generation of k-mesh.
 Grid dimensions read from file:
 generate k-points for:    2    2    2

 Generating k-lattice:

  Cartesian coordinates                     Fractional coordinates (reciprocal lattice)
     0.046962240  0.000117405  0.000000000     0.500000000  0.000000000  0.000000000
     0.000117405  0.046727429  0.000000000    -0.000000000  0.500000000  0.000000000
     0.000000000  0.000000000  0.046727135     0.000000000  0.000000000  0.500000000

  Length of vectors
     0.046962386  0.046727576  0.046727135

  Shift w.r.t. Gamma in fractional coordinates (k-lattice)
     0.000000000  0.000000000  0.000000000

 
 Subroutine IBZKPT returns following result:
 ===========================================
 
 Found      8 irreducible k-points:
 
 Following reciprocal coordinates:
            Coordinates               Weight
  0.000000  0.000000  0.000000      1.000000
  0.500000  0.000000  0.000000      1.000000
  0.000000  0.500000  0.000000      1.000000
  0.500000  0.500000  0.000000      1.000000
  0.000000  0.000000  0.500000      1.000000
  0.500000  0.000000  0.500000      1.000000
  0.000000  0.500000  0.500000      1.000000
  0.500000  0.500000  0.500000      1.000000
 
 Following cartesian coordinates:
            Coordinates               Weight
  0.000000  0.000000  0.000000      1.000000
  0.046962  0.000117  0.000000      1.000000
  0.000117  0.046727  0.000000      1.000000
  0.047080  0.046845  0.000000      1.000000
  0.000000  0.000000  0.046727      1.000000
  0.046962  0.000117  0.046727      1.000000
  0.000117  0.046727  0.046727      1.000000
  0.047080  0.046845  0.046727      1.000000
 


--------------------------------------------------------------------------------------------------------




 Dimension of arrays:
   k-points           NKPTS =      8   k-points in BZ     NKDIM =      8   number of bands    NBANDS=    162
   number of dos      NEDOS =    301   number of ions     NIONS =     64
   non local maximal  LDIM  =      4   non local SUM 2l+1 LMDIM =      8
   total plane-waves  NPLWV = 343000
   max r-space proj   IRMAX =   3150   max aug-charges    IRDMAX=  75450
   dimension x,y,z NGX =    70 NGY =   70 NGZ =   70
   dimension x,y,z NGXF=   140 NGYF=  140 NGZF=  140
   support grid    NGXF=   280 NGYF=  280 NGZF=  280
   ions per type =              64
   NGX,Y,Z   is equivalent  to a cutoff of  10.93, 10.88, 10.88 a.u.
   NGXF,Y,Z  is equivalent  to a cutoff of  21.86, 21.75, 21.75 a.u.

 SYSTEM =  Si64                                    
 POSCAR =  Si8                                     

 Startparameter for this run:
   NWRITE =      2    write-flag & timer
   PREC   = accura    normal or accurate (medium, high low for compatibility)
   ISTART =      0    job   : 0-new  1-cont  2-samecut
   ICHARG =      2    charge: 1-file 2-atom 10-const
   ISPIN  =      1    spin polarized calculation?
   LNONCOLLINEAR =      F non collinear calculations
   LSORBIT =      F    spin-orbit coupling
   INIWAV =      1    electr: 0-lowe 1-rand  2-diag
   LASPH  =      F    aspherical Exc in radial PAW
 Electronic Relaxation 1
   ENCUT  =  400.0 eV  29.40 Ry    5.42 a.u.  17.36 17.45 17.45*2*pi/ulx,y,z
   ENINI  =  400.0     initial cutoff
   ENAUG  =  322.1 eV  augmentation charge cutoff
   NELM   =     60;   NELMIN=  8; NELMDL= -5     # of ELM steps 
   EDIFF  = 0.1E-05   stopping-criterion for ELM
   LREAL  =      T    real-space projection
   NLSPLINE    = F    spline interpolate recip. space projectors
   LCOMPAT=      F    compatible to vasp.4.4
   GGA_COMPAT  = F    GGA compatible to vasp.4.4-vasp.4.6
   LMAXPAW     = -100 max onsite density
   LMAXMIX     =    2 max onsite mixed and CHGCAR
   VOSKOWN=      0    Vosko Wilk Nusair interpolation
   ROPT   =   -0.00025
 Ionic relaxation
   EDIFFG = -.1E-01   stopping-criterion for IOM
   NSW    =     60    number of steps for IOM
   NBLOCK =      1;   KBLOCK =     60    inner block; outer block 
   IBRION =      2    ionic relax: 0-MD 1-quasi-New 2-CG
   NFREE  =      1    steps in history (QN), initial steepest desc. (CG)
   ISIF   =      2    stress and relaxation
   IWAVPR =     11    prediction:  0-non 1-charg 2-wave 3-comb
   ISYM   =      2    0-nonsym 1-usesym 2-fastsym
   LCORR  =      T    Harris-Foulkes like correction to forces

   POTIM  = 0.5000    time-step for ionic-motion
   TEIN   =    0.0    initial temperature
   TEBEG  =    0.0;   TEEND  =   0.0 temperature during run
   SMASS  =  -3.00    Nose mass-parameter (am)
   estimated Nose-frequenzy (Omega)   =  0.10E-29 period in steps = 0.13E+47 mass=  -0.259E-26a.u.
   SCALEE = 1.0000    scale energy and forces
   NPACO  =    256;   APACO  = 10.0  distance and # of slots for P.C.
   PSTRESS=    0.0 pullay stress

  Mass of Ions in am
   POMASS =  28.09
  Ionic Valenz
   ZVAL   =   4.00
  Atomic Wigner-Seitz radii
   RWIGS  =  -1.00
  virtual crystal weights 
   VCA    =   1.00
   NELECT =     256.0000    total number of electrons
   NUPDOWN=      -1.0000    fix difference up-down

 DOS related values:
   EMIN   =  10.00;   EMAX   =-10.00  energy-range for DOS
   EFERMI =   0.00;   METHOD = LEGACY      
   ISMEAR =     1;   SIGMA  =   0.20  broadening in eV -4-tet -1-fermi 0-gaus

 Electronic relaxation 2 (details)
   IALGO  =     68    algorithm
   LDIAG  =      T    sub-space diagonalisation (order eigenvalues)
   LSUBROT=      F    optimize rotation matrix (better conditioning)
   TURBO    =      0    0=normal 1=particle mesh
   IRESTART =      0    0=no restart 2=restart with 2 vectors
   NREBOOT  =      0    no. of reboots
   NMIN     =      0    reboot dimension
   EREF     =   0.00    reference energy to select bands
   IMIX   =      4    mixing-type and parameters
     AMIX     =   0.40;   BMIX     =  1.00
     AMIX_MAG =   1.60;   BMIX_MAG =  1.00
     AMIN     =   0.10
     WC   =   100.;   INIMIX=   1;  MIXPRE=   1;  MAXMIX= -45

 Intra band minimization:
   WEIMIN = 0.0010     energy-eigenvalue tresh-hold
   EBREAK =  0.15E-08  absolut break condition
   DEPER  =   0.30     relativ break condition  

   TIME   =   0.40     timestep for ELM

  volume/ion in A,a.u.               =      19.05       128.54
  Fermi-wavevector in a.u.,A,eV,Ry     =   0.973077  1.838849 12.883068  0.946879
  Thomas-Fermi vector in A             =   2.103427
 
 Write flags
   LWAVE        =      F    write WAVECAR
   LDOWNSAMPLE  =      F    k-point downsampling of WAVECAR
   LCHARG       =      F    write CHGCAR
   LVTOT        =      F    write LOCPOT, total local potential
   LVHAR        =      F    write LOCPOT, Hartree potential only
   WRT_POTENTIAL= false  ! write potential to hdf5 file
   LELF         =      F    write electronic localiz. function (ELF)
   LORBIT       =      0    0 simple, 1 ext, 2 COOP (PROOUT), +10 PAW based schemes


 Dipole corrections
   LMONO      =      F    monopole corrections only (constant potential shift)
   LDIPOL     =      F    correct potential (dipole corrections)
   IDIPOL     =      0    1-x, 2-y, 3-z, 4-all directions 
   EPSILON    =  1.0000000 bulk dielectric constant
   LVACPOTAV  =      F  vacuum potentials using an averaging scheme for the charge density
   VACPOTFLAT =  0.1000000 required flatness to determine vacuum potential
 Exchange correlation treatment:
   GGA     = PS    functional components
   XC_C    = 1    coefficients multiplying the functional components
   LIBXC   =     F    Libxc                    
   VOSKOWN =     0    Vosko Wilk Nusair interpolation
   LHFCALC =     F    Hartree Fock is set to
   LHFONE  =     F    Hartree Fock one center treatment
   AEXX    =    0.0000 exact exchange contribution

 Parameters of functionals:
   PS:
     No parameter
 
 Van der Waals corrections
   IVDW    =     0    specifies the selected vdW correction

 Linear response parameters
   LEPSILON=     F    determine dielectric tensor
   LRPA    =     F    only Hartree local field effects (RPA)
   LNABLA  =     F    use nabla operator in PAW spheres
   LVEL    =     F    velocity operator in full k-point grid
   CSHIFT  =0.1000    complex shift for real part using Kramers Kronig
   OMEGAMAX=  -1.0    maximum frequency
   DEG_THRESHOLD= 0.2000000E-02 threshold for treating states as degnerate
   RTIME   =   -0.100 relaxation time in fs
  (WPLASMAI=    0.000 imaginary part of plasma frequency in eV, 0.658/RTIME)
   DFIELD  = 0.0000000 0.0000000 0.0000000 field for delta impulse in time
 
  Optional k-point grid parameters
   LKPOINTS_OPT  =     F    use optional k-point grid
   KPOINTS_OPT_MODE=     1    mode for optional k-point grid
 
 Orbital magnetization related:
   ORBITALMAG=     F  switch on orbital magnetization
   LCHIMAG   =     F  perturbation theory with respect to B field
   DQ        =  0.001000  dq finite difference perturbation B field
   LLRAUG    =     F  two centre corrections for induced B field
   LBONE     =     F  B-component reconstruction in AE one-centre
   LVGVCALC  =     T  calculate vGv susceptibility
   LVGVAPPL  =     F  apply vGv susceptibility instead of pGv for G=0

 Random number generation:
   RANDOM_GENERATOR = DEFAULT
   PCG_SEED         = not used


--------------------------------------------------------------------------------------------------------


 conjugate gradient relaxation of ions
 charge density and potential will be updated during run
 non-spin polarized calculation
 RMM-DIIS sequential band-by-band and
  variant of blocked Davidson during initial phase
 perform sub-space diagonalisation
    before iterative eigenvector-optimisation
 modified Broyden-mixing scheme, WC =      100.0
 initial mixing is a Kerker type mixing with AMIX =  0.4000 and BMIX =      1.0000
 Hartree-type preconditioning will be used
 using additional bands           34
 real space projection scheme for non local part
 use partial core corrections
 calculate Harris-corrections to forces 
   (improved forces if not selfconsistent)
 use gradient corrections 
 use of overlap-Matrix (Vanderbilt PP)
 Methfessel and Paxton  Order N= 1 SIGMA  =   0.20


--------------------------------------------------------------------------------------------------------


  energy-cutoff  :      400.00
  volume of cell :     1219.05
      direct lattice vectors                 reciprocal lattice vectors
    10.646918572 -0.026751004  0.000000000     0.093924479  0.000234811  0.000000000
    -0.026751004 10.700420580  0.000000000     0.000234811  0.093454858  0.000000000
     0.000000000  0.000000000 10.700420580     0.000000000  0.000000000  0.093454271

  length of vectors
    10.646952179 10.700454019 10.700420580     0.093924773  0.093455153  0.093454271


 
 k-points in units of 2pi/SCALE and weight: Automatic mesh                          
   0.00000000  0.00000000  0.00000000       0.125
   0.04696225  0.00011741  0.00000000       0.125
   0.00011741  0.04672744  0.00000000       0.125
   0.04707965  0.04684484  0.00000000       0.125
   0.00000000  0.00000000  0.04672714       0.125
   0.04696225  0.00011741  0.04672714       0.125
   0.00011741  0.04672744  0.04672714       0.125
   0.04707965  0.04684484  0.04672714       0.125
 
 k-points in reciprocal lattice and weights: Automatic mesh                          
   0.00000000  0.00000000  0.00000000       0.125
   0.50000000  0.00000000  0.00000000       0.125
   0.00000000  0.50000000  0.00000000       0.125
   0.50000000  0.50000000  0.00000000       0.125
   0.00000000  0.00000000  0.50000000       0.125
   0.50000000  0.00000000  0.50000000       0.125
   0.00000000  0.50000000  0.50000000       0.125
   0.50000000  0.50000000  0.50000000       0.125
 
 position of ions in fractional coordinates (direct lattice) 
   0.00000000  0.00000000  0.00000000
   0.00000000  0.00000000  0.50000000
   0.00000000  0.50000000  0.00000000
   0.00000000  0.50000000  0.50000000
   0.50000000  0.00000000  0.00000000
   0.50000000  0.00000000  0.50000000
   0.50000000  0.50000000  0.00000000
   0.50000000  0.50000000  0.50000000
   0.37500000  0.37500000  0.12500000
   0.37500000  0.37500000  0.62500000
   0.37500000  0.87500000  0.12500000
   0.37500000  0.87500000  0.62500000
   0.87500000  0.37500000  0.12500000
   0.87500000  0.37500000  0.62500000
   0.87500000  0.87500000  0.12500000
   0.87500000  0.87500000  0.62500000
   0.00000000  0.25000000  0.25000000
   0.00000000  0.25000000  0.75000000
   0.00000000  0.75000000  0.25000000
   0.00000000  0.75000000  0.75000000
   0.50000000  0.25000000  0.25000000
   0.50000000  0.25000000  0.75000000
   0.50000000  0.75000000  0.25000000
   0.50000000  0.75000000  0.75000000
   0.37500000  0.12500000  0.37500000
   0.37500000  0.12500000  0.87500000
   0.37500000  0.62500000  0.37500000
   0.37500000  0.62500000  0.87500000
   0.87500000  0.12500000  0.37500000
   0.87500000  0.12500000  0.87500000
   0.87500000  0.62500000  0.37500000
   0.87500000  0.62500000  0.87500000
   0.25000000  0.00000000  0.25000000
   0.25000000  0.00000000  0.75000000
   0.25000000  0.50000000  0.25000000
   0.25000000  0.50000000  0.75000000
   0.75000000  0.00000000  0.25000000
   0.75000000  0.00000000  0.75000000
   0.75000000  0.50000000  0.25000000
   0.75000000  0.50000000  0.75000000
   0.12500000  0.37500000  0.37500000
   0.12500000  0.37500000  0.87500000
   0.12500000  0.87500000  0.37500000
   0.12500000  0.87500000  0.87500000
   0.62500000  0.37500000  0.37500000
   0.62500000  0.37500000  0.87500000
   0.62500000  0.87500000  0.37500000
   0.62500000  0.87500000  0.87500000
   0.25000000  0.25000000  0.00000000
   0.25000000  0.25000000  0.50000000
   0.25000000  0.75000000  0.00000000
   0.25000000  0.75000000  0.50000000
   0.75000000  0.25000000  0.00000000
   0.75000000  0.25000000  0.50000000
   0.75000000  0.75000000  0.00000000
   0.75000000  0.75000000  0.50000000
   0.12500000  0.12500000  0.12500000
   0.12500000  0.12500000  0.62500000
   0.12500000  0.62500000  0.12500000
   0.12500000  0.62500000  0.62500000
   0.62500000  0.12500000  0.12500000
   0.62500000  0.12500000  0.62500000
   0.62500000  0.62500000  0.12500000
   0.62500000  0.62500000  0.62500000
 
 position of ions in cartesian coordinates  (Angst):
   0.00000000  0.00000000  0.00000000
   0.00000000  0.00000000  5.35021029
  -0.01337550  5.35021029  0.00000000
  -0.01337550  5.35021029  5.35021029
   5.32345929 -0.01337550  0.00000000
   5.32345929 -0.01337550  5.35021029
   5.31008378  5.33683479  0.00000000
   5.31008378  5.33683479  5.35021029
   3.98256284  4.00262609  1.33755257
   3.98256284  4.00262609  6.68776286
   3.96918734  9.35283638  1.33755257
   3.96918734  9.35283638  6.68776286
   9.30602212  3.98925059  1.33755257
   9.30602212  3.98925059  6.68776286
   9.29264662  9.33946088  1.33755257
   9.29264662  9.33946088  6.68776286
  -0.00668775  2.67510515  2.67510515
  -0.00668775  2.67510515  8.02531544
  -0.02006325  8.02531544  2.67510515
  -0.02006325  8.02531544  8.02531544
   5.31677154  2.66172964  2.67510515
   5.31677154  2.66172964  8.02531544
   5.30339603  8.01193993  2.67510515
   5.30339603  8.01193993  8.02531544
   3.98925059  1.32752095  4.01265772
   3.98925059  1.32752095  9.36286801
   3.97587509  6.67773124  4.01265772
   3.97587509  6.67773124  9.36286801
   9.31270988  1.31414544  4.01265772
   9.31270988  1.31414544  9.36286801
   9.29933437  6.66435573  4.01265772
   9.29933437  6.66435573  9.36286801
   2.66172964 -0.00668775  2.67510515
   2.66172964 -0.00668775  8.02531544
   2.64835414  5.34352254  2.67510515
   2.64835414  5.34352254  8.02531544
   7.98518893 -0.02006325  2.67510515
   7.98518893 -0.02006325  8.02531544
   7.97181343  5.33014704  2.67510515
   7.97181343  5.33014704  8.02531544
   1.32083320  4.00931384  4.01265772
   1.32083320  4.00931384  9.36286801
   1.30745769  9.35952413  4.01265772
   1.30745769  9.35952413  9.36286801
   6.64429248  3.99593834  4.01265772
   6.64429248  3.99593834  9.36286801
   6.63091698  9.34614863  4.01265772
   6.63091698  9.34614863  9.36286801
   2.65504189  2.66841739  0.00000000
   2.65504189  2.66841739  5.35021029
   2.64166639  8.01862768  0.00000000
   2.64166639  8.01862768  5.35021029
   7.97850118  2.65504189  0.00000000
   7.97850118  2.65504189  5.35021029
   7.96512568  8.00525218  0.00000000
   7.96512568  8.00525218  5.35021029
   1.32752095  1.33420870  1.33755257
   1.32752095  1.33420870  6.68776286
   1.31414544  6.68441899  1.33755257
   1.31414544  6.68441899  6.68776286
   6.65098023  1.32083320  1.33755257
   6.65098023  1.32083320  6.68776286
   6.63760473  6.67104349  1.33755257
   6.63760473  6.67104349  6.68776286
 


--------------------------------------------------------------------------------------------------------


 k-point     1 :   0.0000 0.0000 0.0000  plane waves:   22111
 k-point     2 :   0.5000 0.0000 0.0000  plane waves:   22156
 k-point     3 :   0.0000 0.5000 0.0000  plane waves:   22144
 k-point     4 :   0.5000 0.5000 0.0000  plane waves:   22142
 k-point     5 :   0.0000 0.0000 0.5000  plane waves:   22122
 k-point     6 :   0.5000 0.0000 0.5000  plane waves:   22152
 k-point     7 :   0.0000 0.5000 0.5000  plane waves:   22136
 k-point     8 :   0.5000 0.5000 0.5000  plane waves:   22184

 maximum and minimum number of plane-waves per node :      1883     1802

 maximum number of plane-waves:     22184
 maximum index in each direction: 
   IXMAX=   17   IYMAX=   17   IZMAX=   17
   IXMIN=  -17   IYMIN=  -17   IZMIN=  -17


 real space projection operators:
  total allocation   :      12041.50 KBytes
  max/ min on nodes  :       1043.50        868.75


 parallel 3D FFT for wavefunctions:
    minimum data exchange during FFTs selected (reduces bandwidth)
 parallel 3D FFT for charge:
    minimum data exchange during FFTs selected (reduces bandwidth)


 total amount of memory used by VASP MPI-rank0    79364. kBytes
=======================================================================

   base      :      30000. kBytes
   nonlr-proj:       4650. kBytes
   fftplans  :      17992. kBytes
   grid      :       6881. kBytes
   one-center:         18. kBytes
   wavefun   :      19823. kBytes
 
     INWAV:  cpu time      0.0000: real time      0.0000
 Broyden mixing: mesh for mixing (old mesh)
   NGX = 35   NGY = 35   NGZ = 35
  (NGX  =140   NGY  =140   NGZ  =140)
  gives a total of  42875 points

 initial charge density was supplied:
 charge density of overlapping atoms calculated
 number of electron     256.0000000 magnetization 
 keeping initial charge density in first step


--------------------------------------------------------------------------------------------------------


 Maximum index for non-local projection operator          280
 Maximum index for augmentation-charges         3714 (set IRDMAX)


--------------------------------------------------------------------------------------------------------


 First call to EWALD:  gamma=   0.166
 Maximum number of real-space cells 3x 3x 3
 Maximum number of reciprocal cells 3x 3x 3

    FEWALD:  cpu time      0.0064: real time      0.0064


--------------------------------------- Ionic step        1  -------------------------------------------




--------------------------------------- Iteration      1(   1)  ---------------------------------------


    POTLOK:  cpu time      0.0910: real time      0.0996
    SETDIJ:  cpu time      0.0870: real time      0.0877
     EDDAV:  cpu time      1.2841: real time      1.3496
       DOS:  cpu time      0.0110: real time      0.0130
    --------------------------------------------
      LOOP:  cpu time      1.4731: real time      1.5498

 eigenvalue-minimisations  :  2592
 total energy-change (2. order) : 0.5631612E+03  (-0.8465618E+04)
 number of electron     256.0000000 magnetization 
 augmentation part      256.0000000 magnetization 

 Free energy of the ion-electron system (eV)
  ---------------------------------------------------
  alpha Z        PSCENC =       113.10753871
  Ewald energy   TEWEN  =     -7435.53324516
  -Hartree energ DENC   =      -328.70519378
  -exchange      EXHF   =         0.00000000
  -V(xc)+E(xc)   XCENC  =      -552.69432974
  PAW double counting   =      5598.62625415    -4492.17844134
  entropy T*S    EENTRO =        -0.02084626
  eigenvalues    EBANDS =      1095.76362273
  atomic energy  EATOM  =      6564.79586099
  Solvation  Ediel_sol  =         0.00000000
  ---------------------------------------------------
  free energy    TOTEN  =       563.16122030 eV

  energy without entropy =      563.18206656  energy(sigma->0) =      563.16816905


--------------------------------------------------------------------------------------------------------




--------------------------------------- Iteration      1(   2)  ---------------------------------------


     EDDAV:  cpu time      1.3234: real time      1.3538
       DOS:  cpu time      0.0015: real time      0.0015
    --------------------------------------------
      LOOP:  cpu time      1.3249: real time      1.3553

 eigenvalue-minimisations  :  3104
 total energy-change (2. order) :-0.8746299E+03  (-0.8288053E+03)
 number of electron     256.0000000 magnetization 
 augmentation part      256.0000000 magnetization 

 Free energy of the ion-electron system (eV)
  ---------------------------------------------------
  alpha Z        PSCENC =       113.10753871
  Ewald energy   TEWEN  =     -7435.53324516
  -Hartree energ DENC   =      -328.70519378
  -exchange      EXHF   =         0.00000000
  -V(xc)+E(xc)   XCENC  =      -552.69432974
  PAW double counting   =      5598.62625415    -4492.17844134
  entropy T*S    EENTRO =         0.00565815
  eigenvalues    EBANDS =       221.10717680
  atomic energy  EATOM  =      6564.79586099
  Solvation  Ediel_sol  =         0.00000000
  ---------------------------------------------------
  free energy    TOTEN  =      -311.46872122 eV

  energy without entropy =     -311.47437937  energy(sigma->0) =     -311.47060727


--------------------------------------------------------------------------------------------------------




--------------------------------------- Iteration      1(   3)  ---------------------------------------


     EDDAV:  cpu time      1.4059: real time      1.4470
       DOS:  cpu time      0.0012: real time      0.0014
    --------------------------------------------
      LOOP:  cpu time      1.4071: real time      1.4484

 eigenvalue-minimisations  :  3144
 total energy-change (2. order) :-0.6165775E+02  (-0.6045557E+02)
 number of electron     256.0000000 magnetization 
 augmentation part      256.0000000 magnetization 

 Free energy of the ion-electron system (eV)
  ---------------------------------------------------
  alpha Z        PSCENC =       113.10753871
  Ewald energy   TEWEN  =     -7435.53324516
  -Hartree energ DENC   =      -328.70519378
  -exchange      EXHF   =         0.00000000
  -V(xc)+E(xc)   XCENC  =      -552.69432974
  PAW double counting   =      5598.62625415    -4492.17844134
  entropy T*S    EENTRO =         0.00785194
  eigenvalues    EBANDS =       159.44723200
  atomic energy  EATOM  =      6564.79586099
  Solvation  Ediel_sol  =         0.00000000
  ---------------------------------------------------
  free energy    TOTEN  =      -373.12647224 eV

  energy without entropy =     -373.13432417  energy(sigma->0) =     -373.12908955


--------------------------------------------------------------------------------------------------------




--------------------------------------- Iteration      1(   4)  ---------------------------------------


     EDDAV:  cpu time      1.3603: real time      1.3756
       DOS:  cpu time      0.0013: real time      0.0013
    --------------------------------------------
      LOOP:  cpu time      1.3616: real time      1.3769

 eigenvalue-minimisations  :  3120
 total energy-change (2. order) :-0.1570260E+01  (-0.1558708E+01)
 number of electron     256.0000000 magnetization 
 augmentation part      256.0000000 magnetization 

 Free energy of the ion-electron system (eV)
  ---------------------------------------------------
  alpha Z        PSCENC =       113.10753871
  Ewald energy   TEWEN  =     -7435.53324516
  -Hartree energ DENC   =      -328.70519378
  -exchange      EXHF   =         0.00000000
  -V(xc)+E(xc)   XCENC  =      -552.69432974
  PAW double counting   =      5598.62625415    -4492.17844134
  entropy T*S    EENTRO =         0.00818890
  eigenvalues    EBANDS =       157.87663466
  atomic energy  EATOM  =      6564.79586099
  Solvation  Ediel_sol  =         0.00000000
  ---------------------------------------------------
  free energy    TOTEN  =      -374.69673261 eV

  energy without entropy =     -374.70492151  energy(sigma->0) =     -374.69946224


--------------------------------------------------------------------------------------------------------




--------------------------------------- Iteration      1(   5)  ---------------------------------------


     EDDAV:  cpu time      1.3248: real time      1.3407
       DOS:  cpu time      0.0016: real time      0.0015
    CHARGE:  cpu time      0.2443: real time      0.2482
    MIXING:  cpu time      0.0116: real time      0.0146
    --------------------------------------------
      LOOP:  cpu time      1.5823: real time      1.6051

 eigenvalue-minimisations  :  3086
 total energy-change (2. order) :-0.5161399E-01  (-0.5152637E-01)
 number of electron     256.0000002 magnetization 
 augmentation part      -15.0801577 magnetization 

 Broyden mixing:
  rms(total) = 0.30005E+01    rms(broyden)= 0.30005E+01
  rms(prec ) = 0.33055E+01
  weight for this iteration     100.00

 Free energy of the ion-electron system (eV)
  ---------------------------------------------------
  alpha Z        PSCENC =       113.10753871
  Ewald energy   TEWEN  =     -7435.53324516
  -Hartree energ DENC   =      -328.70519378
  -exchange      EXHF   =         0.00000000
  -V(xc)+E(xc)   XCENC  =      -552.69432974
  PAW double counting   =      5598.62625415    -4492.17844134
  entropy T*S    EENTRO =         0.00815955
  eigenvalues    EBANDS =       157.82505003
  atomic energy  EATOM  =      6564.79586099
  Solvation  Ediel_sol  =         0.00000000
  ---------------------------------------------------
  free energy    TOTEN  =      -374.74834659 eV

  energy without entropy =     -374.75650614  energy(sigma->0) =     -374.75106644


--------------------------------------------------------------------------------------------------------




--------------------------------------- Iteration      1(   6)  ---------------------------------------


    POTLOK:  cpu time      0.0751: real time      0.0884
    SETDIJ:  cpu time      0.0711: real time      0.0715
    EDDIAG:  cpu time      0.1390: real time      0.1415
  RMM-DIIS:  cpu time      0.7099: real time      0.7145
    ORTHCH:  cpu time      0.0200: real time      0.0200
       DOS:  cpu time      0.0015: real time      0.0015
    CHARGE:  cpu time      0.2324: real time      0.2332
    MIXING:  cpu time      0.0137: real time      0.0137
    --------------------------------------------
      LOOP:  cpu time      1.2626: real time      1.2843

 eigenvalue-minimisations  :  2592
 total energy-change (2. order) : 0.5748881E+01  (-0.2975165E+00)
 number of electron     256.0000002 magnetization 
 augmentation part      -14.9005136 magnetization 

 Broyden mixing:
  rms(total) = 0.18091E+01    rms(broyden)= 0.18091E+01
  rms(prec ) = 0.19810E+01
  weight for this iteration     100.00

 eigenvalues of (default mixing * dielectric matrix)
  average eigenvalue GAMMA=   2.5125
  2.5125

 Free energy of the ion-electron system (eV)
  ---------------------------------------------------
  alpha Z        PSCENC =       113.10753871
  Ewald energy   TEWEN  =     -7435.53324516
  -Hartree energ DENC   =      -377.43162964
  -exchange      EXHF   =         0.00000000
  -V(xc)+E(xc)   XCENC  =      -544.97823034
  PAW double counting   =     13045.00141841   -11942.36402231
  entropy T*S    EENTRO =         0.01087882
  eigenvalues    EBANDS =       208.39196466
  atomic energy  EATOM  =      6564.79586099
  Solvation  Ediel_sol  =         0.00000000
  ---------------------------------------------------
  free energy    TOTEN  =      -368.99946586 eV

  energy without entropy =     -369.01034468  energy(sigma->0) =     -369.00309213


--------------------------------------------------------------------------------------------------------




--------------------------------------- Iteration      1(   7)  ---------------------------------------


    POTLOK:  cpu time      0.0817: real time      0.0994
    SETDIJ:  cpu time      0.0711: real time      0.0713
    EDDIAG:  cpu time      0.1366: real time      0.1370
  RMM-DIIS:  cpu time      0.7135: real time      0.7157
    ORTHCH:  cpu time      0.0201: real time      0.0202
       DOS:  cpu time      0.0019: real time      0.0019
    CHARGE:  cpu time      0.2324: real time      0.2331
    MIXING:  cpu time      0.0061: real time      0.0080
    --------------------------------------------
      LOOP:  cpu time      1.2634: real time      1.2865

 eigenvalue-minimisations  :  2659
 total energy-change (2. order) : 0.2540986E+01  (-0.7575663E+00)
 number of electron     256.0000002 magnetization 
 augmentation part      -14.6468371 magnetization 

 Broyden mixing:
  rms(total) = 0.11062E+00    rms(broyden)= 0.11062E+00
  rms(prec ) = 0.13881E+00
  weight for this iteration     100.00

 eigenvalues of (default mixing * dielectric matrix)
  average eigenvalue GAMMA=   2.2789
  2.2789  2.2789

 Free energy of the ion-electron system (eV)
  ---------------------------------------------------
  alpha Z        PSCENC =       113.10753871
  Ewald energy   TEWEN  =     -7435.53324516
  -Hartree energ DENC   =      -457.71537990
  -exchange      EXHF   =         0.00000000
  -V(xc)+E(xc)   XCENC  =      -531.68264611
  PAW double counting   =     31318.10443665   -30220.79440588
  entropy T*S    EENTRO =         0.03286393
  eigenvalues    EBANDS =       283.22649673
  atomic energy  EATOM  =      6564.79586099
  Solvation  Ediel_sol  =         0.00000000
  ---------------------------------------------------
  free energy    TOTEN  =      -366.45848004 eV

  energy without entropy =     -366.49134397  energy(sigma->0) =     -366.46943468


--------------------------------------------------------------------------------------------------------




--------------------------------------- Iteration      1(   8)  ---------------------------------------


    POTLOK:  cpu time      0.0716: real time      0.0860
    SETDIJ:  cpu time      0.0753: real time      0.0755
    EDDIAG:  cpu time      0.1384: real time      0.1388
  RMM-DIIS:  cpu time      0.7036: real time      0.7063
    ORTHCH:  cpu time      0.0199: real time      0.0204
       DOS:  cpu time      0.0017: real time      0.0017
    CHARGE:  cpu time      0.2314: real time      0.2323
    MIXING:  cpu time      0.0055: real time      0.0061
    --------------------------------------------
      LOOP:  cpu time      1.2474: real time      1.2670

 eigenvalue-minimisations  :  2611
 total energy-change (2. order) :-0.3560933E-01  (-0.6836657E-01)
 number of electron     256.0000002 magnetization 
 augmentation part      -14.7030837 magnetization 

 Broyden mixing:
  rms(total) = 0.51939E-01    rms(broyden)= 0.51939E-01
  rms(prec ) = 0.55505E-01
  weight for this iteration     100.00

 eigenvalues of (default mixing * dielectric matrix)
  average eigenvalue GAMMA=   2.1037
  2.5507  1.8802  1.8802

 Free energy of the ion-electron system (eV)
  ---------------------------------------------------
  alpha Z        PSCENC =       113.10753871
  Ewald energy   TEWEN  =     -7435.53324516
  -Hartree energ DENC   =      -449.23787432
  -exchange      EXHF   =         0.00000000
  -V(xc)+E(xc)   XCENC  =      -532.38345431
  PAW double counting   =     31069.54439368   -29971.21597991
  entropy T*S    EENTRO =         0.03325168
  eigenvalues    EBANDS =       274.39541926
  atomic energy  EATOM  =      6564.79586099
  Solvation  Ediel_sol  =         0.00000000
  ---------------------------------------------------
  free energy    TOTEN  =      -366.49408938 eV

  energy without entropy =     -366.52734106  energy(sigma->0) =     -366.50517327


--------------------------------------------------------------------------------------------------------




--------------------------------------- Iteration      1(   9)  ---------------------------------------


    POTLOK:  cpu time      0.0787: real time      0.0917
    SETDIJ:  cpu time      0.0707: real time      0.0709
    EDDIAG:  cpu time      0.1342: real time      0.1346
  RMM-DIIS:  cpu time      0.7198: real time      0.7227
    ORTHCH:  cpu time      0.0210: real time      0.0210
       DOS:  cpu time      0.0013: real time      0.0013
    CHARGE:  cpu time      0.2311: real time      0.2318
    MIXING:  cpu time      0.0060: real time      0.0062
    --------------------------------------------
      LOOP:  cpu time      1.2628: real time      1.2803

 eigenvalue-minimisations  :  2675
 total energy-change (2. order) :-0.2202498E-01  (-0.2075749E-01)
 number of electron     256.0000002 magnetization 
 augmentation part      -14.6895532 magnetization 

 Broyden mixing:
  rms(total) = 0.59519E-01    rms(broyden)= 0.59519E-01
  rms(prec ) = 0.67571E-01
  weight for this iteration     100.00

 eigenvalues of (default mixing * dielectric matrix)
  average eigenvalue GAMMA=   1.9817
  2.5372  2.4659  2.4659  0.4578

 Free energy of the ion-electron system (eV)
  ---------------------------------------------------
  alpha Z        PSCENC =       113.10753871
  Ewald energy   TEWEN  =     -7435.53324516
  -Hartree energ DENC   =      -452.40572039
  -exchange      EXHF   =         0.00000000
  -V(xc)+E(xc)   XCENC  =      -531.95794491
  PAW double counting   =     31459.33367187   -30361.27573991
  entropy T*S    EENTRO =         0.03343647
  eigenvalues    EBANDS =       277.38602796
  atomic energy  EATOM  =      6564.79586099
  Solvation  Ediel_sol  =         0.00000000
  ---------------------------------------------------
  free energy    TOTEN  =      -366.51611436 eV

  energy without entropy =     -366.54955083  energy(sigma->0) =     -366.52725985


--------------------------------------------------------------------------------------------------------




--------------------------------------- Iteration      1(  10)  ---------------------------------------


    POTLOK:  cpu time      0.0732: real time      0.0873
    SETDIJ:  cpu time      0.0755: real time      0.0757
    EDDIAG:  cpu time      0.1341: real time      0.1345
  RMM-DIIS:  cpu time      0.7388: real time      0.7410
    ORTHCH:  cpu time      0.0202: real time      0.0203
       DOS:  cpu time      0.0014: real time      0.0014
    CHARGE:  cpu time      0.2307: real time      0.2319
    MIXING:  cpu time      0.0057: real time      0.0057
    --------------------------------------------
      LOOP:  cpu time      1.2796: real time      1.2978

 eigenvalue-minimisations  :  2731
 total energy-change (2. order) :-0.3661978E-02  (-0.3571245E-02)
 number of electron     256.0000002 magnetization 
 augmentation part      -14.6961679 magnetization 

 Broyden mixing:
  rms(total) = 0.74076E-01    rms(broyden)= 0.74076E-01
  rms(prec ) = 0.81116E-01
  weight for this iteration     100.00

 eigenvalues of (default mixing * dielectric matrix)
  average eigenvalue GAMMA=   1.4870
  2.6303  2.0207  2.0207  0.6379  0.1253

 Free energy of the ion-electron system (eV)
  ---------------------------------------------------
  alpha Z        PSCENC =       113.10753871
  Ewald energy   TEWEN  =     -7435.53324516
  -Hartree energ DENC   =      -452.43122886
  -exchange      EXHF   =         0.00000000
  -V(xc)+E(xc)   XCENC  =      -531.95492110
  PAW double counting   =     31465.56267967   -30367.50587017
  entropy T*S    EENTRO =         0.03343780
  eigenvalues    EBANDS =       277.40597178
  atomic energy  EATOM  =      6564.79586099
  Solvation  Ediel_sol  =         0.00000000
  ---------------------------------------------------
  free energy    TOTEN  =      -366.51977634 eV

  energy without entropy =     -366.55321414  energy(sigma->0) =     -366.53092227


--------------------------------------------------------------------------------------------------------




--------------------------------------- Iteration      1(  11)  ---------------------------------------


    POTLOK:  cpu time      0.0778: real time      0.0874
    SETDIJ:  cpu time      0.0742: real time      0.0745
    EDDIAG:  cpu time      0.1320: real time      0.1324
  RMM-DIIS:  cpu time      0.6981: real time      0.7003
    ORTHCH:  cpu time      0.0198: real time      0.0199
       DOS:  cpu time      0.0021: real time      0.0021
    CHARGE:  cpu time      0.2299: real time      0.2309
    MIXING:  cpu time      0.0066: real time      0.0066
    --------------------------------------------
      LOOP:  cpu time      1.2406: real time      1.2541

 eigenvalue-minimisations  :  2592
 total energy-change (2. order) : 0.3615478E-02  (-0.1193658E-02)
 number of electron     256.0000002 magnetization 
 augmentation part      -14.7103468 magnetization 

 Broyden mixing:
  rms(total) = 0.77847E-01    rms(broyden)= 0.77847E-01
  rms(prec ) = 0.78605E-01
  weight for this iteration     100.00

 eigenvalues of (default mixing * dielectric matrix)
  average eigenvalue GAMMA=   1.3167
  2.4967  2.4967  1.4673  0.6487  0.6487  0.1421

 Free energy of the ion-electron system (eV)
  ---------------------------------------------------
  alpha Z        PSCENC =       113.10753871
  Ewald energy   TEWEN  =     -7435.53324516
  -Hartree energ DENC   =      -449.94193834
  -exchange      EXHF   =         0.00000000
  -V(xc)+E(xc)   XCENC  =      -532.13177352
  PAW double counting   =     31476.16677219   -30377.84179128
  entropy T*S    EENTRO =         0.03318628
  eigenvalues    EBANDS =       274.82922926
  atomic energy  EATOM  =      6564.79586099
  Solvation  Ediel_sol  =         0.00000000
  ---------------------------------------------------
  free energy    TOTEN  =      -366.51616086 eV

  energy without entropy =     -366.54934714  energy(sigma->0) =     -366.52722296


--------------------------------------------------------------------------------------------------------




--------------------------------------- Iteration      1(  12)  ---------------------------------------


    POTLOK:  cpu time      0.0719: real time      0.0875
    SETDIJ:  cpu time      0.0721: real time      0.0724
    EDDIAG:  cpu time      0.1341: real time      0.1345
  RMM-DIIS:  cpu time      0.6972: real time      0.6999
    ORTHCH:  cpu time      0.0200: real time      0.0201
       DOS:  cpu time      0.0020: real time      0.0020
    CHARGE:  cpu time      0.2305: real time      0.2315
    MIXING:  cpu time      0.0062: real time      0.0062
    --------------------------------------------
      LOOP:  cpu time      1.2341: real time      1.2541

 eigenvalue-minimisations  :  2605
 total energy-change (2. order) :-0.3062008E-04  (-0.1815957E-03)
 number of electron     256.0000002 magnetization 
 augmentation part      -14.7138970 magnetization 

 Broyden mixing:
  rms(total) = 0.84095E-01    rms(broyden)= 0.84095E-01
  rms(prec ) = 0.84697E-01
  weight for this iteration     100.00

 eigenvalues of (default mixing * dielectric matrix)
  average eigenvalue GAMMA=   1.1558
  2.4928  2.4928  1.4620  0.5649  0.4651  0.4651  0.1475

 Free energy of the ion-electron system (eV)
  ---------------------------------------------------
  alpha Z        PSCENC =       113.10753871
  Ewald energy   TEWEN  =     -7435.53324516
  -Hartree energ DENC   =      -449.69661201
  -exchange      EXHF   =         0.00000000
  -V(xc)+E(xc)   XCENC  =      -532.16858252
  PAW double counting   =     31407.73719365   -30309.41777775
  entropy T*S    EENTRO =         0.03317041
  eigenvalues    EBANDS =       274.62626220
  atomic energy  EATOM  =      6564.79586099
  Solvation  Ediel_sol  =         0.00000000
  ---------------------------------------------------
  free energy    TOTEN  =      -366.51619148 eV

  energy without entropy =     -366.54936190  energy(sigma->0) =     -366.52724829


--------------------------------------------------------------------------------------------------------




--------------------------------------- Iteration      1(  13)  ---------------------------------------


    POTLOK:  cpu time      0.0723: real time      0.0875
    SETDIJ:  cpu time      0.0742: real time      0.0744
    EDDIAG:  cpu time      0.1355: real time      0.1359
  RMM-DIIS:  cpu time      0.7333: real time      0.7355
    ORTHCH:  cpu time      0.0204: real time      0.0205
       DOS:  cpu time      0.0020: real time      0.0020
    CHARGE:  cpu time      0.2318: real time      0.2327
    MIXING:  cpu time      0.0057: real time      0.0058
    --------------------------------------------
      LOOP:  cpu time      1.2751: real time      1.2943

 eigenvalue-minimisations  :  2751
 total energy-change (2. order) :-0.7563526E-04  (-0.3569895E-04)
 number of electron     256.0000002 magnetization 
 augmentation part      -14.7143419 magnetization 

 Broyden mixing:
  rms(total) = 0.87525E-01    rms(broyden)= 0.87525E-01
  rms(prec ) = 0.88087E-01
  weight for this iteration     100.00

 eigenvalues of (default mixing * dielectric matrix)
  average eigenvalue GAMMA=   1.5576
  2.7054  2.7054  2.5316  1.7963  1.0681  0.7543  0.7543  0.1454

 Free energy of the ion-electron system (eV)
  ---------------------------------------------------
  alpha Z        PSCENC =       113.10753871
  Ewald energy   TEWEN  =     -7435.53324516
  -Hartree energ DENC   =      -449.73450077
  -exchange      EXHF   =         0.00000000
  -V(xc)+E(xc)   XCENC  =      -532.16312353
  PAW double counting   =     31429.90671737   -30331.58666194
  entropy T*S    EENTRO =         0.03317134
  eigenvalues    EBANDS =       274.65797588
  atomic energy  EATOM  =      6564.79586099
  Solvation  Ediel_sol  =         0.00000000
  ---------------------------------------------------
  free energy    TOTEN  =      -366.51626712 eV

  energy without entropy =     -366.54943846  energy(sigma->0) =     -366.52732423


--------------------------------------------------------------------------------------------------------




--------------------------------------- Iteration      1(  14)  ---------------------------------------


    POTLOK:  cpu time      0.0723: real time      0.0875
    SETDIJ:  cpu time      0.0740: real time      0.0742
    EDDIAG:  cpu time      0.1328: real time      0.1332
  RMM-DIIS:  cpu time      0.6998: real time      0.7158
    ORTHCH:  cpu time      0.0199: real time      0.0199
       DOS:  cpu time      0.0018: real time      0.0018
    CHARGE:  cpu time      0.2316: real time      0.2325
    MIXING:  cpu time      0.0069: real time      0.0070
    --------------------------------------------
      LOOP:  cpu time      1.2391: real time      1.2720

 eigenvalue-minimisations  :  2592
 total energy-change (2. order) : 0.4433072E-03  (-0.1974782E-04)
 number of electron     256.0000002 magnetization 
 augmentation part      -14.7155494 magnetization 

 Broyden mixing:
  rms(total) = 0.80476E-01    rms(broyden)= 0.80476E-01
  rms(prec ) = 0.81352E-01
  weight for this iteration     100.00

 eigenvalues of (default mixing * dielectric matrix)
  average eigenvalue GAMMA=   1.4330
  2.8526  2.4149  2.4149  1.2496  1.2496  1.0254  0.7721  0.7721  0.1454

 Free energy of the ion-electron system (eV)
  ---------------------------------------------------
  alpha Z        PSCENC =       113.10753871
  Ewald energy   TEWEN  =     -7435.53324516
  -Hartree energ DENC   =      -449.29201691
  -exchange      EXHF   =         0.00000000
  -V(xc)+E(xc)   XCENC  =      -532.21455291
  PAW double counting   =     31253.74244584   -30155.45843643
  entropy T*S    EENTRO =         0.03315853
  eigenvalues    EBANDS =       274.30342352
  atomic energy  EATOM  =      6564.79586099
  Solvation  Ediel_sol  =         0.00000000
  ---------------------------------------------------
  free energy    TOTEN  =      -366.51582381 eV

  energy without entropy =     -366.54898234  energy(sigma->0) =     -366.52687665


--------------------------------------------------------------------------------------------------------




--------------------------------------- Iteration      1(  15)  ---------------------------------------


    POTLOK:  cpu time      0.0781: real time      0.0877
    SETDIJ:  cpu time      0.0734: real time      0.0737
    EDDIAG:  cpu time      0.1385: real time      0.1395
  RMM-DIIS:  cpu time      0.6804: real time      0.6909
    ORTHCH:  cpu time      0.0198: real time      0.0199
       DOS:  cpu time      0.0020: real time      0.0020
    CHARGE:  cpu time      0.2317: real time      0.2326
    MIXING:  cpu time      0.0062: real time      0.0062
    --------------------------------------------
      LOOP:  cpu time      1.2301: real time      1.2525

 eigenvalue-minimisations  :  2598
 total energy-change (2. order) :-0.2618597E-03  (-0.8706698E-05)
 number of electron     256.0000002 magnetization 
 augmentation part      -14.7163492 magnetization 

 Broyden mixing:
  rms(total) = 0.75993E-01    rms(broyden)= 0.75993E-01
  rms(prec ) = 0.76740E-01
  weight for this iteration     100.00

 eigenvalues of (default mixing * dielectric matrix)
  average eigenvalue GAMMA=   1.4455
  2.6045  2.6045  2.4590  1.5855  1.5855  1.0019  0.8607  0.8038  0.8038  0.1454

 Free energy of the ion-electron system (eV)
  ---------------------------------------------------
  alpha Z        PSCENC =       113.10753871
  Ewald energy   TEWEN  =     -7435.53324516
  -Hartree energ DENC   =      -449.21932659
  -exchange      EXHF   =         0.00000000
  -V(xc)+E(xc)   XCENC  =      -532.21350735
  PAW double counting   =     31255.66012551   -30157.36602683
  entropy T*S    EENTRO =         0.03313310
  eigenvalues    EBANDS =       274.21936196
  atomic energy  EATOM  =      6564.79586099
  Solvation  Ediel_sol  =         0.00000000
  ---------------------------------------------------
  free energy    TOTEN  =      -366.51608567 eV

  energy without entropy =     -366.54921877  energy(sigma->0) =     -366.52713004


--------------------------------------------------------------------------------------------------------




--------------------------------------- Iteration      1(  16)  ---------------------------------------


    POTLOK:  cpu time      0.0793: real time      0.0950
    SETDIJ:  cpu time      0.0689: real time      0.0691
    EDDIAG:  cpu time      0.1352: real time      0.1358
  RMM-DIIS:  cpu time      0.6937: real time      0.6962
    ORTHCH:  cpu time      0.0203: real time      0.0208
       DOS:  cpu time      0.0014: real time      0.0017
    CHARGE:  cpu time      0.2323: real time      0.2332
    MIXING:  cpu time      0.0094: real time      0.0095
    --------------------------------------------
      LOOP:  cpu time      1.2405: real time      1.2613

 eigenvalue-minimisations  :  2592
 total energy-change (2. order) :-0.3129656E-03  (-0.8047971E-05)
 number of electron     256.0000002 magnetization 
 augmentation part      -14.7153718 magnetization 

 Broyden mixing:
  rms(total) = 0.61191E-01    rms(broyden)= 0.61191E-01
  rms(prec ) = 0.61628E-01
  weight for this iteration     100.00

 eigenvalues of (default mixing * dielectric matrix)
  average eigenvalue GAMMA=   1.4483
  2.6458  2.6458  2.4006  1.5263  1.5263  1.6398  0.8311  0.8311  0.8698  0.8698
  0.1454

 Free energy of the ion-electron system (eV)
  ---------------------------------------------------
  alpha Z        PSCENC =       113.10753871
  Ewald energy   TEWEN  =     -7435.53324516
  -Hartree energ DENC   =      -449.55121830
  -exchange      EXHF   =         0.00000000
  -V(xc)+E(xc)   XCENC  =      -532.18037769
  PAW double counting   =     31252.58925954   -30154.30037156
  entropy T*S    EENTRO =         0.03314302
  eigenvalues    EBANDS =       274.52301182
  atomic energy  EATOM  =      6564.79586099
  Solvation  Ediel_sol  =         0.00000000
  ---------------------------------------------------
  free energy    TOTEN  =      -366.51639864 eV

  energy without entropy =     -366.54954165  energy(sigma->0) =     -366.52744631


--------------------------------------------------------------------------------------------------------




--------------------------------------- Iteration      1(  17)  ---------------------------------------


    POTLOK:  cpu time      0.0785: real time      0.0945
    SETDIJ:  cpu time      0.0680: real time      0.0682
    EDDIAG:  cpu time      0.1330: real time      0.1334
  RMM-DIIS:  cpu time      0.6985: real time      0.7007
    ORTHCH:  cpu time      0.0207: real time      0.0208
       DOS:  cpu time      0.0022: real time      0.0022
    CHARGE:  cpu time      0.2312: real time      0.2321
    MIXING:  cpu time      0.0078: real time      0.0078
    --------------------------------------------
      LOOP:  cpu time      1.2399: real time      1.2597

 eigenvalue-minimisations  :  2592
 total energy-change (2. order) :-0.1195689E-03  (-0.3914019E-05)
 number of electron     256.0000002 magnetization 
 augmentation part      -14.7145600 magnetization 

 Broyden mixing:
  rms(total) = 0.42195E-01    rms(broyden)= 0.42195E-01
  rms(prec ) = 0.42503E-01
  weight for this iteration     100.00

 eigenvalues of (default mixing * dielectric matrix)
  average eigenvalue GAMMA=   1.5048
  2.6089  2.6089  2.4891  1.9059  1.9059  1.7443  1.0873  1.0873  0.8794  0.7975
  0.7975  0.1454

 Free energy of the ion-electron system (eV)
  ---------------------------------------------------
  alpha Z        PSCENC =       113.10753871
  Ewald energy   TEWEN  =     -7435.53324516
  -Hartree energ DENC   =      -449.68938973
  -exchange      EXHF   =         0.00000000
  -V(xc)+E(xc)   XCENC  =      -532.17522216
  PAW double counting   =     31162.83794039   -30064.55476502
  entropy T*S    EENTRO =         0.03314549
  eigenvalues    EBANDS =       274.66161829
  atomic energy  EATOM  =      6564.79586099
  Solvation  Ediel_sol  =         0.00000000
  ---------------------------------------------------
  free energy    TOTEN  =      -366.51651820 eV

  energy without entropy =     -366.54966369  energy(sigma->0) =     -366.52756670


--------------------------------------------------------------------------------------------------------




--------------------------------------- Iteration      1(  18)  ---------------------------------------


    POTLOK:  cpu time      0.0734: real time      0.0891
    SETDIJ:  cpu time      0.0732: real time      0.0734
    EDDIAG:  cpu time      0.1331: real time      0.1335
  RMM-DIIS:  cpu time      0.6963: real time      0.6984
    ORTHCH:  cpu time      0.0206: real time      0.0207
       DOS:  cpu time      0.0015: real time      0.0015
    CHARGE:  cpu time      0.2310: real time      0.2319
    MIXING:  cpu time      0.0085: real time      0.0085
    --------------------------------------------
      LOOP:  cpu time      1.2376: real time      1.2571

 eigenvalue-minimisations  :  2595
 total energy-change (2. order) :-0.5563373E-04  (-0.1278327E-05)
 number of electron     256.0000002 magnetization 
 augmentation part      -14.7142816 magnetization 

 Broyden mixing:
  rms(total) = 0.25200E-01    rms(broyden)= 0.25200E-01
  rms(prec ) = 0.25428E-01
  weight for this iteration     100.00

 eigenvalues of (default mixing * dielectric matrix)
  average eigenvalue GAMMA=   1.5380
  2.3716  2.3716  2.6355  2.6355  2.4846  1.5061  1.2531  1.2531  0.8075  0.8075
  0.8615  0.8615  0.1454

 Free energy of the ion-electron system (eV)
  ---------------------------------------------------
  alpha Z        PSCENC =       113.10753871
  Ewald energy   TEWEN  =     -7435.53324516
  -Hartree energ DENC   =      -449.71761869
  -exchange      EXHF   =         0.00000000
  -V(xc)+E(xc)   XCENC  =      -532.18108859
  PAW double counting   =     31065.52743804   -29967.24614300
  entropy T*S    EENTRO =         0.03313953
  eigenvalues    EBANDS =       274.69754433
  atomic energy  EATOM  =      6564.79586099
  Solvation  Ediel_sol  =         0.00000000
  ---------------------------------------------------
  free energy    TOTEN  =      -366.51657384 eV

  energy without entropy =     -366.54971336  energy(sigma->0) =     -366.52762035


--------------------------------------------------------------------------------------------------------




--------------------------------------- Iteration      1(  19)  ---------------------------------------


    POTLOK:  cpu time      0.0755: real time      0.0926
    SETDIJ:  cpu time      0.0694: real time      0.0698
    EDDIAG:  cpu time      0.1330: real time      0.1334
  RMM-DIIS:  cpu time      0.7023: real time      0.7045
    ORTHCH:  cpu time      0.0199: real time      0.0200
       DOS:  cpu time      0.0018: real time      0.0018
    CHARGE:  cpu time      0.2299: real time      0.2308
    MIXING:  cpu time      0.0080: real time      0.0081
    --------------------------------------------
      LOOP:  cpu time      1.2400: real time      1.2609

 eigenvalue-minimisations  :  2596
 total energy-change (2. order) :-0.4056574E-04  (-0.1472590E-05)
 number of electron     256.0000002 magnetization 
 augmentation part      -14.7140230 magnetization 

 Broyden mixing:
  rms(total) = 0.92059E-02    rms(broyden)= 0.92059E-02
  rms(prec ) = 0.93389E-02
  weight for this iteration     100.00

 eigenvalues of (default mixing * dielectric matrix)
  average eigenvalue GAMMA=   1.8807
  7.0148  2.9450  2.4811  2.4134  2.4134  1.6792  1.6792  1.1304  0.8059  0.8059
  0.9606  0.9606  0.8943  0.1454

 Free energy of the ion-electron system (eV)
  ---------------------------------------------------
  alpha Z        PSCENC =       113.10753871
  Ewald energy   TEWEN  =     -7435.53324516
  -Hartree energ DENC   =      -449.75110518
  -exchange      EXHF   =         0.00000000
  -V(xc)+E(xc)   XCENC  =      -532.18513738
  PAW double counting   =     30982.89359397   -29884.61310375
  entropy T*S    EENTRO =         0.03313165
  eigenvalues    EBANDS =       274.73585175
  atomic energy  EATOM  =      6564.79586099
  Solvation  Ediel_sol  =         0.00000000
  ---------------------------------------------------
  free energy    TOTEN  =      -366.51661440 eV

  energy without entropy =     -366.54974605  energy(sigma->0) =     -366.52765829


--------------------------------------------------------------------------------------------------------




--------------------------------------- Iteration      1(  20)  ---------------------------------------


    POTLOK:  cpu time      0.0755: real time      0.0936
    SETDIJ:  cpu time      0.0721: real time      0.0723
    EDDIAG:  cpu time      0.1320: real time      0.1324
  RMM-DIIS:  cpu time      0.6692: real time      0.6712
    ORTHCH:  cpu time      0.0204: real time      0.0207
       DOS:  cpu time      0.0016: real time      0.0016
    CHARGE:  cpu time      0.2314: real time      0.2323
    MIXING:  cpu time      0.0081: real time      0.0081
    --------------------------------------------
      LOOP:  cpu time      1.2102: real time      1.2323

 eigenvalue-minimisations  :  2467
 total energy-change (2. order) :-0.1204592E-04  (-0.8049240E-06)
 number of electron     256.0000002 magnetization 
 augmentation part      -14.7138144 magnetization 

 Broyden mixing:
  rms(total) = 0.16756E-02    rms(broyden)= 0.16756E-02
  rms(prec ) = 0.17353E-02
  weight for this iteration     100.00

 eigenvalues of (default mixing * dielectric matrix)
  average eigenvalue GAMMA=   1.8573
  6.7012  2.0600  2.0600  2.8084  2.8084  2.5004  2.0827  1.1249  1.1249  0.8004
  0.8004  0.9193  0.9193  1.0034  0.1454

 Free energy of the ion-electron system (eV)
  ---------------------------------------------------
  alpha Z        PSCENC =       113.10753871
  Ewald energy   TEWEN  =     -7435.53324516
  -Hartree energ DENC   =      -449.77776550
  -exchange      EXHF   =         0.00000000
  -V(xc)+E(xc)   XCENC  =      -532.18553808
  PAW double counting   =     30949.57931287   -29851.29879919
  entropy T*S    EENTRO =         0.03312636
  eigenvalues    EBANDS =       274.76288255
  atomic energy  EATOM  =      6564.79586099
  Solvation  Ediel_sol  =         0.00000000
  ---------------------------------------------------
  free energy    TOTEN  =      -366.51662645 eV

  energy without entropy =     -366.54975281  energy(sigma->0) =     -366.52766857


--------------------------------------------------------------------------------------------------------




--------------------------------------- Iteration      1(  21)  ---------------------------------------


    POTLOK:  cpu time      0.0760: real time      0.8346
    SETDIJ:  cpu time      0.0692: real time      0.0694
    EDDIAG:  cpu time      0.1330: real time      0.1334
  RMM-DIIS:  cpu time      0.4481: real time      0.4499
    ORTHCH:  cpu time      0.0201: real time      0.0202
       DOS:  cpu time      0.0019: real time      0.0019
    CHARGE:  cpu time      0.2304: real time      0.2317
    MIXING:  cpu time      0.0081: real time      0.0081
    --------------------------------------------
      LOOP:  cpu time      0.9869: real time      1.7492

 eigenvalue-minimisations  :  1573
 total energy-change (2. order) :-0.1999143E-05  (-0.1811148E-06)
 number of electron     256.0000002 magnetization 
 augmentation part      -14.7136650 magnetization 

 Broyden mixing:
  rms(total) = 0.13482E-02    rms(broyden)= 0.13481E-02
  rms(prec ) = 0.13586E-02
  weight for this iteration     100.00

 eigenvalues of (default mixing * dielectric matrix)
  average eigenvalue GAMMA=   1.7367
  6.1177  1.9412  1.9412  2.7577  2.7577  2.4753  2.1496  0.8011  0.8011  1.0114
  1.0114  1.0020  1.0020  0.9267  0.1454  0.9462

 Free energy of the ion-electron system (eV)
  ---------------------------------------------------
  alpha Z        PSCENC =       113.10753871
  Ewald energy   TEWEN  =     -7435.53324516
  -Hartree energ DENC   =      -449.79499694
  -exchange      EXHF   =         0.00000000
  -V(xc)+E(xc)   XCENC  =      -532.18390080
  PAW double counting   =     30950.49242665   -29852.21206589
  entropy T*S    EENTRO =         0.03312511
  eigenvalues    EBANDS =       274.77862888
  atomic energy  EATOM  =      6564.79586099
  Solvation  Ediel_sol  =         0.00000000
  ---------------------------------------------------
  free energy    TOTEN  =      -366.51662845 eV

  energy without entropy =     -366.54975356  energy(sigma->0) =     -366.52767015


--------------------------------------------------------------------------------------------------------




--------------------------------------- Iteration      1(  22)  ---------------------------------------


    POTLOK:  cpu time      0.0717: real time      0.0886
    SETDIJ:  cpu time      0.0732: real time      0.0734
    EDDIAG:  cpu time      0.1316: real time      0.1320
  RMM-DIIS:  cpu time      0.4455: real time      0.4471
    ORTHCH:  cpu time      0.0200: real time      0.0200
       DOS:  cpu time      0.0020: real time      0.0020
    --------------------------------------------
      LOOP:  cpu time      0.7439: real time      0.7630

 eigenvalue-minimisations  :  1527
 total energy-change (2. order) :-0.6102173E-06  (-0.2545570E-07)
 number of electron     256.0000002 magnetization 
 augmentation part      -14.7136650 magnetization 

 Free energy of the ion-electron system (eV)
  ---------------------------------------------------
  alpha Z        PSCENC =       113.10753871
  Ewald energy   TEWEN  =     -7435.53324516
  -Hartree energ DENC   =      -449.80026117
  -exchange      EXHF   =         0.00000000
  -V(xc)+E(xc)   XCENC  =      -532.18277470
  PAW double counting   =     30958.95707656   -29860.67677183
  entropy T*S    EENTRO =         0.03312489
  eigenvalues    EBANDS =       274.78282265
  atomic energy  EATOM  =      6564.79586099
  Solvation  Ediel_sol  =         0.00000000
  ---------------------------------------------------
  free energy    TOTEN  =      -366.51662906 eV

  energy without entropy =     -366.54975395  energy(sigma->0) =     -366.52767069


--------------------------------------------------------------------------------------------------------




 average (electrostatic) potential at core
  the test charge radii are     0.9892
  (the norm of the test charge is              1.0000)
       1 -82.4646       2 -82.4646       3 -82.4646       4 -82.4646       5 -82.4646
       6 -82.4646       7 -82.4646       8 -82.4646       9 -82.4646      10 -82.4646
      11 -82.4646      12 -82.4646      13 -82.4646      14 -82.4646      15 -82.4646
      16 -82.4646      17 -82.4646      18 -82.4646      19 -82.4646      20 -82.4646
      21 -82.4646      22 -82.4646      23 -82.4646      24 -82.4646      25 -82.4646
      26 -82.4646      27 -82.4646      28 -82.4646      29 -82.4646      30 -82.4646
      31 -82.4646      32 -82.4646      33 -82.4646      34 -82.4646      35 -82.4646
      36 -82.4646      37 -82.4646      38 -82.4646      39 -82.4646      40 -82.4646
      41 -82.4646      42 -82.4646      43 -82.4646      44 -82.4646      45 -82.4646
      46 -82.4646      47 -82.4646      48 -82.4646      49 -82.4646      50 -82.4646
      51 -82.4646      52 -82.4646      53 -82.4646      54 -82.4646      55 -82.4646
      56 -82.4646      57 -82.4646      58 -82.4646      59 -82.4646      60 -82.4646
      61 -82.4646      62 -82.4646      63 -82.4646      64 -82.4646
 
 
 
 E-fermi :   6.5654     XC(G=0):  -9.7446     alpha+bet :-12.5918

 val. band max:        6.3351630278   @ k =   0.0000   0.0000   0.0000
 cond. band min:       6.6962506558   @ k =   0.5000   0.0000   0.0000
 fundamental gap:      0.3610876280
 Fermi energy:         6.5654391816

 k-point     1 :       0.0000    0.0000    0.0000
  band No.  band energies     occupation 
      1      -6.0336      2.00000
      2      -4.9034      2.00000
      3      -4.9034      2.00000
      4      -4.9034      2.00000
      5      -4.9034      2.00000
      6      -4.8936      2.00000
      7      -4.8936      2.00000
      8      -3.8954      2.00000
      9      -3.8954      2.00000
     10      -3.8873      2.00000
     11      -3.8873      2.00000
     12      -3.8873      2.00000
     13      -3.8873      2.00000
     14      -3.8802      2.00000
     15      -3.8802      2.00000
     16      -3.8802      2.00000
     17      -3.8802      2.00000
     18      -3.8649      2.00000
     19      -3.8649      2.00000
     20      -3.5711      2.00000
     21      -3.5711      2.00000
     22      -3.5361      2.00000
     23      -3.5361      2.00000
     24      -1.7190      2.00000
     25      -1.6985      2.00000
     26      -1.6985      2.00000
     27      -1.6782      2.00000
     28      -1.6664      2.00000
     29      -1.6664      2.00000
     30      -1.5238      2.00000
     31      -1.5238      2.00000
     32      -1.5130      2.00000
     33      -1.5129      2.00000
     34      -1.4896      2.00000
     35      -1.4896      2.00000
     36      -1.4896      2.00000
     37      -1.4896      2.00000
     38      -1.4770      2.00000
     39      -1.4770      2.00000
     40      -1.4663      2.00000
     41      -1.4663      2.00000
     42      -0.9545      2.00000
     43      -0.9545      2.00000
     44      -0.9480      2.00000
     45      -0.9480      2.00000
     46       0.7040      2.00000
     47       0.7040      2.00000
     48       0.7130      2.00000
     49       0.7130      2.00000
     50       0.7130      2.00000
     51       0.7130      2.00000
     52       0.7218      2.00000
     53       0.7218      2.00000
     54       0.7323      2.00000
     55       0.7323      2.00000
     56       0.7323      2.00000
     57       0.7323      2.00000
     58       2.1798      2.00000
     59       2.1798      2.00000
     60       2.1807      2.00000
     61       2.1807      2.00000
     62       2.1829      2.00000
     63       2.1829      2.00000
     64       2.1835      2.00000
     65       2.1835      2.00000
     66       2.1835      2.00000
     67       2.1835      2.00000
     68       2.1840      2.00000
     69       2.1840      2.00000
     70       2.2915      2.00000
     71       2.2915      2.00000
     72       2.2975      2.00000
     73       2.2975      2.00000
     74       2.2975      2.00000
     75       2.2975      2.00000
     76       2.3033      2.00000
     77       2.3033      2.00000
     78       2.3267      2.00000
     79       2.3267      2.00000
     80       2.3267      2.00000
     81       2.3267      2.00000
     82       2.7834      2.00000
     83       2.7835      2.00000
     84       2.7838      2.00000
[...]
  0.000   0.000   4.171   0.000  -0.000   7.770   0.000  -0.000
 -0.000  -0.000   0.000   4.171   0.000   0.000   7.770   0.000
  0.000   0.000  -0.000   0.000   4.171  -0.000   0.000   7.770
  0.000   0.000   7.770   0.000  -0.000  14.485   0.000  -0.000
 -0.001  -0.001   0.000   7.770   0.000   0.000  14.485   0.000
  0.000   0.000  -0.000   0.000   7.770  -0.000   0.000  14.485
 total augmentation occupancy for first ion, spin component:           1
  6.357  -2.517   0.000   0.014   0.000  -0.000  -0.005  -0.000
 -2.517   1.105   0.000  -0.007   0.000  -0.000   0.002   0.000
  0.000   0.000   3.128   0.000   0.002  -0.714   0.000   0.000
  0.014  -0.007   0.000   3.128   0.000   0.000  -0.714   0.000
  0.000   0.000   0.002   0.000   3.118   0.000   0.000  -0.710
 -0.000  -0.000  -0.714  -0.000   0.000   0.172   0.000  -0.000
 -0.005   0.002   0.000  -0.714   0.000   0.000   0.172  -0.000
 -0.000   0.000   0.000   0.000  -0.710  -0.000  -0.000   0.171


------------------------ aborting loop because EDIFF is reached ----------------------------------------


    CHARGE:  cpu time      0.2404: real time      0.2410
    FORLOC:  cpu time      0.0223: real time      0.0223
    FORNL :  cpu time      0.6672: real time      0.6689
    STRESS:  cpu time      2.0714: real time      2.0775
    FORCOR:  cpu time      0.0860: real time      0.0862
    FORHAR:  cpu time      0.0350: real time      0.0351
    MIXING:  cpu time      0.0047: real time      0.0047
    OFIELD:  cpu time      0.0000: real time      0.0000

  FORCE on cell =-STRESS in cart. coord.  units (eV):
  Direction    XX          YY          ZZ          XY          YZ          ZX
  --------------------------------------------------------------------------------------
  Alpha Z   113.10754   113.10754   113.10754
  Ewald   -2489.93963 -2472.84862 -2472.83703     3.23847     0.00000    -0.00000
  Hartree   148.10331   150.83092   150.81663     2.17142    -0.00000    -0.00000
  E(xc)    -827.48841  -827.63893  -827.64094    -0.02207    -0.00000    -0.00000
  Local    -895.06118  -915.38466  -915.40214    -5.97000    -0.00000     0.00000
  n-local  2514.79587  2517.31503  2517.35428     0.13966    -0.00001     0.00000
  augment  -369.32960  -369.31168  -369.31257    -0.18711     0.00000     0.00000
  Kinetic  1850.05422  1845.01916  1844.96182     3.53492     0.00000     0.00000
  Fock        0.00000     0.00000     0.00000     0.00000     0.00000     0.00000
  -------------------------------------------------------------------------------------
  Total      44.24213    41.08876    41.04758     2.90529     0.00000     0.00000
  in kB      58.14652    54.00210    53.94799     3.81836     0.00000     0.00000
  external pressure =       55.37 kB  Pullay stress =        0.00 kB


 VOLUME and BASIS-vectors are now :
 -----------------------------------------------------------------------------
  energy-cutoff  :      400.00
  volume of cell :     1219.05
      direct lattice vectors                 reciprocal lattice vectors
    10.646918572 -0.026751004  0.000000000     0.093924479  0.000234811  0.000000000
    -0.026751004 10.700420580  0.000000000     0.000234811  0.093454858  0.000000000
     0.000000000  0.000000000 10.700420580     0.000000000  0.000000000  0.093454271

  length of vectors
    10.646952179 10.700454019 10.700420580     0.093924773  0.093455153  0.093454271


 FORCES acting on ions
    electron-ion (+dipol)            ewald-force                    non-local-force                 convergence-correction
 -----------------------------------------------------------------------------------------------
   0.157E-08 0.114E-08 0.427E+00   -.167E-13 0.120E-13 -.302E+00   0.468E-21 0.152E-20 -.125E+00   -.740E-13 -.249E-13 -.634E-05
   0.157E-08 0.114E-08 0.427E+00   -.622E-14 0.115E-13 -.302E+00   -.168E-21 -.454E-20 -.125E+00   0.710E-13 -.699E-13 -.634E-05
   0.157E-08 0.114E-08 0.427E+00   -.977E-14 -.755E-14 -.302E+00   -.456E-21 -.255E-21 -.125E+00   -.463E-13 0.232E-13 -.634E-05
   0.157E-08 0.114E-08 0.427E+00   -.622E-14 -.222E-14 -.302E+00   -.383E-21 -.272E-20 -.125E+00   0.447E-13 0.710E-13 -.634E-05
   0.157E-08 0.114E-08 0.427E+00   -.175E-13 0.129E-13 -.302E+00   -.397E-21 -.426E-21 -.125E+00   0.748E-13 -.682E-13 -.634E-05
   0.157E-08 0.114E-08 0.427E+00   -.115E-13 0.977E-14 -.302E+00   0.184E-21 -.993E-21 -.125E+00   -.547E-13 -.197E-14 -.634E-05
   0.157E-08 0.114E-08 0.427E+00   -.266E-14 -.622E-14 -.302E+00   0.402E-21 -.391E-21 -.125E+00   0.457E-13 0.721E-13 -.634E-05
   0.157E-08 0.114E-08 0.427E+00   -.107E-13 0.000E+00 -.302E+00   -.399E-21 -.451E-20 -.125E+00   -.267E-13 0.884E-15 -.634E-05
   0.174E-09 0.528E-09 -.427E+00   0.444E-15 0.107E-13 0.302E+00   -.253E-21 0.101E-20 0.125E+00   -.119E-14 -.116E-14 0.634E-05
   0.174E-09 0.528E-09 -.427E+00   -.178E-14 0.142E-13 0.302E+00   -.430E-22 0.416E-21 0.125E+00   0.273E-13 -.204E-15 0.634E-05
   0.174E-09 0.528E-09 -.427E+00   0.622E-14 0.799E-14 0.302E+00   0.244E-21 0.195E-20 0.125E+00   0.923E-14 -.448E-14 0.634E-05
   0.174E-09 0.528E-09 -.427E+00   0.888E-14 0.355E-14 0.302E+00   0.388E-21 -.572E-21 0.125E+00   -.280E-14 -.127E-13 0.634E-05
   0.174E-09 0.529E-09 -.427E+00   0.120E-13 0.133E-13 0.302E+00   0.188E-21 0.455E-20 0.125E+00   0.600E-14 -.860E-13 0.634E-05
   0.174E-09 0.528E-09 -.427E+00   0.124E-13 0.142E-13 0.302E+00   0.459E-21 0.184E-20 0.125E+00   -.339E-13 0.802E-13 0.634E-05
   0.174E-09 0.527E-09 -.427E+00   -.200E-13 0.182E-13 0.302E+00   -.404E-21 0.286E-21 0.125E+00   -.809E-14 0.759E-13 0.634E-05
   0.174E-09 0.528E-09 -.427E+00   -.124E-13 0.178E-13 0.302E+00   -.270E-22 -.571E-21 0.125E+00   0.296E-14 -.935E-13 0.634E-05
   0.157E-08 0.114E-08 0.427E+00   -.195E-13 0.577E-14 -.302E+00   -.192E-22 0.295E-20 -.125E+00   -.172E-13 -.103E-12 -.634E-05
   0.157E-08 0.114E-08 0.427E+00   0.400E-14 0.169E-13 -.302E+00   -.118E-22 0.155E-20 -.125E+00   0.224E-13 0.127E-13 -.634E-05
   0.157E-08 0.114E-08 0.427E+00   -.182E-13 0.124E-13 -.302E+00   -.104E-21 -.201E-20 -.125E+00   -.922E-14 0.981E-13 -.634E-05
   0.157E-08 0.114E-08 0.427E+00   -.178E-13 0.178E-13 -.302E+00   -.677E-22 -.153E-21 -.125E+00   0.145E-13 -.122E-13 -.634E-05
   0.157E-08 0.114E-08 0.427E+00   -.280E-13 0.164E-13 -.302E+00   -.342E-21 -.269E-20 -.125E+00   0.258E-13 -.178E-13 -.634E-05
   0.157E-08 0.114E-08 0.427E+00   -.173E-13 0.133E-13 -.302E+00   0.103E-22 0.825E-21 -.125E+00   -.158E-13 -.345E-13 -.634E-05
   0.157E-08 0.114E-08 0.427E+00   -.111E-13 0.160E-13 -.302E+00   0.821E-21 0.601E-20 -.125E+00   0.168E-13 0.199E-13 -.634E-05
   0.157E-08 0.114E-08 0.427E+00   0.355E-14 0.711E-14 -.302E+00   -.785E-22 0.334E-21 -.125E+00   -.521E-14 0.406E-13 -.634E-05
   0.174E-09 0.529E-09 -.427E+00   -.622E-14 0.156E-13 0.302E+00   0.120E-20 -.708E-21 0.125E+00   -.205E-13 0.104E-13 0.634E-05
   0.174E-09 0.529E-09 -.427E+00   0.888E-15 0.116E-13 0.302E+00   -.854E-21 -.380E-20 0.125E+00   0.334E-13 -.991E-13 0.634E-05
   0.174E-09 0.528E-09 -.427E+00   -.533E-14 0.153E-13 0.302E+00   0.129E-22 0.158E-21 0.125E+00   -.906E-14 0.986E-15 0.634E-05
   0.174E-09 0.528E-09 -.427E+00   -.178E-14 0.823E-14 0.302E+00   0.808E-22 0.201E-20 0.125E+00   0.256E-13 0.106E-12 0.634E-05
   0.174E-09 0.529E-09 -.427E+00   -.577E-14 0.138E-13 0.302E+00   0.200E-22 -.168E-20 0.125E+00   0.137E-13 -.586E-13 0.634E-05
   0.174E-09 0.529E-09 -.427E+00   -.235E-13 0.204E-13 0.302E+00   0.843E-21 0.185E-20 0.125E+00   -.281E-13 -.609E-13 0.634E-05
   0.174E-09 0.528E-09 -.427E+00   0.711E-14 0.140E-13 0.302E+00   0.951E-21 -.333E-21 0.125E+00   0.644E-14 0.704E-13 0.634E-05
   0.174E-09 0.528E-09 -.427E+00   0.000E+00 0.690E-14 0.302E+00   -.773E-21 -.600E-20 0.125E+00   -.220E-13 0.623E-13 0.634E-05
   0.157E-08 0.114E-08 0.427E+00   0.162E-13 -.104E-13 -.302E+00   0.885E-21 -.266E-20 -.125E+00   -.748E-13 -.233E-13 -.634E-05
   0.157E-08 0.114E-08 0.427E+00   0.129E-13 -.102E-13 -.302E+00   -.729E-21 -.209E-20 -.125E+00   0.763E-13 -.602E-13 -.634E-05
   0.157E-08 0.114E-08 0.427E+00   0.155E-13 -.120E-13 -.302E+00   -.463E-21 -.109E-20 -.125E+00   0.107E-13 0.235E-13 -.634E-05
   0.157E-08 0.114E-08 0.427E+00   0.533E-14 -.182E-13 -.302E+00   -.395E-22 0.394E-20 -.125E+00   0.223E-13 0.568E-13 -.634E-05
   0.157E-08 0.114E-08 0.427E+00   0.142E-13 -.133E-13 -.302E+00   -.838E-22 -.162E-20 -.125E+00   0.684E-13 -.127E-13 -.634E-05
   0.157E-08 0.114E-08 0.427E+00   0.178E-13 -.977E-14 -.302E+00   0.394E-21 0.316E-21 -.125E+00   -.760E-13 -.701E-13 -.634E-05
   0.157E-08 0.114E-08 0.427E+00   0.209E-13 -.182E-13 -.302E+00   0.836E-21 -.183E-21 -.125E+00   -.103E-13 0.167E-13 -.634E-05
   0.157E-08 0.114E-08 0.427E+00   -.355E-14 -.213E-13 -.302E+00   -.928E-21 -.111E-20 -.125E+00   -.300E-13 0.657E-13 -.634E-05
   0.174E-09 0.528E-09 -.427E+00   0.575E-14 -.173E-13 0.302E+00   0.973E-22 0.335E-20 0.125E+00   0.679E-13 -.126E-13 0.634E-05
   0.174E-09 0.528E-09 -.427E+00   0.162E-13 -.102E-13 0.302E+00   -.382E-21 0.140E-20 0.125E+00   -.364E-13 0.595E-14 0.634E-05
   0.174E-09 0.528E-09 -.427E+00   -.891E-14 -.111E-13 0.302E+00   0.846E-23 -.310E-20 0.125E+00   -.630E-14 -.393E-14 0.634E-05
   0.174E-09 0.528E-09 -.427E+00   0.885E-14 -.400E-14 0.302E+00   0.513E-21 -.611E-21 0.125E+00   0.704E-14 -.122E-13 0.634E-05
   0.174E-09 0.528E-09 -.427E+00   0.461E-14 -.107E-13 0.302E+00   -.517E-22 -.245E-20 0.125E+00   -.514E-13 -.155E-14 0.634E-05
   0.174E-09 0.529E-09 -.427E+00   0.142E-13 -.142E-13 0.302E+00   0.199E-20 -.135E-20 0.125E+00   0.385E-13 -.203E-14 0.634E-05
   0.174E-09 0.528E-09 -.427E+00   0.108E-13 -.178E-13 0.302E+00   0.872E-21 0.280E-20 0.125E+00   0.128E-13 -.111E-13 0.634E-05
   0.174E-09 0.528E-09 -.427E+00   0.242E-13 -.107E-13 0.302E+00   0.424E-22 -.666E-21 0.125E+00   -.882E-15 -.622E-14 0.634E-05
   0.157E-08 0.114E-08 0.427E+00   0.102E-13 -.644E-14 -.302E+00   -.437E-21 -.221E-20 -.125E+00   -.537E-13 -.722E-13 -.634E-05
   0.157E-08 0.114E-08 0.427E+00   0.622E-14 -.102E-13 -.302E+00   0.566E-23 0.214E-20 -.125E+00   0.744E-13 0.207E-14 -.634E-05
   0.157E-08 0.114E-08 0.427E+00   0.222E-14 -.144E-13 -.302E+00   0.404E-21 -.473E-21 -.125E+00   -.974E-14 0.712E-13 -.634E-05
   0.157E-08 0.114E-08 0.427E+00   0.178E-14 -.622E-14 -.302E+00   -.182E-21 0.306E-20 -.125E+00   0.680E-14 0.205E-14 -.634E-05
   0.157E-08 0.114E-08 0.427E+00   0.377E-14 -.138E-13 -.302E+00   0.823E-21 0.955E-21 -.125E+00   0.613E-13 -.985E-13 -.634E-05
   0.157E-08 0.114E-08 0.427E+00   0.124E-13 -.711E-14 -.302E+00   -.173E-23 0.542E-20 -.125E+00   -.873E-13 0.255E-13 -.634E-05
   0.157E-08 0.114E-08 0.427E+00   -.844E-14 -.755E-14 -.302E+00   -.640E-21 -.525E-21 -.125E+00   0.127E-13 0.101E-12 -.634E-05
   0.157E-08 0.114E-08 0.427E+00   -.142E-13 -.711E-14 -.302E+00   -.762E-22 0.396E-20 -.125E+00   -.155E-13 -.288E-13 -.634E-05
   0.174E-09 0.528E-09 -.427E+00   0.117E-13 -.767E-14 0.302E+00   0.433E-21 -.288E-20 0.125E+00   -.110E-12 -.814E-13 0.634E-05
   0.174E-09 0.528E-09 -.427E+00   -.208E-14 -.110E-13 0.302E+00   -.481E-23 -.866E-21 0.125E+00   0.124E-12 -.393E-13 0.634E-05
   0.174E-09 0.528E-09 -.427E+00   0.161E-13 0.289E-15 0.302E+00   -.404E-21 -.228E-20 0.125E+00   -.286E-13 0.802E-13 0.634E-05
   0.174E-09 0.528E-09 -.427E+00   0.201E-13 -.826E-15 0.302E+00   0.604E-21 0.544E-21 0.125E+00   0.460E-13 0.507E-13 0.634E-05
   0.174E-09 0.527E-09 -.427E+00   -.442E-14 -.112E-13 0.302E+00   -.395E-21 -.223E-20 0.125E+00   0.115E-12 -.885E-13 0.634E-05
   0.174E-09 0.529E-09 -.427E+00   0.824E-14 -.108E-13 0.302E+00   0.422E-21 -.334E-21 0.125E+00   -.117E-12 -.865E-14 0.634E-05
   0.174E-09 0.528E-09 -.427E+00   0.149E-13 0.318E-15 0.302E+00   0.215E-21 -.307E-20 0.125E+00   0.304E-13 0.982E-13 0.634E-05
   0.174E-09 0.528E-09 -.427E+00   0.136E-13 -.131E-15 0.302E+00   -.774E-21 -.121E-20 0.125E+00   -.334E-13 0.139E-13 0.634E-05
 -----------------------------------------------------------------------------------------------
   0.558E-07 0.533E-07 -.225E-04   0.526E-13 0.184E-13 0.105E-14   0.445E-20 -.102E-19 0.472E-15   0.993E-13 -.244E-13 -.940E-10
 
 
 POSITION                                       TOTAL-FORCE (eV/Angst)
 -----------------------------------------------------------------------------------
     -0.00000      0.00000     10.69835        -0.000000      0.000000     -0.000024
     -0.00000      0.00000      5.34814        -0.000000      0.000000     -0.000024
     -0.01338      5.35021     10.69835         0.000000      0.000000     -0.000024
     -0.01338      5.35021      5.34814        -0.000000      0.000000     -0.000024
      5.32346     -0.01338     10.69835         0.000000     -0.000000     -0.000024
      5.32346     -0.01338      5.34814         0.000000     -0.000000     -0.000024
      5.31008      5.33683     10.69835        -0.000000      0.000000     -0.000024
      5.31008      5.33683      5.34814        -0.000000      0.000000     -0.000024
      3.98256      4.00263      1.33962         0.000000      0.000000      0.000024
      3.98256      4.00263      6.68983         0.000000     -0.000000      0.000024
      3.96919      9.35284      1.33962        -0.000000     -0.000000      0.000024
      3.96919      9.35284      6.68983        -0.000000     -0.000000      0.000024
      9.30602      3.98925      1.33962        -0.000000      0.000000      0.000024
      9.30602      3.98925      6.68983         0.000000      0.000000      0.000024
      9.29265      9.33946      1.33962        -0.000000     -0.000000      0.000024
      9.29265      9.33946      6.68983        -0.000000      0.000000      0.000024
     -0.00669      2.67511      2.67304        -0.000000      0.000000     -0.000024
     -0.00669      2.67511      8.02325        -0.000000      0.000000     -0.000024
     -0.02006      8.02532      2.67304        -0.000000     -0.000000     -0.000024
     -0.02006      8.02532      8.02325         0.000000      0.000000     -0.000024
      5.31677      2.66173      2.67304         0.000000      0.000000     -0.000024
      5.31677      2.66173      8.02325         0.000000     -0.000000     -0.000024
      5.30340      8.01194      2.67304         0.000000      0.000000     -0.000024
      5.30340      8.01194      8.02325        -0.000000      0.000000     -0.000024
      3.98925      1.32752      4.01473        -0.000000     -0.000000      0.000024
      3.98925      1.32752      9.36494        -0.000000      0.000000      0.000024
      3.97588      6.67773      4.01473         0.000000      0.000000      0.000024
      3.97588      6.67773      9.36494         0.000000     -0.000000      0.000024
      9.31271      1.31415      4.01473        -0.000000     -0.000000      0.000024
      9.31271      1.31415      9.36494         0.000000     -0.000000      0.000024
      9.29933      6.66436      4.01473         0.000000      0.000000      0.000024
      9.29933      6.66436      9.36494        -0.000000     -0.000000      0.000024
      2.66173     -0.00669      2.67304         0.000000      0.000000     -0.000024
      2.66173     -0.00669      8.02325        -0.000000     -0.000000     -0.000024
      2.64835      5.34352      2.67304        -0.000000      0.000000     -0.000024
      2.64835      5.34352      8.02325        -0.000000     -0.000000     -0.000024
      7.98519     -0.02006      2.67304         0.000000     -0.000000     -0.000024
      7.98519     -0.02006      8.02325         0.000000     -0.000000     -0.000024
      7.97181      5.33015      2.67304        -0.000000     -0.000000     -0.000024
      7.97181      5.33015      8.02325        -0.000000      0.000000     -0.000024
      1.32083      4.00931      4.01473         0.000000     -0.000000      0.000024
      1.32083      4.00931      9.36494         0.000000      0.000000      0.000024
      1.30746      9.35952      4.01473        -0.000000      0.000000      0.000024
      1.30746      9.35952      9.36494        -0.000000     -0.000000      0.000024
      6.64429      3.99594      4.01473         0.000000      0.000000      0.000024
      6.64429      3.99594      9.36494         0.000000      0.000000      0.000024
      6.63092      9.34615      4.01473         0.000000      0.000000      0.000024
      6.63092      9.34615      9.36494         0.000000     -0.000000      0.000024
      2.65504      2.66842     10.69835         0.000000     -0.000000     -0.000024
      2.65504      2.66842      5.34814         0.000000     -0.000000     -0.000024
      2.64167      8.01863     10.69835        -0.000000      0.000000     -0.000024
      2.64167      8.01863      5.34814        -0.000000      0.000000     -0.000024
      7.97850      2.65504     10.69835         0.000000     -0.000000     -0.000024
      7.97850      2.65504      5.34814        -0.000000      0.000000     -0.000024
      7.96513      8.00525     10.69835         0.000000     -0.000000     -0.000024
      7.96513      8.00525      5.34814         0.000000     -0.000000     -0.000024
      1.32752      1.33421      1.33962        -0.000000     -0.000000      0.000024
      1.32752      1.33421      6.68983        -0.000000     -0.000000      0.000024
      1.31415      6.68442      1.33962        -0.000000      0.000000      0.000024
      1.31415      6.68442      6.68983         0.000000     -0.000000      0.000024
      6.65098      1.32083      1.33962        -0.000000      0.000000      0.000024
      6.65098      1.32083      6.68983        -0.000000     -0.000000      0.000024
      6.63760      6.67104      1.33962         0.000000      0.000000      0.000024
      6.63760      6.67104      6.68983         0.000000     -0.000000      0.000024
 -----------------------------------------------------------------------------------
    total drift:                                0.000000      0.000000     -0.000022


--------------------------------------------------------------------------------------------------------



  FREE ENERGIE OF THE ION-ELECTRON SYSTEM (eV)
  ---------------------------------------------------
  free  energy   TOTEN  =      -366.52069863 eV

  energy  without entropy=     -366.55324938  energy(sigma->0) =     -366.53154888
 
 d Force = 0.7646854E-03[-0.139E-05, 0.153E-02]  d Energy = 0.7675908E-03-0.291E-05
 d Force =-0.1600348E-01[-0.173E-01,-0.147E-01]  d Ewald  =-0.1600347E-01-0.465E-08


--------------------------------------------------------------------------------------------------------


    POTLOK:  cpu time      0.1425: real time      0.1429


--------------------------------------------------------------------------------------------------------




--------------------------------------------------------------------------------------------------------


  
 reached required accuracy - stopping structural energy minimisation
     LOOP+:  cpu time     12.3764: real time     12.4997
    4ORBIT:  cpu time      0.0000: real time      0.0000

 total amount of memory used by VASP MPI-rank0    79364. kBytes
=======================================================================

   base      :      30000. kBytes
   nonlr-proj:       4650. kBytes
   fftplans  :      17992. kBytes
   grid      :       6881. kBytes
   one-center:         18. kBytes
   wavefun   :      19823. kBytes
 
  
  
 General timing and accounting informations for this job:
 ========================================================
  
                  Total CPU time used (sec):       62.518
                            User time (sec):       58.948
                          System time (sec):        3.569
                         Elapsed time (sec):       66.846
  
                   Maximum memory used (kb):      407268.
                   Average memory used (kb):          N/A
  
                          Minor page faults:        89578
                          Major page faults:            0
                 Voluntary context switches:         9369
