<?xml version="1.0" encoding="ISO-8859-1"?>
<modeling>
 <generator>
  <i name="program" type="string">vasp </i>
  <i name="version" type="string">6.4.3  </i>
  <i name="subversion" type="string">19Mar24 (build Oct 21 2024 22:36:34) complex                          parallel </i>
  <i name="platform" type="string">LinuxIFC </i>
  <i name="date" type="string">2024 11 01 </i>
  <i name="time" type="string">22:52:22 </i>
 </generator>
 <incar>
  <i type="string" name="SYSTEM">Si64</i>
  <i type="int" name="ISTART">     0</i>
  <i type="string" name="PREC">Accurate</i>
  <i type="string" name="ALGO">Fast</i>
  <i type="logical" name="ADDGRID"> T  </i>
  <i type="int" name="ICHARG">     2</i>
  <i type="int" name="NELM">    60</i>
  <i type="int" name="NELMIN">     8</i>
  <i type="int" name="IBRION">     2</i>
  <i name="EDIFF">      0.00000100</i>
  <i name="EDIFFG">     -0.01000000</i>
  <i type="int" name="NSW">    60</i>
  <i type="int" name="ISIF">     2</i>
  <i name="ENCUT">    400.00000000</i>
  <i type="string" name="LREAL">Auto</i>
  <i type="int" name="ISMEAR">     1</i>
  <i name="SIGMA">      0.20000000</i>
  <i type="logical" name="LWAVE"> F  </i>
  <i type="logical" name="LCHARG"> F  </i>
  <i type="logical" name="GGA_COMPAT"> F  </i>
  <i type="string" name="GGA">PS</i>
 </incar>
 <primitive_cell>
  <structure name="primitive_cell" >
   <crystal>
    <varray name="basis" >
     <v>      -2.66172964       0.00668775      -2.67510515 </v>
     <v>      -2.66172964       0.00668775       2.67510515 </v>
     <v>       2.65504189       2.66841739      -0.00000000 </v>
    </varray>
    <i name="volume">     38.09543370 </i>
    <varray name="rec_basis" >
     <v>      -0.18737934       0.18644009      -0.18690854 </v>
     <v>      -0.18737934       0.18644009       0.18690854 </v>
     <v>       0.00093924       0.37381943      -0.00000000 </v>
    </varray>
   </crystal>
   <varray name="positions" >
    <v>       0.00000000       0.00000000       0.00000000 </v>
    <v>       0.75000000       0.25000000       0.50000000 </v>
   </varray>
  </structure>
  <varray name="primitive_index" >
   <v type="int" >        1 </v>
   <v type="int" >       15 </v>
  </varray>
 </primitive_cell>
 <kpoints>
  <generation param="Gamma">
   <v type="int" name="divisions">       2        2        2 </v>
   <v name="usershift">      0.00000000       0.00000000       0.00000000 </v>
   <v name="genvec1">      0.50000000       0.00000000       0.00000000 </v>
   <v name="genvec2">     -0.00000000       0.50000000       0.00000000 </v>
   <v name="genvec3">      0.00000000       0.00000000       0.50000000 </v>
   <v name="shift">      0.00000000       0.00000000       0.00000000 </v>
  </generation>
  <varray name="kpointlist" >
   <v>       0.00000000       0.00000000       0.00000000 </v>
   <v>       0.50000000       0.00000000       0.00000000 </v>
   <v>       0.00000000       0.50000000       0.00000000 </v>
   <v>       0.50000000       0.50000000       0.00000000 </v>
   <v>       0.00000000       0.00000000       0.50000000 </v>
   <v>       0.50000000       0.00000000       0.50000000 </v>
   <v>       0.00000000       0.50000000       0.50000000 </v>
   <v>       0.50000000       0.50000000       0.50000000 </v>
  </varray>
  <varray name="weights" >
   <v>       0.12500000 </v>
   <v>       0.12500000 </v>
   <v>       0.12500000 </v>
   <v>       0.12500000 </v>
   <v>       0.12500000 </v>
   <v>       0.12500000 </v>
   <v>       0.12500000 </v>
   <v>       0.12500000 </v>
  </varray>
 </kpoints>
 <parameters>
  <separator name="general" >
   <i type="string" name="SYSTEM">Si64</i>
   <i type="logical" name="LCOMPAT"> F  </i>
  </separator>
  <separator name="electronic" >
   <i type="string" name="PREC">accura</i>
   <i name="ENMAX">    400.00000000</i>
   <i name="ENAUG">    322.06900000</i>
   <i name="EDIFF">      0.00000100</i>
   <i type="int" name="IALGO">    68</i>
   <i type="int" name="IWAVPR">    11</i>
   <i type="int" name="NBANDS">   162</i>
   <i type="int" name="NBANDSLOW">    -1</i>
   <i type="int" name="NBANDSHIGH">    -1</i>
   <i name="NELECT">    256.00000000</i>
   <i type="int" name="TURBO">     0</i>
   <i type="int" name="IRESTART">     0</i>
   <i type="int" name="NREBOOT">     0</i>
   <i type="int" name="NMIN">     0</i>
   <i name="EREF">      0.00000000</i>
   <separator name="electronic smearing" >
    <i type="int" name="ISMEAR">     1</i>
    <i name="SIGMA">      0.20000000</i>
    <i name="KSPACING">      0.50000000</i>
    <i type="logical" name="KGAMMA"> T  </i>
    <i type="logical" name="KBLOWUP"> T  </i>
   </separator>
   <separator name="electronic projectors" >
    <i type="logical" name="LREAL"> T  </i>
    <v name="ROPT">     -0.00025000</v>
    <i type="int" name="LMAXPAW">  -100</i>
    <i type="int" name="LMAXMIX">     2</i>
    <i type="logical" name="NLSPLINE"> F  </i>
   </separator>
   <separator name="electronic startup" >
    <i type="int" name="ISTART">     0</i>
    <i type="int" name="ICHARG">     2</i>
    <i type="int" name="INIWAV">     1</i>
   </separator>
   <separator name="electronic spin" >
    <i type="int" name="ISPIN">     1</i>
    <i type="logical" name="LNONCOLLINEAR"> F  </i>
    <v name="MAGMOM">      1.00000000      1.00000000      1.00000000      1.00000000      1.00000000      1.00000000      1.00000000      1.00000000      1.00000000      1.00000000      1.00000000      1.00000000      1.00000000      1.00000000      1.00000000      1.00000000      1.00000000      1.00000000      1.00000000      1.00000000
      1.00000000      1.00000000      1.00000000      1.00000000      1.00000000      1.00000000      1.00000000      1.00000000      1.00000000      1.00000000      1.00000000      1.00000000      1.00000000      1.00000000      1.00000000      1.00000000      1.00000000      1.00000000      1.00000000      1.00000000
      1.00000000      1.00000000      1.00000000      1.00000000      1.00000000      1.00000000      1.00000000      1.00000000      1.00000000      1.00000000      1.00000000      1.00000000      1.00000000      1.00000000      1.00000000      1.00000000      1.00000000      1.00000000      1.00000000      1.00000000
      1.00000000      1.00000000      1.00000000      1.00000000</v>
    <i name="NUPDOWN">     -1.00000000</i>
    <i type="logical" name="LSORBIT"> F  </i>
    <v name="SAXIS">      0.00000000      0.00000000      1.00000000</v>
    <i type="logical" name="LSPIRAL"> F  </i>
    <v name="QSPIRAL">      0.00000000      0.00000000      0.00000000</v>
    <i type="logical" name="LZEROZ"> F  </i>
   </separator>
   <separator name="electronic exchange-correlation" >
    <i type="logical" name="LASPH"> F  </i>
   </separator>
   <separator name="electronic convergence" >
    <i type="int" name="NELM">    60</i>
    <i type="int" name="NELMDL">    -5</i>
    <i type="int" name="NELMIN">     8</i>
    <i name="ENINI">    400.00000000</i>
    <separator name="electronic convergence detail" >
     <i type="logical" name="LDIAG"> T  </i>
     <i type="logical" name="LSUBROT"> F  </i>
     <i name="WEIMIN">      0.00100000</i>
     <i name="EBREAK">      0.00000000</i>
     <i name="DEPER">      0.30000000</i>
     <i type="int" name="NRMM">     4</i>
     <i name="TIME">      0.40000000</i>
    </separator>
   </separator>
   <separator name="electronic mixer" >
    <i name="AMIX">      0.40000000</i>
    <i name="BMIX">      1.00000000</i>
    <i name="AMIN">      0.10000000</i>
    <i name="AMIX_MAG">      1.60000000</i>
    <i name="BMIX_MAG">      1.00000000</i>
    <separator name="electronic mixer details" >
     <i type="int" name="IMIX">     4</i>
     <i type="logical" name="MIXFIRST"> F  </i>
     <i type="int" name="MAXMIX">   -45</i>
     <i name="WC">    100.00000000</i>
     <i type="int" name="INIMIX">     1</i>
     <i type="int" name="MIXPRE">     1</i>
     <i type="int" name="MREMOVE">     5</i>
    </separator>
   </separator>
   <separator name="electronic dipolcorrection" >
    <i type="logical" name="LDIPOL"> F  </i>
    <i type="logical" name="LMONO"> F  </i>
    <i type="int" name="IDIPOL">     0</i>
    <i name="EPSILON">      1.00000000</i>
    <v name="DIPOL">   -100.00000000   -100.00000000   -100.00000000</v>
    <i name="EFIELD">      0.00000000</i>
    <i type="logical" name="LVACPOTAV"> F  </i>
   </separator>
  </separator>
  <separator name="grids" >
   <i type="int" name="NGX">    70</i>
   <i type="int" name="NGY">    70</i>
   <i type="int" name="NGZ">    70</i>
   <i type="int" name="NGXF">   140</i>
   <i type="int" name="NGYF">   140</i>
   <i type="int" name="NGZF">   140</i>
   <i type="logical" name="ADDGRID"> T  </i>
  </separator>
  <separator name="ionic" >
   <i type="int" name="NSW">    60</i>
   <i type="int" name="IBRION">     2</i>
   <i type="int" name="MDALGO">     0</i>
   <i type="int" name="ISIF">     2</i>
   <i name="PSTRESS">      0.00000000</i>
   <i name="EDIFFG">     -0.01000000</i>
   <i type="int" name="NFREE">     1</i>
   <i name="POTIM">      0.50000000</i>
   <i name="SMASS">     -3.00000000</i>
   <i name="SCALEE">      1.00000000</i>
  </separator>
  <separator name="ionic md" >
   <i name="TEBEG">      0.00010000</i>
   <i name="TEEND">      0.00010000</i>
   <i type="int" name="NBLOCK">     1</i>
   <i type="int" name="KBLOCK">    60</i>
   <i type="int" name="NPACO">   256</i>
   <i name="APACO">     10.00000000</i>
  </separator>
  <separator name="symmetry" >
   <i type="int" name="ISYM">     2</i>
   <i name="SYMPREC">      0.00001000</i>
  </separator>
  <separator name="dos" >
   <i type="int" name="LORBIT">     0</i>
   <v name="RWIGS">     -1.00000000</v>
   <i type="int" name="NEDOS">   301</i>
   <i name="EMIN">     10.00000000</i>
   <i name="EMAX">    -10.00000000</i>
   <i name="EFERMI">      0.00000000</i>
  </separator>
  <separator name="writing" >
   <i type="int" name="NWRITE">     2</i>
   <i type="logical" name="LWAVE"> F  </i>
   <i type="logical" name="LDOWNSAMPLE"> F  </i>
   <i type="logical" name="LCHARG"> F  </i>
   <i type="logical" name="LPARD"> F  </i>
   <i type="logical" name="LVTOT"> F  </i>
   <i type="logical" name="LVHAR"> F  </i>
   <i type="logical" name="LELF"> F  </i>
   <i type="logical" name="LOPTICS"> F  </i>
   <v name="STM">      0.00000000      0.00000000      0.00000000      0.00000000      0.00000000      0.00000000      0.00000000</v>
  </separator>
  <separator name="performance" >
   <i type="int" name="NPAR">     2</i>
   <i type="int" name="NSIM">     4</i>
   <i type="int" name="NBLK">    -1</i>
   <i type="logical" name="LPLANE"> T  </i>
   <i type="logical" name="LSCALAPACK"> T  </i>
   <i type="logical" name="LSCAAWARE"> F  </i>
   <i type="logical" name="LSCALU"> F  </i>
   <i type="logical" name="LASYNC"> F  </i>
   <i type="logical" name="LORBITALREAL"> F  </i>
  </separator>
  <separator name="miscellaneous" >
   <i type="int" name="IDIOT">     3</i>
   <i type="int" name="PHON_NSTRUCT">    -1</i>
   <i type="logical" name="LMUSIC"> F  </i>
   <v name="POMASS">     28.08500000</v>
   <v name="DARWINR">      0.00000000</v>
   <v name="DARWINV">      1.00000000</v>
   <i type="logical" name="LCORR"> T  </i>
  </separator>
  <i type="logical" name="GGA_COMPAT"> F  </i>
  <i type="logical" name="LBERRY"> F  </i>
  <i type="int" name="ICORELEVEL">     0</i>
  <i type="logical" name="LDAU"> F  </i>
  <i type="int" name="I_CONSTRAINED_M">     0</i>
  <separator name="electronic exchange-correlation" >
   <i type="string" name="GGA    ">PS</i>
   <i type="string" name="XC_C">1</i>
   <i type="int" name="VOSKOWN">     0</i>
   <i type="logical" name="LHFCALC"> F  </i>
   <i type="string" name="PRECFOCK"></i>
   <i type="logical" name="LSYMGRAD"> F  </i>
   <i type="logical" name="LHFONE"> F  </i>
   <i type="logical" name="LRHFCALC"> F  </i>
   <i type="logical" name="LTHOMAS"> F  </i>
   <i type="logical" name="LMODELHF"> F  </i>
   <i type="logical" name="LFOCKACE"> F  </i>
   <i name="ENCUT4O">     -1.00000000</i>
   <i type="int" name="EXXOEP">     0</i>
   <i type="int" name="FOURORBIT">     0</i>
   <i name="AEXX">      0.00000000</i>
   <i name="HFALPHA">      0.00000000</i>
   <i name="MCALPHA">      0.00000000</i>
   <i name="ALDAX">      1.00000000</i>
   <i name="AGGAX">      1.00000000</i>
   <i name="AMGGAX">      1.00000000</i>
   <i name="ALDAC">      1.00000000</i>
   <i name="AGGAC">      1.00000000</i>
   <i name="AMGGAC">      1.00000000</i>
   <i type="int" name="NKREDX">     1</i>
   <i type="int" name="NKREDY">     1</i>
   <i type="int" name="NKREDZ">     1</i>
   <i type="logical" name="SHIFTRED"> F  </i>
   <i type="logical" name="ODDONLY"> F  </i>
   <i type="logical" name="EVENONLY"> F  </i>
   <i type="int" name="LMAXFOCK">     0</i>
   <i type="int" name="NMAXFOCKAE">     0</i>
   <i type="logical" name="LFOCKAEDFT"> F  </i>
   <i name="HFSCREEN">      0.00000000</i>
   <i name="HFSCREENC">      0.00000000</i>
   <i type="int" name="NBANDSGWLOW">     0</i>
  </separator>
  <separator name="vdW DFT" >
   <i type="logical" name="LUSE_VDW"> F  </i>
   <i type="int" name="IVDW_NL">    -1</i>
   <i type="logical" name="LSPIN_VDW"> F  </i>
   <i name="ZAB_VDW">     -0.84910000</i>
   <i name="GAMMA_VDW">      1.39626340</i>
   <i name="ALPHA_VDW">      0.00000000</i>
   <i name="PARAM1">      0.12340000</i>
   <i name="PARAM2">      1.00000000</i>
   <i name="BPARAM">      6.30000000</i>
   <i name="CPARAM">      0.00930000</i>
  </separator>
  <separator name="model GW" >
   <i type="int" name="MODEL_GW">     0</i>
   <i name="MODEL_EPS0">     11.42863011</i>
   <i name="MODEL_ALPHA">      1.00000000</i>
  </separator>
  <separator name="linear response parameters" >
   <i type="logical" name="LEPSILON"> F  </i>
   <i type="logical" name="LRPA"> F  </i>
   <i type="logical" name="LNABLA"> F  </i>
   <i type="logical" name="LVEL"> F  </i>
   <i name="CSHIFT">      0.10000000</i>
   <i name="OMEGAMAX">     -1.00000000</i>
   <i name="DEG_THRESHOLD">      0.00200000</i>
   <i name="RTIME">     -0.10000000</i>
   <i name="WPLASMAI">      0.00000000</i>
   <v name="DFIELD">      0.00000000      0.00000000      0.00000000</v>
   <v name="WPLASMA">      0.00000000      0.00000000      0.00000000      0.00000000      0.00000000      0.00000000      0.00000000      0.00000000      0.00000000</v>
  </separator>
  <separator name="orbital magnetization" >
   <i type="logical" name="NUCIND"> F  </i>
   <v name="MAGPOS">      0.00000000      0.00000000      0.00000000</v>
   <i type="logical" name="LNICSALL"> T  </i>
   <i type="logical" name="ORBITALMAG"> F  </i>
   <i type="logical" name="LMAGBLOCH"> F  </i>
   <i type="logical" name="LCHIMAG"> F  </i>
   <i type="logical" name="LGAUGE"> T  </i>
   <i type="int" name="MAGATOM">     0</i>
   <v name="MAGDIPOL">      0.00000000      0.00000000      0.00000000</v>
   <v name="AVECCONST">      0.00000000      0.00000000      0.00000000</v>
  </separator>
  <separator name="response functions" >
   <i type="logical" name="LALL_IN_ONE"> F  </i>
   <i type="int" name="IALL_IN_ONE">    -1</i>
   <i type="int" name="NBANDS_WAVE">    -1</i>
   <i type="logical" name="LFINITE_TEMPERATURE"> F  </i>
   <i type="logical" name="LADDER"> F  </i>
   <i type="logical" name="LRPAFORCE"> F  </i>
   <i type="logical" name="LFXC"> F  </i>
   <i type="logical" name="LHARTREE"> T  </i>
   <i type="int" name="IBSE">     0</i>
   <v type="int" name="KPOINT">    -1     0     0     0</v>
   <i type="logical" name="LTCTC"> F  </i>
   <i type="logical" name="LTCTE"> F  </i>
   <i type="logical" name="LTETE"> F  </i>
   <i type="logical" name="LTRIPLET"> F  </i>
   <i type="logical" name="LFXCEPS"> F  </i>
   <i type="logical" name="LFXHEG"> F  </i>
   <i type="int" name="NATURALO">     2</i>
   <i type="logical" name="LHOLEGF"> F  </i>
   <i type="logical" name="L2ORDER"> F  </i>
   <i type="logical" name="LDMP1"> F  </i>
   <i type="logical" name="LMP2LT"> F  </i>
   <i type="logical" name="LSMP2LT"> F  </i>
   <i type="logical" name="LGWLF"> F  </i>
   <i name="ENCUTGW">     -1.60000002</i>
   <i name="ENCUTGWSOFT">     -1.60000002</i>
   <i name="ENCUTLF">     -1.00000000</i>
   <i type="logical" name="ESF_SPLINES"> F  </i>
   <i name="ESF_CONV">      0.01000000</i>
   <i type="int" name="ESF_NINTER">    15</i>
   <i type="int" name="LMAXMP2">    -1</i>
   <i name="SCISSOR">      0.00000000</i>
   <i type="int" name="NOMEGA">     0</i>
   <i type="int" name="NOMEGAR">     0</i>
   <i type="int" name="NBANDSGW">    -1</i>
   <i type="int" name="NBANDSO">    -1</i>
   <i type="int" name="NBANDSV">    -1</i>
   <i type="int" name="NELMGW">     1</i>
   <i type="int" name="NELMHF">     1</i>
   <i type="int" name="DIM">     3</i>
   <i type="int" name="IESPILON">     4</i>
   <i type="int" name="ANTIRES">     0</i>
   <i name="OMEGAMAX">    -30.00000000</i>
   <i name="OMEGAMIN">    -30.00000000</i>
   <i name="OMEGATL">   -200.00000000</i>
   <i type="int" name="OMEGAGRID">     0</i>
   <i name="CSHIFT">     -0.10000000</i>
   <i type="logical" name="LSELFENERGY"> F  </i>
   <i type="logical" name="LSPECTRAL"> F  </i>
   <i type="logical" name="LSPECTRALGW"> F  </i>
   <i type="logical" name="LSINGLES"> F  </i>
   <i type="logical" name="LFERMIGW"> F  </i>
   <i type="logical" name="ODDONLYGW"> F  </i>
   <i type="logical" name="EVENONLYGW"> F  </i>
   <i type="int" name="NKREDLFX">     1</i>
   <i type="int" name="NKREDLFY">     1</i>
   <i type="int" name="NKREDLFZ">     1</i>
   <i type="int" name="MAXMEM">  2800</i>
   <i type="int" name="TELESCOPE">     0</i>
   <i type="int" name="NTAUPAR">    -1</i>
   <i type="int" name="NOMEGAPAR">    -1</i>
   <i name="DAMP_NEWTON">      0.80000001</i>
   <i name="LAMBDA">      1.00000000</i>
  </separator>
  <separator name="External order field" >
   <i name="OFIELD_KAPPA">      0.00000000</i>
   <v name="OFIELD_K">      0.00000000      0.00000000      0.00000000</v>
   <i name="OFIELD_Q6_NEAR">      0.00000000</i>
   <i name="OFIELD_Q6_FAR">      0.00000000</i>
   <i name="OFIELD_A">      0.00000000</i>
  </separator>
  <separator name="optional k-points parameters" >
   <i type="int" name="KPOINTS_OPT_MODE">     1</i>
   <i type="logical" name="LKPOINTS_OPT"> F  </i>
  </separator>
 </parameters>
 <atominfo>
  <atoms>      64 </atoms>
  <types>       1 </types>
  <array name="atoms" >
   <dimension dim="1">ion</dimension>
   <field type="string">element</field>
   <field type="int">atomtype</field>
   <set>
    <rc><c>Si</c><c>   1</c></rc>
    <rc><c>Si</c><c>   1</c></rc>
    <rc><c>Si</c><c>   1</c></rc>
    <rc><c>Si</c><c>   1</c></rc>
    <rc><c>Si</c><c>   1</c></rc>
    <rc><c>Si</c><c>   1</c></rc>
    <rc><c>Si</c><c>   1</c></rc>
    <rc><c>Si</c><c>   1</c></rc>
    <rc><c>Si</c><c>   1</c></rc>
    <rc><c>Si</c><c>   1</c></rc>
    <rc><c>Si</c><c>   1</c></rc>
    <rc><c>Si</c><c>   1</c></rc>
    <rc><c>Si</c><c>   1</c></rc>
    <rc><c>Si</c><c>   1</c></rc>
    <rc><c>Si</c><c>   1</c></rc>
    <rc><c>Si</c><c>   1</c></rc>
    <rc><c>Si</c><c>   1</c></rc>
    <rc><c>Si</c><c>   1</c></rc>
    <rc><c>Si</c><c>   1</c></rc>
    <rc><c>Si</c><c>   1</c></rc>
    <rc><c>Si</c><c>   1</c></rc>
    <rc><c>Si</c><c>   1</c></rc>
    <rc><c>Si</c><c>   1</c></rc>
    <rc><c>Si</c><c>   1</c></rc>
    <rc><c>Si</c><c>   1</c></rc>
    <rc><c>Si</c><c>   1</c></rc>
    <rc><c>Si</c><c>   1</c></rc>
    <rc><c>Si</c><c>   1</c></rc>
    <rc><c>Si</c><c>   1</c></rc>
    <rc><c>Si</c><c>   1</c></rc>
    <rc><c>Si</c><c>   1</c></rc>
    <rc><c>Si</c><c>   1</c></rc>
    <rc><c>Si</c><c>   1</c></rc>
    <rc><c>Si</c><c>   1</c></rc>
    <rc><c>Si</c><c>   1</c></rc>
    <rc><c>Si</c><c>   1</c></rc>
    <rc><c>Si</c><c>   1</c></rc>
    <rc><c>Si</c><c>   1</c></rc>
    <rc><c>Si</c><c>   1</c></rc>
    <rc><c>Si</c><c>   1</c></rc>
    <rc><c>Si</c><c>   1</c></rc>
    <rc><c>Si</c><c>   1</c></rc>
    <rc><c>Si</c><c>   1</c></rc>
    <rc><c>Si</c><c>   1</c></rc>
    <rc><c>Si</c><c>   1</c></rc>
    <rc><c>Si</c><c>   1</c></rc>
    <rc><c>Si</c><c>   1</c></rc>
    <rc><c>Si</c><c>   1</c></rc>
    <rc><c>Si</c><c>   1</c></rc>
    <rc><c>Si</c><c>   1</c></rc>
    <rc><c>Si</c><c>   1</c></rc>
    <rc><c>Si</c><c>   1</c></rc>
    <rc><c>Si</c><c>   1</c></rc>
    <rc><c>Si</c><c>   1</c></rc>
    <rc><c>Si</c><c>   1</c></rc>
    <rc><c>Si</c><c>   1</c></rc>
    <rc><c>Si</c><c>   1</c></rc>
    <rc><c>Si</c><c>   1</c></rc>
    <rc><c>Si</c><c>   1</c></rc>
    <rc><c>Si</c><c>   1</c></rc>
    <rc><c>Si</c><c>   1</c></rc>
    <rc><c>Si</c><c>   1</c></rc>
    <rc><c>Si</c><c>   1</c></rc>
    <rc><c>Si</c><c>   1</c></rc>
   </set>
  </array>
  <array name="atomtypes" >
   <dimension dim="1">type</dimension>
   <field type="int">atomspertype</field>
   <field type="string">element</field>
   <field>mass</field>
   <field>valence</field>
   <field type="string">pseudopotential</field>
   <set>
    <rc><c>  64</c><c>Si</c><c>     28.08500000</c><c>      4.00000000</c><c>  PAW_PBE Si 05Jan2001                  </c></rc>
   </set>
  </array>
 </atominfo>
 <structure name="initialpos" >
  <crystal>
   <varray name="basis" >
    <v>      10.64691857      -0.02675100       0.00000000 </v>
    <v>      -0.02675100      10.70042058       0.00000000 </v>
    <v>       0.00000000       0.00000000      10.70042058 </v>
   </varray>
   <i name="volume">   1219.05387855 </i>
   <varray name="rec_basis" >
    <v>       0.09392448       0.00023481       0.00000000 </v>
    <v>       0.00023481       0.09345486       0.00000000 </v>
    <v>       0.00000000       0.00000000       0.09345427 </v>
   </varray>
  </crystal>
  <varray name="positions" >
   <v>       0.00000000       0.00000000       0.00000000 </v>
   <v>       0.00000000       0.00000000       0.50000000 </v>
   <v>       0.00000000       0.50000000       0.00000000 </v>
   <v>       0.00000000       0.50000000       0.50000000 </v>
   <v>       0.50000000       0.00000000       0.00000000 </v>
   <v>       0.50000000       0.00000000       0.50000000 </v>
   <v>       0.50000000       0.50000000       0.00000000 </v>
   <v>       0.50000000       0.50000000       0.50000000 </v>
   <v>       0.37500000       0.37500000       0.12500000 </v>
   <v>       0.37500000       0.37500000       0.62500000 </v>
   <v>       0.37500000       0.87500000       0.12500000 </v>
   <v>       0.37500000       0.87500000       0.62500000 </v>
   <v>       0.87500000       0.37500000       0.12500000 </v>
   <v>       0.87500000       0.37500000       0.62500000 </v>
   <v>       0.87500000       0.87500000       0.12500000 </v>
   <v>       0.87500000       0.87500000       0.62500000 </v>
   <v>       0.00000000       0.25000000       0.25000000 </v>
   <v>       0.00000000       0.25000000       0.75000000 </v>
   <v>       0.00000000       0.75000000       0.25000000 </v>
   <v>       0.00000000       0.75000000       0.75000000 </v>
   <v>       0.50000000       0.25000000       0.25000000 </v>
   <v>       0.50000000       0.25000000       0.75000000 </v>
   <v>       0.50000000       0.75000000       0.25000000 </v>
   <v>       0.50000000       0.75000000       0.75000000 </v>
   <v>       0.37500000       0.12500000       0.37500000 </v>
   <v>       0.37500000       0.12500000       0.87500000 </v>
   <v>       0.37500000       0.62500000       0.37500000 </v>
   <v>       0.37500000       0.62500000       0.87500000 </v>
   <v>       0.87500000       0.12500000       0.37500000 </v>
   <v>       0.87500000       0.12500000       0.87500000 </v>
   <v>       0.87500000       0.62500000       0.37500000 </v>
   <v>       0.87500000       0.62500000       0.87500000 </v>
   <v>       0.25000000       0.00000000       0.25000000 </v>
   <v>       0.25000000       0.00000000       0.75000000 </v>
   <v>       0.25000000       0.50000000       0.25000000 </v>
   <v>       0.25000000       0.50000000       0.75000000 </v>
   <v>       0.75000000       0.00000000       0.25000000 </v>
   <v>       0.75000000       0.00000000       0.75000000 </v>
   <v>       0.75000000       0.50000000       0.25000000 </v>
   <v>       0.75000000       0.50000000       0.75000000 </v>
   <v>       0.12500000       0.37500000       0.37500000 </v>
   <v>       0.12500000       0.37500000       0.87500000 </v>
   <v>       0.12500000       0.87500000       0.37500000 </v>
   <v>       0.12500000       0.87500000       0.87500000 </v>
   <v>       0.62500000       0.37500000       0.37500000 </v>
   <v>       0.62500000       0.37500000       0.87500000 </v>
   <v>       0.62500000       0.87500000       0.37500000 </v>
   <v>       0.62500000       0.87500000       0.87500000 </v>
   <v>       0.25000000       0.25000000       0.00000000 </v>
   <v>       0.25000000       0.25000000       0.50000000 </v>
   <v>       0.25000000       0.75000000       0.00000000 </v>
   <v>       0.25000000       0.75000000       0.50000000 </v>
   <v>       0.75000000       0.25000000       0.00000000 </v>
   <v>       0.75000000       0.25000000       0.50000000 </v>
   <v>       0.75000000       0.75000000       0.00000000 </v>
   <v>       0.75000000       0.75000000       0.50000000 </v>
   <v>       0.12500000       0.12500000       0.12500000 </v>
   <v>       0.12500000       0.12500000       0.62500000 </v>
   <v>       0.12500000       0.62500000       0.12500000 </v>
   <v>       0.12500000       0.62500000       0.62500000 </v>
   <v>       0.62500000       0.12500000       0.12500000 </v>
   <v>       0.62500000       0.12500000       0.62500000 </v>
   <v>       0.62500000       0.62500000       0.12500000 </v>
   <v>       0.62500000       0.62500000       0.62500000 </v>
  </varray>
 </structure>
 <calculation>
  <scstep>
   <time name="dav">    1.28    1.35</time>
   <time name="total">    1.47    1.55</time>
   <energy>
    <i name="alphaZ">    113.10753871 </i>
    <i name="ewald">  -7435.53324516 </i>
    <i name="hartreedc">   -328.70519378 </i>
    <i name="XCdc">   -552.69432974 </i>
    <i name="pawpsdc">   5598.62625415 </i>
    <i name="pawaedc">  -4492.17844134 </i>
    <i name="eentropy">     -0.02084626 </i>
    <i name="bandstr">   1095.76362273 </i>
    <i name="atom">   6564.79586099 </i>
    <i name="e_fr_energy">    563.16122030 </i>
    <i name="e_wo_entrp">    563.18206656 </i>
    <i name="e_0_energy">    563.16816905 </i>
   </energy>
  </scstep>
  <scstep>
   <time name="dav">    1.32    1.35</time>
   <time name="total">    1.32    1.36</time>
   <energy>
    <i name="e_fr_energy">   -311.46872122 </i>
    <i name="e_wo_entrp">   -311.47437937 </i>
    <i name="e_0_energy">   -311.47060727 </i>
   </energy>
  </scstep>
  <scstep>
   <time name="dav">    1.41    1.45</time>
   <time name="total">    1.41    1.45</time>
   <energy>
    <i name="e_fr_energy">   -373.12647224 </i>
    <i name="e_wo_entrp">   -373.13432417 </i>
    <i name="e_0_energy">   -373.12908955 </i>
   </energy>
  </scstep>
  <scstep>
   <time name="dav">    1.36    1.38</time>
   <time name="total">    1.36    1.38</time>
   <energy>
    <i name="e_fr_energy">   -374.69673261 </i>
    <i name="e_wo_entrp">   -374.70492151 </i>
    <i name="e_0_energy">   -374.69946224 </i>
   </energy>
  </scstep>
  <scstep>
   <time name="dav">    1.32    1.34</time>
   <time name="total">    1.58    1.61</time>
   <energy>
    <i name="e_fr_energy">   -374.74834659 </i>
    <i name="e_wo_entrp">   -374.75650614 </i>
    <i name="e_0_energy">   -374.75106644 </i>
   </energy>
  </scstep>
  <scstep>
   <time name="diag">    0.14    0.14</time>
   <time name="diis">    0.71    0.71</time>
   <time name="orth">    0.02    0.02</time>
   <time name="total">    1.26    1.28</time>
   <energy>
    <i name="e_fr_energy">   -368.99946586 </i>
    <i name="e_wo_entrp">   -369.01034468 </i>
    <i name="e_0_energy">   -369.00309213 </i>
   </energy>
  </scstep>
  <scstep>
   <time name="diag">    0.14    0.14</time>
   <time name="diis">    0.71    0.72</time>
   <time name="orth">    0.02    0.02</time>
   <time name="total">    1.26    1.29</time>
   <energy>
    <i name="e_fr_energy">   -366.45848004 </i>
    <i name="e_wo_entrp">   -366.49134397 </i>
    <i name="e_0_energy">   -366.46943468 </i>
   </energy>
  </scstep>
  <scstep>
   <time name="diag">    0.14    0.14</time>
   <time name="diis">    0.70    0.71</time>
   <time name="orth">    0.02    0.02</time>
   <time name="total">    1.25    1.27</time>
   <energy>
    <i name="e_fr_energy">   -366.49408938 </i>
    <i name="e_wo_entrp">   -366.52734106 </i>
    <i name="e_0_energy">   -366.50517327 </i>
   </energy>
  </scstep>
  <scstep>
   <time name="diag">    0.13    0.13</time>
   <time name="diis">    0.72    0.72</time>
   <time name="orth">    0.02    0.02</time>
   <time name="total">    1.26    1.28</time>
   <energy>
    <i name="e_fr_energy">   -366.51611436 </i>
    <i name="e_wo_entrp">   -366.54955083 </i>
    <i name="e_0_energy">   -366.52725985 </i>
   </energy>
  </scstep>
  <scstep>
   <time name="diag">    0.13    0.13</time>
   <time name="diis">    0.74    0.74</time>
   <time name="orth">    0.02    0.02</time>
   <time name="total">    1.28    1.30</time>
   <energy>
    <i name="e_fr_energy">   -366.51977634 </i>
    <i name="e_wo_entrp">   -366.55321414 </i>
    <i name="e_0_energy">   -366.53092227 </i>
   </energy>
  </scstep>
  <scstep>
   <time name="diag">    0.13    0.13</time>
   <time name="diis">    0.70    0.70</time>
   <time name="orth">    0.02    0.02</time>
   <time name="total">    1.24    1.25</time>
   <energy>
    <i name="e_fr_energy">   -366.51616086 </i>
    <i name="e_wo_entrp">   -366.54934714 </i>
    <i name="e_0_energy">   -366.52722296 </i>
   </energy>
  </scstep>
  <scstep>
   <time name="diag">    0.13    0.13</time>
   <time name="diis">    0.70    0.70</time>
   <time name="orth">    0.02    0.02</time>
   <time name="total">    1.23    1.25</time>
   <energy>
    <i name="e_fr_energy">   -366.51619148 </i>
    <i name="e_wo_entrp">   -366.54936190 </i>
    <i name="e_0_energy">   -366.52724829 </i>
   </energy>
  </scstep>
  <scstep>
   <time name="diag">    0.14    0.14</time>
   <time name="diis">    0.73    0.74</time>
   <time name="orth">    0.02    0.02</time>
   <time name="total">    1.28    1.29</time>
   <energy>
    <i name="e_fr_energy">   -366.51626712 </i>
    <i name="e_wo_entrp">   -366.54943846 </i>
    <i name="e_0_energy">   -366.52732423 </i>
   </energy>
  </scstep>
  <scstep>
   <time name="diag">    0.13    0.13</time>
   <time name="diis">    0.70    0.72</time>
   <time name="orth">    0.02    0.02</time>
   <time name="total">    1.24    1.27</time>
   <energy>
    <i name="e_fr_energy">   -366.51582381 </i>
    <i name="e_wo_entrp">   -366.54898234 </i>
    <i name="e_0_energy">   -366.52687665 </i>
   </energy>
  </scstep>
  <scstep>
   <time name="diag">    0.14    0.14</time>
   <time name="diis">    0.68    0.69</time>
   <time name="orth">    0.02    0.02</time>
   <time name="total">    1.23    1.25</time>
   <energy>
    <i name="e_fr_energy">   -366.51608567 </i>
    <i name="e_wo_entrp">   -366.54921877 </i>
    <i name="e_0_energy">   -366.52713004 </i>
   </energy>
  </scstep>
  <scstep>
   <time name="diag">    0.14    0.14</time>
   <time name="diis">    0.69    0.70</time>
   <time name="orth">    0.02    0.02</time>
   <time name="total">    1.24    1.26</time>
   <energy>
    <i name="e_fr_energy">   -366.51639864 </i>
    <i name="e_wo_entrp">   -366.54954165 </i>
    <i name="e_0_energy">   -366.52744631 </i>
   </energy>
  </scstep>
  <scstep>
   <time name="diag">    0.13    0.13</time>
   <time name="diis">    0.70    0.70</time>
   <time name="orth">    0.02    0.02</time>
   <time name="total">    1.24    1.26</time>
   <energy>
    <i name="e_fr_energy">   -366.51651820 </i>
    <i name="e_wo_entrp">   -366.54966369 </i>
    <i name="e_0_energy">   -366.52756670 </i>
   </energy>
  </scstep>
  <scstep>
   <time name="diag">    0.13    0.13</time>
   <time name="diis">    0.70    0.70</time>
   <time name="orth">    0.02    0.02</time>
   <time name="total">    1.24    1.26</time>
   <energy>
    <i name="e_fr_energy">   -366.51657384 </i>
    <i name="e_wo_entrp">   -366.54971336 </i>
    <i name="e_0_energy">   -366.52762035 </i>
   </energy>
  </scstep>
  <scstep>
   <time name="diag">    0.13    0.13</time>
   <time name="diis">    0.70    0.70</time>
   <time name="orth">    0.02    0.02</time>
   <time name="total">    1.24    1.26</time>
   <energy>
    <i name="e_fr_energy">   -366.51661440 </i>
    <i name="e_wo_entrp">   -366.54974605 </i>
    <i name="e_0_energy">   -366.52765829 </i>
   </energy>
  </scstep>
  <scstep>
   <time name="diag">    0.13    0.13</time>
   <time name="diis">    0.67    0.67</time>
   <time name="orth">    0.02    0.02</time>
   <time name="total">    1.21    1.23</time>
   <energy>
    <i name="e_fr_energy">   -366.51662645 </i>
    <i name="e_wo_entrp">   -366.54975281 </i>
    <i name="e_0_energy">   -366.52766857 </i>
   </energy>
  </scstep>
  <scstep>
   <time name="diag">    0.13    0.13</time>
   <time name="diis">    0.45    0.45</time>
   <time name="orth">    0.02    0.02</time>
   <time name="total">    0.99    1.75</time>
   <energy>
    <i name="e_fr_energy">   -366.51662845 </i>
    <i name="e_wo_entrp">   -366.54975356 </i>
    <i name="e_0_energy">   -366.52767015 </i>
   </energy>
  </scstep>
  <scstep>
   <time name="diag">    0.13    0.13</time>
   <time name="diis">    0.45    0.45</time>
   <time name="orth">    0.02    0.02</time>
   <time name="total">    0.74    0.76</time>
   <energy>
    <i name="alphaZ">    113.10753871 </i>
    <i name="ewald">  -7435.53324516 </i>
    <i name="hartreedc">   -449.80026117 </i>
    <i name="XCdc">   -532.18277470 </i>
    <i name="pawpsdc">  30958.95707656 </i>
    <i name="pawaedc"> -29860.67677183 </i>
    <i name="eentropy">      0.03312489 </i>
    <i name="bandstr">    274.78282265 </i>
    <i name="atom">   6564.79586099 </i>
    <i name="e_fr_energy">   -366.51662906 </i>
    <i name="e_wo_entrp">   -366.54975395 </i>
    <i name="e_0_energy">   -366.52767069 </i>
   </energy>
  </scstep>
  <structure>
   <crystal>
    <varray name="basis" >
     <v>      10.64691857      -0.02675100       0.00000000 </v>
     <v>      -0.02675100      10.70042058       0.00000000 </v>
     <v>       0.00000000       0.00000000      10.70042058 </v>
    </varray>
    <i name="volume">   1219.05387855 </i>
    <varray name="rec_basis" >
     <v>       0.09392448       0.00023481       0.00000000 </v>
     <v>       0.00023481       0.09345486       0.00000000 </v>
     <v>       0.00000000       0.00000000       0.09345427 </v>
    </varray>
   </crystal>
   <varray name="positions" >
    <v>       0.00000000       0.00000000       0.00000000 </v>
    <v>       0.00000000       0.00000000       0.50000000 </v>
    <v>       0.00000000       0.50000000       0.00000000 </v>
    <v>       0.00000000       0.50000000       0.50000000 </v>
    <v>       0.50000000       0.00000000       0.00000000 </v>
    <v>       0.50000000       0.00000000       0.50000000 </v>
    <v>       0.50000000       0.50000000       0.00000000 </v>
    <v>       0.50000000       0.50000000       0.50000000 </v>
    <v>       0.37500000       0.37500000       0.12500000 </v>
    <v>       0.37500000       0.37500000       0.62500000 </v>
    <v>       0.37500000       0.87500000       0.12500000 </v>
    <v>       0.37500000       0.87500000       0.62500000 </v>
    <v>       0.87500000       0.37500000       0.12500000 </v>
    <v>       0.87500000       0.37500000       0.62500000 </v>
    <v>       0.87500000       0.87500000       0.12500000 </v>
    <v>       0.87500000       0.87500000       0.62500000 </v>
    <v>       0.00000000       0.25000000       0.25000000 </v>
    <v>       0.00000000       0.25000000       0.75000000 </v>
    <v>       0.00000000       0.75000000       0.25000000 </v>
    <v>       0.00000000       0.75000000       0.75000000 </v>
    <v>       0.50000000       0.25000000       0.25000000 </v>
    <v>       0.50000000       0.25000000       0.75000000 </v>
    <v>       0.50000000       0.75000000       0.25000000 </v>
    <v>       0.50000000       0.75000000       0.75000000 </v>
    <v>       0.37500000       0.12500000       0.37500000 </v>
    <v>       0.37500000       0.12500000       0.87500000 </v>
    <v>       0.37500000       0.62500000       0.37500000 </v>
    <v>       0.37500000       0.62500000       0.87500000 </v>
    <v>       0.87500000       0.12500000       0.37500000 </v>
    <v>       0.87500000       0.12500000       0.87500000 </v>
    <v>       0.87500000       0.62500000       0.37500000 </v>
    <v>       0.87500000       0.62500000       0.87500000 </v>
    <v>       0.25000000       0.00000000       0.25000000 </v>
    <v>       0.25000000       0.00000000       0.75000000 </v>
    <v>       0.25000000       0.50000000       0.25000000 </v>
    <v>       0.25000000       0.50000000       0.75000000 </v>
    <v>       0.75000000       0.00000000       0.25000000 </v>
    <v>       0.75000000       0.00000000       0.75000000 </v>
    <v>       0.75000000       0.50000000       0.25000000 </v>
    <v>       0.75000000       0.50000000       0.75000000 </v>
    <v>       0.12500000       0.37500000       0.37500000 </v>
    <v>       0.12500000       0.37500000       0.87500000 </v>
    <v>       0.12500000       0.87500000       0.37500000 </v>
    <v>       0.12500000       0.87500000       0.87500000 </v>
    <v>       0.62500000       0.37500000       0.37500000 </v>
    <v>       0.62500000       0.37500000       0.87500000 </v>
    <v>       0.62500000       0.87500000       0.37500000 </v>
    <v>       0.62500000       0.87500000       0.87500000 </v>
    <v>       0.25000000       0.25000000       0.00000000 </v>
    <v>       0.25000000       0.25000000       0.50000000 </v>
    <v>       0.25000000       0.75000000       0.00000000 </v>
    <v>       0.25000000       0.75000000       0.50000000 </v>
    <v>       0.75000000       0.25000000       0.00000000 </v>
    <v>       0.75000000       0.25000000       0.50000000 </v>
    <v>       0.75000000       0.75000000       0.00000000 </v>
    <v>       0.75000000       0.75000000       0.50000000 </v>
    <v>       0.12500000       0.12500000       0.12500000 </v>
    <v>       0.12500000       0.12500000       0.62500000 </v>
    <v>       0.12500000       0.62500000       0.12500000 </v>
    <v>       0.12500000       0.62500000       0.62500000 </v>
    <v>       0.62500000       0.12500000       0.12500000 </v>
    <v>       0.62500000       0.12500000       0.62500000 </v>
    <v>       0.62500000       0.62500000       0.12500000 </v>
    <v>       0.62500000       0.62500000       0.62500000 </v>
   </varray>
  </structure>
  <varray name="forces" >
   <v>      -0.00000000       0.00000000      -0.06144756 </v>
   <v>      -0.00000000       0.00000000      -0.06144756 </v>
   <v>      -0.00000000      -0.00000000      -0.06144756 </v>
   <v>      -0.00000000      -0.00000000      -0.06144756 </v>
   <v>      -0.00000000      -0.00000000      -0.06144756 </v>
   <v>       0.00000000       0.00000000      -0.06144756 </v>
   <v>       0.00000000       0.00000000      -0.06144756 </v>
   <v>      -0.00000000       0.00000000      -0.06144756 </v>
   <v>       0.00000000      -0.00000000       0.06144756 </v>
   <v>       0.00000000      -0.00000000       0.06144756 </v>
   <v>       0.00000000       0.00000000       0.06144756 </v>
   <v>       0.00000000       0.00000000       0.06144756 </v>
   <v>       0.00000000      -0.00000000       0.06144756 </v>
   <v>       0.00000000      -0.00000000       0.06144756 </v>
   <v>       0.00000000      -0.00000000       0.06144756 </v>
   <v>      -0.00000000      -0.00000000       0.06144756 </v>
   <v>       0.00000000       0.00000000      -0.06144756 </v>
   <v>       0.00000000      -0.00000000      -0.06144756 </v>
   <v>       0.00000000      -0.00000000      -0.06144756 </v>
   <v>      -0.00000000      -0.00000000      -0.06144756 </v>
   <v>       0.00000000      -0.00000000      -0.06144756 </v>
   <v>       0.00000000      -0.00000000      -0.06144756 </v>
   <v>       0.00000000      -0.00000000      -0.06144756 </v>
   <v>       0.00000000       0.00000000      -0.06144756 </v>
   <v>      -0.00000000       0.00000000       0.06144756 </v>
   <v>      -0.00000000       0.00000000       0.06144756 </v>
   <v>      -0.00000000      -0.00000000       0.06144756 </v>
   <v>      -0.00000000      -0.00000000       0.06144756 </v>
   <v>      -0.00000000       0.00000000       0.06144756 </v>
   <v>      -0.00000000       0.00000000       0.06144756 </v>
   <v>      -0.00000000       0.00000000       0.06144756 </v>
   <v>      -0.00000000       0.00000000       0.06144756 </v>
   <v>      -0.00000000       0.00000000      -0.06144756 </v>
   <v>      -0.00000000       0.00000000      -0.06144756 </v>
   <v>      -0.00000000       0.00000000      -0.06144756 </v>
   <v>      -0.00000000       0.00000000      -0.06144756 </v>
   <v>      -0.00000000       0.00000000      -0.06144756 </v>
   <v>       0.00000000       0.00000000      -0.06144756 </v>
   <v>      -0.00000000      -0.00000000      -0.06144756 </v>
   <v>      -0.00000000       0.00000000      -0.06144756 </v>
   <v>       0.00000000      -0.00000000       0.06144756 </v>
   <v>       0.00000000      -0.00000000       0.06144756 </v>
   <v>       0.00000000       0.00000000       0.06144756 </v>
   <v>      -0.00000000       0.00000000       0.06144756 </v>
   <v>       0.00000000      -0.00000000       0.06144756 </v>
   <v>       0.00000000      -0.00000000       0.06144756 </v>
   <v>       0.00000000      -0.00000000       0.06144756 </v>
   <v>      -0.00000000      -0.00000000       0.06144756 </v>
   <v>       0.00000000      -0.00000000      -0.06144756 </v>
   <v>      -0.00000000      -0.00000000      -0.06144756 </v>
   <v>       0.00000000      -0.00000000      -0.06144756 </v>
   <v>       0.00000000       0.00000000      -0.06144756 </v>
   <v>       0.00000000      -0.00000000      -0.06144756 </v>
   <v>       0.00000000      -0.00000000      -0.06144756 </v>
   <v>       0.00000000      -0.00000000      -0.06144756 </v>
   <v>       0.00000000      -0.00000000      -0.06144756 </v>
   <v>      -0.00000000       0.00000000       0.06144756 </v>
   <v>      -0.00000000       0.00000000       0.06144756 </v>
   <v>      -0.00000000      -0.00000000       0.06144756 </v>
   <v>      -0.00000000      -0.00000000       0.06144756 </v>
   <v>      -0.00000000       0.00000000       0.06144756 </v>
   <v>       0.00000000       0.00000000       0.06144756 </v>
   <v>       0.00000000       0.00000000       0.06144756 </v>
   <v>       0.00000000       0.00000000       0.06144756 </v>
  </varray>
  <varray name="stress" >
   <v>      58.15125753       5.94562769       0.00000000 </v>
   <v>       5.94562765      54.00267687       0.00000000 </v>
   <v>       0.00000000       0.00000000      53.97035094 </v>
  </varray>
  <energy>
   <i name="e_fr_energy">   -366.51662906 </i>
   <i name="e_wo_entrp">   -366.54975395 </i>
   <i name="e_0_energy">   -366.52767069 </i>
  </energy>
  <time name="totalsc">   31.24   32.55</time>
 </calculation>
 <calculation>
  <scstep>
   <time name="dav">    1.36    1.37</time>
   <time name="total">    1.75    1.76</time>
   <energy>
    <i name="alphaZ">    113.10753871 </i>
    <i name="ewald">  -7435.59613664 </i>
    <i name="hartreedc">   -449.76510051 </i>
    <i name="XCdc">   -532.18362117 </i>
    <i name="pawpsdc">  30968.11265012 </i>
    <i name="pawaedc"> -29869.83216116 </i>
    <i name="eentropy">      0.03203157 </i>
    <i name="bandstr">    274.80987279 </i>
    <i name="atom">   6564.79586099 </i>
    <i name="e_fr_energy">   -366.51906530 </i>
    <i name="e_wo_entrp">   -366.55109687 </i>
    <i name="e_0_energy">   -366.52974249 </i>
   </energy>
  </scstep>
  <scstep>
   <time name="diag">    0.14    0.14</time>
   <time name="diis">    0.70    0.70</time>
   <time name="orth">    0.02    0.02</time>
   <time name="total">    1.24    1.27</time>
   <energy>
    <i name="e_fr_energy">   -366.51982276 </i>
    <i name="e_wo_entrp">   -366.55184940 </i>
    <i name="e_0_energy">   -366.53049831 </i>
   </energy>
  </scstep>
  <scstep>
   <time name="diag">    0.13    0.13</time>
   <time name="diis">    0.71    0.71</time>
   <time name="orth">    0.02    0.02</time>
   <time name="total">    1.24    1.27</time>
   <energy>
    <i name="e_fr_energy">   -366.51993107 </i>
    <i name="e_wo_entrp">   -366.55200136 </i>
    <i name="e_0_energy">   -366.53062117 </i>
   </energy>
  </scstep>
  <scstep>
   <time name="diag">    0.13    0.13</time>
   <time name="diis">    0.69    0.70</time>
   <time name="orth">    0.02    0.02</time>
   <time name="total">    1.22    1.26</time>
   <energy>
    <i name="e_fr_energy">   -366.51992878 </i>
    <i name="e_wo_entrp">   -366.55203850 </i>
    <i name="e_0_energy">   -366.53063202 </i>
   </energy>
  </scstep>
  <scstep>
   <time name="diag">    0.13    0.13</time>
   <time name="diis">    0.71    0.71</time>
   <time name="orth">    0.02    0.02</time>
   <time name="total">    1.25    1.27</time>
   <energy>
    <i name="e_fr_energy">   -366.51993021 </i>
    <i name="e_wo_entrp">   -366.55205432 </i>
    <i name="e_0_energy">   -366.53063824 </i>
   </energy>
  </scstep>
  <scstep>
   <time name="diag">    0.14    0.14</time>
   <time name="diis">    0.61    0.62</time>
   <time name="orth">    0.02    0.02</time>
   <time name="total">    1.16    1.18</time>
   <energy>
    <i name="e_fr_energy">   -366.51993093 </i>
    <i name="e_wo_entrp">   -366.55205459 </i>
    <i name="e_0_energy">   -366.53063881 </i>
   </energy>
  </scstep>
  <scstep>
   <time name="diag">    0.13    0.13</time>
   <time name="diis">    0.45    0.46</time>
   <time name="orth">    0.02    0.02</time>
   <time name="total">    0.99    1.02</time>
   <energy>
    <i name="e_fr_energy">   -366.51993102 </i>
    <i name="e_wo_entrp">   -366.55205435 </i>
    <i name="e_0_energy">   -366.53063879 </i>
   </energy>
  </scstep>
  <scstep>
   <time name="diag">    0.13    0.13</time>
   <time name="diis">    0.41    0.42</time>
   <time name="orth">    0.02    0.02</time>
   <time name="total">    0.72    0.74</time>
   <energy>
    <i name="alphaZ">    113.10753871 </i>
    <i name="ewald">  -7435.59613664 </i>
    <i name="hartreedc">   -449.73632857 </i>
    <i name="XCdc">   -532.18775734 </i>
    <i name="pawpsdc">  30963.15422913 </i>
    <i name="pawaedc"> -29864.87203482 </i>
    <i name="eentropy">      0.03212339 </i>
    <i name="bandstr">    274.78257411 </i>
    <i name="atom">   6564.79586099 </i>
    <i name="e_fr_energy">   -366.51993104 </i>
    <i name="e_wo_entrp">   -366.55205442 </i>
    <i name="e_0_energy">   -366.53063883 </i>
   </energy>
  </scstep>
  <structure>
   <crystal>
    <varray name="basis" >
     <v>      10.64691857      -0.02675100       0.00000000 </v>
     <v>      -0.02675100      10.70042058       0.00000000 </v>
     <v>       0.00000000       0.00000000      10.70042058 </v>
    </varray>
    <i name="volume">   1219.05387855 </i>
    <varray name="rec_basis" >
     <v>       0.09392448       0.00023481       0.00000000 </v>
     <v>       0.00023481       0.09345486       0.00000000 </v>
     <v>       0.00000000       0.00000000       0.09345427 </v>
    </varray>
   </crystal>
   <varray name="positions" >
    <v>       1.00000000       0.00000000       0.99972296 </v>
    <v>       1.00000000       0.00000000       0.49972296 </v>
    <v>       1.00000000       0.50000000       0.99972296 </v>
    <v>       1.00000000       0.50000000       0.49972296 </v>
    <v>       0.50000000       1.00000000       0.99972296 </v>
    <v>       0.50000000       0.00000000       0.49972296 </v>
    <v>       0.50000000       0.50000000       0.99972296 </v>
    <v>       0.50000000       0.50000000       0.49972296 </v>
    <v>       0.37500000       0.37500000       0.12527704 </v>
    <v>       0.37500000       0.37500000       0.62527704 </v>
    <v>       0.37500000       0.87500000       0.12527704 </v>
    <v>       0.37500000       0.87500000       0.62527704 </v>
    <v>       0.87500000       0.37500000       0.12527704 </v>
    <v>       0.87500000       0.37500000       0.62527704 </v>
    <v>       0.87500000       0.87500000       0.12527704 </v>
    <v>       0.87500000       0.87500000       0.62527704 </v>
    <v>       0.00000000       0.25000000       0.24972296 </v>
    <v>       0.00000000       0.25000000       0.74972296 </v>
    <v>       0.00000000       0.75000000       0.24972296 </v>
    <v>       1.00000000       0.75000000       0.74972296 </v>
    <v>       0.50000000       0.25000000       0.24972296 </v>
    <v>       0.50000000       0.25000000       0.74972296 </v>
    <v>       0.50000000       0.75000000       0.24972296 </v>
    <v>       0.50000000       0.75000000       0.74972296 </v>
    <v>       0.37500000       0.12500000       0.37527704 </v>
    <v>       0.37500000       0.12500000       0.87527704 </v>
    <v>       0.37500000       0.62500000       0.37527704 </v>
    <v>       0.37500000       0.62500000       0.87527704 </v>
    <v>       0.87500000       0.12500000       0.37527704 </v>
    <v>       0.87500000       0.12500000       0.87527704 </v>
    <v>       0.87500000       0.62500000       0.37527704 </v>
    <v>       0.87500000       0.62500000       0.87527704 </v>
    <v>       0.25000000       0.00000000       0.24972296 </v>
    <v>       0.25000000       0.00000000       0.74972296 </v>
    <v>       0.25000000       0.50000000       0.24972296 </v>
    <v>       0.25000000       0.50000000       0.74972296 </v>
    <v>       0.75000000       0.00000000       0.24972296 </v>
    <v>       0.75000000       0.00000000       0.74972296 </v>
    <v>       0.75000000       0.50000000       0.24972296 </v>
    <v>       0.75000000       0.50000000       0.74972296 </v>
    <v>       0.12500000       0.37500000       0.37527704 </v>
    <v>       0.12500000       0.37500000       0.87527704 </v>
    <v>       0.12500000       0.87500000       0.37527704 </v>
    <v>       0.12500000       0.87500000       0.87527704 </v>
    <v>       0.62500000       0.37500000       0.37527704 </v>
    <v>       0.62500000       0.37500000       0.87527704 </v>
    <v>       0.62500000       0.87500000       0.37527704 </v>
    <v>       0.62500000       0.87500000       0.87527704 </v>
    <v>       0.25000000       0.25000000       0.99972296 </v>
    <v>       0.25000000       0.25000000       0.49972296 </v>
    <v>       0.25000000       0.75000000       0.99972296 </v>
    <v>       0.25000000       0.75000000       0.49972296 </v>
    <v>       0.75000000       0.25000000       0.99972296 </v>
    <v>       0.75000000       0.25000000       0.49972296 </v>
    <v>       0.75000000       0.75000000       0.99972296 </v>
    <v>       0.75000000       0.75000000       0.49972296 </v>
    <v>       0.12500000       0.12500000       0.12527704 </v>
    <v>       0.12500000       0.12500000       0.62527704 </v>
    <v>       0.12500000       0.62500000       0.12527704 </v>
    <v>       0.12500000       0.62500000       0.62527704 </v>
    <v>       0.62500000       0.12500000       0.12527704 </v>
    <v>       0.62500000       0.12500000       0.62527704 </v>
    <v>       0.62500000       0.62500000       0.12527704 </v>
    <v>       0.62500000       0.62500000       0.62527704 </v>
   </varray>
  </structure>
  <varray name="forces" >
   <v>       0.00000000      -0.00000000       0.02666309 </v>
   <v>       0.00000000      -0.00000000       0.02666309 </v>
   <v>      -0.00000000       0.00000000       0.02666309 </v>
   <v>      -0.00000000       0.00000000       0.02666309 </v>
   <v>       0.00000000      -0.00000000       0.02666309 </v>
   <v>       0.00000000      -0.00000000       0.02666309 </v>
   <v>      -0.00000000       0.00000000       0.02666309 </v>
   <v>       0.00000000       0.00000000       0.02666309 </v>
   <v>      -0.00000000       0.00000000      -0.02666309 </v>
   <v>      -0.00000000       0.00000000      -0.02666309 </v>
   <v>      -0.00000000      -0.00000000      -0.02666309 </v>
   <v>       0.00000000      -0.00000000      -0.02666309 </v>
   <v>       0.00000000      -0.00000000      -0.02666309 </v>
   <v>      -0.00000000      -0.00000000      -0.02666309 </v>
   <v>       0.00000000      -0.00000000      -0.02666309 </v>
   <v>       0.00000000      -0.00000000      -0.02666309 </v>
   <v>       0.00000000       0.00000000       0.02666309 </v>
   <v>       0.00000000      -0.00000000       0.02666309 </v>
   <v>      -0.00000000       0.00000000       0.02666309 </v>
   <v>      -0.00000000      -0.00000000       0.02666309 </v>
   <v>      -0.00000000      -0.00000000       0.02666309 </v>
   <v>       0.00000000       0.00000000       0.02666309 </v>
   <v>      -0.00000000       0.00000000       0.02666309 </v>
   <v>      -0.00000000      -0.00000000       0.02666309 </v>
   <v>       0.00000000       0.00000000      -0.02666309 </v>
   <v>       0.00000000      -0.00000000      -0.02666309 </v>
   <v>      -0.00000000      -0.00000000      -0.02666309 </v>
   <v>       0.00000000       0.00000000      -0.02666309 </v>
   <v>      -0.00000000      -0.00000000      -0.02666309 </v>
   <v>      -0.00000000      -0.00000000      -0.02666309 </v>
   <v>      -0.00000000       0.00000000      -0.02666309 </v>
   <v>       0.00000000       0.00000000      -0.02666309 </v>
   <v>       0.00000000      -0.00000000       0.02666309 </v>
   <v>       0.00000000      -0.00000000       0.02666309 </v>
   <v>       0.00000000       0.00000000       0.02666309 </v>
   <v>       0.00000000       0.00000000       0.02666309 </v>
   <v>       0.00000000      -0.00000000       0.02666309 </v>
   <v>       0.00000000       0.00000000       0.02666309 </v>
   <v>      -0.00000000      -0.00000000       0.02666309 </v>
   <v>      -0.00000000       0.00000000       0.02666309 </v>
   <v>      -0.00000000      -0.00000000      -0.02666309 </v>
   <v>      -0.00000000      -0.00000000      -0.02666309 </v>
   <v>       0.00000000      -0.00000000      -0.02666309 </v>
   <v>       0.00000000       0.00000000      -0.02666309 </v>
   <v>       0.00000000       0.00000000      -0.02666309 </v>
   <v>      -0.00000000       0.00000000      -0.02666309 </v>
   <v>      -0.00000000      -0.00000000      -0.02666309 </v>
   <v>       0.00000000      -0.00000000      -0.02666309 </v>
   <v>      -0.00000000      -0.00000000       0.02666309 </v>
   <v>       0.00000000       0.00000000       0.02666309 </v>
   <v>      -0.00000000       0.00000000       0.02666309 </v>
   <v>      -0.00000000       0.00000000       0.02666309 </v>
   <v>       0.00000000       0.00000000       0.02666309 </v>
   <v>       0.00000000       0.00000000       0.02666309 </v>
   <v>      -0.00000000       0.00000000       0.02666309 </v>
   <v>      -0.00000000      -0.00000000       0.02666309 </v>
   <v>       0.00000000      -0.00000000      -0.02666309 </v>
   <v>      -0.00000000      -0.00000000      -0.02666309 </v>
   <v>      -0.00000000       0.00000000      -0.02666309 </v>
   <v>       0.00000000      -0.00000000      -0.02666309 </v>
   <v>       0.00000000      -0.00000000      -0.02666309 </v>
   <v>      -0.00000000      -0.00000000      -0.02666309 </v>
   <v>      -0.00000000       0.00000000      -0.02666309 </v>
   <v>      -0.00000000       0.00000000      -0.02666309 </v>
  </varray>
  <varray name="stress" >
   <v>      58.14457098       2.89089586       0.00000000 </v>
   <v>       2.89089582      53.99861169       0.00000000 </v>
   <v>       0.00000000       0.00000000      53.91911032 </v>
  </varray>
  <energy>
   <i name="e_fr_energy">   -366.51993104 </i>
   <i name="e_wo_entrp">   -366.55205442 </i>
   <i name="e_0_energy">   -366.53063883 </i>
  </energy>
  <time name="totalsc">   13.14   13.37</time>
 </calculation>
 <calculation>
  <scstep>
   <time name="dav">    1.26    1.26</time>
   <time name="total">    1.64    1.64</time>
   <energy>
    <i name="alphaZ">    113.10753871 </i>
    <i name="ewald">  -7435.58013316 </i>
    <i name="hartreedc">   -449.74583084 </i>
    <i name="XCdc">   -532.18732324 </i>
    <i name="pawpsdc">  30963.10019810 </i>
    <i name="pawaedc"> -29864.81800019 </i>
    <i name="eentropy">      0.03257185 </i>
    <i name="bandstr">    274.77449729 </i>
    <i name="atom">   6564.79586099 </i>
    <i name="e_fr_energy">   -366.52062049 </i>
    <i name="e_wo_entrp">   -366.55319235 </i>
    <i name="e_0_energy">   -366.53147778 </i>
   </energy>
  </scstep>
  <scstep>
   <time name="diag">    0.13    0.13</time>
   <time name="diis">    0.71    0.72</time>
   <time name="orth">    0.02    0.02</time>
   <time name="total">    1.26    1.28</time>
   <energy>
    <i name="e_fr_energy">   -366.52068900 </i>
    <i name="e_wo_entrp">   -366.55326173 </i>
    <i name="e_0_energy">   -366.53154658 </i>
   </energy>
  </scstep>
  <scstep>
   <time name="diag">    0.13    0.13</time>
   <time name="diis">    0.71    0.71</time>
   <time name="orth">    0.02    0.02</time>
   <time name="total">    1.25    1.27</time>
   <energy>
    <i name="e_fr_energy">   -366.52069855 </i>
    <i name="e_wo_entrp">   -366.55326140 </i>
    <i name="e_0_energy">   -366.53155283 </i>
   </energy>
  </scstep>
  <scstep>
   <time name="diag">    0.13    0.13</time>
   <time name="diis">    0.72    0.72</time>
   <time name="orth">    0.02    0.02</time>
   <time name="total">    1.25    1.27</time>
   <energy>
    <i name="e_fr_energy">   -366.52069844 </i>
    <i name="e_wo_entrp">   -366.55325240 </i>
    <i name="e_0_energy">   -366.53154976 </i>
   </energy>
  </scstep>
  <scstep>
   <time name="diag">    0.13    0.13</time>
   <time name="diis">    0.51    0.51</time>
   <time name="orth">    0.02    0.02</time>
   <time name="total">    1.06    1.06</time>
   <energy>
    <i name="e_fr_energy">   -366.52069856 </i>
    <i name="e_wo_entrp">   -366.55324913 </i>
    <i name="e_0_energy">   -366.53154875 </i>
   </energy>
  </scstep>
  <scstep>
   <time name="diag">    0.13    0.13</time>
   <time name="diis">    0.44    0.44</time>
   <time name="orth">    0.02    0.02</time>
   <time name="total">    0.99    0.99</time>
   <energy>
    <i name="e_fr_energy">   -366.52069861 </i>
    <i name="e_wo_entrp">   -366.55324931 </i>
    <i name="e_0_energy">   -366.53154885 </i>
   </energy>
  </scstep>
  <scstep>
   <time name="diag">    0.13    0.13</time>
   <time name="diis">    0.39    0.39</time>
   <time name="orth">    0.02    0.02</time>
   <time name="total">    0.92    0.94</time>
   <energy>
    <i name="e_fr_energy">   -366.52069862 </i>
    <i name="e_wo_entrp">   -366.55324938 </i>
    <i name="e_0_energy">   -366.53154887 </i>
   </energy>
  </scstep>
  <scstep>
   <time name="diag">    0.13    0.13</time>
   <time name="diis">    0.33    0.34</time>
   <time name="orth">    0.02    0.02</time>
   <time name="total">    0.63    0.65</time>
   <energy>
    <i name="alphaZ">    113.10753871 </i>
    <i name="ewald">  -7435.58013316 </i>
    <i name="hartreedc">   -449.75086217 </i>
    <i name="XCdc">   -532.18657865 </i>
    <i name="pawpsdc">  30963.95878413 </i>
    <i name="pawaedc"> -29865.67698527 </i>
    <i name="eentropy">      0.03255075 </i>
    <i name="bandstr">    274.77912604 </i>
    <i name="atom">   6564.79586099 </i>
    <i name="e_fr_energy">   -366.52069863 </i>
    <i name="e_wo_entrp">   -366.55324938 </i>
    <i name="e_0_energy">   -366.53154888 </i>
   </energy>
  </scstep>
  <structure>
   <crystal>
    <varray name="basis" >
     <v>      10.64691857      -0.02675100       0.00000000 </v>
     <v>      -0.02675100      10.70042058       0.00000000 </v>
     <v>       0.00000000       0.00000000      10.70042058 </v>
    </varray>
    <i name="volume">   1219.05387855 </i>
    <varray name="rec_basis" >
     <v>       0.09392448       0.00023481       0.00000000 </v>
     <v>       0.00023481       0.09345486       0.00000000 </v>
     <v>       0.00000000       0.00000000       0.09345427 </v>
    </varray>
   </crystal>
   <varray name="positions" >
    <v>       0.00000000       0.00000000       0.99980680 </v>
    <v>       0.00000000       0.00000000       0.49980680 </v>
    <v>       0.00000000       0.50000000       0.99980680 </v>
    <v>       0.00000000       0.50000000       0.49980680 </v>
    <v>       0.50000000       0.00000000       0.99980680 </v>
    <v>       0.50000000       0.00000000       0.49980680 </v>
    <v>       0.50000000       0.50000000       0.99980680 </v>
    <v>       0.50000000       0.50000000       0.49980680 </v>
    <v>       0.37500000       0.37500000       0.12519320 </v>
    <v>       0.37500000       0.37500000       0.62519320 </v>
    <v>       0.37500000       0.87500000       0.12519320 </v>
    <v>       0.37500000       0.87500000       0.62519320 </v>
    <v>       0.87500000       0.37500000       0.12519320 </v>
    <v>       0.87500000       0.37500000       0.62519320 </v>
    <v>       0.87500000       0.87500000       0.12519320 </v>
    <v>       0.87500000       0.87500000       0.62519320 </v>
    <v>       0.00000000       0.25000000       0.24980680 </v>
    <v>       0.00000000       0.25000000       0.74980680 </v>
    <v>       0.00000000       0.75000000       0.24980680 </v>
    <v>       0.00000000       0.75000000       0.74980680 </v>
    <v>       0.50000000       0.25000000       0.24980680 </v>
    <v>       0.50000000       0.25000000       0.74980680 </v>
    <v>       0.50000000       0.75000000       0.24980680 </v>
    <v>       0.50000000       0.75000000       0.74980680 </v>
    <v>       0.37500000       0.12500000       0.37519320 </v>
    <v>       0.37500000       0.12500000       0.87519320 </v>
    <v>       0.37500000       0.62500000       0.37519320 </v>
    <v>       0.37500000       0.62500000       0.87519320 </v>
    <v>       0.87500000       0.12500000       0.37519320 </v>
    <v>       0.87500000       0.12500000       0.87519320 </v>
    <v>       0.87500000       0.62500000       0.37519320 </v>
    <v>       0.87500000       0.62500000       0.87519320 </v>
    <v>       0.25000000       0.00000000       0.24980680 </v>
    <v>       0.25000000       0.00000000       0.74980680 </v>
    <v>       0.25000000       0.50000000       0.24980680 </v>
    <v>       0.25000000       0.50000000       0.74980680 </v>
    <v>       0.75000000       0.00000000       0.24980680 </v>
    <v>       0.75000000       0.00000000       0.74980680 </v>
    <v>       0.75000000       0.50000000       0.24980680 </v>
    <v>       0.75000000       0.50000000       0.74980680 </v>
    <v>       0.12500000       0.37500000       0.37519320 </v>
    <v>       0.12500000       0.37500000       0.87519320 </v>
    <v>       0.12500000       0.87500000       0.37519320 </v>
    <v>       0.12500000       0.87500000       0.87519320 </v>
    <v>       0.62500000       0.37500000       0.37519320 </v>
    <v>       0.62500000       0.37500000       0.87519320 </v>
    <v>       0.62500000       0.87500000       0.37519320 </v>
    <v>       0.62500000       0.87500000       0.87519320 </v>
    <v>       0.25000000       0.25000000       0.99980680 </v>
    <v>       0.25000000       0.25000000       0.49980680 </v>
    <v>       0.25000000       0.75000000       0.99980680 </v>
    <v>       0.25000000       0.75000000       0.49980680 </v>
    <v>       0.75000000       0.25000000       0.99980680 </v>
    <v>       0.75000000       0.25000000       0.49980680 </v>
    <v>       0.75000000       0.75000000       0.99980680 </v>
    <v>       0.75000000       0.75000000       0.49980680 </v>
    <v>       0.12500000       0.12500000       0.12519320 </v>
    <v>       0.12500000       0.12500000       0.62519320 </v>
    <v>       0.12500000       0.62500000       0.12519320 </v>
    <v>       0.12500000       0.62500000       0.62519320 </v>
    <v>       0.62500000       0.12500000       0.12519320 </v>
    <v>       0.62500000       0.12500000       0.62519320 </v>
    <v>       0.62500000       0.62500000       0.12519320 </v>
    <v>       0.62500000       0.62500000       0.62519320 </v>
   </varray>
  </structure>
  <varray name="forces" >
   <v>      -0.00000000       0.00000000      -0.00002428 </v>
   <v>      -0.00000000       0.00000000      -0.00002428 </v>
   <v>       0.00000000       0.00000000      -0.00002428 </v>
   <v>      -0.00000000       0.00000000      -0.00002428 </v>
   <v>       0.00000000      -0.00000000      -0.00002428 </v>
   <v>       0.00000000      -0.00000000      -0.00002428 </v>
   <v>      -0.00000000       0.00000000      -0.00002428 </v>
   <v>      -0.00000000       0.00000000      -0.00002428 </v>
   <v>       0.00000000       0.00000000       0.00002428 </v>
   <v>       0.00000000      -0.00000000       0.00002428 </v>
   <v>      -0.00000000      -0.00000000       0.00002428 </v>
   <v>      -0.00000000      -0.00000000       0.00002428 </v>
   <v>      -0.00000000       0.00000000       0.00002428 </v>
   <v>       0.00000000       0.00000000       0.00002428 </v>
   <v>      -0.00000000      -0.00000000       0.00002428 </v>
   <v>      -0.00000000       0.00000000       0.00002428 </v>
   <v>      -0.00000000       0.00000000      -0.00002428 </v>
   <v>      -0.00000000       0.00000000      -0.00002428 </v>
   <v>      -0.00000000      -0.00000000      -0.00002428 </v>
   <v>       0.00000000       0.00000000      -0.00002428 </v>
   <v>       0.00000000       0.00000000      -0.00002428 </v>
   <v>       0.00000000      -0.00000000      -0.00002428 </v>
   <v>       0.00000000       0.00000000      -0.00002428 </v>
   <v>      -0.00000000       0.00000000      -0.00002428 </v>
   <v>      -0.00000000      -0.00000000       0.00002428 </v>
   <v>      -0.00000000       0.00000000       0.00002428 </v>
   <v>       0.00000000       0.00000000       0.00002428 </v>
   <v>       0.00000000      -0.00000000       0.00002428 </v>
   <v>      -0.00000000      -0.00000000       0.00002428 </v>
   <v>       0.00000000      -0.00000000       0.00002428 </v>
   <v>       0.00000000       0.00000000       0.00002428 </v>
   <v>      -0.00000000      -0.00000000       0.00002428 </v>
   <v>       0.00000000       0.00000000      -0.00002428 </v>
   <v>      -0.00000000      -0.00000000      -0.00002428 </v>
   <v>      -0.00000000       0.00000000      -0.00002428 </v>
   <v>      -0.00000000      -0.00000000      -0.00002428 </v>
   <v>       0.00000000      -0.00000000      -0.00002428 </v>
   <v>       0.00000000      -0.00000000      -0.00002428 </v>
   <v>      -0.00000000      -0.00000000      -0.00002428 </v>
   <v>      -0.00000000       0.00000000      -0.00002428 </v>
   <v>       0.00000000      -0.00000000       0.00002428 </v>
   <v>       0.00000000       0.00000000       0.00002428 </v>
   <v>      -0.00000000       0.00000000       0.00002428 </v>
   <v>      -0.00000000      -0.00000000       0.00002428 </v>
   <v>       0.00000000       0.00000000       0.00002428 </v>
   <v>       0.00000000       0.00000000       0.00002428 </v>
   <v>       0.00000000       0.00000000       0.00002428 </v>
   <v>       0.00000000      -0.00000000       0.00002428 </v>
   <v>       0.00000000      -0.00000000      -0.00002428 </v>
   <v>       0.00000000      -0.00000000      -0.00002428 </v>
   <v>      -0.00000000       0.00000000      -0.00002428 </v>
   <v>      -0.00000000       0.00000000      -0.00002428 </v>
   <v>       0.00000000      -0.00000000      -0.00002428 </v>
   <v>      -0.00000000       0.00000000      -0.00002428 </v>
   <v>       0.00000000      -0.00000000      -0.00002428 </v>
   <v>       0.00000000      -0.00000000      -0.00002428 </v>
   <v>      -0.00000000      -0.00000000       0.00002428 </v>
   <v>      -0.00000000      -0.00000000       0.00002428 </v>
   <v>      -0.00000000       0.00000000       0.00002428 </v>
   <v>       0.00000000      -0.00000000       0.00002428 </v>
   <v>      -0.00000000       0.00000000       0.00002428 </v>
   <v>      -0.00000000      -0.00000000       0.00002428 </v>
   <v>       0.00000000       0.00000000       0.00002428 </v>
   <v>       0.00000000      -0.00000000       0.00002428 </v>
  </varray>
  <varray name="stress" >
   <v>      58.14651813       3.81835889       0.00000000 </v>
   <v>       3.81835886      54.00210387       0.00000000 </v>
   <v>       0.00000000       0.00000000      53.94798622 </v>
  </varray>
  <energy>
   <i name="e_fr_energy">   -366.52069863 </i>
   <i name="e_wo_entrp">   -366.55324938 </i>
   <i name="e_0_energy">   -366.53154888 </i>
  </energy>
  <time name="totalsc">   12.38   12.50</time>
  <eigenvalues>
   <array>
    <dimension dim="1">band</dimension>
    <dimension dim="2">kpoint</dimension>
    <dimension dim="3">spin</dimension>
    <field>eigene</field>
    <field>occ</field>
    <set>
     <set comment="spin 1">
      <set comment="kpoint 1">
       <r>   -6.0336    1.0000 </r>
       <r>   -4.9034    1.0000 </r>
       <r>   -4.9034    1.0000 </r>
       <r>   -4.9034    1.0000 </r>
       <r>   -4.9034    1.0000 </r>
       <r>   -4.8936    1.0000 </r>
       <r>   -4.8936    1.0000 </r>
       <r>   -3.8924    1.0000 </r>
       <r>   -3.8924    1.0000 </r>
       <r>   -3.8872    1.0000 </r>
       <r>   -3.8872    1.0000 </r>
       <r>   -3.8872    1.0000 </r>
       <r>   -3.8872    1.0000 </r>
       <r>   -3.8802    1.0000 </r>
       <r>   -3.8802    1.0000 </r>
       <r>   -3.8802    1.0000 </r>
       <r>   -3.8802    1.0000 </r>
       <r>   -3.8679    1.0000 </r>
       <r>   -3.8679    1.0000 </r>
       <r>   -3.5664    1.0000 </r>
       <r>   -3.5664    1.0000 </r>
       <r>   -3.5408    1.0000 </r>
       <r>   -3.5408    1.0000 </r>
       <r>   -1.7061    1.0000 </r>
       <r>   -1.6984    1.0000 </r>
       <r>   -1.6984    1.0000 </r>
       <r>   -1.6910    1.0000 </r>
       <r>   -1.6664    1.0000 </r>
       <r>   -1.6664    1.0000 </r>
       <r>   -1.5139    1.0000 </r>
       <r>   -1.5139    1.0000 </r>
       <r>   -1.5029    1.0000 </r>
       <r>   -1.5029    1.0000 </r>
       <r>   -1.4896    1.0000 </r>
       <r>   -1.4896    1.0000 </r>
       <r>   -1.4896    1.0000 </r>
       <r>   -1.4896    1.0000 </r>
       <r>   -1.4870    1.0000 </r>
       <r>   -1.4870    1.0000 </r>
       <r>   -1.4764    1.0000 </r>
       <r>   -1.4764    1.0000 </r>
       <r>   -0.9577    1.0000 </r>
       <r>   -0.9576    1.0000 </r>
       <r>   -0.9449    1.0000 </r>
       <r>   -0.9449    1.0000 </r>
       <r>    0.7086    1.0000 </r>
       <r>    0.7086    1.0000 </r>
       <r>    0.7128    1.0000 </r>
       <r>    0.7128    1.0000 </r>
       <r>    0.7128    1.0000 </r>
       <r>    0.7128    1.0000 </r>
       <r>    0.7171    1.0000 </r>
       <r>    0.7171    1.0000 </r>
       <r>    0.7321    1.0000 </r>
       <r>    0.7321    1.0000 </r>
       <r>    0.7321    1.0000 </r>
       <r>    0.7321    1.0000 </r>
       <r>    2.1738    1.0000 </r>
       <r>    2.1738    1.0000 </r>
       <r>    2.1769    1.0000 </r>
       <r>    2.1769    1.0000 </r>
       <r>    2.1834    1.0000 </r>
       <r>    2.1834    1.0000 </r>
       <r>    2.1834    1.0000 </r>
       <r>    2.1834    1.0000 </r>
       <r>    2.1867    1.0000 </r>
       <r>    2.1867    1.0000 </r>
       <r>    2.1901    1.0000 </r>
       <r>    2.1901    1.0000 </r>
       <r>    2.2927    1.0000 </r>
       <r>    2.2927    1.0000 </r>
       <r>    2.2976    1.0000 </r>
       <r>    2.2976    1.0000 </r>
       <r>    2.2976    1.0000 </r>
       <r>    2.2976    1.0000 </r>
       <r>    2.3020    1.0000 </r>
       <r>    2.3020    1.0000 </r>
       <r>    2.3268    1.0000 </r>
       <r>    2.3268    1.0000 </r>
       <r>    2.3268    1.0000 </r>
       <r>    2.3268    1.0000 </r>
       <r>    2.7834    1.0000 </r>
       <r>    2.7834    1.0000 </r>
       <r>    2.7837    1.0000 </r>
       <r>    2.7837    1.0000 </r>
       <r>    2.8213    1.0000 </r>
       <r>    2.8213    1.0000 </r>
       <r>    3.2740    1.0000 </r>
       <r>    3.2740    1.0000 </r>
       <r>    3.2786    1.0000 </r>
       <r>    3.3143    1.0000 </r>
       <r>    3.3143    1.0000 </r>
       <r>    3.3502    1.0000 </r>
       <r>    4.2813    1.0000 </r>
       <r>    4.2813    1.0000 </r>
       <r>    4.2844    1.0000 </r>
       <r>    4.2844    1.0000 </r>
       <r>    4.2845    1.0000 </r>
       <r>    4.2845    1.0000 </r>
       <r>    4.3100    1.0000 </r>
       <r>    4.3100    1.0000 </r>
       <r>    4.3213    1.0000 </r>
       <r>    4.3213    1.0000 </r>
       <r>    4.3503    1.0000 </r>
       <r>    4.3503    1.0000 </r>
       <r>    4.8873    1.0000 </r>
       <r>    4.8874    1.0000 </r>
       <r>    4.8874    1.0000 </r>
       <r>    4.8874    1.0000 </r>
       <r>    4.9037    1.0000 </r>
       <r>    4.9037    1.0000 </r>
       <r>    4.9291    1.0000 </r>
       <r>    4.9291    1.0000 </r>
       <r>    4.9291    1.0000 </r>
       <r>    4.9291    1.0000 </r>
       <r>    4.9549    1.0000 </r>
       <r>    4.9549    1.0000 </r>
       <r>    5.0249    1.0000 </r>
       <r>    5.0249    1.0000 </r>
       <r>    5.0457    1.0000 </r>
       <r>    5.0457    1.0000 </r>
       <r>    5.0688    1.0000 </r>
       <r>    5.0688    1.0000 </r>
       <r>    5.1086    1.0000 </r>
       <r>    5.1086    1.0000 </r>
       <r>    6.2825    1.0313 </r>
       <r>    6.2974    1.0338 </r>
       <r>    6.3489    1.0316 </r>
       <r>    6.7670   -0.0261 </r>
       <r>    6.7670   -0.0261 </r>
       <r>    6.7686   -0.0268 </r>
       <r>    6.8082   -0.0354 </r>
       <r>    6.8082   -0.0354 </r>
       <r>    6.8478   -0.0313 </r>
       <r>    7.2655   -0.0000 </r>
       <r>    7.2655   -0.0000 </r>
       <r>    7.3059   -0.0000 </r>
       <r>    7.3059   -0.0000 </r>
       <r>    7.3062   -0.0000 </r>
       <r>    7.3063   -0.0000 </r>
       <r>    7.9238   -0.0000 </r>
       <r>    7.9238   -0.0000 </r>
       <r>    7.9756   -0.0000 </r>
       <r>    7.9756   -0.0000 </r>
       <r>    8.6623   -0.0000 </r>
       <r>    8.6623   -0.0000 </r>
       <r>    8.6623   -0.0000 </r>
       <r>    8.6623   -0.0000 </r>
       <r>    8.6824   -0.0000 </r>
       <r>    8.6824   -0.0000 </r>
       <r>    8.7104   -0.0000 </r>
       <r>    8.7104   -0.0000 </r>
       <r>    8.7104   -0.0000 </r>
       <r>    8.7104   -0.0000 </r>
       <r>    8.7385   -0.0000 </r>
       <r>    8.7385   -0.0000 </r>
       <r>    8.8113   -0.0000 </r>
       <r>    8.8478   -0.0000 </r>
       <r>    8.8714   -0.0000 </r>
       <r>    9.3048   -0.0000 </r>
       <r>    9.3053   -0.0000 </r>
       <r>    9.3110   -0.0000 </r>
      </set>
      <set comment="kpoint 2">
       <r>   -5.7461    1.0000 </r>
       <r>   -5.7461    1.0000 </r>
       <r>   -4.6468    1.0000 </r>
       <r>   -4.6468    1.0000 </r>
       <r>   -4.6404    1.0000 </r>
       <r>   -4.6404    1.0000 </r>
       <r>   -4.6404    1.0000 </r>
       <r>   -4.6404    1.0000 </r>
       <r>   -4.6340    1.0000 </r>
       <r>   -4.6340    1.0000 </r>
       <r>   -3.7468    1.0000 </r>
       <r>   -3.7468    1.0000 </r>
       <r>   -3.7468    1.0000 </r>
       <r>   -3.7468    1.0000 </r>
       <r>   -3.7311    1.0000 </r>
       <r>   -3.7311    1.0000 </r>
       <r>   -3.7311    1.0000 </r>
       <r>   -3.7311    1.0000 </r>
       <r>   -3.5101    1.0000 </r>
       <r>   -3.5101    1.0000 </r>
       <r>   -2.7540    1.0000 </r>
       <r>   -2.7540    1.0000 </r>
       <r>   -2.7379    1.0000 </r>
       <r>   -2.7379    1.0000 </r>
       <r>   -2.7379    1.0000 </r>
       <r>   -2.7379    1.0000 </r>
       <r>   -2.7218    1.0000 </r>
       <r>   -2.7218    1.0000 </r>
       <r>   -1.6152    1.0000 </r>
       <r>   -1.6152    1.0000 </r>
       <r>   -1.6148    1.0000 </r>
       <r>   -1.6148    1.0000 </r>
       <r>   -1.5956    1.0000 </r>
       <r>   -1.5956    1.0000 </r>
       <r>   -1.5951    1.0000 </r>
       <r>   -1.5951    1.0000 </r>
       <r>   -0.3967    1.0000 </r>
       <r>   -0.3967    1.0000 </r>
       <r>   -0.3930    1.0000 </r>
       <r>   -0.3930    1.0000 </r>
       <r>   -0.3930    1.0000 </r>
       <r>   -0.3930    1.0000 </r>
       <r>   -0.3895    1.0000 </r>
       <r>   -0.3895    1.0000 </r>
       <r>   -0.3037    1.0000 </r>
       <r>   -0.3037    1.0000 </r>
       <r>   -0.3037    1.0000 </r>
       <r>   -0.3037    1.0000 </r>
       <r>   -0.2837    1.0000 </r>
       <r>   -0.2837    1.0000 </r>
       <r>   -0.2836    1.0000 </r>
       <r>   -0.2836    1.0000 </r>
       <r>    0.5084    1.0000 </r>
       <r>    0.5084    1.0000 </r>
       <r>    1.7801    1.0000 </r>
       <r>    1.7801    1.0000 </r>
       <r>    1.7825    1.0000 </r>
       <r>    1.7825    1.0000 </r>
       <r>    1.7825    1.0000 </r>
       <r>    1.7825    1.0000 </r>
       <r>    1.7847    1.0000 </r>
       <r>    1.7847    1.0000 </r>
       <r>    1.9470    1.0000 </r>
       <r>    1.9470    1.0000 </r>
       <r>    1.9538    1.0000 </r>
       <r>    1.9538    1.0000 </r>
       <r>    1.9538    1.0000 </r>
       <r>    1.9538    1.0000 </r>
       <r>    1.9614    1.0000 </r>
       <r>    1.9614    1.0000 </r>
       <r>    2.6465    1.0000 </r>
       <r>    2.6465    1.0000 </r>
       <r>    2.6677    1.0000 </r>
       <r>    2.6677    1.0000 </r>
       <r>    2.6726    1.0000 </r>
       <r>    2.6726    1.0000 </r>
       <r>    2.6941    1.0000 </r>
       <r>    2.6941    1.0000 </r>
       <r>    3.4044    1.0000 </r>
       <r>    3.4044    1.0000 </r>
       <r>    3.4125    1.0000 </r>
       <r>    3.4125    1.0000 </r>
       <r>    3.4125    1.0000 </r>
       <r>    3.4125    1.0000 </r>
       <r>    3.4198    1.0000 </r>
       <r>    3.4198    1.0000 </r>
       <r>    3.5316    1.0000 </r>
       <r>    3.5316    1.0000 </r>
       <r>    3.5317    1.0000 </r>
       <r>    3.5317    1.0000 </r>
       <r>    3.5539    1.0000 </r>
       <r>    3.5539    1.0000 </r>
       <r>    3.5724    1.0000 </r>
       <r>    3.5724    1.0000 </r>
       <r>    3.5724    1.0000 </r>
       <r>    3.5724    1.0000 </r>
       <r>    3.5911    1.0000 </r>
       <r>    3.5911    1.0000 </r>
       <r>    3.7331    1.0000 </r>
       <r>    3.7331    1.0000 </r>
       <r>    3.7331    1.0000 </r>
       <r>    3.7331    1.0000 </r>
       <r>    3.7721    1.0000 </r>
       <r>    3.7721    1.0000 </r>
       <r>    3.7721    1.0000 </r>
       <r>    3.7721    1.0000 </r>
       <r>    4.7963    1.0000 </r>
       <r>    4.7963    1.0000 </r>
       <r>    4.8100    1.0000 </r>
       <r>    4.8100    1.0000 </r>
       <r>    4.8100    1.0000 </r>
       <r>    4.8100    1.0000 </r>
       <r>    4.8239    1.0000 </r>
       <r>    4.8239    1.0000 </r>
       <r>    4.9522    1.0000 </r>
       <r>    4.9522    1.0000 </r>
       <r>    4.9522    1.0000 </r>
       <r>    4.9522    1.0000 </r>
       <r>    4.9658    1.0000 </r>
       <r>    4.9658    1.0000 </r>
       <r>    4.9658    1.0000 </r>
       <r>    4.9658    1.0000 </r>
       <r>    5.0367    1.0000 </r>
       <r>    5.0367    1.0000 </r>
[...]
      </set>
     </set>
    </set>
   </array>
  </eigenvalues>
  <separator name="orbital magnetization" >
   <v name="MAGDIPOLOUT">      0.00000000      0.00000000      0.00000000</v>
  </separator>
  <dos>
   <i name="efermi">      6.56516010 </i>
   <total>
    <array>
     <dimension dim="1">gridpoints</dimension>
     <dimension dim="2">spin</dimension>
     <field>energy</field>
     <field>total</field>
     <field>integrated</field>
     <set>
      <set comment="spin 1">
       <r>    -8.0336     0.0000     0.0000 </r>
       <r>    -7.9675     0.0000     0.0000 </r>
       <r>    -7.9014     0.0000     0.0000 </r>
       <r>    -7.8353     0.0000     0.0000 </r>
       <r>    -7.7692     0.0000     0.0000 </r>
       <r>    -7.7031     0.0000     0.0000 </r>
       <r>    -7.6370    -0.0000    -0.0000 </r>
       <r>    -7.5709    -0.0000    -0.0000 </r>
       <r>    -7.5048    -0.0000    -0.0000 </r>
       <r>    -7.4387    -0.0000    -0.0000 </r>
       <r>    -7.3726    -0.0000    -0.0000 </r>
       <r>    -7.3065    -0.0000    -0.0000 </r>
       <r>    -7.2404    -0.0000    -0.0000 </r>
       <r>    -7.1743    -0.0000    -0.0000 </r>
       <r>    -7.1082    -0.0000    -0.0000 </r>
       <r>    -7.0421    -0.0000    -0.0000 </r>
       <r>    -6.9760    -0.0000    -0.0000 </r>
       <r>    -6.9099    -0.0000    -0.0000 </r>
       <r>    -6.8438    -0.0000    -0.0000 </r>
       <r>    -6.7777    -0.0000    -0.0000 </r>
       <r>    -6.7116    -0.0000    -0.0000 </r>
       <r>    -6.6455    -0.0002    -0.0000 </r>
       <r>    -6.5795    -0.0012    -0.0001 </r>
       <r>    -6.5134    -0.0053    -0.0005 </r>
       <r>    -6.4473    -0.0174    -0.0016 </r>
       <r>    -6.3812    -0.0406    -0.0043 </r>
       <r>    -6.3151    -0.0594    -0.0082 </r>
       <r>    -6.2490    -0.0200    -0.0095 </r>
       <r>    -6.1829     0.1398    -0.0003 </r>
       <r>    -6.1168     0.3930     0.0257 </r>
       <r>    -6.0507     0.6112     0.0661 </r>
       <r>    -5.9846     0.8168     0.1201 </r>
       <r>    -5.9185     1.4185     0.2138 </r>
       <r>    -5.8524     2.8028     0.3991 </r>
       <r>    -5.7863     4.5418     0.6993 </r>
       <r>    -5.7202     5.6456     1.0724 </r>
       <r>    -5.6541     6.0899     1.4750 </r>
       <r>    -5.5880     7.2247     1.9525 </r>
       <r>    -5.5219     9.6730     2.5919 </r>
       <r>    -5.4558    11.7563     3.3689 </r>
       <r>    -5.3897    11.5348     4.1313 </r>
       <r>    -5.3236     9.6336     4.7681 </r>
       <r>    -5.2575     8.2160     5.3112 </r>
       <r>    -5.1914     7.7868     5.8259 </r>
       <r>    -5.1253     7.0421     6.2913 </r>
       <r>    -5.0592     5.5104     6.6555 </r>
       <r>    -4.9931     4.2801     6.9384 </r>
       <r>    -4.9270     4.1969     7.2158 </r>
       <r>    -4.8609     5.3692     7.5707 </r>
       <r>    -4.7948     8.5344     8.1348 </r>
       <r>    -4.7287    14.4522     9.0901 </r>
       <r>    -4.6626    21.2990    10.4979 </r>
       <r>    -4.5965    25.5236    12.1850 </r>
       <r>    -4.5304    26.4018    13.9301 </r>
       <r>    -4.4643    26.4742    15.6799 </r>
       <r>    -4.3982    26.3337    17.4205 </r>
       <r>    -4.3321    23.0083    18.9413 </r>
       <r>    -4.2660    15.0992    19.9393 </r>
       <r>    -4.1999     5.8508    20.3261 </r>
       <r>    -4.1338    -0.3045    20.3059 </r>
       <r>    -4.0677    -1.4841    20.2079 </r>
       <r>    -4.0016     2.0180    20.3412 </r>
       <r>    -3.9355     9.2840    20.9549 </r>
       <r>    -3.8694    18.6731    22.1891 </r>
       <r>    -3.8034    27.1522    23.9838 </r>
       <r>    -3.7373    31.0711    26.0375 </r>
       <r>    -3.6712    28.6409    27.9306 </r>
       <r>    -3.6051    21.8261    29.3733 </r>
       <r>    -3.5390    15.1632    30.3755 </r>
       <r>    -3.4729    12.7877    31.2208 </r>
       <r>    -3.4068    16.5166    32.3125 </r>
       <r>    -3.3407    25.0499    33.9682 </r>
       <r>    -3.2746    34.2410    36.2315 </r>
       <r>    -3.2085    39.7399    38.8582 </r>
       <r>    -3.1424    40.2328    41.5175 </r>
       <r>    -3.0763    37.4100    43.9902 </r>
       <r>    -3.0102    33.1386    46.1806 </r>
       <r>    -2.9441    28.3951    48.0574 </r>
       <r>    -2.8780    24.8398    49.6993 </r>
       <r>    -2.8119    24.2319    51.3009 </r>
       <r>    -2.7458    24.9840    52.9523 </r>
       <r>    -2.6797    22.6153    54.4471 </r>
       <r>    -2.6136    15.3660    55.4628 </r>
       <r>    -2.5475     6.5882    55.8983 </r>
       <r>    -2.4814     0.5115    55.9321 </r>
       <r>    -2.4153    -1.8279    55.8113 </r>
       <r>    -2.3492    -1.6966    55.6991 </r>
       <r>    -2.2831     0.1208    55.7071 </r>
       <r>    -2.2170     3.7855    55.9573 </r>
       <r>    -2.1509     8.5644    56.5234 </r>
       <r>    -2.0848    11.8316    57.3054 </r>
       <r>    -2.0187    11.0294    58.0345 </r>
       <r>    -1.9526     6.5427    58.4669 </r>
       <r>    -1.8865     1.8869    58.5916 </r>
       <r>    -1.8204     1.2681    58.6755 </r>
       <r>    -1.7543     7.1608    59.1488 </r>
       <r>    -1.6882    18.7006    60.3848 </r>
       <r>    -1.6221    30.9921    62.4333 </r>
       <r>    -1.5560    37.2058    64.8926 </r>
       <r>    -1.4899    33.5000    67.1068 </r>
       <r>    -1.4238    22.2452    68.5772 </r>
       <r>    -1.3577     9.9461    69.2346 </r>
       <r>    -1.2916     2.3574    69.3904 </r>
       <r>    -1.2255     1.5092    69.4902 </r>
       <r>    -1.1594     5.7018    69.8670 </r>
       <r>    -1.0933    10.9262    70.5892 </r>
       <r>    -1.0273    13.2449    71.4647 </r>
       <r>    -0.9612    11.7598    72.2420 </r>
       <r>    -0.8951     9.6980    72.8830 </r>
       <r>    -0.8290    11.4026    73.6367 </r>
       <r>    -0.7629    17.1827    74.7724 </r>
       <r>    -0.6968    21.8824    76.2188 </r>
       <r>    -0.6307    20.5833    77.5793 </r>
       <r>    -0.5646    15.7707    78.6217 </r>
       <r>    -0.4985    16.3346    79.7014 </r>
       <r>    -0.4324    28.2315    81.5674 </r>
       <r>    -0.3663    47.1962    84.6870 </r>
       <r>    -0.3002    61.2651    88.7365 </r>
       <r>    -0.2341    60.4067    92.7292 </r>
       <r>    -0.1680    44.4590    95.6678 </r>
       <r>    -0.1019    22.5712    97.1597 </r>
       <r>    -0.0358     5.4057    97.5170 </r>
       <r>     0.0303    -1.6131    97.4104 </r>
       <r>     0.0964     1.2829    97.4952 </r>
       <r>     0.1625    10.5812    98.1946 </r>
       <r>     0.2286    20.4929    99.5491 </r>
       <r>     0.2947    24.8842   101.1939 </r>
       <r>     0.3608    21.6365   102.6240 </r>
       <r>     0.4269    14.2665   103.5670 </r>
       <r>     0.4930     7.9880   104.0950 </r>
       <r>     0.5591     5.6968   104.4716 </r>
       <r>     0.6252     8.0800   105.0056 </r>
       <r>     0.6913    14.7710   105.9820 </r>
       <r>     0.7574    23.6286   107.5437 </r>
       <r>     0.8235    30.2041   109.5402 </r>
       <r>     0.8896    30.0272   111.5249 </r>
       <r>     0.9557    22.4474   113.0086 </r>
       <r>     1.0218    11.6795   113.7806 </r>
       <r>     1.0879     3.1507   113.9889 </r>
       <r>     1.1540    -0.8337   113.9338 </r>
       <r>     1.2201    -1.5169   113.8335 </r>
       <r>     1.2862    -1.1487   113.7576 </r>
       <r>     1.3523    -1.0862   113.6858 </r>
       <r>     1.4184    -1.5127   113.5858 </r>
       <r>     1.4845    -1.4909   113.4872 </r>
       <r>     1.5506     1.0550   113.5570 </r>
       <r>     1.6167     8.2615   114.1030 </r>
       <r>     1.6828    19.8529   115.4153 </r>
       <r>     1.7488    31.9183   117.5250 </r>
       <r>     1.8149    39.5114   120.1366 </r>
       <r>     1.8810    40.5233   122.8151 </r>
       <r>     1.9471    36.2140   125.2088 </r>
       <r>     2.0132    29.3784   127.1506 </r>
       <r>     2.0793    23.6401   128.7131 </r>
       <r>     2.1454    22.1864   130.1796 </r>
       <r>     2.2115    24.3648   131.7901 </r>
       <r>     2.2776    25.2510   133.4591 </r>
       <r>     2.3437    21.4660   134.8780 </r>
       <r>     2.4098    16.9868   136.0007 </r>
       <r>     2.4759    21.1126   137.3962 </r>
       <r>     2.5420    39.4342   140.0027 </r>
       <r>     2.6081    66.2341   144.3807 </r>
       <r>     2.6742    86.1454   150.0747 </r>
       <r>     2.7403    85.4295   155.7213 </r>
       <r>     2.8064    63.5923   159.9246 </r>
       <r>     2.8725    33.4732   162.1371 </r>
       <r>     2.9386     9.4904   162.7644 </r>
       <r>     3.0047    -2.8225   162.5779 </r>
       <r>     3.0708    -6.1620   162.1706 </r>
       <r>     3.1369    -3.9574   161.9090 </r>
       <r>     3.2030     4.1185   162.1812 </r>
       <r>     3.2691    19.6705   163.4814 </r>
       <r>     3.3352    40.3515   166.1485 </r>
       <r>     3.4013    59.2876   170.0673 </r>
       <r>     3.4674    70.5649   174.7315 </r>
       <r>     3.5335    73.4357   179.5854 </r>
       <r>     3.5996    70.2829   184.2309 </r>
       <r>     3.6657    62.9286   188.3904 </r>
       <r>     3.7318    52.5950   191.8668 </r>
       <r>     3.7979    42.4350   194.6716 </r>
       <r>     3.8640    37.8136   197.1710 </r>
       <r>     3.9301    41.0640   199.8852 </r>
       <r>     3.9962    46.1084   202.9329 </r>
       <r>     4.0623    43.2660   205.7927 </r>
       <r>     4.1284    31.1348   207.8506 </r>
       <r>     4.1945    19.2053   209.1200 </r>
       <r>     4.2606    16.9259   210.2388 </r>
       <r>     4.3267    23.8702   211.8166 </r>
       <r>     4.3928    32.3686   213.9560 </r>
       <r>     4.4588    36.9051   216.3954 </r>
       <r>     4.5249    38.1044   218.9140 </r>
       <r>     4.5910    38.6031   221.4656 </r>
       <r>     4.6571    39.0036   224.0436 </r>
       <r>     4.7232    39.3367   226.6437 </r>
       <r>     4.7893    41.2366   229.3693 </r>
       <r>     4.8554    46.0338   232.4120 </r>
       <r>     4.9215    51.6675   235.8271 </r>
       <r>     4.9876    52.8884   239.3229 </r>
       <r>     5.0537    45.2913   242.3166 </r>
       <r>     5.1198    29.9049   244.2932 </r>
       <r>     5.1859    13.4529   245.1824 </r>
       <r>     5.2520     3.5452   245.4168 </r>
       <r>     5.3181     3.7446   245.6643 </r>
       <r>     5.3842    12.0392   246.4600 </r>
       <r>     5.4503    22.0766   247.9192 </r>
       <r>     5.5164    26.6726   249.6822 </r>
       <r>     5.5825    22.7172   251.1838 </r>
       <r>     5.6486    13.2784   252.0614 </r>
       <r>     5.7147     4.3065   252.3461 </r>
       <r>     5.7808    -0.1584   252.3356 </r>
       <r>     5.8469     0.5442   252.3716 </r>
       <r>     5.9130     4.8221   252.6903 </r>
       <r>     5.9791     9.7297   253.3334 </r>
       <r>     6.0452    12.0378   254.1291 </r>
       <r>     6.1113    10.4723   254.8213 </r>
       <r>     6.1774     6.8236   255.2723 </r>
       <r>     6.2435     3.8677   255.5280 </r>
       <r>     6.3096     2.5612   255.6973 </r>
       <r>     6.3757     1.9332   255.8250 </r>
       <r>     6.4418     1.0889   255.8970 </r>
       <r>     6.5079     0.4823   255.9289 </r>
       <r>     6.5740     1.3956   256.0211 </r>
       <r>     6.6401     4.4924   256.3181 </r>
       <r>     6.7062     8.6651   256.8908 </r>
       <r>     6.7723    11.3662   257.6421 </r>
       <r>     6.8384    10.6380   258.3452 </r>
       <r>     6.9045     6.9027   258.8015 </r>
       <r>     6.9706     2.4714   258.9648 </r>
       <r>     7.0367    -0.3097   258.9444 </r>
       <r>     7.1028     0.0290   258.9463 </r>
       <r>     7.1689     4.0145   259.2116 </r>
       <r>     7.2349    10.4044   259.8993 </r>
       <r>     7.3010    15.6102   260.9311 </r>
       <r>     7.3671    16.1987   262.0018 </r>
       <r>     7.4332    13.1804   262.8730 </r>
       <r>     7.4993    12.1763   263.6779 </r>
       <r>     7.5654    17.3103   264.8220 </r>
       <r>     7.6315    25.4675   266.5054 </r>
       <r>     7.6976    28.7504   268.4057 </r>
       <r>     7.7637    23.0445   269.9289 </r>
       <r>     7.8298    12.4998   270.7551 </r>
       <r>     7.8959     5.5255   271.1203 </r>
       <r>     7.9620     8.3649   271.6732 </r>
       <r>     8.0281    21.6210   273.1023 </r>
       <r>     8.0942    39.1124   275.6875 </r>
       <r>     8.1603    50.1191   279.0003 </r>
       <r>     8.2264    47.3515   282.1301 </r>
       <r>     8.2925    34.4059   284.4043 </r>
       <r>     8.3586    22.7623   285.9088 </r>
       <r>     8.4247    20.9350   287.2926 </r>
       <r>     8.4908    29.0521   289.2128 </r>
       <r>     8.5569    43.3352   292.0772 </r>
       <r>     8.6230    60.5302   296.0781 </r>
       <r>     8.6891    75.5110   301.0692 </r>
       <r>     8.7552    79.8368   306.3462 </r>
       <r>     8.8213    68.4386   310.8698 </r>
       <r>     8.8874    46.3928   313.9363 </r>
       <r>     8.9535    25.2911   315.6080 </r>
       <r>     9.0196    13.1900   316.4798 </r>
       <r>     9.0857    10.0742   317.1457 </r>
       <r>     9.1518    12.0343   317.9411 </r>
       <r>     9.2179    16.2012   319.0120 </r>
       <r>     9.2840    20.3340   320.3560 </r>
       <r>     9.3501    21.1758   321.7557 </r>
       <r>     9.4162    16.7673   322.8639 </r>
       <r>     9.4823     9.2017   323.4721 </r>
       <r>     9.5484     2.7285   323.6525 </r>
       <r>     9.6145    -0.2439   323.6364 </r>
       <r>     9.6806    -0.2476   323.6200 </r>
       <r>     9.7467     0.9178   323.6807 </r>
       <r>     9.8128     1.7847   323.7986 </r>
       <r>     9.8789     1.7728   323.9158 </r>
       <r>     9.9450     1.1175   323.9897 </r>
       <r>    10.0110     0.3993   324.0161 </r>
       <r>    10.0771    -0.0086   324.0155 </r>
       <r>    10.1432    -0.1105   324.0082 </r>
       <r>    10.2093    -0.0779   324.0031 </r>
       <r>    10.2754    -0.0333   324.0009 </r>
       <r>    10.3415    -0.0101   324.0002 </r>
       <r>    10.4076    -0.0023   324.0000 </r>
       <r>    10.4737    -0.0004   324.0000 </r>
       <r>    10.5398    -0.0001   324.0000 </r>
       <r>    10.6059    -0.0000   324.0000 </r>
       <r>    10.6720    -0.0000   324.0000 </r>
       <r>    10.7381    -0.0000   324.0000 </r>
       <r>    10.8042    -0.0000   324.0000 </r>
       <r>    10.8703    -0.0000   324.0000 </r>
       <r>    10.9364    -0.0000   324.0000 </r>
       <r>    11.0025    -0.0000   324.0000 </r>
       <r>    11.0686    -0.0000   324.0000 </r>
       <r>    11.1347     0.0000   324.0000 </r>
       <r>    11.2008     0.0000   324.0000 </r>
       <r>    11.2669     0.0000   324.0000 </r>
       <r>    11.3330     0.0000   324.0000 </r>
       <r>    11.3991     0.0000   324.0000 </r>
       <r>    11.4652     0.0000   324.0000 </r>
       <r>    11.5313     0.0000   324.0000 </r>
       <r>    11.5974     0.0000   324.0000 </r>
       <r>    11.6635     0.0000   324.0000 </r>
       <r>    11.7296     0.0000   324.0000 </r>
       <r>    11.7957     0.0000   324.0000 </r>
      </set>
     </set>
    </array>
   </total>
  </dos>
 </calculation>
 <structure name="finalpos" >
  <crystal>
   <varray name="basis" >
    <v>      10.64691857      -0.02675100       0.00000000 </v>
    <v>      -0.02675100      10.70042058       0.00000000 </v>
    <v>       0.00000000       0.00000000      10.70042058 </v>
   </varray>
   <i name="volume">   1219.05387855 </i>
   <varray name="rec_basis" >
    <v>       0.09392448       0.00023481       0.00000000 </v>
    <v>       0.00023481       0.09345486       0.00000000 </v>
    <v>       0.00000000       0.00000000       0.09345427 </v>
   </varray>
  </crystal>
  <varray name="positions" >
   <v>       0.00000000       0.00000000       0.99980680 </v>
   <v>       0.00000000       0.00000000       0.49980680 </v>
   <v>       0.00000000       0.50000000       0.99980680 </v>
   <v>       0.00000000       0.50000000       0.49980680 </v>
   <v>       0.50000000       0.00000000       0.99980680 </v>
   <v>       0.50000000       0.00000000       0.49980680 </v>
   <v>       0.50000000       0.50000000       0.99980680 </v>
   <v>       0.50000000       0.50000000       0.49980680 </v>
   <v>       0.37500000       0.37500000       0.12519320 </v>
   <v>       0.37500000       0.37500000       0.62519320 </v>
   <v>       0.37500000       0.87500000       0.12519320 </v>
   <v>       0.37500000       0.87500000       0.62519320 </v>
   <v>       0.87500000       0.37500000       0.12519320 </v>
   <v>       0.87500000       0.37500000       0.62519320 </v>
   <v>       0.87500000       0.87500000       0.12519320 </v>
   <v>       0.87500000       0.87500000       0.62519320 </v>
   <v>       0.00000000       0.25000000       0.24980680 </v>
   <v>       0.00000000       0.25000000       0.74980680 </v>
   <v>       0.00000000       0.75000000       0.24980680 </v>
   <v>       0.00000000       0.75000000       0.74980680 </v>
   <v>       0.50000000       0.25000000       0.24980680 </v>
   <v>       0.50000000       0.25000000       0.74980680 </v>
   <v>       0.50000000       0.75000000       0.24980680 </v>
   <v>       0.50000000       0.75000000       0.74980680 </v>
   <v>       0.37500000       0.12500000       0.37519320 </v>
   <v>       0.37500000       0.12500000       0.87519320 </v>
   <v>       0.37500000       0.62500000       0.37519320 </v>
   <v>       0.37500000       0.62500000       0.87519320 </v>
   <v>       0.87500000       0.12500000       0.37519320 </v>
   <v>       0.87500000       0.12500000       0.87519320 </v>
   <v>       0.87500000       0.62500000       0.37519320 </v>
   <v>       0.87500000       0.62500000       0.87519320 </v>
   <v>       0.25000000       0.00000000       0.24980680 </v>
   <v>       0.25000000       0.00000000       0.74980680 </v>
   <v>       0.25000000       0.50000000       0.24980680 </v>
   <v>       0.25000000       0.50000000       0.74980680 </v>
   <v>       0.75000000       0.00000000       0.24980680 </v>
   <v>       0.75000000       0.00000000       0.74980680 </v>
   <v>       0.75000000       0.50000000       0.24980680 </v>
   <v>       0.75000000       0.50000000       0.74980680 </v>
   <v>       0.12500000       0.37500000       0.37519320 </v>
   <v>       0.12500000       0.37500000       0.87519320 </v>
   <v>       0.12500000       0.87500000       0.37519320 </v>
   <v>       0.12500000       0.87500000       0.87519320 </v>
   <v>       0.62500000       0.37500000       0.37519320 </v>
   <v>       0.62500000       0.37500000       0.87519320 </v>
   <v>       0.62500000       0.87500000       0.37519320 </v>
   <v>       0.62500000       0.87500000       0.87519320 </v>
   <v>       0.25000000       0.25000000       0.99980680 </v>
   <v>       0.25000000       0.25000000       0.49980680 </v>
   <v>       0.25000000       0.75000000       0.99980680 </v>
   <v>       0.25000000       0.75000000       0.49980680 </v>
   <v>       0.75000000       0.25000000       0.99980680 </v>
   <v>       0.75000000       0.25000000       0.49980680 </v>
   <v>       0.75000000       0.75000000       0.99980680 </v>
   <v>       0.75000000       0.75000000       0.49980680 </v>
   <v>       0.12500000       0.12500000       0.12519320 </v>
   <v>       0.12500000       0.12500000       0.62519320 </v>
   <v>       0.12500000       0.62500000       0.12519320 </v>
   <v>       0.12500000       0.62500000       0.62519320 </v>
   <v>       0.62500000       0.12500000       0.12519320 </v>
   <v>       0.62500000       0.12500000       0.62519320 </v>
   <v>       0.62500000       0.62500000       0.12519320 </v>
   <v>       0.62500000       0.62500000       0.62519320 </v>
  </varray>
 </structure>
</modeling>
