Si64                                    
           1
    10.646919   -0.026751    0.000000
    -0.026751   10.700421    0.000000
     0.000000    0.000000   10.700421
   Si
    64
Direct configuration=     1
   0.00000000  0.00000000  0.00000000
   0.00000000  0.00000000  0.50000000
   0.00000000  0.50000000  0.00000000
   0.00000000  0.50000000  0.50000000
   0.50000000  0.00000000  0.00000000
   0.50000000  0.00000000  0.50000000
   0.50000000  0.50000000  0.00000000
   0.50000000  0.50000000  0.50000000
   0.37500000  0.37500000  0.12500000
   0.37500000  0.37500000  0.62500000
   0.37500000  0.87500000  0.12500000
   0.37500000  0.87500000  0.62500000
   0.87500000  0.37500000  0.12500000
   0.87500000  0.37500000  0.62500000
   0.87500000  0.87500000  0.12500000
   0.87500000  0.87500000  0.62500000
   0.00000000  0.25000000  0.25000000
   0.00000000  0.25000000  0.75000000
   0.00000000  0.75000000  0.25000000
   0.00000000  0.75000000  0.75000000
   0.50000000  0.25000000  0.25000000
   0.50000000  0.25000000  0.75000000
   0.50000000  0.75000000  0.25000000
   0.50000000  0.75000000  0.75000000
   0.37500000  0.12500000  0.37500000
   0.37500000  0.12500000  0.87500000
   0.37500000  0.62500000  0.37500000
   0.37500000  0.62500000  0.87500000
   0.87500000  0.12500000  0.37500000
   0.87500000  0.12500000  0.87500000
   0.87500000  0.62500000  0.37500000
   0.87500000  0.62500000  0.87500000
   0.25000000  0.00000000  0.25000000
   0.25000000  0.00000000  0.75000000
   0.25000000  0.50000000  0.25000000
   0.25000000  0.50000000  0.75000000
   0.75000000  0.00000000  0.25000000
   0.75000000  0.00000000  0.75000000
   0.75000000  0.50000000  0.25000000
   0.75000000  0.50000000  0.75000000
   0.12500000  0.37500000  0.37500000
   0.12500000  0.37500000  0.87500000
   0.12500000  0.87500000  0.37500000
   0.12500000  0.87500000  0.87500000
   0.62500000  0.37500000  0.37500000
   0.62500000  0.37500000  0.87500000
   0.62500000  0.87500000  0.37500000
   0.62500000  0.87500000  0.87500000
   0.25000000  0.25000000  0.00000000
   0.25000000  0.25000000  0.50000000
   0.25000000  0.75000000  0.00000000
   0.25000000  0.75000000  0.50000000
   0.75000000  0.25000000  0.00000000
   0.75000000  0.25000000  0.50000000
   0.75000000  0.75000000  0.00000000
   0.75000000  0.75000000  0.50000000
   0.12500000  0.12500000  0.12500000
   0.12500000  0.12500000  0.62500000
   0.12500000  0.62500000  0.12500000
   0.12500000  0.62500000  0.62500000
   0.62500000  0.12500000  0.12500000
   0.62500000  0.12500000  0.62500000
   0.62500000  0.62500000  0.12500000
   0.62500000  0.62500000  0.62500000
Direct configuration=     2
   1.00000000  0.00000000  0.99972296
   1.00000000  0.00000000  0.49972296
   1.00000000  0.50000000  0.99972296
   1.00000000  0.50000000  0.49972296
   0.50000000  1.00000000  0.99972296
   0.50000000  0.00000000  0.49972296
   0.50000000  0.50000000  0.99972296
   0.50000000  0.50000000  0.49972296
   0.37500000  0.37500000  0.12527704
   0.37500000  0.37500000  0.62527704
   0.37500000  0.87500000  0.12527704
   0.37500000  0.87500000  0.62527704
   0.87500000  0.37500000  0.12527704
   0.87500000  0.37500000  0.62527704
   0.87500000  0.87500000  0.12527704
   0.87500000  0.87500000  0.62527704
   0.00000000  0.25000000  0.24972296
   0.00000000  0.25000000  0.74972296
   0.00000000  0.75000000  0.24972296
   1.00000000  0.75000000  0.74972296
   0.50000000  0.25000000  0.24972296
   0.50000000  0.25000000  0.74972296
   0.50000000  0.75000000  0.24972296
   0.50000000  0.75000000  0.74972296
   0.37500000  0.12500000  0.37527704
   0.37500000  0.12500000  0.87527704
   0.37500000  0.62500000  0.37527704
   0.37500000  0.62500000  0.87527704
   0.87500000  0.12500000  0.37527704
   0.87500000  0.12500000  0.87527704
   0.87500000  0.62500000  0.37527704
   0.87500000  0.62500000  0.87527704
   0.25000000  0.00000000  0.24972296
   0.25000000  0.00000000  0.74972296
   0.25000000  0.50000000  0.24972296
   0.25000000  0.50000000  0.74972296
   0.75000000  0.00000000  0.24972296
   0.75000000  0.00000000  0.74972296
   0.75000000  0.50000000  0.24972296
   0.75000000  0.50000000  0.74972296
   0.12500000  0.37500000  0.37527704
   0.12500000  0.37500000  0.87527704
   0.12500000  0.87500000  0.37527704
   0.12500000  0.87500000  0.87527704
   0.62500000  0.37500000  0.37527704
   0.62500000  0.37500000  0.87527704
   0.62500000  0.87500000  0.37527704
   0.62500000  0.87500000  0.87527704
   0.25000000  0.25000000  0.99972296
   0.25000000  0.25000000  0.49972296
   0.25000000  0.75000000  0.99972296
   0.25000000  0.75000000  0.49972296
   0.75000000  0.25000000  0.99972296
   0.75000000  0.25000000  0.49972296
   0.75000000  0.75000000  0.99972296
   0.75000000  0.75000000  0.49972296
   0.12500000  0.12500000  0.12527704
   0.12500000  0.12500000  0.62527704
   0.12500000  0.62500000  0.12527704
   0.12500000  0.62500000  0.62527704
   0.62500000  0.12500000  0.12527704
   0.62500000  0.12500000  0.62527704
   0.62500000  0.62500000  0.12527704
   0.62500000  0.62500000  0.62527704
Direct configuration=     3
   0.00000000  0.00000000  0.99980680
   0.00000000  0.00000000  0.49980680
   0.00000000  0.50000000  0.99980680
   0.00000000  0.50000000  0.49980680
   0.50000000  0.00000000  0.99980680
   0.50000000  0.00000000  0.49980680
   0.50000000  0.50000000  0.99980680
   0.50000000  0.50000000  0.49980680
   0.37500000  0.37500000  0.12519320
   0.37500000  0.37500000  0.62519320
   0.37500000  0.87500000  0.12519320
   0.37500000  0.87500000  0.62519320
   0.87500000  0.37500000  0.12519320
   0.87500000  0.37500000  0.62519320
   0.87500000  0.87500000  0.12519320
   0.87500000  0.87500000  0.62519320
   0.00000000  0.25000000  0.24980680
   0.00000000  0.25000000  0.74980680
   0.00000000  0.75000000  0.24980680
   0.00000000  0.75000000  0.74980680
   0.50000000  0.25000000  0.24980680
   0.50000000  0.25000000  0.74980680
   0.50000000  0.75000000  0.24980680
   0.50000000  0.75000000  0.74980680
   0.37500000  0.12500000  0.37519320
   0.37500000  0.12500000  0.87519320
   0.37500000  0.62500000  0.37519320
   0.37500000  0.62500000  0.87519320
   0.87500000  0.12500000  0.37519320
   0.87500000  0.12500000  0.87519320
   0.87500000  0.62500000  0.37519320
   0.87500000  0.62500000  0.87519320
   0.25000000  0.00000000  0.24980680
   0.25000000  0.00000000  0.74980680
   0.25000000  0.50000000  0.24980680
   0.25000000  0.50000000  0.74980680
   0.75000000  0.00000000  0.24980680
   0.75000000  0.00000000  0.74980680
   0.75000000  0.50000000  0.24980680
   0.75000000  0.50000000  0.74980680
   0.12500000  0.37500000  0.37519320
   0.12500000  0.37500000  0.87519320
   0.12500000  0.87500000  0.37519320
   0.12500000  0.87500000  0.87519320
   0.62500000  0.37500000  0.37519320
   0.62500000  0.37500000  0.87519320
   0.62500000  0.87500000  0.37519320
   0.62500000  0.87500000  0.87519320
   0.25000000  0.25000000  0.99980680
   0.25000000  0.25000000  0.49980680
   0.25000000  0.75000000  0.99980680
   0.25000000  0.75000000  0.49980680
   0.75000000  0.25000000  0.99980680
   0.75000000  0.25000000  0.49980680
   0.75000000  0.75000000  0.99980680
   0.75000000  0.75000000  0.49980680
   0.12500000  0.12500000  0.12519320
   0.12500000  0.12500000  0.62519320
   0.12500000  0.62500000  0.12519320
   0.12500000  0.62500000  0.62519320
   0.62500000  0.12500000  0.12519320
   0.62500000  0.12500000  0.62519320
   0.62500000  0.62500000  0.12519320
   0.62500000  0.62500000  0.62519320
