  64  64   0   0
  0.1977407E+02  0.1070871E-08  0.1087177E-08  0.1087147E-08  0.5000000E-15
  1.000000000000000E-004
  CAR 
 Si64                                    
     11.34913745     -8.15793050  301      6.20308969      1.00000000
     -8.158  0.0000E+00  0.0000E+00
     -8.093  0.0000E+00  0.0000E+00
     -8.028  0.0000E+00  0.0000E+00
     -7.963  0.0000E+00  0.0000E+00
     -7.898  0.0000E+00  0.0000E+00
     -7.833  0.0000E+00  0.0000E+00
     -7.768 -0.1058E-28 -0.6879E-30
     -7.703 -0.1702E-26 -0.1114E-27
     -7.638 -0.2224E-24 -0.1457E-25
     -7.573 -0.2346E-22 -0.1540E-23
     -7.508 -0.1998E-20 -0.1315E-21
     -7.443 -0.1374E-18 -0.9063E-20
     -7.378 -0.7618E-17 -0.5044E-18
     -7.313 -0.3301E-15 -0.2197E-16
     -7.248 -0.1188E-13 -0.7942E-15
     -7.183 -0.3434E-12 -0.2312E-13
     -7.118 -0.7981E-11 -0.5421E-12
     -7.053 -0.1490E-09 -0.1023E-10
     -6.988 -0.2229E-08 -0.1551E-09
     -6.922 -0.2666E-07 -0.1889E-08
     -6.857 -0.2543E-06 -0.1843E-07
     -6.792 -0.1925E-05 -0.1436E-06
     -6.727 -0.1149E-04 -0.8908E-06
     -6.662 -0.5352E-04 -0.4371E-05
     -6.597 -0.1912E-03 -0.1680E-04
     -6.532 -0.5069E-03 -0.4977E-04
     -6.467 -0.9224E-03 -0.1097E-03
     -6.402 -0.8580E-03 -0.1655E-03
     -6.337  0.7318E-03 -0.1180E-03
     -6.272  0.4238E-02  0.1576E-03
     -6.207  0.8296E-02  0.6971E-03
     -6.142  0.1188E-01  0.1470E-02
     -6.077  0.1887E-01  0.2697E-02
     -6.012  0.3652E-01  0.5071E-02
     -5.947  0.6420E-01  0.9246E-02
     -5.882  0.8878E-01  0.1502E-01
     -5.817  0.1018E+00  0.2164E-01
     -5.752  0.1167E+00  0.2923E-01
     -5.687  0.1501E+00  0.3899E-01
     -5.622  0.1892E+00  0.5129E-01
     -5.557  0.2010E+00  0.6436E-01
     -5.492  0.1788E+00  0.7599E-01
     -5.427  0.1505E+00  0.8577E-01
     -5.362  0.1360E+00  0.9462E-01
     -5.297  0.1240E+00  0.1027E+00
     -5.232  0.1013E+00  0.1093E+00
     -5.167  0.7808E-01  0.1143E+00
     -5.102  0.7110E-01  0.1190E+00
     -5.037  0.8774E-01  0.1247E+00
     -4.972  0.1376E+00  0.1336E+00
     -4.907  0.2306E+00  0.1486E+00
     -4.842  0.3444E+00  0.1710E+00
     -4.777  0.4279E+00  0.1988E+00
     -4.712  0.4590E+00  0.2287E+00
     -4.647  0.4630E+00  0.2588E+00
     -4.582  0.4515E+00  0.2881E+00
     -4.517  0.3910E+00  0.3136E+00
     -4.452  0.2625E+00  0.3306E+00
     -4.387  0.1107E+00  0.3378E+00
     -4.322  0.5262E-02  0.3382E+00
     -4.257 -0.1556E-01  0.3372E+00
     -4.191  0.4969E-01  0.3404E+00
     -4.126  0.1826E+00  0.3523E+00
     -4.061  0.3453E+00  0.3747E+00
     -3.996  0.4779E+00  0.4058E+00
     -3.931  0.5226E+00  0.4398E+00
     -3.866  0.4639E+00  0.4700E+00
     -3.801  0.3466E+00  0.4925E+00
     -3.736  0.2474E+00  0.5086E+00
     -3.671  0.2302E+00  0.5235E+00
     -3.606  0.3155E+00  0.5441E+00
     -3.541  0.4696E+00  0.5746E+00
     -3.476  0.6208E+00  0.6150E+00
     -3.411  0.7053E+00  0.6608E+00
     -3.346  0.7055E+00  0.7067E+00
     -3.281  0.6425E+00  0.7485E+00
     -3.216  0.5485E+00  0.7841E+00
     -3.151  0.4606E+00  0.8141E+00
     -3.086  0.4158E+00  0.8411E+00
     -3.021  0.4143E+00  0.8681E+00
     -2.956  0.4020E+00  0.8942E+00
     -2.891  0.3237E+00  0.9153E+00
     -2.826  0.1903E+00  0.9276E+00
     -2.761  0.6383E-01  0.9318E+00
     -2.696 -0.9857E-02  0.9311E+00
     -2.631 -0.2886E-01  0.9293E+00
     -2.566 -0.7987E-02  0.9288E+00
     -2.501  0.4530E-01  0.9317E+00
     -2.436  0.1195E+00  0.9395E+00
     -2.371  0.1807E+00  0.9512E+00
     -2.306  0.1880E+00  0.9634E+00
     -2.241  0.1333E+00  0.9721E+00
     -2.176  0.5827E-01  0.9759E+00
     -2.111  0.2869E-01  0.9778E+00
     -2.046  0.9320E-01  0.9838E+00
     -1.981  0.2534E+00  0.1000E+01
     -1.916  0.4509E+00  0.1030E+01
     -1.851  0.5872E+00  0.1068E+01
     -1.786  0.5838E+00  0.1106E+01
     -1.721  0.4422E+00  0.1135E+01
     -1.656  0.2438E+00  0.1150E+01
     -1.591  0.8864E-01  0.1156E+01
     -1.526  0.3274E-01  0.1158E+01
     -1.461  0.6709E-01  0.1163E+01
     -1.395  0.1373E+00  0.1172E+01
     -1.330  0.1830E+00  0.1183E+01
     -1.265  0.1769E+00  0.1195E+01
     -1.200  0.1417E+00  0.1204E+01
     -1.135  0.1315E+00  0.1213E+01
     -1.070  0.1874E+00  0.1225E+01
     -1.005  0.2936E+00  0.1244E+01
     -0.940  0.3795E+00  0.1269E+01
     -0.875  0.3924E+00  0.1294E+01
     -0.810  0.3717E+00  0.1318E+01
     -0.745  0.4178E+00  0.1346E+01
     -0.680  0.5841E+00  0.1383E+01
     -0.615  0.8114E+00  0.1436E+01
     -0.550  0.9593E+00  0.1499E+01
     -0.485  0.9041E+00  0.1557E+01
     -0.420  0.6432E+00  0.1599E+01
     -0.355  0.3133E+00  0.1620E+01
     -0.290  0.8811E-01  0.1625E+01
     -0.225  0.5431E-01  0.1629E+01
     -0.160  0.1735E+00  0.1640E+01
     -0.095  0.3280E+00  0.1661E+01
     -0.030  0.4023E+00  0.1688E+01
      0.035  0.3573E+00  0.1711E+01
      0.100  0.2424E+00  0.1727E+01
      0.165  0.1368E+00  0.1736E+01
      0.230  0.8955E-01  0.1741E+01
      0.295  0.1108E+00  0.1749E+01
      0.360  0.1889E+00  0.1761E+01
      0.425  0.3000E+00  0.1780E+01
      0.490  0.4076E+00  0.1807E+01
      0.555  0.4644E+00  0.1837E+01
      0.620  0.4317E+00  0.1865E+01
      0.685  0.3130E+00  0.1885E+01
      0.750  0.1630E+00  0.1896E+01
      0.815  0.4657E-01  0.1899E+01
      0.880 -0.9366E-02  0.1898E+01
      0.945 -0.2028E-01  0.1897E+01
      1.010 -0.1462E-01  0.1896E+01
      1.075 -0.1117E-01  0.1896E+01
      1.140 -0.1737E-01  0.1894E+01
      1.205 -0.3243E-01  0.1892E+01
      1.270 -0.3997E-01  0.1890E+01
      1.336  0.4592E-02  0.1890E+01
      1.401  0.1618E+00  0.1900E+01
      1.466  0.4476E+00  0.1930E+01
      1.531  0.7663E+00  0.1979E+01
      1.596  0.9375E+00  0.2040E+01
      1.661  0.8448E+00  0.2095E+01
      1.726  0.5613E+00  0.2132E+01
      1.791  0.2953E+00  0.2151E+01
      1.856  0.2043E+00  0.2164E+01
      1.921  0.2747E+00  0.2182E+01
      1.986  0.3719E+00  0.2206E+01
      2.051  0.3865E+00  0.2231E+01
      2.116  0.3400E+00  0.2254E+01
      2.181  0.3672E+00  0.2277E+01
      2.246  0.5884E+00  0.2316E+01
      2.311  0.9749E+00  0.2379E+01
      2.376  0.1332E+01  0.2466E+01
      2.441  0.1434E+01  0.2559E+01
      2.506  0.1202E+01  0.2637E+01
      2.571  0.7629E+00  0.2687E+01
      2.636  0.3291E+00  0.2708E+01
      2.701  0.4446E-01  0.2711E+01
      2.766 -0.7664E-01  0.2706E+01
      2.831 -0.8356E-01  0.2701E+01
      2.896  0.1684E-02  0.2701E+01
      2.961  0.2065E+00  0.2714E+01
      3.026  0.5444E+00  0.2750E+01
      3.091  0.9423E+00  0.2811E+01
      3.156  0.1256E+01  0.2893E+01
      3.221  0.1376E+01  0.2982E+01
      3.286  0.1299E+01  0.3067E+01
      3.351  0.1102E+01  0.3138E+01
      3.416  0.8733E+00  0.3195E+01
      3.481  0.6919E+00  0.3240E+01
      3.546  0.6168E+00  0.3280E+01
      3.611  0.6500E+00  0.3322E+01
      3.676  0.7120E+00  0.3369E+01
      3.741  0.7006E+00  0.3414E+01
      3.806  0.5933E+00  0.3453E+01
      3.871  0.4716E+00  0.3483E+01
      3.936  0.4279E+00  0.3511E+01
      4.001  0.4687E+00  0.3542E+01
      4.066  0.5301E+00  0.3576E+01
      4.132  0.5652E+00  0.3613E+01
      4.197  0.5805E+00  0.3651E+01
      4.262  0.6025E+00  0.3690E+01
      4.327  0.6485E+00  0.3732E+01
      4.392  0.7281E+00  0.3779E+01
      4.457  0.8319E+00  0.3833E+01
      4.522  0.9163E+00  0.3893E+01
      4.587  0.9212E+00  0.3953E+01
      4.652  0.8139E+00  0.4006E+01
      4.717  0.6132E+00  0.4046E+01
      4.782  0.3809E+00  0.4071E+01
      4.847  0.1949E+00  0.4083E+01
      4.912  0.1159E+00  0.4091E+01
      4.977  0.1562E+00  0.4101E+01
      5.042  0.2661E+00  0.4118E+01
      5.107  0.3600E+00  0.4142E+01
      5.172  0.3728E+00  0.4166E+01
      5.237  0.2996E+00  0.4185E+01
      5.302  0.1858E+00  0.4197E+01
      5.367  0.8827E-01  0.4203E+01
      5.432  0.4590E-01  0.4206E+01
      5.497  0.6618E-01  0.4210E+01
      5.562  0.1227E+00  0.4218E+01
      5.627  0.1705E+00  0.4229E+01
      5.692  0.1768E+00  0.4241E+01
      5.757  0.1433E+00  0.4250E+01
      5.822  0.9619E-01  0.4257E+01
      5.887  0.5878E-01  0.4260E+01
      5.952  0.3652E-01  0.4263E+01
      6.017  0.2303E-01  0.4264E+01
      6.082  0.1292E-01  0.4265E+01
      6.147  0.8757E-02  0.4266E+01
      6.212  0.1982E-01  0.4267E+01
      6.277  0.5341E-01  0.4270E+01
      6.342  0.1035E+00  0.4277E+01
      6.407  0.1480E+00  0.4287E+01
      6.472  0.1612E+00  0.4297E+01
      6.537  0.1347E+00  0.4306E+01
      6.602  0.8481E-01  0.4312E+01
      6.667  0.4110E-01  0.4314E+01
      6.732  0.3052E-01  0.4316E+01
      6.797  0.6519E-01  0.4320E+01
      6.863  0.1331E+00  0.4329E+01
      6.928  0.1985E+00  0.4342E+01
      6.993  0.2267E+00  0.4357E+01
      7.058  0.2197E+00  0.4371E+01
      7.123  0.2221E+00  0.4385E+01
      7.188  0.2775E+00  0.4403E+01
      7.253  0.3751E+00  0.4428E+01
      7.318  0.4483E+00  0.4457E+01
      7.383  0.4364E+00  0.4485E+01
      7.448  0.3474E+00  0.4508E+01
      7.513  0.2580E+00  0.4525E+01
      7.578  0.2519E+00  0.4541E+01
      7.643  0.3546E+00  0.4564E+01
      7.708  0.5186E+00  0.4598E+01
      7.773  0.6620E+00  0.4641E+01
      7.838  0.7217E+00  0.4688E+01
      7.903  0.6927E+00  0.4733E+01
      7.968  0.6332E+00  0.4774E+01
      8.033  0.6227E+00  0.4815E+01
      8.098  0.6978E+00  0.4860E+01
      8.163  0.8279E+00  0.4914E+01
      8.228  0.9485E+00  0.4976E+01
      8.293  0.1008E+01  0.5041E+01
      8.358  0.9843E+00  0.5105E+01
      8.423  0.8860E+00  0.5163E+01
      8.488  0.7398E+00  0.5211E+01
      8.553  0.5775E+00  0.5248E+01
      8.618  0.4270E+00  0.5276E+01
      8.683  0.3185E+00  0.5297E+01
      8.748  0.2784E+00  0.5315E+01
      8.813  0.2968E+00  0.5334E+01
      8.878  0.3180E+00  0.5355E+01
      8.943  0.2856E+00  0.5373E+01
      9.008  0.1958E+00  0.5386E+01
      9.073  0.9294E-01  0.5392E+01
      9.138  0.2288E-01  0.5394E+01
      9.203 -0.5910E-03  0.5394E+01
      9.268  0.7691E-02  0.5394E+01
      9.333  0.2387E-01  0.5396E+01
      9.398  0.3076E-01  0.5398E+01
      9.463  0.2464E-01  0.5399E+01
      9.528  0.1249E-01  0.5400E+01
      9.594  0.2788E-02  0.5400E+01
      9.659 -0.1362E-02  0.5400E+01
      9.724 -0.1732E-02  0.5400E+01
      9.789 -0.9650E-03  0.5400E+01
      9.854 -0.3622E-03  0.5400E+01
      9.919 -0.1005E-03  0.5400E+01
      9.984 -0.2136E-04  0.5400E+01
     10.049 -0.3545E-05  0.5400E+01
     10.114 -0.4639E-06  0.5400E+01
     10.179 -0.4820E-07  0.5400E+01
     10.244 -0.3993E-08  0.5400E+01
     10.309 -0.2645E-09  0.5400E+01
     10.374 -0.1405E-10  0.5400E+01
     10.439 -0.5995E-12  0.5400E+01
     10.504 -0.2057E-13  0.5400E+01
     10.569 -0.5549E-15  0.5400E+01
     10.634 -0.1423E-16  0.5400E+01
     10.699  0.0000E+00  0.5400E+01
     10.764  0.0000E+00  0.5400E+01
     10.829  0.0000E+00  0.5400E+01
     10.894  0.0000E+00  0.5400E+01
     10.959  0.0000E+00  0.5400E+01
     11.024  0.0000E+00  0.5400E+01
     11.089  0.0000E+00  0.5400E+01
     11.154  0.0000E+00  0.5400E+01
     11.219  0.0000E+00  0.5400E+01
     11.284  0.0000E+00  0.5400E+01
     11.349  0.0000E+00  0.5400E+01
