       N       E                     dE             d eps       ncg     rms          rms(c)
DAV:   1     0.566166117490E+03    0.56617E+03   -0.84207E+04  2592   0.106E+03
DAV:   2    -0.309490629838E+03   -0.87566E+03   -0.83179E+03  3088   0.172E+02
DAV:   3    -0.373168948962E+03   -0.63678E+02   -0.62555E+02  3128   0.412E+01
DAV:   4    -0.374801427578E+03   -0.16325E+01   -0.16211E+01  3144   0.804E+00
DAV:   5    -0.374851759658E+03   -0.50332E-01   -0.50220E-01  3094   0.132E+00    0.286E+01
RMM:   6    -0.369675450690E+03    0.51763E+01   -0.26084E+00  2592   0.252E+00    0.172E+01
RMM:   7    -0.367328320668E+03    0.23471E+01   -0.66971E+00  2646   0.405E+00    0.980E-01
RMM:   8    -0.367370027760E+03   -0.41707E-01   -0.63867E-01  2624   0.155E+00    0.499E-01
RMM:   9    -0.367389637277E+03   -0.19610E-01   -0.18264E-01  2666   0.757E-01    0.577E-01
RMM:  10    -0.367393089582E+03   -0.34523E-02   -0.32346E-02  2741   0.356E-01    0.757E-01
RMM:  11    -0.367390605451E+03    0.24841E-02   -0.11164E-02  2592   0.214E-01    0.659E-01
RMM:  12    -0.367390731812E+03   -0.12636E-03   -0.17568E-03  2606   0.990E-02    0.662E-01
RMM:  13    -0.367390790416E+03   -0.58604E-04   -0.32830E-04  2759   0.402E-02    0.742E-01
RMM:  14    -0.367390794528E+03   -0.41115E-05   -0.91291E-05  2601   0.235E-02    0.403E-01
RMM:  15    -0.367390881682E+03   -0.87155E-04   -0.37815E-05  2641   0.130E-02    0.347E-01
RMM:  16    -0.367390952204E+03   -0.70522E-04   -0.34217E-05  2592   0.132E-02    0.224E-01
RMM:  17    -0.367390972277E+03   -0.20073E-04   -0.13653E-05  2592   0.866E-03    0.103E-01
RMM:  18    -0.367390977978E+03   -0.57008E-05   -0.37514E-06  1893   0.453E-03    0.386E-02
RMM:  19    -0.367390980696E+03   -0.27178E-05   -0.23023E-06  1614   0.337E-03    0.530E-03
RMM:  20    -0.367390980839E+03   -0.14302E-06   -0.57624E-07  1556   0.156E-03
   1 F= -.36739098E+03 E0= -.36740097E+03  d E =-.367391E+03
       N       E                     dE             d eps       ncg     rms          rms(c)
DAV:   1    -0.367410473433E+03   -0.19493E-01   -0.99215E-01  2944   0.190E+00    0.432E-01
RMM:   2    -0.367415491119E+03   -0.50177E-02   -0.52201E-02  2593   0.478E-01    0.176E-01
RMM:   3    -0.367416266119E+03   -0.77500E-03   -0.83449E-03  2643   0.215E-01    0.750E-02
RMM:   4    -0.367416270524E+03   -0.44045E-05   -0.11550E-03  2680   0.899E-02    0.271E-02
RMM:   5    -0.367416278491E+03   -0.79671E-05   -0.19141E-04  2666   0.349E-02    0.585E-03
RMM:   6    -0.367416283122E+03   -0.46311E-05   -0.46032E-05  2773   0.155E-02    0.114E-03
RMM:   7    -0.367416283715E+03   -0.59336E-06   -0.61176E-06  2008   0.556E-03    0.107E-03
RMM:   8    -0.367416283809E+03   -0.93415E-07   -0.11694E-06  1600   0.238E-03
   2 F= -.36741628E+03 E0= -.36742478E+03  d E =-.253030E-01
       N       E                     dE             d eps       ncg     rms          rms(c)
DAV:   1    -0.367419068678E+03   -0.27850E-02   -0.61555E-02  2952   0.473E-01    0.108E-01
RMM:   2    -0.367419374907E+03   -0.30623E-03   -0.31654E-03  2592   0.118E-01    0.442E-02
RMM:   3    -0.367419421146E+03   -0.46240E-04   -0.49617E-04  2643   0.532E-02    0.183E-02
RMM:   4    -0.367419421727E+03   -0.58112E-06   -0.68260E-05  2668   0.222E-02    0.665E-03
RMM:   5    -0.367419422305E+03   -0.57727E-06   -0.11826E-05  2518   0.863E-03    0.142E-03
RMM:   6    -0.367419422539E+03   -0.23405E-06   -0.26019E-06  1750   0.383E-03    0.259E-04
RMM:   7    -0.367419422583E+03   -0.44124E-07   -0.46200E-07  1504   0.155E-03    0.190E-04
RMM:   8    -0.367419422601E+03   -0.18163E-07   -0.11727E-07  1071   0.791E-04
   3 F= -.36741942E+03 E0= -.36742844E+03  d E =-.284418E-01
