 vasp.6.4.3 19Mar24 (build Oct 21 2024 22:36:34) complex                        
  
 executed on             LinuxIFC date 2024.11.01  22:43:55
 running   96 mpi-ranks, on    1 nodes
 distrk:  each k-point on   24 cores,    4 groups
 distr:  one band on NCORE=  12 cores,    2 groups


--------------------------------------------------------------------------------------------------------


 INCAR:
   SYSTEM = Si64
   ISTART = 0
   ICHARG = 2
   LREAL = Auto
   PREC = Accurate
   LWAVE = .False.
   LCHARG = .False.
   ADDGRID = .True.
   ENCUT = 400
   GGA = PS
   GGA_COMPAT = .FALSE.
   ISMEAR = 1
   SIGMA = 0.2
   NELM = 60
   NELMIN = 8
   EDIFF = 1e-06
   EDIFFG = -0.01
   NSW = 60
   IBRION = 2
   ISIF = 2
   KPAR = 4
   NPAR = 2
   ALGO = Fast

 POTCAR:    PAW_PBE Si 05Jan2001                  
 POTCAR:    PAW_PBE Si 05Jan2001                  
   VRHFIN =Si: s2p2                                                                                 
   LEXCH  = PE                                                                                      
   EATOM  =   103.0669 eV,    7.5752 Ry                                                             
                                                                                                    
   TITEL  = PAW_PBE Si 05Jan2001                                                                    
   LULTRA =        F    use ultrasoft PP ?                                                          
   IUNSCR =        1    unscreen: 0-lin 1-nonlin 2-no                                               
   RPACOR =    1.500    partial core radius                                                         
   POMASS =   28.085; ZVAL   =    4.000    mass and valenz                                          
   RCORE  =    1.900    outmost cutoff radius                                                       
   RWIGS  =    2.480; RWIGS  =    1.312    wigner-seitz radius (au A)                               
   ENMAX  =  245.345; ENMIN  =  184.009 eV                                                          
   ICORE  =        2    local potential                                                             
   LCOR   =        T    correct aug charges                                                         
   LPAW   =        T    paw PP                                                                      
   EAUG   =  322.069                                                                                
   DEXC   =    0.000                                                                                
   RMAX   =    1.950    core radius for proj-oper                                                   
   RAUG   =    1.300    factor for augmentation sphere                                              
   RDEP   =    1.993    radius for radial grids                                                     
   RDEPT  =    1.837    core radius for aug-charge                                                  
                                                                                                    
   Atomic configuration                                                                             
    6 entries                                                                                       
     n  l   j            E        occ.                                                              
     1  0  0.50     -1785.8828   2.0000                                                             
     2  0  0.50      -139.4969   2.0000                                                             
     2  1  1.50       -95.5546   6.0000                                                             
     3  0  0.50       -10.8127   2.0000                                                             
     3  1  0.50        -4.0811   2.0000                                                             
     3  2  1.50        -4.0817   0.0000                                                             
   Description                                                                                      
     l       E           TYP  RCUT    TYP  RCUT                                                     
     0    -10.8127223     23  1.900                                                                 
     0     -7.6451159     23  1.900                                                                 
     1     -4.0811372     23  1.900                                                                 
     1      2.4879257     23  1.900                                                                 
     2     -4.0817478      7  1.900                                                                 
  local pseudopotential read in
  partial core-charges read in
  partial kinetic energy density read in
  atomic valenz-charges read in
  non local Contribution for L=           0  read in
    real space projection operators read in
  non local Contribution for L=           0  read in
    real space projection operators read in
  non local Contribution for L=           1  read in
    real space projection operators read in
  non local Contribution for L=           1  read in
    real space projection operators read in
    PAW grid and wavefunctions read in
 
   number of l-projection  operators is LMAX  =           4
   number of lm-projection operators is LMMAX =           8
 
 Optimization of the real space projectors (new method)

 maximal supplied QI-value         = 19.84
 optimisation between [QCUT,QGAM] = [ 10.12, 20.44] = [ 28.68,116.96] Ry 
 Optimized for a Real-space Cutoff    1.38 Angstroem

   l    n(q)    QCUT    max X(q) W(low)/X(q) W(high)/X(q)  e(spline) 
   0      8    10.119   159.560    0.58E-04    0.11E-03    0.54E-07
   0      8    10.119   115.863    0.56E-04    0.11E-03    0.54E-07
   1      8    10.119    88.339    0.22E-03    0.17E-03    0.19E-06
   1      8    10.119    48.592    0.22E-03    0.17E-03    0.18E-06
 -----------------------------------------------------------------------------
|                                                                             |
|               ----> ADVICE to this user running VASP <----                  |
|                                                                             |
|     You enforced a specific xc type in the INCAR file but a different       |
|     type was found in the POTCAR file.                                      |
|     I HOPE YOU KNOW WHAT YOU ARE DOING!                                     |
|                                                                             |
 -----------------------------------------------------------------------------

  PAW_PBE Si 05Jan2001                  :
 energy of atom  1       EATOM= -103.0669
 kinetic energy error for atom=    0.0012 (will be added to EATOM!!)
 
 
 POSCAR: Si8
  positions in direct lattice
  velocities in cartesian coordinates


 exchange-correlation table for PS
   RHO(1)=    0.500       N(1)  =     2000
   RHO(2)=  100.500       N(2)  =     4000
 


--------------------------------------------------------------------------------------------------------


 ion  position               nearest neighbor table
   1  0.000  0.000  0.000-  15 2.33  57 2.33  44 2.35  30 2.35
   2  0.000  0.000  0.500-  16 2.33  58 2.33  43 2.35  29 2.35
   3  0.000  0.500  0.000-  13 2.33  59 2.33  42 2.35  32 2.35
   4  0.000  0.500  0.500-  14 2.33  60 2.33  41 2.35  31 2.35
   5  0.500  0.000  0.000-  11 2.33  61 2.33  48 2.35  26 2.35
   6  0.500  0.000  0.500-  12 2.33  62 2.33  47 2.35  25 2.35
   7  0.500  0.500  0.000-   9 2.33  63 2.33  46 2.35  28 2.35
   8  0.500  0.500  0.500-  10 2.33  64 2.33  45 2.35  27 2.35
   9  0.375  0.375  0.125-   7 2.33  49 2.33  35 2.35  21 2.35
  10  0.375  0.375  0.625-   8 2.33  50 2.33  36 2.35  22 2.35
  11  0.375  0.875  0.125-   5 2.33  51 2.33  33 2.35  23 2.35
  12  0.375  0.875  0.625-   6 2.33  52 2.33  34 2.35  24 2.35
  13  0.875  0.375  0.125-   3 2.33  53 2.33  39 2.35  17 2.35
  14  0.875  0.375  0.625-   4 2.33  54 2.33  40 2.35  18 2.35
  15  0.875  0.875  0.125-   1 2.33  55 2.33  37 2.35  19 2.35
  16  0.875  0.875  0.625-   2 2.33  56 2.33  38 2.35  20 2.35
  17  0.000  0.250  0.250-  29 2.33  41 2.33  13 2.35  57 2.35
  18  0.000  0.250  0.750-  30 2.33  42 2.33  14 2.35  58 2.35
  19  0.000  0.750  0.250-  31 2.33  43 2.33  15 2.35  59 2.35
  20  0.000  0.750  0.750-  32 2.33  44 2.33  16 2.35  60 2.35
  21  0.500  0.250  0.250-  25 2.33  45 2.33   9 2.35  61 2.35
  22  0.500  0.250  0.750-  26 2.33  46 2.33  10 2.35  62 2.35
  23  0.500  0.750  0.250-  27 2.33  47 2.33  11 2.35  63 2.35
  24  0.500  0.750  0.750-  28 2.33  48 2.33  12 2.35  64 2.35
  25  0.375  0.125  0.375-  21 2.33  33 2.33   6 2.35  50 2.35
  26  0.375  0.125  0.875-  22 2.33  34 2.33   5 2.35  49 2.35
  27  0.375  0.625  0.375-  23 2.33  35 2.33   8 2.35  52 2.35
  28  0.375  0.625  0.875-  24 2.33  36 2.33   7 2.35  51 2.35
  29  0.875  0.125  0.375-  17 2.33  37 2.33   2 2.35  54 2.35
  30  0.875  0.125  0.875-  18 2.33  38 2.33   1 2.35  53 2.35
  31  0.875  0.625  0.375-  19 2.33  39 2.33   4 2.35  56 2.35
  32  0.875  0.625  0.875-  20 2.33  40 2.33   3 2.35  55 2.35
  33  0.250  0.000  0.250-  25 2.33  43 2.33  11 2.35  57 2.35
  34  0.250  0.000  0.750-  26 2.33  44 2.33  12 2.35  58 2.35
  35  0.250  0.500  0.250-  27 2.33  41 2.33   9 2.35  59 2.35
  36  0.250  0.500  0.750-  28 2.33  42 2.33  10 2.35  60 2.35
  37  0.750  0.000  0.250-  29 2.33  47 2.33  15 2.35  61 2.35
  38  0.750  0.000  0.750-  30 2.33  48 2.33  16 2.35  62 2.35
  39  0.750  0.500  0.250-  31 2.33  45 2.33  13 2.35  63 2.35
  40  0.750  0.500  0.750-  32 2.33  46 2.33  14 2.35  64 2.35
  41  0.125  0.375  0.375-  17 2.33  35 2.33   4 2.35  50 2.35
  42  0.125  0.375  0.875-  18 2.33  36 2.33   3 2.35  49 2.35
  43  0.125  0.875  0.375-  19 2.33  33 2.33   2 2.35  52 2.35
  44  0.125  0.875  0.875-  20 2.33  34 2.33   1 2.35  51 2.35
  45  0.625  0.375  0.375-  21 2.33  39 2.33   8 2.35  54 2.35
  46  0.625  0.375  0.875-  22 2.33  40 2.33   7 2.35  53 2.35
  47  0.625  0.875  0.375-  23 2.33  37 2.33   6 2.35  56 2.35
  48  0.625  0.875  0.875-  24 2.33  38 2.33   5 2.35  55 2.35
  49  0.250  0.250  0.000-   9 2.33  57 2.33  42 2.35  26 2.35
  50  0.250  0.250  0.500-  10 2.33  58 2.33  41 2.35  25 2.35
  51  0.250  0.750  0.000-  11 2.33  59 2.33  44 2.35  28 2.35
  52  0.250  0.750  0.500-  12 2.33  60 2.33  43 2.35  27 2.35
  53  0.750  0.250  0.000-  13 2.33  61 2.33  46 2.35  30 2.35
  54  0.750  0.250  0.500-  14 2.33  62 2.33  45 2.35  29 2.35
  55  0.750  0.750  0.000-  15 2.33  63 2.33  48 2.35  32 2.35
  56  0.750  0.750  0.500-  16 2.33  64 2.33  47 2.35  31 2.35
  57  0.125  0.125  0.125-   1 2.33  49 2.33  33 2.35  17 2.35
  58  0.125  0.125  0.625-   2 2.33  50 2.33  34 2.35  18 2.35
  59  0.125  0.625  0.125-   3 2.33  51 2.33  35 2.35  19 2.35
  60  0.125  0.625  0.625-   4 2.33  52 2.33  36 2.35  20 2.35
  61  0.625  0.125  0.125-   5 2.33  53 2.33  37 2.35  21 2.35
  62  0.625  0.125  0.625-   6 2.33  54 2.33  38 2.35  22 2.35
  63  0.625  0.625  0.125-   7 2.33  55 2.33  39 2.35  23 2.35
  64  0.625  0.625  0.625-   8 2.33  56 2.33  40 2.35  24 2.35
 
  LATTYP: Found a simple monoclinic cell.
 ALAT       =    10.7087059932
 B/A-ratio  =     1.0151989991
 C/A-ratio  =     1.0152275511
 COS(beta)  =    -0.0151133510
  
  Lattice vectors:
  
 A1 = (  10.7083955814,  -0.0815360120,   0.0000000000)
 A2 = (   0.0000000000,   0.0000000000, -10.8714676055)
 A3 = (  -0.0815360120,  10.8714676055,   0.0000000000)


Analysis of symmetry for initial positions (statically):
=====================================================================
 Subroutine PRICEL returns following result:
 
  LATTYP: Found a base centered monoclinic cell.
 ALAT       =     5.3543529966
 B/A-ratio  =     1.0151989991
 C/A-ratio  =     0.7071067812
 COS(beta)  =    -0.6962572952
  
  Lattice vectors:
  
 A1 = (  -2.6770988954,   0.0203840030,  -2.7178669014)
 A2 = (  -2.6770988954,   0.0203840030,   2.7178669014)
 A3 = (   2.6567148923,   2.6974828984,   0.0000000000)
 
  32 primitive cells build up your supercell.
 

 Routine SETGRP: Setting up the symmetry group for a 
 simple monoclinic supercell.


 Subroutine GETGRP returns: Found  4 space group operations
 (whereof  2 operations were pure point group operations)
 out of a pool of  4 trial point group operations.


The static configuration has the point symmetry C_2 .
 The point group associated with its full space group is C_2h.


Analysis of symmetry for dynamics (positions and initial velocities):
=====================================================================
 Subroutine PRICEL returns following result:
 
  LATTYP: Found a base centered monoclinic cell.
 ALAT       =     5.3543529966
 B/A-ratio  =     1.0151989991
 C/A-ratio  =     0.7071067812
 COS(beta)  =    -0.6962572952
  
  Lattice vectors:
  
 A1 = (  -2.6770988954,   0.0203840030,  -2.7178669014)
 A2 = (  -2.6770988954,   0.0203840030,   2.7178669014)
 A3 = (   2.6567148923,   2.6974828984,   0.0000000000)
 
  32 primitive cells build up your supercell.
 

 Routine SETGRP: Setting up the symmetry group for a 
 simple monoclinic supercell.


 Subroutine GETGRP returns: Found  4 space group operations
 (whereof  2 operations were pure point group operations)
 out of a pool of  4 trial point group operations.


The dynamic configuration has the point symmetry C_2 .
 The point group associated with its full space group is C_2h.


 Subroutine INISYM returns: Found  4 space group operations
 (whereof  2 operations are pure point group operations),
 and found    32 'primitive' translations


----------------------------------------------------------------------------------------

                                     Primitive cell                                     

  volume of cell :      39.5481

  direct lattice vectors                    reciprocal lattice vectors
    -2.677098895  0.020384003 -2.717866901    -0.185379159  0.182577458 -0.183967802
    -2.677098895  0.020384003  2.717866901    -0.185379159  0.182577458  0.183967802
     2.656714892  2.697482898  0.000000000     0.002801700  0.367956617 -0.000000000

  length of vectors
     3.814980275  3.814980275  3.786099313     0.318659870  0.318659870  0.367967283

  position of ions in fractional coordinates (direct lattice)
     0.000000000  0.000000000  0.000000000
     0.750000000  0.250000000  0.500000000

  ion indices of the primitive-cell ions
   primitive index   ion index
                 1           1
                 2          15

----------------------------------------------------------------------------------------

 
 
 KPOINTS: Automatic mesh                          

Automatic generation of k-mesh.
 Grid dimensions read from file:
 generate k-points for:    2    2    2

 Generating k-lattice:

  Cartesian coordinates                     Fractional coordinates (reciprocal lattice)
     0.046695002  0.000350213  0.000000000     0.500000000  0.000000000  0.000000000
     0.000350213  0.045994577  0.000000000     0.000000000  0.500000000  0.000000000
     0.000000000  0.000000000  0.045991951     0.000000000  0.000000000  0.500000000

  Length of vectors
     0.046696315  0.045995910  0.045991951

  Shift w.r.t. Gamma in fractional coordinates (k-lattice)
     0.000000000  0.000000000  0.000000000

 
 Subroutine IBZKPT returns following result:
 ===========================================
 
 Found      8 irreducible k-points:
 
 Following reciprocal coordinates:
            Coordinates               Weight
  0.000000  0.000000  0.000000      1.000000
  0.500000 -0.000000  0.000000      1.000000
 -0.000000  0.500000  0.000000      1.000000
  0.500000  0.500000  0.000000      1.000000
  0.000000  0.000000  0.500000      1.000000
  0.500000 -0.000000  0.500000      1.000000
 -0.000000  0.500000  0.500000      1.000000
  0.500000  0.500000  0.500000      1.000000
 
 Following cartesian coordinates:
            Coordinates               Weight
  0.000000  0.000000  0.000000      1.000000
  0.046695  0.000350  0.000000      1.000000
  0.000350  0.045995  0.000000      1.000000
  0.047045  0.046345  0.000000      1.000000
  0.000000  0.000000  0.045992      1.000000
  0.046695  0.000350  0.045992      1.000000
  0.000350  0.045995  0.045992      1.000000
  0.047045  0.046345  0.045992      1.000000
 


--------------------------------------------------------------------------------------------------------




 Dimension of arrays:
   k-points           NKPTS =      8   k-points in BZ     NKDIM =      8   number of bands    NBANDS=    162
   number of dos      NEDOS =    301   number of ions     NIONS =     64
   non local maximal  LDIM  =      4   non local SUM 2l+1 LMDIM =      8
   total plane-waves  NPLWV = 362880
   max r-space proj   IRMAX =   3210   max aug-charges    IRDMAX=  76887
   dimension x,y,z NGX =    70 NGY =   72 NGZ =   72
   dimension x,y,z NGXF=   140 NGYF=  144 NGZF=  144
   support grid    NGXF=   280 NGYF=  288 NGZF=  288
   ions per type =              64
   NGX,Y,Z   is equivalent  to a cutoff of  10.87, 11.01, 11.01 a.u.
   NGXF,Y,Z  is equivalent  to a cutoff of  21.73, 22.02, 22.02 a.u.

 SYSTEM =  Si64                                    
 POSCAR =  Si8                                     

 Startparameter for this run:
   NWRITE =      2    write-flag & timer
   PREC   = accura    normal or accurate (medium, high low for compatibility)
   ISTART =      0    job   : 0-new  1-cont  2-samecut
   ICHARG =      2    charge: 1-file 2-atom 10-const
   ISPIN  =      1    spin polarized calculation?
   LNONCOLLINEAR =      F non collinear calculations
   LSORBIT =      F    spin-orbit coupling
   INIWAV =      1    electr: 0-lowe 1-rand  2-diag
   LASPH  =      F    aspherical Exc in radial PAW
 Electronic Relaxation 1
   ENCUT  =  400.0 eV  29.40 Ry    5.42 a.u.  17.46 17.73 17.73*2*pi/ulx,y,z
   ENINI  =  400.0     initial cutoff
   ENAUG  =  322.1 eV  augmentation charge cutoff
   NELM   =     60;   NELMIN=  8; NELMDL= -5     # of ELM steps 
   EDIFF  = 0.1E-05   stopping-criterion for ELM
   LREAL  =      T    real-space projection
   NLSPLINE    = F    spline interpolate recip. space projectors
   LCOMPAT=      F    compatible to vasp.4.4
   GGA_COMPAT  = F    GGA compatible to vasp.4.4-vasp.4.6
   LMAXPAW     = -100 max onsite density
   LMAXMIX     =    2 max onsite mixed and CHGCAR
   VOSKOWN=      0    Vosko Wilk Nusair interpolation
   ROPT   =   -0.00025
 Ionic relaxation
   EDIFFG = -.1E-01   stopping-criterion for IOM
   NSW    =     60    number of steps for IOM
   NBLOCK =      1;   KBLOCK =     60    inner block; outer block 
   IBRION =      2    ionic relax: 0-MD 1-quasi-New 2-CG
   NFREE  =      1    steps in history (QN), initial steepest desc. (CG)
   ISIF   =      2    stress and relaxation
   IWAVPR =     11    prediction:  0-non 1-charg 2-wave 3-comb
   ISYM   =      2    0-nonsym 1-usesym 2-fastsym
   LCORR  =      T    Harris-Foulkes like correction to forces

   POTIM  = 0.5000    time-step for ionic-motion
   TEIN   =    0.0    initial temperature
   TEBEG  =    0.0;   TEEND  =   0.0 temperature during run
   SMASS  =  -3.00    Nose mass-parameter (am)
   estimated Nose-frequenzy (Omega)   =  0.10E-29 period in steps = 0.13E+47 mass=  -0.262E-26a.u.
   SCALEE = 1.0000    scale energy and forces
   NPACO  =    256;   APACO  = 10.0  distance and # of slots for P.C.
   PSTRESS=    0.0 pullay stress

  Mass of Ions in am
   POMASS =  28.09
  Ionic Valenz
   ZVAL   =   4.00
  Atomic Wigner-Seitz radii
   RWIGS  =  -1.00
  virtual crystal weights 
   VCA    =   1.00
   NELECT =     256.0000    total number of electrons
   NUPDOWN=      -1.0000    fix difference up-down

 DOS related values:
   EMIN   =  10.00;   EMAX   =-10.00  energy-range for DOS
   EFERMI =   0.00;   METHOD = LEGACY      
   ISMEAR =     1;   SIGMA  =   0.20  broadening in eV -4-tet -1-fermi 0-gaus

 Electronic relaxation 2 (details)
   IALGO  =     68    algorithm
   LDIAG  =      T    sub-space diagonalisation (order eigenvalues)
   LSUBROT=      F    optimize rotation matrix (better conditioning)
   TURBO    =      0    0=normal 1=particle mesh
   IRESTART =      0    0=no restart 2=restart with 2 vectors
   NREBOOT  =      0    no. of reboots
   NMIN     =      0    reboot dimension
   EREF     =   0.00    reference energy to select bands
   IMIX   =      4    mixing-type and parameters
     AMIX     =   0.40;   BMIX     =  1.00
     AMIX_MAG =   1.60;   BMIX_MAG =  1.00
     AMIN     =   0.10
     WC   =   100.;   INIMIX=   1;  MIXPRE=   1;  MAXMIX= -45

 Intra band minimization:
   WEIMIN = 0.0010     energy-eigenvalue tresh-hold
   EBREAK =  0.15E-08  absolut break condition
   DEPER  =   0.30     relativ break condition  

   TIME   =   0.40     timestep for ELM

  volume/ion in A,a.u.               =      19.77       133.44
  Fermi-wavevector in a.u.,A,eV,Ry     =   0.961014  1.816052 12.565620  0.923547
  Thomas-Fermi vector in A             =   2.090348
 
 Write flags
   LWAVE        =      F    write WAVECAR
   LDOWNSAMPLE  =      F    k-point downsampling of WAVECAR
   LCHARG       =      F    write CHGCAR
   LVTOT        =      F    write LOCPOT, total local potential
   LVHAR        =      F    write LOCPOT, Hartree potential only
   WRT_POTENTIAL= false  ! write potential to hdf5 file
   LELF         =      F    write electronic localiz. function (ELF)
   LORBIT       =      0    0 simple, 1 ext, 2 COOP (PROOUT), +10 PAW based schemes


 Dipole corrections
   LMONO      =      F    monopole corrections only (constant potential shift)
   LDIPOL     =      F    correct potential (dipole corrections)
   IDIPOL     =      0    1-x, 2-y, 3-z, 4-all directions 
   EPSILON    =  1.0000000 bulk dielectric constant
   LVACPOTAV  =      F  vacuum potentials using an averaging scheme for the charge density
   VACPOTFLAT =  0.1000000 required flatness to determine vacuum potential
 Exchange correlation treatment:
   GGA     = PS    functional components
   XC_C    = 1    coefficients multiplying the functional components
   LIBXC   =     F    Libxc                    
   VOSKOWN =     0    Vosko Wilk Nusair interpolation
   LHFCALC =     F    Hartree Fock is set to
   LHFONE  =     F    Hartree Fock one center treatment
   AEXX    =    0.0000 exact exchange contribution

 Parameters of functionals:
   PS:
     No parameter
 
 Van der Waals corrections
   IVDW    =     0    specifies the selected vdW correction

 Linear response parameters
   LEPSILON=     F    determine dielectric tensor
   LRPA    =     F    only Hartree local field effects (RPA)
   LNABLA  =     F    use nabla operator in PAW spheres
   LVEL    =     F    velocity operator in full k-point grid
   CSHIFT  =0.1000    complex shift for real part using Kramers Kronig
   OMEGAMAX=  -1.0    maximum frequency
   DEG_THRESHOLD= 0.2000000E-02 threshold for treating states as degnerate
   RTIME   =   -0.100 relaxation time in fs
  (WPLASMAI=    0.000 imaginary part of plasma frequency in eV, 0.658/RTIME)
   DFIELD  = 0.0000000 0.0000000 0.0000000 field for delta impulse in time
 
  Optional k-point grid parameters
   LKPOINTS_OPT  =     F    use optional k-point grid
   KPOINTS_OPT_MODE=     1    mode for optional k-point grid
 
 Orbital magnetization related:
   ORBITALMAG=     F  switch on orbital magnetization
   LCHIMAG   =     F  perturbation theory with respect to B field
   DQ        =  0.001000  dq finite difference perturbation B field
   LLRAUG    =     F  two centre corrections for induced B field
   LBONE     =     F  B-component reconstruction in AE one-centre
   LVGVCALC  =     T  calculate vGv susceptibility
   LVGVAPPL  =     F  apply vGv susceptibility instead of pGv for G=0

 Random number generation:
   RANDOM_GENERATOR = DEFAULT
   PCG_SEED         = not used


--------------------------------------------------------------------------------------------------------


 conjugate gradient relaxation of ions
 charge density and potential will be updated during run
 non-spin polarized calculation
 RMM-DIIS sequential band-by-band and
  variant of blocked Davidson during initial phase
 perform sub-space diagonalisation
    before iterative eigenvector-optimisation
 modified Broyden-mixing scheme, WC =      100.0
 initial mixing is a Kerker type mixing with AMIX =  0.4000 and BMIX =      1.0000
 Hartree-type preconditioning will be used
 using additional bands           34
 real space projection scheme for non local part
 use partial core corrections
 calculate Harris-corrections to forces 
   (improved forces if not selfconsistent)
 use gradient corrections 
 use of overlap-Matrix (Vanderbilt PP)
 Methfessel and Paxton  Order N= 1 SIGMA  =   0.20


--------------------------------------------------------------------------------------------------------


  energy-cutoff  :      400.00
  volume of cell :     1265.54
      direct lattice vectors                 reciprocal lattice vectors
    10.708395581 -0.081536012  0.000000000     0.093390004  0.000700425  0.000000000
    -0.081536012 10.871467606  0.000000000     0.000700425  0.091989154  0.000000000
     0.000000000  0.000000000 10.871467606     0.000000000  0.000000000  0.091983901

  length of vectors
    10.708705993 10.871773361 10.871467606     0.093392631  0.091991821  0.091983901


 
 k-points in units of 2pi/SCALE and weight: Automatic mesh                          
   0.00000000  0.00000000  0.00000000       0.125
   0.04669501  0.00035021  0.00000000       0.125
   0.00035021  0.04599458  0.00000000       0.125
   0.04704522  0.04634480  0.00000000       0.125
   0.00000000  0.00000000  0.04599196       0.125
   0.04669501  0.00035021  0.04599196       0.125
   0.00035021  0.04599458  0.04599196       0.125
   0.04704522  0.04634480  0.04599196       0.125
 
 k-points in reciprocal lattice and weights: Automatic mesh                          
   0.00000000  0.00000000  0.00000000       0.125
   0.50000000 -0.00000000  0.00000000       0.125
  -0.00000000  0.50000000  0.00000000       0.125
   0.50000000  0.50000000  0.00000000       0.125
   0.00000000  0.00000000  0.50000000       0.125
   0.50000000 -0.00000000  0.50000000       0.125
  -0.00000000  0.50000000  0.50000000       0.125
   0.50000000  0.50000000  0.50000000       0.125
 
 position of ions in fractional coordinates (direct lattice) 
   0.00000000  0.00000000  0.00000000
   0.00000000  0.00000000  0.50000000
   0.00000000  0.50000000  0.00000000
   0.00000000  0.50000000  0.50000000
   0.50000000  0.00000000  0.00000000
   0.50000000  0.00000000  0.50000000
   0.50000000  0.50000000  0.00000000
   0.50000000  0.50000000  0.50000000
   0.37500000  0.37500000  0.12500000
   0.37500000  0.37500000  0.62500000
   0.37500000  0.87500000  0.12500000
   0.37500000  0.87500000  0.62500000
   0.87500000  0.37500000  0.12500000
   0.87500000  0.37500000  0.62500000
   0.87500000  0.87500000  0.12500000
   0.87500000  0.87500000  0.62500000
   0.00000000  0.25000000  0.25000000
   0.00000000  0.25000000  0.75000000
   0.00000000  0.75000000  0.25000000
   0.00000000  0.75000000  0.75000000
   0.50000000  0.25000000  0.25000000
   0.50000000  0.25000000  0.75000000
   0.50000000  0.75000000  0.25000000
   0.50000000  0.75000000  0.75000000
   0.37500000  0.12500000  0.37500000
   0.37500000  0.12500000  0.87500000
   0.37500000  0.62500000  0.37500000
   0.37500000  0.62500000  0.87500000
   0.87500000  0.12500000  0.37500000
   0.87500000  0.12500000  0.87500000
   0.87500000  0.62500000  0.37500000
   0.87500000  0.62500000  0.87500000
   0.25000000  0.00000000  0.25000000
   0.25000000  0.00000000  0.75000000
   0.25000000  0.50000000  0.25000000
   0.25000000  0.50000000  0.75000000
   0.75000000  0.00000000  0.25000000
   0.75000000  0.00000000  0.75000000
   0.75000000  0.50000000  0.25000000
   0.75000000  0.50000000  0.75000000
   0.12500000  0.37500000  0.37500000
   0.12500000  0.37500000  0.87500000
   0.12500000  0.87500000  0.37500000
   0.12500000  0.87500000  0.87500000
   0.62500000  0.37500000  0.37500000
   0.62500000  0.37500000  0.87500000
   0.62500000  0.87500000  0.37500000
   0.62500000  0.87500000  0.87500000
   0.25000000  0.25000000  0.00000000
   0.25000000  0.25000000  0.50000000
   0.25000000  0.75000000  0.00000000
   0.25000000  0.75000000  0.50000000
   0.75000000  0.25000000  0.00000000
   0.75000000  0.25000000  0.50000000
   0.75000000  0.75000000  0.00000000
   0.75000000  0.75000000  0.50000000
   0.12500000  0.12500000  0.12500000
   0.12500000  0.12500000  0.62500000
   0.12500000  0.62500000  0.12500000
   0.12500000  0.62500000  0.62500000
   0.62500000  0.12500000  0.12500000
   0.62500000  0.12500000  0.62500000
   0.62500000  0.62500000  0.12500000
   0.62500000  0.62500000  0.62500000
 
 position of ions in cartesian coordinates  (Angst):
   0.00000000  0.00000000  0.00000000
   0.00000000  0.00000000  5.43573380
  -0.04076801  5.43573380  0.00000000
  -0.04076801  5.43573380  5.43573380
   5.35419779 -0.04076801  0.00000000
   5.35419779 -0.04076801  5.43573380
   5.31342978  5.39496580  0.00000000
   5.31342978  5.39496580  5.43573380
   3.98507234  4.04622435  1.35893345
   3.98507234  4.04622435  6.79466725
   3.94430433  9.48195815  1.35893345
   3.94430433  9.48195815  6.79466725
   9.33927013  4.00545634  1.35893345
   9.33927013  4.00545634  6.79466725
   9.29850212  9.44119014  1.35893345
   9.29850212  9.44119014  6.79466725
  -0.02038400  2.71786690  2.71786690
  -0.02038400  2.71786690  8.15360070
  -0.06115201  8.15360070  2.71786690
  -0.06115201  8.15360070  8.15360070
   5.33381379  2.67709890  2.71786690
   5.33381379  2.67709890  8.15360070
   5.29304578  8.11283270  2.71786690
   5.29304578  8.11283270  8.15360070
   4.00545634  1.32835745  4.07680035
   4.00545634  1.32835745  9.51253415
   3.96468834  6.76409125  4.07680035
   3.96468834  6.76409125  9.51253415
   9.35965413  1.28758944  4.07680035
   9.35965413  1.28758944  9.51253415
   9.31888613  6.72332324  4.07680035
   9.31888613  6.72332324  9.51253415
   2.67709890 -0.02038400  2.71786690
   2.67709890 -0.02038400  8.15360070
   2.63633089  5.41534980  2.71786690
   2.63633089  5.41534980  8.15360070
   8.03129669 -0.06115201  2.71786690
   8.03129669 -0.06115201  8.15360070
   7.99052868  5.37458179  2.71786690
   7.99052868  5.37458179  8.15360070
   1.30797344  4.06660835  4.07680035
   1.30797344  4.06660835  9.51253415
   1.26720544  9.50234215  4.07680035
   1.26720544  9.50234215  9.51253415
   6.66217123  4.02584034  4.07680035
   6.66217123  4.02584034  9.51253415
   6.62140323  9.46157415  4.07680035
   6.62140323  9.46157415  9.51253415
   2.65671489  2.69748290  0.00000000
   2.65671489  2.69748290  5.43573380
   2.61594689  8.13321670  0.00000000
   2.61594689  8.13321670  5.43573380
   8.01091268  2.65671489  0.00000000
   8.01091268  2.65671489  5.43573380
   7.97014468  8.09244870  0.00000000
   7.97014468  8.09244870  5.43573380
   1.32835745  1.34874145  1.35893345
   1.32835745  1.34874145  6.79466725
   1.28758944  6.78447525  1.35893345
   1.28758944  6.78447525  6.79466725
   6.68255524  1.30797344  1.35893345
   6.68255524  1.30797344  6.79466725
   6.64178723  6.74370725  1.35893345
   6.64178723  6.74370725  6.79466725
 


--------------------------------------------------------------------------------------------------------


 k-point     1 :   0.0000 0.0000 0.0000  plane waves:   23011
 k-point     2 :   0.5000-0.0000 0.0000  plane waves:   22968
 k-point     3 :  -0.0000 0.5000 0.0000  plane waves:   23014
 k-point     4 :   0.5000 0.5000 0.0000  plane waves:   22996
 k-point     5 :   0.0000 0.0000 0.5000  plane waves:   23000
 k-point     6 :   0.5000-0.0000 0.5000  plane waves:   22984
 k-point     7 :  -0.0000 0.5000 0.5000  plane waves:   23000
 k-point     8 :   0.5000 0.5000 0.5000  plane waves:   22924

 maximum and minimum number of plane-waves per node :      1939     1887

 maximum number of plane-waves:     23014
 maximum index in each direction: 
   IXMAX=   17   IYMAX=   17   IZMAX=   17
   IXMIN=  -17   IYMIN=  -18   IZMIN=  -18


 real space projection operators:
  total allocation   :      12191.00 KBytes
  max/ min on nodes  :       1062.00        877.50


 parallel 3D FFT for wavefunctions:
    minimum data exchange during FFTs selected (reduces bandwidth)
 parallel 3D FFT for charge:
    minimum data exchange during FFTs selected (reduces bandwidth)


 total amount of memory used by VASP MPI-rank0    81451. kBytes
=======================================================================

   base      :      30000. kBytes
   nonlr-proj:       4688. kBytes
   fftplans  :      19043. kBytes
   grid      :       7278. kBytes
   one-center:         18. kBytes
   wavefun   :      20424. kBytes
 
     INWAV:  cpu time      0.0000: real time      0.0000
 Broyden mixing: mesh for mixing (old mesh)
   NGX = 35   NGY = 35   NGZ = 35
  (NGX  =140   NGY  =144   NGZ  =144)
  gives a total of  42875 points

 initial charge density was supplied:
 charge density of overlapping atoms calculated
 number of electron     256.0000000 magnetization 
 keeping initial charge density in first step


--------------------------------------------------------------------------------------------------------


 Maximum index for non-local projection operator          280
 Maximum index for augmentation-charges         3794 (set IRDMAX)


--------------------------------------------------------------------------------------------------------


 First call to EWALD:  gamma=   0.164
 Maximum number of real-space cells 3x 3x 3
 Maximum number of reciprocal cells 3x 3x 3

    FEWALD:  cpu time      0.0101: real time      0.0101


--------------------------------------- Ionic step        1  -------------------------------------------




--------------------------------------- Iteration      1(   1)  ---------------------------------------


    POTLOK:  cpu time      0.0936: real time      0.1024
    SETDIJ:  cpu time      0.0820: real time      0.0875
     EDDAV:  cpu time      1.2778: real time      1.3295
       DOS:  cpu time      0.0111: real time      0.0144
    --------------------------------------------
      LOOP:  cpu time      1.4646: real time      1.5338

 eigenvalue-minimisations  :  2592
 total energy-change (2. order) : 0.5661661E+03  (-0.8420735E+04)
 number of electron     256.0000000 magnetization 
 augmentation part      256.0000000 magnetization 

 Free energy of the ion-electron system (eV)
  ---------------------------------------------------
  alpha Z        PSCENC =       108.95282514
  Ewald energy   TEWEN  =     -7343.30189766
  -Hartree energ DENC   =      -346.32692836
  -exchange      EXHF   =         0.00000000
  -V(xc)+E(xc)   XCENC  =      -557.15276721
  PAW double counting   =      5598.62625415    -4492.17844134
  entropy T*S    EENTRO =         0.00919203
  eigenvalues    EBANDS =      1032.74201975
  atomic energy  EATOM  =      6564.79586099
  Solvation  Ediel_sol  =         0.00000000
  ---------------------------------------------------
  free energy    TOTEN  =       566.16611749 eV

  energy without entropy =      566.15692546  energy(sigma->0) =      566.16305348


--------------------------------------------------------------------------------------------------------




--------------------------------------- Iteration      1(   2)  ---------------------------------------


     EDDAV:  cpu time      1.3650: real time      1.4135
       DOS:  cpu time      0.0014: real time      0.0014
    --------------------------------------------
      LOOP:  cpu time      1.3664: real time      1.4149

 eigenvalue-minimisations  :  3088
 total energy-change (2. order) :-0.8756567E+03  (-0.8317891E+03)
 number of electron     256.0000000 magnetization 
 augmentation part      256.0000000 magnetization 

 Free energy of the ion-electron system (eV)
  ---------------------------------------------------
  alpha Z        PSCENC =       108.95282514
  Ewald energy   TEWEN  =     -7343.30189766
  -Hartree energ DENC   =      -346.32692836
  -exchange      EXHF   =         0.00000000
  -V(xc)+E(xc)   XCENC  =      -557.15276721
  PAW double counting   =      5598.62625415    -4492.17844134
  entropy T*S    EENTRO =         0.02973564
  eigenvalues    EBANDS =       157.06472881
  atomic energy  EATOM  =      6564.79586099
  Solvation  Ediel_sol  =         0.00000000
  ---------------------------------------------------
  free energy    TOTEN  =      -309.49062984 eV

  energy without entropy =     -309.52036547  energy(sigma->0) =     -309.50054172


--------------------------------------------------------------------------------------------------------




--------------------------------------- Iteration      1(   3)  ---------------------------------------


     EDDAV:  cpu time      1.3697: real time      1.3838
       DOS:  cpu time      0.0015: real time      0.0015
    --------------------------------------------
      LOOP:  cpu time      1.3712: real time      1.3853

 eigenvalue-minimisations  :  3128
 total energy-change (2. order) :-0.6367832E+02  (-0.6255523E+02)
 number of electron     256.0000000 magnetization 
 augmentation part      256.0000000 magnetization 

 Free energy of the ion-electron system (eV)
  ---------------------------------------------------
  alpha Z        PSCENC =       108.95282514
  Ewald energy   TEWEN  =     -7343.30189766
  -Hartree energ DENC   =      -346.32692836
  -exchange      EXHF   =         0.00000000
  -V(xc)+E(xc)   XCENC  =      -557.15276721
  PAW double counting   =      5598.62625415    -4492.17844134
  entropy T*S    EENTRO =         0.00811301
  eigenvalues    EBANDS =        93.40803232
  atomic energy  EATOM  =      6564.79586099
  Solvation  Ediel_sol  =         0.00000000
  ---------------------------------------------------
  free energy    TOTEN  =      -373.16894896 eV

  energy without entropy =     -373.17706197  energy(sigma->0) =     -373.17165330


--------------------------------------------------------------------------------------------------------




--------------------------------------- Iteration      1(   4)  ---------------------------------------


     EDDAV:  cpu time      1.3781: real time      1.3930
       DOS:  cpu time      0.0014: real time      0.0014
    --------------------------------------------
      LOOP:  cpu time      1.3795: real time      1.3944

 eigenvalue-minimisations  :  3144
 total energy-change (2. order) :-0.1632479E+01  (-0.1621085E+01)
 number of electron     256.0000000 magnetization 
 augmentation part      256.0000000 magnetization 

 Free energy of the ion-electron system (eV)
  ---------------------------------------------------
  alpha Z        PSCENC =       108.95282514
  Ewald energy   TEWEN  =     -7343.30189766
  -Hartree energ DENC   =      -346.32692836
  -exchange      EXHF   =         0.00000000
  -V(xc)+E(xc)   XCENC  =      -557.15276721
  PAW double counting   =      5598.62625415    -4492.17844134
  entropy T*S    EENTRO =         0.00833253
  eigenvalues    EBANDS =        91.77533418
  atomic energy  EATOM  =      6564.79586099
  Solvation  Ediel_sol  =         0.00000000
  ---------------------------------------------------
  free energy    TOTEN  =      -374.80142758 eV

  energy without entropy =     -374.80976011  energy(sigma->0) =     -374.80420509


--------------------------------------------------------------------------------------------------------




--------------------------------------- Iteration      1(   5)  ---------------------------------------


     EDDAV:  cpu time      1.3491: real time      1.3683
       DOS:  cpu time      0.0013: real time      0.0013
    CHARGE:  cpu time      0.2557: real time      0.2596
    MIXING:  cpu time      0.0087: real time      0.0098
    --------------------------------------------
      LOOP:  cpu time      1.6147: real time      1.6390

 eigenvalue-minimisations  :  3094
 total energy-change (2. order) :-0.5033208E-01  (-0.5021984E-01)
 number of electron     255.9999998 magnetization 
 augmentation part      -14.9954624 magnetization 

 Broyden mixing:
  rms(total) = 0.28586E+01    rms(broyden)= 0.28586E+01
  rms(prec ) = 0.31504E+01
  weight for this iteration     100.00

 Free energy of the ion-electron system (eV)
  ---------------------------------------------------
  alpha Z        PSCENC =       108.95282514
  Ewald energy   TEWEN  =     -7343.30189766
  -Hartree energ DENC   =      -346.32692836
  -exchange      EXHF   =         0.00000000
  -V(xc)+E(xc)   XCENC  =      -557.15276721
  PAW double counting   =      5598.62625415    -4492.17844134
  entropy T*S    EENTRO =         0.00832348
  eigenvalues    EBANDS =        91.72501115
  atomic energy  EATOM  =      6564.79586099
  Solvation  Ediel_sol  =         0.00000000
  ---------------------------------------------------
  free energy    TOTEN  =      -374.85175966 eV

  energy without entropy =     -374.86008313  energy(sigma->0) =     -374.85453415


--------------------------------------------------------------------------------------------------------




--------------------------------------- Iteration      1(   6)  ---------------------------------------


    POTLOK:  cpu time      0.0782: real time      0.0984
    SETDIJ:  cpu time      0.0658: real time      0.0663
    EDDIAG:  cpu time      0.1382: real time      0.1407
  RMM-DIIS:  cpu time      0.7188: real time      0.7241
    ORTHCH:  cpu time      0.0205: real time      0.0206
       DOS:  cpu time      0.0026: real time      0.0026
    CHARGE:  cpu time      0.2417: real time      0.2423
    MIXING:  cpu time      0.0063: real time      0.0066
    --------------------------------------------
      LOOP:  cpu time      1.2721: real time      1.3016

 eigenvalue-minimisations  :  2592
 total energy-change (2. order) : 0.5176309E+01  (-0.2608404E+00)
 number of electron     255.9999998 magnetization 
 augmentation part      -14.8316882 magnetization 

 Broyden mixing:
  rms(total) = 0.17200E+01    rms(broyden)= 0.17200E+01
  rms(prec ) = 0.18868E+01
  weight for this iteration     100.00

 eigenvalues of (default mixing * dielectric matrix)
  average eigenvalue GAMMA=   2.5054
  2.5054

 Free energy of the ion-electron system (eV)
  ---------------------------------------------------
  alpha Z        PSCENC =       108.95282514
  Ewald energy   TEWEN  =     -7343.30189766
  -Hartree energ DENC   =      -393.13570215
  -exchange      EXHF   =         0.00000000
  -V(xc)+E(xc)   XCENC  =      -549.75861711
  PAW double counting   =     12495.29077071   -11392.22994929
  entropy T*S    EENTRO =         0.01117481
  eigenvalues    EBANDS =       139.70008387
  atomic energy  EATOM  =      6564.79586099
  Solvation  Ediel_sol  =         0.00000000
  ---------------------------------------------------
  free energy    TOTEN  =      -369.67545069 eV

  energy without entropy =     -369.68662550  energy(sigma->0) =     -369.67917563


--------------------------------------------------------------------------------------------------------




--------------------------------------- Iteration      1(   7)  ---------------------------------------


    POTLOK:  cpu time      0.0799: real time      0.0926
    SETDIJ:  cpu time      0.0717: real time      0.0718
    EDDIAG:  cpu time      0.1319: real time      0.1321
  RMM-DIIS:  cpu time      0.7307: real time      0.7324
    ORTHCH:  cpu time      0.0207: real time      0.0208
       DOS:  cpu time      0.0021: real time      0.0021
    CHARGE:  cpu time      0.2433: real time      0.2437
    MIXING:  cpu time      0.0062: real time      0.0063
    --------------------------------------------
      LOOP:  cpu time      1.2865: real time      1.3019

 eigenvalue-minimisations  :  2646
 total energy-change (2. order) : 0.2347130E+01  (-0.6697072E+00)
 number of electron     255.9999998 magnetization 
 augmentation part      -14.6018862 magnetization 

 Broyden mixing:
  rms(total) = 0.97992E-01    rms(broyden)= 0.97992E-01
  rms(prec ) = 0.12346E+00
  weight for this iteration     100.00

 eigenvalues of (default mixing * dielectric matrix)
  average eigenvalue GAMMA=   2.2686
  2.2686  2.2686

 Free energy of the ion-electron system (eV)
  ---------------------------------------------------
  alpha Z        PSCENC =       108.95282514
  Ewald energy   TEWEN  =     -7343.30189766
  -Hartree energ DENC   =      -470.49756414
  -exchange      EXHF   =         0.00000000
  -V(xc)+E(xc)   XCENC  =      -536.96890442
  PAW double counting   =     29043.72031095   -27945.34460806
  entropy T*S    EENTRO =         0.03007061
  eigenvalues    EBANDS =       211.28558592
  atomic energy  EATOM  =      6564.79586099
  Solvation  Ediel_sol  =         0.00000000
  ---------------------------------------------------
  free energy    TOTEN  =      -367.32832067 eV

  energy without entropy =     -367.35839128  energy(sigma->0) =     -367.33834421


--------------------------------------------------------------------------------------------------------




--------------------------------------- Iteration      1(   8)  ---------------------------------------


    POTLOK:  cpu time      0.0762: real time      0.0929
    SETDIJ:  cpu time      0.0716: real time      0.0718
    EDDIAG:  cpu time      0.1336: real time      0.1339
  RMM-DIIS:  cpu time      0.7245: real time      0.7263
    ORTHCH:  cpu time      0.0209: real time      0.0209
       DOS:  cpu time      0.0015: real time      0.0015
    CHARGE:  cpu time      0.2405: real time      0.2410
    MIXING:  cpu time      0.0066: real time      0.0066
    --------------------------------------------
      LOOP:  cpu time      1.2755: real time      1.2949

 eigenvalue-minimisations  :  2624
 total energy-change (2. order) :-0.4170709E-01  (-0.6386749E-01)
 number of electron     255.9999998 magnetization 
 augmentation part      -14.6540354 magnetization 

 Broyden mixing:
  rms(total) = 0.49927E-01    rms(broyden)= 0.49927E-01
  rms(prec ) = 0.53413E-01
  weight for this iteration     100.00

 eigenvalues of (default mixing * dielectric matrix)
  average eigenvalue GAMMA=   2.1134
  2.5485  1.8959  1.8959

 Free energy of the ion-electron system (eV)
  ---------------------------------------------------
  alpha Z        PSCENC =       108.95282514
  Ewald energy   TEWEN  =     -7343.30189766
  -Hartree energ DENC   =      -463.06305445
  -exchange      EXHF   =         0.00000000
  -V(xc)+E(xc)   XCENC  =      -537.57692368
  PAW double counting   =     28674.71305610   -27575.43259897
  entropy T*S    EENTRO =         0.03006734
  eigenvalues    EBANDS =       203.51263744
  atomic energy  EATOM  =      6564.79586099
  Solvation  Ediel_sol  =         0.00000000
  ---------------------------------------------------
  free energy    TOTEN  =      -367.37002776 eV

  energy without entropy =     -367.40009510  energy(sigma->0) =     -367.38005021


--------------------------------------------------------------------------------------------------------




--------------------------------------- Iteration      1(   9)  ---------------------------------------


    POTLOK:  cpu time      0.0749: real time      0.0912
    SETDIJ:  cpu time      0.0777: real time      0.0795
    EDDIAG:  cpu time      0.1320: real time      0.1351
  RMM-DIIS:  cpu time      0.7098: real time      0.7338
    ORTHCH:  cpu time      0.0202: real time      0.0210
       DOS:  cpu time      0.0017: real time      0.0017
    CHARGE:  cpu time      0.2411: real time      0.2415
    MIXING:  cpu time      0.0055: real time      0.0055
    --------------------------------------------
      LOOP:  cpu time      1.2629: real time      1.3094

 eigenvalue-minimisations  :  2666
 total energy-change (2. order) :-0.1960952E-01  (-0.1826368E-01)
 number of electron     255.9999998 magnetization 
 augmentation part      -14.6433083 magnetization 

 Broyden mixing:
  rms(total) = 0.57714E-01    rms(broyden)= 0.57714E-01
  rms(prec ) = 0.64535E-01
  weight for this iteration     100.00

 eigenvalues of (default mixing * dielectric matrix)
  average eigenvalue GAMMA=   1.8156
  2.5419  2.2073  2.2073  0.3059

 Free energy of the ion-electron system (eV)
  ---------------------------------------------------
  alpha Z        PSCENC =       108.95282514
  Ewald energy   TEWEN  =     -7343.30189766
  -Hartree energ DENC   =      -465.83803136
  -exchange      EXHF   =         0.00000000
  -V(xc)+E(xc)   XCENC  =      -537.19558661
  PAW double counting   =     29025.01339797   -27925.95485153
  entropy T*S    EENTRO =         0.03020193
  eigenvalues    EBANDS =       206.10844386
  atomic energy  EATOM  =      6564.79586099
  Solvation  Ediel_sol  =         0.00000000
  ---------------------------------------------------
  free energy    TOTEN  =      -367.38963728 eV

  energy without entropy =     -367.41983920  energy(sigma->0) =     -367.39970459


--------------------------------------------------------------------------------------------------------




--------------------------------------- Iteration      1(  10)  ---------------------------------------


    POTLOK:  cpu time      0.0775: real time      0.0923
    SETDIJ:  cpu time      0.0726: real time      0.0727
    EDDIAG:  cpu time      0.1335: real time      0.1338
  RMM-DIIS:  cpu time      0.7578: real time      0.7785
    ORTHCH:  cpu time      0.0174: real time      0.0282
       DOS:  cpu time      0.0020: real time      0.0020
    CHARGE:  cpu time      0.2390: real time      0.2427
    MIXING:  cpu time      0.0047: real time      0.0048
    --------------------------------------------
      LOOP:  cpu time      1.3044: real time      1.3550

 eigenvalue-minimisations  :  2741
 total energy-change (2. order) :-0.3452305E-02  (-0.3234573E-02)
 number of electron     255.9999998 magnetization 
 augmentation part      -14.6497278 magnetization 

 Broyden mixing:
  rms(total) = 0.75736E-01    rms(broyden)= 0.75736E-01
  rms(prec ) = 0.81806E-01
  weight for this iteration     100.00

 eigenvalues of (default mixing * dielectric matrix)
  average eigenvalue GAMMA=   1.5539
  2.6527  2.0492  2.0492  0.5093  0.5093

 Free energy of the ion-electron system (eV)
  ---------------------------------------------------
  alpha Z        PSCENC =       108.95282514
  Ewald energy   TEWEN  =     -7343.30189766
  -Hartree energ DENC   =      -465.93417933
  -exchange      EXHF   =         0.00000000
  -V(xc)+E(xc)   XCENC  =      -537.18430090
  PAW double counting   =     29049.55133568   -27950.49645737
  entropy T*S    EENTRO =         0.03020739
  eigenvalues    EBANDS =       206.19351648
  atomic energy  EATOM  =      6564.79586099
  Solvation  Ediel_sol  =         0.00000000
  ---------------------------------------------------
  free energy    TOTEN  =      -367.39308958 eV

  energy without entropy =     -367.42329697  energy(sigma->0) =     -367.40315871


--------------------------------------------------------------------------------------------------------




--------------------------------------- Iteration      1(  11)  ---------------------------------------


    POTLOK:  cpu time      0.0839: real time      0.0986
    SETDIJ:  cpu time      0.0670: real time      0.0671
    EDDIAG:  cpu time      0.1365: real time      0.1375
  RMM-DIIS:  cpu time      0.7203: real time      0.7261
    ORTHCH:  cpu time      0.0215: real time      0.0217
       DOS:  cpu time      0.0013: real time      0.0013
    CHARGE:  cpu time      0.2480: real time      0.2486
    MIXING:  cpu time      0.0053: real time      0.0053
    --------------------------------------------
      LOOP:  cpu time      1.2836: real time      1.3061

 eigenvalue-minimisations  :  2592
 total energy-change (2. order) : 0.2484131E-02  (-0.1116388E-02)
 number of electron     255.9999998 magnetization 
 augmentation part      -14.6629170 magnetization 

 Broyden mixing:
  rms(total) = 0.65926E-01    rms(broyden)= 0.65926E-01
  rms(prec ) = 0.66515E-01
  weight for this iteration     100.00

 eigenvalues of (default mixing * dielectric matrix)
  average eigenvalue GAMMA=   1.4183
  2.5672  2.5672  1.1385  0.9739  0.9739  0.2893

 Free energy of the ion-electron system (eV)
  ---------------------------------------------------
  alpha Z        PSCENC =       108.95282514
  Ewald energy   TEWEN  =     -7343.30189766
  -Hartree energ DENC   =      -463.68583329
  -exchange      EXHF   =         0.00000000
  -V(xc)+E(xc)   XCENC  =      -537.33642674
  PAW double counting   =     28983.49506337   -27884.20238945
  entropy T*S    EENTRO =         0.03000671
  eigenvalues    EBANDS =       203.86218548
  atomic energy  EATOM  =      6564.79586099
  Solvation  Ediel_sol  =         0.00000000
  ---------------------------------------------------
  free energy    TOTEN  =      -367.39060545 eV

  energy without entropy =     -367.42061216  energy(sigma->0) =     -367.40060769


--------------------------------------------------------------------------------------------------------




--------------------------------------- Iteration      1(  12)  ---------------------------------------


    POTLOK:  cpu time      0.0796: real time      0.0971
    SETDIJ:  cpu time      0.0657: real time      0.0662
    EDDIAG:  cpu time      0.1349: real time      0.1361
  RMM-DIIS:  cpu time      0.7060: real time      0.7128
    ORTHCH:  cpu time      0.0202: real time      0.0204
       DOS:  cpu time      0.0016: real time      0.0016
    CHARGE:  cpu time      0.2401: real time      0.2420
    MIXING:  cpu time      0.0050: real time      0.0050
    --------------------------------------------
      LOOP:  cpu time      1.2532: real time      1.2812

 eigenvalue-minimisations  :  2606
 total energy-change (2. order) :-0.1263609E-03  (-0.1756808E-03)
 number of electron     255.9999998 magnetization 
 augmentation part      -14.6664984 magnetization 

 Broyden mixing:
  rms(total) = 0.66217E-01    rms(broyden)= 0.66217E-01
  rms(prec ) = 0.66603E-01
  weight for this iteration     100.00

 eigenvalues of (default mixing * dielectric matrix)
  average eigenvalue GAMMA=   1.3370
  2.5698  2.5698  1.3739  0.9454  0.9454  0.3447  0.6100

 Free energy of the ion-electron system (eV)
  ---------------------------------------------------
  alpha Z        PSCENC =       108.95282514
  Ewald energy   TEWEN  =     -7343.30189766
  -Hartree energ DENC   =      -463.47025788
  -exchange      EXHF   =         0.00000000
  -V(xc)+E(xc)   XCENC  =      -537.37026854
  PAW double counting   =     28905.53748306   -27806.25217842
  entropy T*S    EENTRO =         0.02998989
  eigenvalues    EBANDS =       203.68771161
  atomic energy  EATOM  =      6564.79586099
  Solvation  Ediel_sol  =         0.00000000
  ---------------------------------------------------
  free energy    TOTEN  =      -367.39073181 eV

  energy without entropy =     -367.42072170  energy(sigma->0) =     -367.40072844


--------------------------------------------------------------------------------------------------------




--------------------------------------- Iteration      1(  13)  ---------------------------------------


    POTLOK:  cpu time      0.0797: real time      0.0965
    SETDIJ:  cpu time      0.0658: real time      0.0659
    EDDIAG:  cpu time      0.1316: real time      0.1320
  RMM-DIIS:  cpu time      0.7590: real time      0.7605
    ORTHCH:  cpu time      0.0203: real time      0.0203
       DOS:  cpu time      0.0018: real time      0.0018
    CHARGE:  cpu time      0.2413: real time      0.2418
    MIXING:  cpu time      0.0052: real time      0.0052
    --------------------------------------------
      LOOP:  cpu time      1.3047: real time      1.3240

 eigenvalue-minimisations  :  2759
 total energy-change (2. order) :-0.5860404E-04  (-0.3283001E-04)
 number of electron     255.9999998 magnetization 
 augmentation part      -14.6668734 magnetization 

 Broyden mixing:
  rms(total) = 0.74217E-01    rms(broyden)= 0.74217E-01
  rms(prec ) = 0.74588E-01
  weight for this iteration     100.00

 eigenvalues of (default mixing * dielectric matrix)
  average eigenvalue GAMMA=   1.5974
  2.7070  2.7070  2.4663  1.9121  0.9956  0.8107  0.8107  0.3700

 Free energy of the ion-electron system (eV)
  ---------------------------------------------------
  alpha Z        PSCENC =       108.95282514
  Ewald energy   TEWEN  =     -7343.30189766
  -Hartree energ DENC   =      -463.52661000
  -exchange      EXHF   =         0.00000000
  -V(xc)+E(xc)   XCENC  =      -537.35896512
  PAW double counting   =     28960.27991006   -27860.99346214
  entropy T*S    EENTRO =         0.02999371
  eigenvalues    EBANDS =       203.73155460
  atomic energy  EATOM  =      6564.79586099
  Solvation  Ediel_sol  =         0.00000000
  ---------------------------------------------------
  free energy    TOTEN  =      -367.39079042 eV

  energy without entropy =     -367.42078413  energy(sigma->0) =     -367.40078832


--------------------------------------------------------------------------------------------------------




--------------------------------------- Iteration      1(  14)  ---------------------------------------


    POTLOK:  cpu time      0.0905: real time      0.0913
    SETDIJ:  cpu time      0.0725: real time      0.0728
    EDDIAG:  cpu time      0.1309: real time      0.1311
  RMM-DIIS:  cpu time      0.7165: real time      0.7179
    ORTHCH:  cpu time      0.0203: real time      0.0203
       DOS:  cpu time      0.0025: real time      0.0025
    CHARGE:  cpu time      0.2406: real time      0.2411
    MIXING:  cpu time      0.0050: real time      0.0050
    --------------------------------------------
      LOOP:  cpu time      1.2788: real time      1.2819

 eigenvalue-minimisations  :  2601
 total energy-change (2. order) :-0.4111485E-05  (-0.9129081E-05)
 number of electron     255.9999998 magnetization 
 augmentation part      -14.6673295 magnetization 

 Broyden mixing:
  rms(total) = 0.40324E-01    rms(broyden)= 0.40324E-01
  rms(prec ) = 0.40700E-01
  weight for this iteration     100.00

 eigenvalues of (default mixing * dielectric matrix)
  average eigenvalue GAMMA=   1.4420
  2.5474  2.5474  2.5008  1.7050  0.9481  0.9481  0.8788  0.3833  0.5187

 Free energy of the ion-electron system (eV)
  ---------------------------------------------------
  alpha Z        PSCENC =       108.95282514
  Ewald energy   TEWEN  =     -7343.30189766
  -Hartree energ DENC   =      -463.30187738
  -exchange      EXHF   =         0.00000000
  -V(xc)+E(xc)   XCENC  =      -537.40013593
  PAW double counting   =     28696.93627002   -27597.67812000
  entropy T*S    EENTRO =         0.02997417
  eigenvalues    EBANDS =       203.57630613
  atomic energy  EATOM  =      6564.79586099
  Solvation  Ediel_sol  =         0.00000000
  ---------------------------------------------------
  free energy    TOTEN  =      -367.39079453 eV

  energy without entropy =     -367.42076870  energy(sigma->0) =     -367.40078592


--------------------------------------------------------------------------------------------------------




--------------------------------------- Iteration      1(  15)  ---------------------------------------


    POTLOK:  cpu time      0.0795: real time      0.0982
    SETDIJ:  cpu time      0.0646: real time      0.0649
    EDDIAG:  cpu time      0.1308: real time      0.1310
  RMM-DIIS:  cpu time      0.7289: real time      0.7303
    ORTHCH:  cpu time      0.0225: real time      0.0225
       DOS:  cpu time      0.0013: real time      0.0013
    CHARGE:  cpu time      0.2417: real time      0.2422
    MIXING:  cpu time      0.0078: real time      0.0078
    --------------------------------------------
      LOOP:  cpu time      1.2770: real time      1.2982

 eigenvalue-minimisations  :  2641
 total energy-change (2. order) :-0.8715459E-04  (-0.3781467E-05)
 number of electron     255.9999998 magnetization 
 augmentation part      -14.6676016 magnetization 

 Broyden mixing:
  rms(total) = 0.34727E-01    rms(broyden)= 0.34727E-01
  rms(prec ) = 0.35017E-01
  weight for this iteration     100.00

 eigenvalues of (default mixing * dielectric matrix)
  average eigenvalue GAMMA=   1.4277
  2.6495  2.6495  2.3882  1.4956  1.0350  1.0350  0.8563  0.8977  0.8977  0.3730

 Free energy of the ion-electron system (eV)
  ---------------------------------------------------
  alpha Z        PSCENC =       108.95282514
  Ewald energy   TEWEN  =     -7343.30189766
  -Hartree energ DENC   =      -463.28367818
  -exchange      EXHF   =         0.00000000
  -V(xc)+E(xc)   XCENC  =      -537.39821456
  PAW double counting   =     28682.13572362   -27582.87336795
  entropy T*S    EENTRO =         0.02996492
  eigenvalues    EBANDS =       203.55190199
  atomic energy  EATOM  =      6564.79586099
  Solvation  Ediel_sol  =         0.00000000
  ---------------------------------------------------
  free energy    TOTEN  =      -367.39088168 eV

  energy without entropy =     -367.42084660  energy(sigma->0) =     -367.40086999


--------------------------------------------------------------------------------------------------------




--------------------------------------- Iteration      1(  16)  ---------------------------------------


    POTLOK:  cpu time      0.0923: real time      0.0940
    SETDIJ:  cpu time      0.0735: real time      0.0736
    EDDIAG:  cpu time      0.1395: real time      0.1398
  RMM-DIIS:  cpu time      0.7200: real time      0.7214
    ORTHCH:  cpu time      0.0207: real time      0.0207
       DOS:  cpu time      0.0021: real time      0.0023
    CHARGE:  cpu time      0.2419: real time      0.2424
    MIXING:  cpu time      0.0060: real time      0.0060
    --------------------------------------------
      LOOP:  cpu time      1.2960: real time      1.3002

 eigenvalue-minimisations  :  2592
 total energy-change (2. order) :-0.7052155E-04  (-0.3421713E-05)
 number of electron     255.9999998 magnetization 
 augmentation part      -14.6670757 magnetization 

 Broyden mixing:
  rms(total) = 0.22418E-01    rms(broyden)= 0.22418E-01
  rms(prec ) = 0.22558E-01
  weight for this iteration     100.00

 eigenvalues of (default mixing * dielectric matrix)
  average eigenvalue GAMMA=   1.3354
  2.6596  2.6596  2.3703  1.5876  1.0026  1.0026  0.9181  0.9181  0.8451  0.3632
  0.3632

 Free energy of the ion-electron system (eV)
  ---------------------------------------------------
  alpha Z        PSCENC =       108.95282514
  Ewald energy   TEWEN  =     -7343.30189766
  -Hartree energ DENC   =      -463.43495421
  -exchange      EXHF   =         0.00000000
  -V(xc)+E(xc)   XCENC  =      -537.38585759
  PAW double counting   =     28643.47281922   -27544.21396523
  entropy T*S    EENTRO =         0.02996967
  eigenvalues    EBANDS =       203.69424746
  atomic energy  EATOM  =      6564.79586099
  Solvation  Ediel_sol  =         0.00000000
  ---------------------------------------------------
  free energy    TOTEN  =      -367.39095220 eV

  energy without entropy =     -367.42092187  energy(sigma->0) =     -367.40094209


--------------------------------------------------------------------------------------------------------




--------------------------------------- Iteration      1(  17)  ---------------------------------------


    POTLOK:  cpu time      0.0835: real time      0.0958
    SETDIJ:  cpu time      0.0670: real time      0.0671
    EDDIAG:  cpu time      0.1330: real time      0.1333
  RMM-DIIS:  cpu time      0.7013: real time      0.7102
    ORTHCH:  cpu time      0.0204: real time      0.0204
       DOS:  cpu time      0.0021: real time      0.0021
    CHARGE:  cpu time      0.2407: real time      0.2412
    MIXING:  cpu time      0.0069: real time      0.0069
    --------------------------------------------
      LOOP:  cpu time      1.2549: real time      1.2769

 eigenvalue-minimisations  :  2592
 total energy-change (2. order) :-0.2007339E-04  (-0.1365314E-05)
 number of electron     255.9999998 magnetization 
 augmentation part      -14.6666995 magnetization 

 Broyden mixing:
  rms(total) = 0.10308E-01    rms(broyden)= 0.10308E-01
  rms(prec ) = 0.10385E-01
  weight for this iteration     100.00

 eigenvalues of (default mixing * dielectric matrix)
  average eigenvalue GAMMA=   1.5188
  1.9089  1.9089  2.6372  2.6372  2.4633  1.6939  1.0393  1.0393  0.8925  0.8156
  0.8156  0.3739

 Free energy of the ion-electron system (eV)
  ---------------------------------------------------
  alpha Z        PSCENC =       108.95282514
  Ewald energy   TEWEN  =     -7343.30189766
  -Hartree energ DENC   =      -463.48291664
  -exchange      EXHF   =         0.00000000
  -V(xc)+E(xc)   XCENC  =      -537.38781546
  PAW double counting   =     28576.03535420   -27476.77852556
  entropy T*S    EENTRO =         0.02996933
  eigenvalues    EBANDS =       203.74617339
  atomic energy  EATOM  =      6564.79586099
  Solvation  Ediel_sol  =         0.00000000
  ---------------------------------------------------
  free energy    TOTEN  =      -367.39097228 eV

  energy without entropy =     -367.42094161  energy(sigma->0) =     -367.40096205


--------------------------------------------------------------------------------------------------------




--------------------------------------- Iteration      1(  18)  ---------------------------------------


    POTLOK:  cpu time      0.0793: real time      0.0922
    SETDIJ:  cpu time      0.0718: real time      0.0719
    EDDIAG:  cpu time      0.1315: real time      0.1318
  RMM-DIIS:  cpu time      0.5312: real time      0.5322
    ORTHCH:  cpu time      0.0204: real time      0.0205
       DOS:  cpu time      0.0023: real time      0.0023
    CHARGE:  cpu time      0.2406: real time      0.2411
    MIXING:  cpu time      0.0063: real time      0.0063
    --------------------------------------------
      LOOP:  cpu time      1.0834: real time      1.0983

 eigenvalue-minimisations  :  1893
 total energy-change (2. order) :-0.5700849E-05  (-0.3751441E-06)
 number of electron     255.9999998 magnetization 
 augmentation part      -14.6664665 magnetization 

 Broyden mixing:
  rms(total) = 0.38630E-02    rms(broyden)= 0.38630E-02
  rms(prec ) = 0.39198E-02
  weight for this iteration     100.00

 eigenvalues of (default mixing * dielectric matrix)
  average eigenvalue GAMMA=   1.6882
  2.9887  2.9887  2.7426  2.7426  2.3809  1.5591  1.3779  1.3779  0.8278  0.8278
  0.9183  0.8407  0.3740

 Free energy of the ion-electron system (eV)
  ---------------------------------------------------
  alpha Z        PSCENC =       108.95282514
  Ewald energy   TEWEN  =     -7343.30189766
  -Hartree energ DENC   =      -463.50810531
  -exchange      EXHF   =         0.00000000
  -V(xc)+E(xc)   XCENC  =      -537.38899752
  PAW double counting   =     28539.14575783   -27439.88988631
  entropy T*S    EENTRO =         0.02996862
  eigenvalues    EBANDS =       203.77349623
  atomic energy  EATOM  =      6564.79586099
  Solvation  Ediel_sol  =         0.00000000
  ---------------------------------------------------
  free energy    TOTEN  =      -367.39097798 eV

  energy without entropy =     -367.42094660  energy(sigma->0) =     -367.40096752


--------------------------------------------------------------------------------------------------------




--------------------------------------- Iteration      1(  19)  ---------------------------------------


    POTLOK:  cpu time      0.0779: real time      0.0920
    SETDIJ:  cpu time      0.0682: real time      0.0685
    EDDIAG:  cpu time      0.1319: real time      0.1324
  RMM-DIIS:  cpu time      0.4809: real time      0.4819
    ORTHCH:  cpu time      0.0204: real time      0.0205
       DOS:  cpu time      0.0022: real time      0.0022
    CHARGE:  cpu time      0.2425: real time      0.2430
    MIXING:  cpu time      0.0059: real time      0.0059
    --------------------------------------------
      LOOP:  cpu time      1.0299: real time      1.0464

 eigenvalue-minimisations  :  1614
 total energy-change (2. order) :-0.2717848E-05  (-0.2302337E-06)
 number of electron     255.9999998 magnetization 
 augmentation part      -14.6663107 magnetization 

 Broyden mixing:
  rms(total) = 0.52986E-03    rms(broyden)= 0.52986E-03
  rms(prec ) = 0.55049E-03
  weight for this iteration     100.00

 eigenvalues of (default mixing * dielectric matrix)
  average eigenvalue GAMMA=   1.8204
  6.1144  2.8767  2.3632  2.3632  2.2164  1.6944  1.6944  0.3740  1.1573  1.1573
  0.9107  0.9107  0.8266  0.8266

 Free energy of the ion-electron system (eV)
  ---------------------------------------------------
  alpha Z        PSCENC =       108.95282514
  Ewald energy   TEWEN  =     -7343.30189766
  -Hartree energ DENC   =      -463.54470358
  -exchange      EXHF   =         0.00000000
  -V(xc)+E(xc)   XCENC  =      -537.38702485
  PAW double counting   =     28524.26067339   -27425.00478197
  entropy T*S    EENTRO =         0.02996866
  eigenvalues    EBANDS =       203.80809918
  atomic energy  EATOM  =      6564.79586099
  Solvation  Ediel_sol  =         0.00000000
  ---------------------------------------------------
  free energy    TOTEN  =      -367.39098070 eV

  energy without entropy =     -367.42094936  energy(sigma->0) =     -367.40097025


--------------------------------------------------------------------------------------------------------




--------------------------------------- Iteration      1(  20)  ---------------------------------------


    POTLOK:  cpu time      0.0797: real time      0.0961
    SETDIJ:  cpu time      0.0666: real time      0.0667
    EDDIAG:  cpu time      0.1316: real time      0.1318
  RMM-DIIS:  cpu time      0.4604: real time      0.4615
    ORTHCH:  cpu time      0.0206: real time      0.0206
       DOS:  cpu time      0.0015: real time      0.0015
    --------------------------------------------
      LOOP:  cpu time      0.7602: real time      0.7782

 eigenvalue-minimisations  :  1556
 total energy-change (2. order) :-0.1430190E-06  (-0.5762416E-07)
 number of electron     255.9999998 magnetization 
 augmentation part      -14.6663107 magnetization 

 Free energy of the ion-electron system (eV)
  ---------------------------------------------------
  alpha Z        PSCENC =       108.95282514
  Ewald energy   TEWEN  =     -7343.30189766
  -Hartree energ DENC   =      -463.55782559
  -exchange      EXHF   =         0.00000000
  -V(xc)+E(xc)   XCENC  =      -537.38554888
  PAW double counting   =     28526.96490324   -27427.70860257
  entropy T*S    EENTRO =         0.02996878
  eigenvalues    EBANDS =       203.81933572
  atomic energy  EATOM  =      6564.79586099
  Solvation  Ediel_sol  =         0.00000000
  ---------------------------------------------------
  free energy    TOTEN  =      -367.39098084 eV

  energy without entropy =     -367.42094962  energy(sigma->0) =     -367.40097043


--------------------------------------------------------------------------------------------------------




 average (electrostatic) potential at core
  the test charge radii are     0.9892
  (the norm of the test charge is              1.0000)
       1 -82.8927       2 -82.8927       3 -82.8927       4 -82.8927       5 -82.8927
       6 -82.8927       7 -82.8927       8 -82.8927       9 -82.8927      10 -82.8927
      11 -82.8927      12 -82.8927      13 -82.8927      14 -82.8927      15 -82.8927
      16 -82.8927      17 -82.8927      18 -82.8927      19 -82.8927      20 -82.8927
      21 -82.8927      22 -82.8927      23 -82.8927      24 -82.8927      25 -82.8927
      26 -82.8927      27 -82.8927      28 -82.8927      29 -82.8927      30 -82.8927
      31 -82.8927      32 -82.8927      33 -82.8927      34 -82.8927      35 -82.8927
      36 -82.8927      37 -82.8927      38 -82.8927      39 -82.8927      40 -82.8927
      41 -82.8927      42 -82.8927      43 -82.8927      44 -82.8927      45 -82.8927
      46 -82.8927      47 -82.8927      48 -82.8927      49 -82.8927      50 -82.8927
      51 -82.8927      52 -82.8927      53 -82.8927      54 -82.8927      55 -82.8927
      56 -82.8927      57 -82.8927      58 -82.8927      59 -82.8927      60 -82.8927
      61 -82.8927      62 -82.8927      63 -82.8927      64 -82.8927
 
 
 
 E-fermi :   6.1994     XC(G=0):  -9.6002     alpha+bet :-12.1293

 val. band max:        5.9945606069   @ k =   0.0000   0.0000   0.0000
 cond. band min:       6.3104526574   @ k =   0.5000  -0.0000   0.0000
 fundamental gap:      0.3158920505
 Fermi energy:         6.1994213791

 k-point     1 :       0.0000    0.0000    0.0000
  band No.  band energies     occupation 
      1      -6.1585      2.00000
      2      -5.0703      2.00000
      3      -5.0703      2.00000
      4      -5.0698      2.00000
      5      -5.0698      2.00000
      6      -5.0415      2.00000
      7      -5.0415      2.00000
      8      -4.1183      2.00000
      9      -4.1183      2.00000
     10      -4.0937      2.00000
     11      -4.0937      2.00000
     12      -4.0937      2.00000
     13      -4.0937      2.00000
     14      -4.0737      2.00000
     15      -4.0737      2.00000
     16      -4.0737      2.00000
     17      -4.0737      2.00000
     18      -4.0280      2.00000
     19      -4.0280      2.00000
     20      -3.8274      2.00000
     21      -3.8274      2.00000
     22      -3.7245      2.00000
     23      -3.7245      2.00000
     24      -2.0440      2.00000
     25      -1.9816      2.00000
     26      -1.9816      2.00000
     27      -1.9212      2.00000
     28      -1.8900      2.00000
     29      -1.8900      2.00000
     30      -1.8650      2.00000
     31      -1.8650      2.00000
     32      -1.8339      2.00000
     33      -1.8339      2.00000
     34      -1.7653      2.00000
     35      -1.7653      2.00000
     36      -1.7653      2.00000
     37      -1.7653      2.00000
     38      -1.7268      2.00000
     39      -1.7267      2.00000
     40      -1.6969      2.00000
     41      -1.6969      2.00000
     42      -1.1671      2.00000
     43      -1.1671      2.00000
     44      -1.1452      2.00000
     45      -1.1452      2.00000
     46       0.3564      2.00000
     47       0.3564      2.00000
     48       0.3848      2.00000
     49       0.3848      2.00000
     50       0.3848      2.00000
     51       0.3848      2.00000
     52       0.4113      2.00000
     53       0.4113      2.00000
     54       0.4396      2.00000
     55       0.4396      2.00000
     56       0.4396      2.00000
     57       0.4396      2.00000
     58       1.9506      2.00000
     59       1.9506      2.00000
     60       1.9525      2.00000
     61       1.9525      2.00000
     62       1.9594      2.00000
     63       1.9594      2.00000
     64       1.9615      2.00000
     65       1.9615      2.00000
     66       1.9615      2.00000
     67       1.9615      2.00000
     68       1.9623      2.00000
     69       1.9623      2.00000
     70       2.0206      2.00000
     71       2.0206      2.00000
     72       2.0376      2.00000
     73       2.0376      2.00000
     74       2.0376      2.00000
     75       2.0376      2.00000
     76       2.0534      2.00000
     77       2.0534      2.00000
     78       2.1224      2.00000
     79       2.1224      2.00000
     80       2.1224      2.00000
     81       2.1224      2.00000
     82       2.3636      2.00000
     83       2.3636      2.00000
     84       2.3669      2.00000
     85       2.3669      2.00000
     86       2.4731      2.00000
     87       2.4731      2.00000
     88       2.9346      2.00000
     89       2.9346      2.00000
     90       2.9690      2.00000
     91       3.0517      2.00000
     92       3.0517      2.00000
     93       3.1355      2.00000
     94       3.9267      2.00000
     95       3.9267      2.00000
     96       3.9268      2.00000
     97       3.9268      2.00000
     98       3.9441      2.00000
     99       3.9441      2.00000
    100       4.0007      2.00000
    101       4.0007      2.00000
    102       4.0342      2.00000
    103       4.0342      2.00000
    104       4.0934      2.00000
    105       4.0934      2.00000
    106       4.4883      2.00000
    107       4.4883      2.00000
    108       4.4883      2.00000
    109       4.4883      2.00000
    110       4.5699      2.00000
    111       4.5699      2.00000
    112       4.5941      2.00000
    113       4.5941      2.00000
    114       4.6080      2.00000
    115       4.6080      2.00000
    116       4.6080      2.00000
    117       4.6080      2.00000
    118       4.6484      2.00000
    119       4.6484      2.00000
    120       4.6711      2.00000
    121       4.6711      2.00000
    122       4.7431      2.00000
    123       4.7431      2.00000
    124       4.8129      2.00000
    125       4.8129      2.00000
    126       5.8814      2.04705
    127       5.8829      2.04773
    128       5.9946      2.05494
    129       6.4024     -0.05323
    130       6.4024     -0.05323
    131       6.4360     -0.07035
    132       6.5237     -0.04415
    133       6.5237     -0.04415
    134       6.6134     -0.01267
    135       6.8607     -0.00003
    136       6.8607     -0.00003
    137       6.9819     -0.00000
    138       6.9819     -0.00000
    139       6.9825     -0.00000
    140       6.9825     -0.00000
    141       7.3505     -0.00000
    142       7.3505     -0.00000
    143       7.4862     -0.00000
    144       7.4862     -0.00000
    145       8.1951     -0.00000
    146       8.1952     -0.00000
    147       8.1953     -0.00000
    148       8.1954     -0.00000
    149       8.2853     -0.00000
    150       8.2856     -0.00000
    151       8.3138     -0.00000
    152       8.3361     -0.00000
    153       8.3363     -0.00000
    154       8.3365     -0.00000
    155       8.3387     -0.00000
    156       8.3922     -0.00000
    157       8.3950     -0.00000
    158       8.4347     -0.00000
    159       8.5589     -0.00000
    160       8.9535     -0.00000
    161       8.9664     -0.00000
    162       9.0306     -0.00000

 k-point     2 :       0.5000   -0.0000    0.0000
  band No.  band energies     occupation 
      1      -5.8766      2.00000
      2      -5.8766      2.00000
      3      -4.8358      2.00000
      4      -4.8358      2.00000
      5      -4.8137      2.00000
      6      -4.8137      2.00000
      7      -4.8137      2.00000
      8      -4.8137      2.00000
      9      -4.7906      2.00000
     10      -4.7906      2.00000
     11      -3.9829      2.00000
     12      -3.9829      2.00000
     13      -3.9829      2.00000
     14      -3.9829      2.00000
     15      -3.9209      2.00000
     16      -3.9209      2.00000
     17      -3.9209      2.00000
     18      -3.9209      2.00000
     19      -3.6884      2.00000
     20      -3.6884      2.00000
     21      -3.0318      2.00000
     22      -3.0318      2.00000
     23      -2.9677      2.00000
     24      -2.9677      2.00000
     25      -2.9677      2.00000
     26      -2.9677      2.00000
     27      -2.9022      2.00000
     28      -2.9022      2.00000
     29      -1.9607      2.00000
     30      -1.9607      2.00000
     31      -1.9372      2.00000
     32      -1.9372      2.00000
     33      -1.8500      2.00000
     34      -1.8500      2.00000
     35      -1.8283      2.00000
     36      -1.8283      2.00000
     37      -0.7486      2.00000
     38      -0.7486      2.00000
     39      -0.6990      2.00000
     40      -0.6990      2.00000
     41      -0.6990      2.00000
     42      -0.6990      2.00000
[...]
  0.000   0.000   4.175   0.000   0.000   7.778   0.000   0.000
 -0.001  -0.001   0.000   4.175   0.000   0.000   7.778   0.000
  0.000   0.000   0.000   0.000   4.175   0.000   0.000   7.778
  0.000   0.000   7.778   0.000   0.000  14.501   0.000   0.000
 -0.002  -0.002   0.000   7.778   0.000   0.000  14.501   0.000
  0.000   0.000   0.000   0.000   7.778   0.000   0.000  14.502
 total augmentation occupancy for first ion, spin component:           1
  6.022  -2.331   0.000   0.041   0.000   0.000  -0.015   0.000
 -2.331   1.012   0.000  -0.021   0.000   0.000   0.007   0.000
  0.000   0.000   2.989   0.000   0.008  -0.672   0.000  -0.000
  0.041  -0.021   0.000   2.989   0.000   0.000  -0.673   0.000
  0.000   0.000   0.008   0.000   2.961  -0.000   0.000  -0.662
  0.000   0.000  -0.672   0.000  -0.000   0.160   0.000  -0.000
 -0.015   0.007   0.000  -0.673   0.000   0.000   0.160   0.000
  0.000   0.000  -0.000   0.000  -0.662  -0.000   0.000   0.157


------------------------ aborting loop because EDIFF is reached ----------------------------------------


    CHARGE:  cpu time      0.2644: real time      0.2651
    FORLOC:  cpu time      0.0221: real time      0.0222
    FORNL :  cpu time      0.6571: real time      0.6587
    STRESS:  cpu time      2.0309: real time      2.0363
    FORCOR:  cpu time      0.0885: real time      0.0887
    FORHAR:  cpu time      0.0362: real time      0.0362
    MIXING:  cpu time      0.0691: real time      0.0693
    OFIELD:  cpu time      0.0000: real time      0.0000

  FORCE on cell =-STRESS in cart. coord.  units (eV):
  Direction    XX          YY          ZZ          XY          YZ          ZX
  --------------------------------------------------------------------------------------
  Alpha Z   108.95283   108.95283   108.95283
  Ewald   -2481.87307 -2430.98773 -2430.87101    12.85837    -0.00000     0.00000
  Hartree   148.76901   157.33504   157.20854     6.98804    -0.00000    -0.00000
  E(xc)    -819.77950  -820.21053  -820.21910    -0.10991    -0.00000    -0.00000
  Local    -883.08916  -944.70468  -944.63369   -21.41843    -0.00000    -0.00000
  n-local  2486.37523  2493.62648  2493.78359     1.10864     0.00000     0.00000
  augment  -368.57278  -368.55793  -368.55106    -0.59128     0.00000     0.00000
  Kinetic  1827.70365  1812.75769  1812.42052    10.23248     0.00000     0.00000
  Fock        0.00000     0.00000     0.00000     0.00000     0.00000     0.00000
  -------------------------------------------------------------------------------------
  Total      18.48620     8.21117     8.09062     9.06791     0.00000     0.00000
  in kB      23.40358    10.39536    10.24274    11.48000     0.00000     0.00000
  external pressure =       14.68 kB  Pullay stress =        0.00 kB


 VOLUME and BASIS-vectors are now :
 -----------------------------------------------------------------------------
  energy-cutoff  :      400.00
  volume of cell :     1265.54
      direct lattice vectors                 reciprocal lattice vectors
    10.708395581 -0.081536012  0.000000000     0.093390004  0.000700425  0.000000000
    -0.081536012 10.871467606  0.000000000     0.000700425  0.091989154  0.000000000
     0.000000000  0.000000000 10.871467606     0.000000000  0.000000000  0.091983901

  length of vectors
    10.708705993 10.871773361 10.871467606     0.093392631  0.091991821  0.091983901


 FORCES acting on ions
    electron-ion (+dipol)            ewald-force                    non-local-force                 convergence-correction
 -----------------------------------------------------------------------------------------------
   0.254E-09 0.265E-08 0.128E+01   -.193E-13 0.151E-13 -.913E+00   0.442E-20 0.301E-21 -.369E+00   0.247E-13 -.847E-13 -.110E-04
   0.254E-09 0.265E-08 0.128E+01   -.218E-13 0.120E-13 -.913E+00   -.500E-20 -.373E-24 -.369E+00   -.465E-13 -.254E-13 -.110E-04
   0.254E-09 0.265E-08 0.128E+01   -.311E-14 0.249E-13 -.913E+00   -.371E-20 0.223E-21 -.369E+00   -.179E-13 0.916E-13 -.110E-04
   0.254E-09 0.265E-08 0.128E+01   -.142E-13 0.249E-13 -.913E+00   0.116E-20 -.969E-23 -.369E+00   0.408E-14 0.198E-13 -.110E-04
   0.254E-09 0.265E-08 0.128E+01   -.133E-14 0.120E-13 -.913E+00   -.221E-20 0.738E-22 -.369E+00   -.410E-13 -.474E-13 -.110E-04
   0.254E-09 0.265E-08 0.128E+01   -.755E-14 0.533E-14 -.913E+00   0.151E-20 0.693E-22 -.369E+00   0.461E-13 -.759E-13 -.110E-04
   0.254E-09 0.265E-08 0.128E+01   -.222E-13 0.182E-13 -.913E+00   0.449E-20 0.338E-21 -.369E+00   0.145E-13 0.577E-13 -.110E-04
   0.254E-09 0.265E-08 0.128E+01   -.355E-14 0.107E-13 -.913E+00   -.532E-20 0.392E-21 -.369E+00   -.919E-14 0.772E-13 -.110E-04
   -.619E-10 -.130E-08 -.128E+01   0.222E-14 0.400E-14 0.913E+00   -.443E-20 0.112E-21 0.369E+00   0.340E-13 0.564E-13 0.110E-04
   -.619E-10 -.130E-08 -.128E+01   -.711E-14 0.711E-14 0.913E+00   0.160E-20 0.229E-23 0.369E+00   -.276E-13 0.164E-13 0.110E-04
   -.619E-10 -.130E-08 -.128E+01   -.910E-14 0.222E-14 0.913E+00   0.201E-20 0.200E-21 0.369E+00   -.167E-13 -.523E-13 0.110E-04
   -.619E-10 -.130E-08 -.128E+01   0.000E+00 0.888E-14 0.913E+00   -.285E-20 0.147E-23 0.369E+00   0.348E-13 -.235E-13 0.110E-04
   -.619E-10 -.130E-08 -.128E+01   0.444E-15 0.888E-14 0.913E+00   0.389E-20 -.743E-22 0.369E+00   -.266E-13 0.768E-13 0.110E-04
   -.619E-10 -.130E-08 -.128E+01   0.178E-14 0.888E-14 0.913E+00   -.490E-20 -.743E-22 0.369E+00   0.409E-13 -.593E-14 0.110E-04
   -.619E-10 -.130E-08 -.128E+01   -.107E-13 0.133E-13 0.913E+00   -.446E-20 0.519E-21 0.369E+00   0.282E-13 -.787E-13 0.110E-04
   -.619E-10 -.130E-08 -.128E+01   -.533E-14 0.107E-13 0.913E+00   0.364E-20 -.388E-21 0.369E+00   -.305E-13 -.717E-14 0.110E-04
   0.254E-09 0.265E-08 0.128E+01   -.711E-14 0.264E-13 -.913E+00   0.325E-20 -.722E-21 -.369E+00   -.168E-13 0.437E-13 -.110E-04
   0.254E-09 0.265E-08 0.128E+01   0.311E-14 0.253E-13 -.913E+00   -.334E-20 0.437E-21 -.369E+00   0.284E-13 -.811E-13 -.110E-04
   0.254E-09 0.265E-08 0.128E+01   -.311E-14 0.242E-13 -.913E+00   -.258E-20 0.634E-21 -.369E+00   -.251E-13 -.498E-13 -.110E-04
   0.254E-09 0.265E-08 0.128E+01   -.195E-13 0.262E-13 -.913E+00   0.301E-20 -.554E-21 -.369E+00   -.319E-14 0.753E-13 -.110E-04
   0.254E-09 0.265E-08 0.128E+01   0.666E-15 0.289E-13 -.913E+00   -.214E-20 0.715E-21 -.369E+00   0.106E-13 0.701E-13 -.110E-04
   0.254E-09 0.265E-08 0.128E+01   -.844E-14 0.284E-13 -.913E+00   0.327E-20 -.343E-21 -.369E+00   -.346E-13 -.631E-13 -.110E-04
   0.254E-09 0.265E-08 0.128E+01   0.577E-14 0.266E-13 -.913E+00   0.461E-20 -.535E-21 -.369E+00   0.209E-13 -.616E-13 -.110E-04
   0.254E-09 0.265E-08 0.128E+01   0.355E-14 0.213E-13 -.913E+00   -.325E-20 0.214E-21 -.369E+00   -.506E-14 0.684E-13 -.110E-04
   -.619E-10 -.130E-08 -.128E+01   -.400E-14 0.225E-13 0.913E+00   0.164E-20 -.428E-21 0.369E+00   -.108E-13 -.125E-14 0.110E-04
   -.619E-10 -.130E-08 -.128E+01   0.666E-14 0.151E-13 0.913E+00   -.156E-20 0.717E-21 0.369E+00   -.923E-14 -.764E-13 0.110E-04
   -.619E-10 -.130E-08 -.128E+01   0.355E-14 0.201E-13 0.913E+00   -.302E-20 0.541E-21 0.369E+00   0.176E-13 0.709E-15 0.110E-04
   -.619E-10 -.130E-08 -.128E+01   0.000E+00 0.852E-14 0.913E+00   0.428E-20 -.623E-21 0.369E+00   0.237E-14 0.741E-13 0.110E-04
   -.619E-10 -.130E-08 -.128E+01   -.977E-14 0.122E-13 0.913E+00   -.158E-20 0.343E-21 0.369E+00   0.153E-13 0.368E-14 0.110E-04
   -.619E-10 -.130E-08 -.128E+01   0.799E-14 0.158E-13 0.913E+00   0.383E-20 -.293E-21 0.369E+00   0.168E-13 -.115E-12 0.110E-04
   -.619E-10 -.130E-08 -.128E+01   0.355E-14 0.178E-13 0.913E+00   -.152E-21 -.217E-21 0.369E+00   -.872E-14 -.842E-14 0.110E-04
   -.619E-10 -.130E-08 -.128E+01   0.711E-14 0.161E-13 0.913E+00   -.122E-20 0.952E-21 0.369E+00   0.566E-14 0.111E-12 0.110E-04
   0.254E-09 0.265E-08 0.128E+01   0.111E-14 -.204E-13 -.913E+00   -.117E-20 0.125E-20 -.369E+00   -.208E-13 0.129E-13 -.110E-04
   0.254E-09 0.265E-08 0.128E+01   0.400E-14 -.200E-13 -.913E+00   0.176E-20 -.338E-21 -.369E+00   0.706E-14 -.116E-12 -.110E-04
   0.254E-09 0.265E-08 0.128E+01   -.222E-14 -.155E-13 -.913E+00   0.377E-20 -.872E-21 -.369E+00   -.443E-17 -.122E-13 -.110E-04
   0.254E-09 0.265E-08 0.128E+01   0.266E-14 -.111E-13 -.913E+00   -.184E-20 0.932E-21 -.369E+00   0.166E-13 0.116E-12 -.110E-04
   0.254E-09 0.265E-08 0.128E+01   0.444E-15 -.200E-13 -.913E+00   0.507E-20 -.353E-21 -.369E+00   0.267E-13 0.510E-14 -.110E-04
   0.254E-09 0.265E-08 0.128E+01   -.311E-14 -.124E-13 -.913E+00   -.289E-20 0.561E-21 -.369E+00   0.545E-14 -.143E-12 -.110E-04
   0.254E-09 0.265E-08 0.128E+01   -.311E-14 -.120E-13 -.913E+00   -.292E-20 0.534E-21 -.369E+00   0.909E-14 -.642E-15 -.110E-04
   0.254E-09 0.265E-08 0.128E+01   0.711E-14 -.711E-14 -.913E+00   0.816E-21 -.448E-21 -.369E+00   -.904E-14 0.149E-12 -.110E-04
   -.619E-10 -.130E-08 -.128E+01   -.104E-13 -.200E-13 0.913E+00   -.345E-20 0.341E-21 0.369E+00   -.383E-13 -.139E-13 0.110E-04
   -.619E-10 -.130E-08 -.128E+01   0.844E-14 -.200E-13 0.913E+00   0.455E-20 0.216E-22 0.369E+00   0.388E-13 0.606E-13 0.110E-04
   -.619E-10 -.130E-08 -.128E+01   0.779E-14 -.244E-13 0.913E+00   0.354E-20 -.505E-21 0.369E+00   -.301E-13 0.507E-14 0.110E-04
   -.619E-10 -.130E-08 -.128E+01   0.601E-14 -.244E-13 0.913E+00   -.207E-20 0.445E-21 0.369E+00   -.159E-14 -.655E-13 0.110E-04
   -.619E-10 -.130E-08 -.128E+01   0.576E-14 -.231E-13 0.913E+00   0.289E-20 -.567E-21 0.369E+00   0.325E-13 0.143E-13 0.110E-04
   -.619E-10 -.130E-08 -.128E+01   -.645E-14 -.231E-13 0.913E+00   -.169E-20 0.774E-21 0.369E+00   -.432E-13 0.714E-13 0.110E-04
   -.619E-10 -.130E-08 -.128E+01   0.106E-13 -.249E-13 0.913E+00   -.421E-20 0.314E-22 0.369E+00   0.279E-13 -.184E-13 0.110E-04
   -.619E-10 -.130E-08 -.128E+01   -.136E-14 -.178E-13 0.913E+00   0.463E-20 -.534E-21 0.369E+00   -.607E-14 -.768E-13 0.110E-04
   0.254E-09 0.265E-08 0.128E+01   0.466E-14 -.711E-14 -.913E+00   0.341E-20 0.528E-22 -.369E+00   0.302E-13 0.185E-13 -.110E-04
   0.254E-09 0.265E-08 0.128E+01   -.622E-14 -.622E-14 -.913E+00   -.499E-20 -.325E-21 -.369E+00   -.387E-13 -.295E-13 -.110E-04
   0.254E-09 0.265E-08 0.128E+01   -.799E-14 -.377E-14 -.913E+00   -.280E-20 -.221E-21 -.369E+00   -.128E-14 -.206E-13 -.110E-04
   0.254E-09 0.265E-08 0.128E+01   -.977E-14 0.444E-14 -.913E+00   0.252E-20 -.105E-21 -.369E+00   0.994E-14 0.344E-13 -.110E-04
   0.254E-09 0.265E-08 0.128E+01   0.218E-13 -.102E-13 -.913E+00   -.271E-20 -.550E-22 -.369E+00   -.223E-13 0.614E-13 -.110E-04
   0.254E-09 0.265E-08 0.128E+01   0.280E-13 -.355E-14 -.913E+00   0.187E-20 0.108E-21 -.369E+00   0.487E-13 -.821E-13 -.110E-04
   0.254E-09 0.265E-08 0.128E+01   -.622E-14 -.799E-14 -.913E+00   0.353E-20 0.440E-21 -.369E+00   0.186E-13 -.745E-13 -.110E-04
   0.254E-09 0.265E-08 0.128E+01   0.711E-14 -.711E-14 -.913E+00   -.413E-20 -.119E-21 -.369E+00   -.119E-13 0.875E-13 -.110E-04
   -.619E-10 -.130E-08 -.128E+01   0.224E-14 -.105E-13 0.913E+00   -.342E-20 0.369E-21 0.369E+00   0.328E-14 0.121E-13 0.110E-04
   -.619E-10 -.130E-08 -.128E+01   0.167E-13 -.114E-13 0.913E+00   0.161E-20 -.938E-22 0.369E+00   -.151E-13 -.975E-13 0.110E-04
   -.619E-10 -.130E-08 -.128E+01   0.291E-13 -.175E-13 0.913E+00   0.279E-20 -.620E-21 0.369E+00   -.169E-13 -.227E-13 0.110E-04
   -.619E-10 -.130E-08 -.128E+01   0.273E-13 -.115E-13 0.913E+00   -.422E-20 0.106E-21 0.369E+00   0.536E-14 0.101E-12 0.110E-04
   -.619E-10 -.130E-08 -.128E+01   0.677E-14 -.112E-13 0.913E+00   0.270E-20 0.527E-22 0.369E+00   -.119E-13 0.654E-13 0.110E-04
   -.619E-10 -.130E-08 -.128E+01   0.413E-14 -.107E-13 0.913E+00   -.525E-20 -.111E-21 0.369E+00   0.885E-14 -.165E-12 0.110E-04
   -.619E-10 -.130E-08 -.128E+01   -.428E-14 -.135E-13 0.913E+00   -.353E-20 0.399E-21 0.369E+00   0.158E-13 -.746E-13 0.110E-04
   -.619E-10 -.130E-08 -.128E+01   0.108E-13 -.143E-13 0.913E+00   0.244E-20 0.536E-21 0.369E+00   -.119E-13 0.166E-12 0.110E-04
 -----------------------------------------------------------------------------------------------
   0.616E-08 0.434E-07 -.250E-04   0.207E-13 0.842E-13 0.240E-13   -.850E-20 0.421E-20 0.672E-14   0.411E-13 -.466E-13 -.786E-10
 
 
 POSITION                                       TOTAL-FORCE (eV/Angst)
 -----------------------------------------------------------------------------------
      0.00000     -0.00000     10.86578        -0.000000     -0.000000      0.000187
      0.00000     -0.00000      5.43005         0.000000     -0.000000      0.000187
     -0.04077      5.43573     10.86578         0.000000     -0.000000      0.000187
     -0.04077      5.43573      5.43005        -0.000000     -0.000000      0.000187
      5.35420     -0.04077     10.86578        -0.000000      0.000000      0.000187
      5.35420     -0.04077      5.43005        -0.000000      0.000000      0.000187
      5.31343      5.39497     10.86578         0.000000     -0.000000      0.000187
      5.31343      5.39497      5.43005         0.000000     -0.000000      0.000187
      3.98507      4.04622      1.36462        -0.000000      0.000000     -0.000187
      3.98507      4.04622      6.80035         0.000000      0.000000     -0.000187
      3.94430      9.48196      1.36462         0.000000     -0.000000     -0.000187
      3.94430      9.48196      6.80035         0.000000      0.000000     -0.000187
      9.33927      4.00546      1.36462         0.000000      0.000000     -0.000187
      9.33927      4.00546      6.80035         0.000000      0.000000     -0.000187
      9.29850      9.44119      1.36462        -0.000000     -0.000000     -0.000187
      9.29850      9.44119      6.80035        -0.000000     -0.000000     -0.000187
     -0.02038      2.71787      2.71218        -0.000000      0.000000      0.000187
     -0.02038      2.71787      8.14792         0.000000      0.000000      0.000187
     -0.06115      8.15360      2.71218         0.000000      0.000000      0.000187
     -0.06115      8.15360      8.14792        -0.000000      0.000000      0.000187
      5.33381      2.67710      2.71218         0.000000      0.000000      0.000187
      5.33381      2.67710      8.14792        -0.000000      0.000000      0.000187
      5.29305      8.11283      2.71218         0.000000      0.000000      0.000187
      5.29305      8.11283      8.14792         0.000000      0.000000      0.000187
      4.00546      1.32836      4.08249        -0.000000     -0.000000     -0.000187
      4.00546      1.32836      9.51822        -0.000000     -0.000000     -0.000187
      3.96469      6.76409      4.08249         0.000000     -0.000000     -0.000187
      3.96469      6.76409      9.51822        -0.000000      0.000000     -0.000187
      9.35965      1.28759      4.08249        -0.000000     -0.000000     -0.000187
      9.35965      1.28759      9.51822        -0.000000     -0.000000     -0.000187
      9.31889      6.72332      4.08249         0.000000     -0.000000     -0.000187
      9.31889      6.72332      9.51822         0.000000      0.000000     -0.000187
      2.67710     -0.02038      2.71218        -0.000000      0.000000      0.000187
      2.67710     -0.02038      8.14792        -0.000000      0.000000      0.000187
      2.63633      5.41535      2.71218        -0.000000     -0.000000      0.000187
      2.63633      5.41535      8.14792         0.000000     -0.000000      0.000187
      8.03130     -0.06115      2.71218         0.000000      0.000000      0.000187
      8.03130     -0.06115      8.14792        -0.000000     -0.000000      0.000187
      7.99053      5.37458      2.71218         0.000000     -0.000000      0.000187
      7.99053      5.37458      8.14792         0.000000     -0.000000      0.000187
      1.30797      4.06661      4.08249         0.000000      0.000000     -0.000187
      1.30797      4.06661      9.51822         0.000000      0.000000     -0.000187
      1.26721      9.50234      4.08249        -0.000000     -0.000000     -0.000187
      1.26721      9.50234      9.51822        -0.000000     -0.000000     -0.000187
      6.66217      4.02584      4.08249         0.000000      0.000000     -0.000187
      6.66217      4.02584      9.51822         0.000000      0.000000     -0.000187
      6.62140      9.46157      4.08249        -0.000000     -0.000000     -0.000187
      6.62140      9.46157      9.51822        -0.000000     -0.000000     -0.000187
      2.65671      2.69748     10.86578         0.000000      0.000000      0.000187
      2.65671      2.69748      5.43005        -0.000000      0.000000      0.000187
      2.61595      8.13322     10.86578         0.000000     -0.000000      0.000187
      2.61595      8.13322      5.43005         0.000000      0.000000      0.000187
      8.01091      2.65671     10.86578         0.000000      0.000000      0.000187
      8.01091      2.65671      5.43005        -0.000000     -0.000000      0.000187
      7.97014      8.09245     10.86578        -0.000000      0.000000      0.000187
      7.97014      8.09245      5.43005        -0.000000      0.000000      0.000187
      1.32836      1.34874      1.36462        -0.000000      0.000000     -0.000187
      1.32836      1.34874      6.80035         0.000000     -0.000000     -0.000187
      1.28759      6.78448      1.36462        -0.000000     -0.000000     -0.000187
      1.28759      6.78448      6.80035        -0.000000      0.000000     -0.000187
      6.68256      1.30797      1.36462        -0.000000     -0.000000     -0.000187
      6.68256      1.30797      6.80035        -0.000000     -0.000000     -0.000187
      6.64179      6.74371      1.36462         0.000000     -0.000000     -0.000187
      6.64179      6.74371      6.80035         0.000000      0.000000     -0.000187
 -----------------------------------------------------------------------------------
    total drift:                                0.000000      0.000000     -0.000025


--------------------------------------------------------------------------------------------------------



  FREE ENERGIE OF THE ION-ELECTRON SYSTEM (eV)
  ---------------------------------------------------
  free  energy   TOTEN  =      -367.41942260 eV

  energy  without entropy=     -367.44647061  energy(sigma->0) =     -367.42843860
 
 d Force = 0.3142987E-02[ 0.226E-04, 0.626E-02]  d Energy = 0.3138792E-02 0.419E-05
 d Force =-0.1044384E+00[-0.110E+00,-0.988E-01]  d Ewald  =-0.1044476E+00 0.921E-05


--------------------------------------------------------------------------------------------------------


    POTLOK:  cpu time      0.1453: real time      0.1457


--------------------------------------------------------------------------------------------------------




--------------------------------------------------------------------------------------------------------


  
 reached required accuracy - stopping structural energy minimisation
     LOOP+:  cpu time     13.0291: real time     13.1819
    4ORBIT:  cpu time      0.0000: real time      0.0000

 total amount of memory used by VASP MPI-rank0    81451. kBytes
=======================================================================

   base      :      30000. kBytes
   nonlr-proj:       4688. kBytes
   fftplans  :      19043. kBytes
   grid      :       7278. kBytes
   one-center:         18. kBytes
   wavefun   :      20424. kBytes
 
  
  
 General timing and accounting informations for this job:
 ========================================================
  
                  Total CPU time used (sec):       61.454
                            User time (sec):       58.070
                          System time (sec):        3.384
                         Elapsed time (sec):       65.075
  
                   Maximum memory used (kb):      408276.
                   Average memory used (kb):          N/A
  
                          Minor page faults:        97209
                          Major page faults:            0
                 Voluntary context switches:         8959
