 vasp.6.4.3 19Mar24 (build Oct 21 2024 22:36:34) complex                        
  
 executed on             LinuxIFC date 2024.11.01  22:58:49
 running   96 mpi-ranks, on    1 nodes
 distrk:  each k-point on   24 cores,    4 groups
 distr:  one band on NCORE=  12 cores,    2 groups


--------------------------------------------------------------------------------------------------------


 INCAR:
   SYSTEM = Si64
   ISTART = 0
   ICHARG = 2
   LREAL = Auto
   PREC = Accurate
   LWAVE = .False.
   LCHARG = .False.
   ADDGRID = .True.
   ENCUT = 400
   GGA = PS
   GGA_COMPAT = .FALSE.
   ISMEAR = 1
   SIGMA = 0.2
   NELM = 60
   NELMIN = 8
   EDIFF = 1e-06
   EDIFFG = -0.01
   NSW = 60
   IBRION = 2
   ISIF = 2
   KPAR = 4
   NPAR = 2
   ALGO = Fast

 POTCAR:    PAW_PBE Si 05Jan2001                  
 POTCAR:    PAW_PBE Si 05Jan2001                  
   VRHFIN =Si: s2p2                                                                                 
   LEXCH  = PE                                                                                      
   EATOM  =   103.0669 eV,    7.5752 Ry                                                             
                                                                                                    
   TITEL  = PAW_PBE Si 05Jan2001                                                                    
   LULTRA =        F    use ultrasoft PP ?                                                          
   IUNSCR =        1    unscreen: 0-lin 1-nonlin 2-no                                               
   RPACOR =    1.500    partial core radius                                                         
   POMASS =   28.085; ZVAL   =    4.000    mass and valenz                                          
   RCORE  =    1.900    outmost cutoff radius                                                       
   RWIGS  =    2.480; RWIGS  =    1.312    wigner-seitz radius (au A)                               
   ENMAX  =  245.345; ENMIN  =  184.009 eV                                                          
   ICORE  =        2    local potential                                                             
   LCOR   =        T    correct aug charges                                                         
   LPAW   =        T    paw PP                                                                      
   EAUG   =  322.069                                                                                
   DEXC   =    0.000                                                                                
   RMAX   =    1.950    core radius for proj-oper                                                   
   RAUG   =    1.300    factor for augmentation sphere                                              
   RDEP   =    1.993    radius for radial grids                                                     
   RDEPT  =    1.837    core radius for aug-charge                                                  
                                                                                                    
   Atomic configuration                                                                             
    6 entries                                                                                       
     n  l   j            E        occ.                                                              
     1  0  0.50     -1785.8828   2.0000                                                             
     2  0  0.50      -139.4969   2.0000                                                             
     2  1  1.50       -95.5546   6.0000                                                             
     3  0  0.50       -10.8127   2.0000                                                             
     3  1  0.50        -4.0811   2.0000                                                             
     3  2  1.50        -4.0817   0.0000                                                             
   Description                                                                                      
     l       E           TYP  RCUT    TYP  RCUT                                                     
     0    -10.8127223     23  1.900                                                                 
     0     -7.6451159     23  1.900                                                                 
     1     -4.0811372     23  1.900                                                                 
     1      2.4879257     23  1.900                                                                 
     2     -4.0817478      7  1.900                                                                 
  local pseudopotential read in
  partial core-charges read in
  partial kinetic energy density read in
  atomic valenz-charges read in
  non local Contribution for L=           0  read in
    real space projection operators read in
  non local Contribution for L=           0  read in
    real space projection operators read in
  non local Contribution for L=           1  read in
    real space projection operators read in
  non local Contribution for L=           1  read in
    real space projection operators read in
    PAW grid and wavefunctions read in
 
   number of l-projection  operators is LMAX  =           4
   number of lm-projection operators is LMMAX =           8
 
 Optimization of the real space projectors (new method)

 maximal supplied QI-value         = 19.84
 optimisation between [QCUT,QGAM] = [ 10.12, 20.44] = [ 28.68,116.96] Ry 
 Optimized for a Real-space Cutoff    1.38 Angstroem

   l    n(q)    QCUT    max X(q) W(low)/X(q) W(high)/X(q)  e(spline) 
   0      8    10.119   159.560    0.58E-04    0.11E-03    0.54E-07
   0      8    10.119   115.863    0.56E-04    0.11E-03    0.54E-07
   1      8    10.119    88.339    0.22E-03    0.17E-03    0.19E-06
   1      8    10.119    48.592    0.22E-03    0.17E-03    0.18E-06
 -----------------------------------------------------------------------------
|                                                                             |
|               ----> ADVICE to this user running VASP <----                  |
|                                                                             |
|     You enforced a specific xc type in the INCAR file but a different       |
|     type was found in the POTCAR file.                                      |
|     I HOPE YOU KNOW WHAT YOU ARE DOING!                                     |
|                                                                             |
 -----------------------------------------------------------------------------

  PAW_PBE Si 05Jan2001                  :
 energy of atom  1       EATOM= -103.0669
 kinetic energy error for atom=    0.0012 (will be added to EATOM!!)
 
 
 POSCAR: Si8
  positions in direct lattice
  velocities in cartesian coordinates


 exchange-correlation table for PS
   RHO(1)=    0.500       N(1)  =     2000
   RHO(2)=  100.500       N(2)  =     4000
 


--------------------------------------------------------------------------------------------------------


 ion  position               nearest neighbor table
   1  0.000  0.000  0.000-  30 2.29  44 2.29  15 2.32  57 2.32
   2  0.000  0.000  0.500-  29 2.29  43 2.29  16 2.32  58 2.32
   3  0.000  0.500  0.000-  32 2.29  42 2.29  13 2.32  59 2.32
   4  0.000  0.500  0.500-  31 2.29  41 2.29  14 2.32  60 2.32
   5  0.500  0.000  0.000-  26 2.29  48 2.29  11 2.32  61 2.32
   6  0.500  0.000  0.500-  25 2.29  47 2.29  12 2.32  62 2.32
   7  0.500  0.500  0.000-  28 2.29  46 2.29   9 2.32  63 2.32
   8  0.500  0.500  0.500-  27 2.29  45 2.29  10 2.32  64 2.32
   9  0.375  0.375  0.125-  21 2.29  35 2.29   7 2.32  49 2.32
  10  0.375  0.375  0.625-  22 2.29  36 2.29   8 2.32  50 2.32
  11  0.375  0.875  0.125-  23 2.29  33 2.29   5 2.32  51 2.32
  12  0.375  0.875  0.625-  24 2.29  34 2.29   6 2.32  52 2.32
  13  0.875  0.375  0.125-  17 2.29  39 2.29   3 2.32  53 2.32
  14  0.875  0.375  0.625-  18 2.29  40 2.29   4 2.32  54 2.32
  15  0.875  0.875  0.125-  19 2.29  37 2.29   1 2.32  55 2.32
  16  0.875  0.875  0.625-  20 2.29  38 2.29   2 2.32  56 2.32
  17  0.000  0.250  0.250-  13 2.29  57 2.29  41 2.32  29 2.32
  18  0.000  0.250  0.750-  14 2.29  58 2.29  42 2.32  30 2.32
  19  0.000  0.750  0.250-  15 2.29  59 2.29  43 2.32  31 2.32
  20  0.000  0.750  0.750-  16 2.29  60 2.29  44 2.32  32 2.32
  21  0.500  0.250  0.250-   9 2.29  61 2.29  45 2.32  25 2.32
  22  0.500  0.250  0.750-  10 2.29  62 2.29  46 2.32  26 2.32
  23  0.500  0.750  0.250-  11 2.29  63 2.29  47 2.32  27 2.32
  24  0.500  0.750  0.750-  12 2.29  64 2.29  48 2.32  28 2.32
  25  0.375  0.125  0.375-   6 2.29  50 2.29  33 2.32  21 2.32
  26  0.375  0.125  0.875-   5 2.29  49 2.29  34 2.32  22 2.32
  27  0.375  0.625  0.375-   8 2.29  52 2.29  35 2.32  23 2.32
  28  0.375  0.625  0.875-   7 2.29  51 2.29  36 2.32  24 2.32
  29  0.875  0.125  0.375-   2 2.29  54 2.29  37 2.32  17 2.32
  30  0.875  0.125  0.875-   1 2.29  53 2.29  38 2.32  18 2.32
  31  0.875  0.625  0.375-   4 2.29  56 2.29  39 2.32  19 2.32
  32  0.875  0.625  0.875-   3 2.29  55 2.29  40 2.32  20 2.32
  33  0.250  0.000  0.250-  11 2.29  57 2.29  43 2.32  25 2.32
  34  0.250  0.000  0.750-  12 2.29  58 2.29  44 2.32  26 2.32
  35  0.250  0.500  0.250-   9 2.29  59 2.29  41 2.32  27 2.32
  36  0.250  0.500  0.750-  10 2.29  60 2.29  42 2.32  28 2.32
  37  0.750  0.000  0.250-  15 2.29  61 2.29  47 2.32  29 2.32
  38  0.750  0.000  0.750-  16 2.29  62 2.29  48 2.32  30 2.32
  39  0.750  0.500  0.250-  13 2.29  63 2.29  45 2.32  31 2.32
  40  0.750  0.500  0.750-  14 2.29  64 2.29  46 2.32  32 2.32
  41  0.125  0.375  0.375-   4 2.29  50 2.29  35 2.32  17 2.32
  42  0.125  0.375  0.875-   3 2.29  49 2.29  36 2.32  18 2.32
  43  0.125  0.875  0.375-   2 2.29  52 2.29  33 2.32  19 2.32
  44  0.125  0.875  0.875-   1 2.29  51 2.29  34 2.32  20 2.32
  45  0.625  0.375  0.375-   8 2.29  54 2.29  39 2.32  21 2.32
  46  0.625  0.375  0.875-   7 2.29  53 2.29  40 2.32  22 2.32
  47  0.625  0.875  0.375-   6 2.29  56 2.29  37 2.32  23 2.32
  48  0.625  0.875  0.875-   5 2.29  55 2.29  38 2.32  24 2.32
  49  0.250  0.250  0.000-  26 2.29  42 2.29   9 2.32  57 2.32
  50  0.250  0.250  0.500-  25 2.29  41 2.29  10 2.32  58 2.32
  51  0.250  0.750  0.000-  28 2.29  44 2.29  11 2.32  59 2.32
  52  0.250  0.750  0.500-  27 2.29  43 2.29  12 2.32  60 2.32
  53  0.750  0.250  0.000-  30 2.29  46 2.29  13 2.32  61 2.32
  54  0.750  0.250  0.500-  29 2.29  45 2.29  14 2.32  62 2.32
  55  0.750  0.750  0.000-  32 2.29  48 2.29  15 2.32  63 2.32
  56  0.750  0.750  0.500-  31 2.29  47 2.29  16 2.32  64 2.32
  57  0.125  0.125  0.125-  17 2.29  33 2.29   1 2.32  49 2.32
  58  0.125  0.125  0.625-  18 2.29  34 2.29   2 2.32  50 2.32
  59  0.125  0.625  0.125-  19 2.29  35 2.29   3 2.32  51 2.32
  60  0.125  0.625  0.625-  20 2.29  36 2.29   4 2.32  52 2.32
  61  0.625  0.125  0.125-  21 2.29  37 2.29   5 2.32  53 2.32
  62  0.625  0.125  0.625-  22 2.29  38 2.29   6 2.32  54 2.32
  63  0.625  0.625  0.125-  23 2.29  39 2.29   7 2.32  55 2.32
  64  0.625  0.625  0.625-  24 2.29  40 2.29   8 2.32  56 2.32
 
  LATTYP: Found a simple monoclinic cell.
 ALAT       =    10.5574453901
 B/A-ratio  =     0.9999500039
 C/A-ratio  =     1.0199979895
 COS(beta)  =    -0.0198019501
  
  Lattice vectors:
  
 A1 = (   0.1055690156,  10.5569175591,   0.0000000000)
 A2 = (   0.0000000000,   0.0000000000, -10.5569175591)
 A3 = ( -10.7680555902,  -0.1055690156,   0.0000000000)


Analysis of symmetry for initial positions (statically):
=====================================================================
 Subroutine PRICEL returns following result:
 
  LATTYP: Found a base centered monoclinic cell.
 ALAT       =     5.2787226951
 B/A-ratio  =     0.9999500039
 C/A-ratio  =     0.7071067812
 COS(beta)  =    -0.6928246743
  
  Lattice vectors:
  
 A1 = (   0.0263922539,   2.6392293898,  -2.6392293898)
 A2 = (   0.0263922539,   2.6392293898,   2.6392293898)
 A3 = (   2.6656216437,  -2.6128371359,   0.0000000000)
 
  32 primitive cells build up your supercell.
 

 Routine SETGRP: Setting up the symmetry group for a 
 simple monoclinic supercell.


 Subroutine GETGRP returns: Found  4 space group operations
 (whereof  2 operations were pure point group operations)
 out of a pool of  4 trial point group operations.


The static configuration has the point symmetry C_2 .
 The point group associated with its full space group is C_2h.


Analysis of symmetry for dynamics (positions and initial velocities):
=====================================================================
 Subroutine PRICEL returns following result:
 
  LATTYP: Found a base centered monoclinic cell.
 ALAT       =     5.2787226951
 B/A-ratio  =     0.9999500039
 C/A-ratio  =     0.7071067812
 COS(beta)  =    -0.6928246743
  
  Lattice vectors:
  
 A1 = (   0.0263922539,   2.6392293898,  -2.6392293898)
 A2 = (   0.0263922539,   2.6392293898,   2.6392293898)
 A3 = (   2.6656216437,  -2.6128371359,   0.0000000000)
 
  32 primitive cells build up your supercell.
 

 Routine SETGRP: Setting up the symmetry group for a 
 simple monoclinic supercell.


 Subroutine GETGRP returns: Found  4 space group operations
 (whereof  2 operations were pure point group operations)
 out of a pool of  4 trial point group operations.


The dynamic configuration has the point symmetry C_2 .
 The point group associated with its full space group is C_2h.


 Subroutine INISYM returns: Found  4 space group operations
 (whereof  2 operations are pure point group operations),
 and found    32 'primitive' translations


----------------------------------------------------------------------------------------

                                     Primitive cell                                     

  volume of cell :      37.4989

  direct lattice vectors                    reciprocal lattice vectors
     0.026392254  2.639229390 -2.639229390     0.183895240  0.187610290 -0.189449239
     0.026392254  2.639229390  2.639229390     0.183895240  0.187610290  0.189449239
     2.665621644 -2.612837136  0.000000000     0.371505530 -0.003715050 -0.000000000

  length of vectors
     3.732527307  3.732527307  3.732620614     0.323892103  0.323892103  0.371524104

  position of ions in fractional coordinates (direct lattice)
     0.000000000  0.000000000  0.000000000
     0.250000000  0.750000000  0.500000000

  ion indices of the primitive-cell ions
   primitive index   ion index
                 1           1
                 2          15

----------------------------------------------------------------------------------------

 
 
 KPOINTS: Automatic mesh                          

Automatic generation of k-mesh.
 Grid dimensions read from file:
 generate k-points for:    2    2    2

 Generating k-lattice:

  Cartesian coordinates                     Fractional coordinates (reciprocal lattice)
     0.046438191 -0.000464381  0.000000000     0.500000000 -0.000000000  0.000000000
    -0.000464381  0.047366954  0.000000000    -0.000000000  0.500000000  0.000000000
     0.000000000  0.000000000  0.047362310     0.000000000  0.000000000  0.500000000

  Length of vectors
     0.046440513  0.047369230  0.047362310

  Shift w.r.t. Gamma in fractional coordinates (k-lattice)
     0.000000000  0.000000000  0.000000000

 
 Subroutine IBZKPT returns following result:
 ===========================================
 
 Found      8 irreducible k-points:
 
 Following reciprocal coordinates:
            Coordinates               Weight
  0.000000  0.000000  0.000000      1.000000
  0.500000  0.000000  0.000000      1.000000
 -0.000000  0.500000  0.000000      1.000000
  0.500000  0.500000  0.000000      1.000000
  0.000000  0.000000  0.500000      1.000000
  0.500000  0.000000  0.500000      1.000000
 -0.000000  0.500000  0.500000      1.000000
  0.500000  0.500000  0.500000      1.000000
 
 Following cartesian coordinates:
            Coordinates               Weight
  0.000000  0.000000  0.000000      1.000000
  0.046438 -0.000464  0.000000      1.000000
 -0.000464  0.047367  0.000000      1.000000
  0.045974  0.046903  0.000000      1.000000
  0.000000  0.000000  0.047362      1.000000
  0.046438 -0.000464  0.047362      1.000000
 -0.000464  0.047367  0.047362      1.000000
  0.045974  0.046903  0.047362      1.000000
 


--------------------------------------------------------------------------------------------------------




 Dimension of arrays:
   k-points           NKPTS =      8   k-points in BZ     NKDIM =      8   number of bands    NBANDS=    162
   number of dos      NEDOS =    301   number of ions     NIONS =     64
   non local maximal  LDIM  =      4   non local SUM 2l+1 LMDIM =      8
   total plane-waves  NPLWV = 343000
   max r-space proj   IRMAX =   3200   max aug-charges    IRDMAX=  76647
   dimension x,y,z NGX =    70 NGY =   70 NGZ =   70
   dimension x,y,z NGXF=   140 NGYF=  140 NGZF=  140
   support grid    NGXF=   280 NGYF=  280 NGZF=  280
   ions per type =              64
   NGX,Y,Z   is equivalent  to a cutoff of  10.81, 11.02, 11.02 a.u.
   NGXF,Y,Z  is equivalent  to a cutoff of  21.61, 22.05, 22.05 a.u.

 SYSTEM =  Si64                                    
 POSCAR =  Si8                                     

 Startparameter for this run:
   NWRITE =      2    write-flag & timer
   PREC   = accura    normal or accurate (medium, high low for compatibility)
   ISTART =      0    job   : 0-new  1-cont  2-samecut
   ICHARG =      2    charge: 1-file 2-atom 10-const
   ISPIN  =      1    spin polarized calculation?
   LNONCOLLINEAR =      F non collinear calculations
   LSORBIT =      F    spin-orbit coupling
   INIWAV =      1    electr: 0-lowe 1-rand  2-diag
   LASPH  =      F    aspherical Exc in radial PAW
 Electronic Relaxation 1
   ENCUT  =  400.0 eV  29.40 Ry    5.42 a.u.  17.56 17.22 17.22*2*pi/ulx,y,z
   ENINI  =  400.0     initial cutoff
   ENAUG  =  322.1 eV  augmentation charge cutoff
   NELM   =     60;   NELMIN=  8; NELMDL= -5     # of ELM steps 
   EDIFF  = 0.1E-05   stopping-criterion for ELM
   LREAL  =      T    real-space projection
   NLSPLINE    = F    spline interpolate recip. space projectors
   LCOMPAT=      F    compatible to vasp.4.4
   GGA_COMPAT  = F    GGA compatible to vasp.4.4-vasp.4.6
   LMAXPAW     = -100 max onsite density
   LMAXMIX     =    2 max onsite mixed and CHGCAR
   VOSKOWN=      0    Vosko Wilk Nusair interpolation
   ROPT   =   -0.00025
 Ionic relaxation
   EDIFFG = -.1E-01   stopping-criterion for IOM
   NSW    =     60    number of steps for IOM
   NBLOCK =      1;   KBLOCK =     60    inner block; outer block 
   IBRION =      2    ionic relax: 0-MD 1-quasi-New 2-CG
   NFREE  =      1    steps in history (QN), initial steepest desc. (CG)
   ISIF   =      2    stress and relaxation
   IWAVPR =     11    prediction:  0-non 1-charg 2-wave 3-comb
   ISYM   =      2    0-nonsym 1-usesym 2-fastsym
   LCORR  =      T    Harris-Foulkes like correction to forces

   POTIM  = 0.5000    time-step for ionic-motion
   TEIN   =    0.0    initial temperature
   TEBEG  =    0.0;   TEEND  =   0.0 temperature during run
   SMASS  =  -3.00    Nose mass-parameter (am)
   estimated Nose-frequenzy (Omega)   =  0.10E-29 period in steps = 0.13E+47 mass=  -0.265E-26a.u.
   SCALEE = 1.0000    scale energy and forces
   NPACO  =    256;   APACO  = 10.0  distance and # of slots for P.C.
   PSTRESS=    0.0 pullay stress

  Mass of Ions in am
   POMASS =  28.09
  Ionic Valenz
   ZVAL   =   4.00
  Atomic Wigner-Seitz radii
   RWIGS  =  -1.00
  virtual crystal weights 
   VCA    =   1.00
   NELECT =     256.0000    total number of electrons
   NUPDOWN=      -1.0000    fix difference up-down

 DOS related values:
   EMIN   =  10.00;   EMAX   =-10.00  energy-range for DOS
   EFERMI =   0.00;   METHOD = LEGACY      
   ISMEAR =     1;   SIGMA  =   0.20  broadening in eV -4-tet -1-fermi 0-gaus

 Electronic relaxation 2 (details)
   IALGO  =     68    algorithm
   LDIAG  =      T    sub-space diagonalisation (order eigenvalues)
   LSUBROT=      F    optimize rotation matrix (better conditioning)
   TURBO    =      0    0=normal 1=particle mesh
   IRESTART =      0    0=no restart 2=restart with 2 vectors
   NREBOOT  =      0    no. of reboots
   NMIN     =      0    reboot dimension
   EREF     =   0.00    reference energy to select bands
   IMIX   =      4    mixing-type and parameters
     AMIX     =   0.40;   BMIX     =  1.00
     AMIX_MAG =   1.60;   BMIX_MAG =  1.00
     AMIN     =   0.10
     WC   =   100.;   INIMIX=   1;  MIXPRE=   1;  MAXMIX= -45

 Intra band minimization:
   WEIMIN = 0.0010     energy-eigenvalue tresh-hold
   EBREAK =  0.15E-08  absolut break condition
   DEPER  =   0.30     relativ break condition  

   TIME   =   0.40     timestep for ELM

  volume/ion in A,a.u.               =      18.75       126.53
  Fermi-wavevector in a.u.,A,eV,Ry     =   0.978209  1.848548 13.019328  0.956894
  Thomas-Fermi vector in A             =   2.108967
 
 Write flags
   LWAVE        =      F    write WAVECAR
   LDOWNSAMPLE  =      F    k-point downsampling of WAVECAR
   LCHARG       =      F    write CHGCAR
   LVTOT        =      F    write LOCPOT, total local potential
   LVHAR        =      F    write LOCPOT, Hartree potential only
   WRT_POTENTIAL= false  ! write potential to hdf5 file
   LELF         =      F    write electronic localiz. function (ELF)
   LORBIT       =      0    0 simple, 1 ext, 2 COOP (PROOUT), +10 PAW based schemes


 Dipole corrections
   LMONO      =      F    monopole corrections only (constant potential shift)
   LDIPOL     =      F    correct potential (dipole corrections)
   IDIPOL     =      0    1-x, 2-y, 3-z, 4-all directions 
   EPSILON    =  1.0000000 bulk dielectric constant
   LVACPOTAV  =      F  vacuum potentials using an averaging scheme for the charge density
   VACPOTFLAT =  0.1000000 required flatness to determine vacuum potential
 Exchange correlation treatment:
   GGA     = PS    functional components
   XC_C    = 1    coefficients multiplying the functional components
   LIBXC   =     F    Libxc                    
   VOSKOWN =     0    Vosko Wilk Nusair interpolation
   LHFCALC =     F    Hartree Fock is set to
   LHFONE  =     F    Hartree Fock one center treatment
   AEXX    =    0.0000 exact exchange contribution

 Parameters of functionals:
   PS:
     No parameter
 
 Van der Waals corrections
   IVDW    =     0    specifies the selected vdW correction

 Linear response parameters
   LEPSILON=     F    determine dielectric tensor
   LRPA    =     F    only Hartree local field effects (RPA)
   LNABLA  =     F    use nabla operator in PAW spheres
   LVEL    =     F    velocity operator in full k-point grid
   CSHIFT  =0.1000    complex shift for real part using Kramers Kronig
   OMEGAMAX=  -1.0    maximum frequency
   DEG_THRESHOLD= 0.2000000E-02 threshold for treating states as degnerate
   RTIME   =   -0.100 relaxation time in fs
  (WPLASMAI=    0.000 imaginary part of plasma frequency in eV, 0.658/RTIME)
   DFIELD  = 0.0000000 0.0000000 0.0000000 field for delta impulse in time
 
  Optional k-point grid parameters
   LKPOINTS_OPT  =     F    use optional k-point grid
   KPOINTS_OPT_MODE=     1    mode for optional k-point grid
 
 Orbital magnetization related:
   ORBITALMAG=     F  switch on orbital magnetization
   LCHIMAG   =     F  perturbation theory with respect to B field
   DQ        =  0.001000  dq finite difference perturbation B field
   LLRAUG    =     F  two centre corrections for induced B field
   LBONE     =     F  B-component reconstruction in AE one-centre
   LVGVCALC  =     T  calculate vGv susceptibility
   LVGVAPPL  =     F  apply vGv susceptibility instead of pGv for G=0

 Random number generation:
   RANDOM_GENERATOR = DEFAULT
   PCG_SEED         = not used


--------------------------------------------------------------------------------------------------------


 conjugate gradient relaxation of ions
 charge density and potential will be updated during run
 non-spin polarized calculation
 RMM-DIIS sequential band-by-band and
  variant of blocked Davidson during initial phase
 perform sub-space diagonalisation
    before iterative eigenvector-optimisation
 modified Broyden-mixing scheme, WC =      100.0
 initial mixing is a Kerker type mixing with AMIX =  0.4000 and BMIX =      1.0000
 Hartree-type preconditioning will be used
 using additional bands           34
 real space projection scheme for non local part
 use partial core corrections
 calculate Harris-corrections to forces 
   (improved forces if not selfconsistent)
 use gradient corrections 
 use of overlap-Matrix (Vanderbilt PP)
 Methfessel and Paxton  Order N= 1 SIGMA  =   0.20


--------------------------------------------------------------------------------------------------------


  energy-cutoff  :      400.00
  volume of cell :     1199.97
      direct lattice vectors                 reciprocal lattice vectors
    10.768055590  0.105569016  0.000000000     0.092876382 -0.000928762  0.000000000
     0.105569016 10.556917559  0.000000000    -0.000928762  0.094733907  0.000000000
     0.000000000  0.000000000 10.556917559     0.000000000  0.000000000  0.094724620

  length of vectors
    10.768573072 10.557445390 10.556917559     0.092881026  0.094738460  0.094724620


 
 k-points in units of 2pi/SCALE and weight: Automatic mesh                          
   0.00000000  0.00000000  0.00000000       0.125
   0.04643820 -0.00046438  0.00000000       0.125
  -0.00046438  0.04736696  0.00000000       0.125
   0.04597382  0.04690258  0.00000000       0.125
   0.00000000  0.00000000  0.04736232       0.125
   0.04643820 -0.00046438  0.04736232       0.125
  -0.00046438  0.04736696  0.04736232       0.125
   0.04597382  0.04690258  0.04736232       0.125
 
 k-points in reciprocal lattice and weights: Automatic mesh                          
   0.00000000  0.00000000  0.00000000       0.125
   0.50000000  0.00000000  0.00000000       0.125
  -0.00000000  0.50000000  0.00000000       0.125
   0.50000000  0.50000000  0.00000000       0.125
   0.00000000  0.00000000  0.50000000       0.125
   0.50000000  0.00000000  0.50000000       0.125
  -0.00000000  0.50000000  0.50000000       0.125
   0.50000000  0.50000000  0.50000000       0.125
 
 position of ions in fractional coordinates (direct lattice) 
   0.00000000  0.00000000  0.00000000
   0.00000000  0.00000000  0.50000000
   0.00000000  0.50000000  0.00000000
   0.00000000  0.50000000  0.50000000
   0.50000000  0.00000000  0.00000000
   0.50000000  0.00000000  0.50000000
   0.50000000  0.50000000  0.00000000
   0.50000000  0.50000000  0.50000000
   0.37500000  0.37500000  0.12500000
   0.37500000  0.37500000  0.62500000
   0.37500000  0.87500000  0.12500000
   0.37500000  0.87500000  0.62500000
   0.87500000  0.37500000  0.12500000
   0.87500000  0.37500000  0.62500000
   0.87500000  0.87500000  0.12500000
   0.87500000  0.87500000  0.62500000
   0.00000000  0.25000000  0.25000000
   0.00000000  0.25000000  0.75000000
   0.00000000  0.75000000  0.25000000
   0.00000000  0.75000000  0.75000000
   0.50000000  0.25000000  0.25000000
   0.50000000  0.25000000  0.75000000
   0.50000000  0.75000000  0.25000000
   0.50000000  0.75000000  0.75000000
   0.37500000  0.12500000  0.37500000
   0.37500000  0.12500000  0.87500000
   0.37500000  0.62500000  0.37500000
   0.37500000  0.62500000  0.87500000
   0.87500000  0.12500000  0.37500000
   0.87500000  0.12500000  0.87500000
   0.87500000  0.62500000  0.37500000
   0.87500000  0.62500000  0.87500000
   0.25000000  0.00000000  0.25000000
   0.25000000  0.00000000  0.75000000
   0.25000000  0.50000000  0.25000000
   0.25000000  0.50000000  0.75000000
   0.75000000  0.00000000  0.25000000
   0.75000000  0.00000000  0.75000000
   0.75000000  0.50000000  0.25000000
   0.75000000  0.50000000  0.75000000
   0.12500000  0.37500000  0.37500000
   0.12500000  0.37500000  0.87500000
   0.12500000  0.87500000  0.37500000
   0.12500000  0.87500000  0.87500000
   0.62500000  0.37500000  0.37500000
   0.62500000  0.37500000  0.87500000
   0.62500000  0.87500000  0.37500000
   0.62500000  0.87500000  0.87500000
   0.25000000  0.25000000  0.00000000
   0.25000000  0.25000000  0.50000000
   0.25000000  0.75000000  0.00000000
   0.25000000  0.75000000  0.50000000
   0.75000000  0.25000000  0.00000000
   0.75000000  0.25000000  0.50000000
   0.75000000  0.75000000  0.00000000
   0.75000000  0.75000000  0.50000000
   0.12500000  0.12500000  0.12500000
   0.12500000  0.12500000  0.62500000
   0.12500000  0.62500000  0.12500000
   0.12500000  0.62500000  0.62500000
   0.62500000  0.12500000  0.12500000
   0.62500000  0.12500000  0.62500000
   0.62500000  0.62500000  0.12500000
   0.62500000  0.62500000  0.62500000
 
 position of ions in cartesian coordinates  (Angst):
   0.00000000  0.00000000  0.00000000
   0.00000000  0.00000000  5.27845878
   0.05278451  5.27845878  0.00000000
   0.05278451  5.27845878  5.27845878
   5.38402780  0.05278451  0.00000000
   5.38402780  0.05278451  5.27845878
   5.43681230  5.33124329  0.00000000
   5.43681230  5.33124329  5.27845878
   4.07760923  3.99843247  1.31961469
   4.07760923  3.99843247  6.59807347
   4.13039373  9.27689125  1.31961469
   4.13039373  9.27689125  6.59807347
   9.46163702  4.05121697  1.31961469
   9.46163702  4.05121697  6.59807347
   9.51442153  9.32967575  1.31961469
   9.51442153  9.32967575  6.59807347
   0.02639225  2.63922939  2.63922939
   0.02639225  2.63922939  7.91768817
   0.07917676  7.91768817  2.63922939
   0.07917676  7.91768817  7.91768817
   5.41042005  2.69201390  2.63922939
   5.41042005  2.69201390  7.91768817
   5.46320456  7.97047268  2.63922939
   5.46320456  7.97047268  7.91768817
   4.05121697  1.35920308  3.95884408
   4.05121697  1.35920308  9.23730286
   4.10400148  6.63766186  3.95884408
   4.10400148  6.63766186  9.23730286
   9.43524477  1.41198758  3.95884408
   9.43524477  1.41198758  9.23730286
   9.48802928  6.69044636  3.95884408
   9.48802928  6.69044636  9.23730286
   2.69201390  0.02639225  2.63922939
   2.69201390  0.02639225  7.91768817
   2.74479841  5.30485103  2.63922939
   2.74479841  5.30485103  7.91768817
   8.07604169  0.07917676  2.63922939
   8.07604169  0.07917676  7.91768817
   8.12882620  5.35763554  2.63922939
   8.12882620  5.35763554  7.91768817
   1.38559533  3.97204021  3.95884408
   1.38559533  3.97204021  9.23730286
   1.43837984  9.25049899  3.95884408
   1.43837984  9.25049899  9.23730286
   6.76962312  4.02482472  3.95884408
   6.76962312  4.02482472  9.23730286
   6.82240763  9.30328350  3.95884408
   6.82240763  9.30328350  9.23730286
   2.71840615  2.66562164  0.00000000
   2.71840615  2.66562164  5.27845878
   2.77119066  7.94408042  0.00000000
   2.77119066  7.94408042  5.27845878
   8.10243395  2.71840615  0.00000000
   8.10243395  2.71840615  5.27845878
   8.15521845  7.99686493  0.00000000
   8.15521845  7.99686493  5.27845878
   1.35920308  1.33281082  1.31961469
   1.35920308  1.33281082  6.59807347
   1.41198758  6.61126960  1.31961469
   1.41198758  6.61126960  6.59807347
   6.74323087  1.38559533  1.31961469
   6.74323087  1.38559533  6.59807347
   6.79601538  6.66405411  1.31961469
   6.79601538  6.66405411  6.59807347
 


--------------------------------------------------------------------------------------------------------


 k-point     1 :   0.0000 0.0000 0.0000  plane waves:   21825
 k-point     2 :   0.5000 0.0000 0.0000  plane waves:   21790
 k-point     3 :  -0.0000 0.5000 0.0000  plane waves:   21814
 k-point     4 :   0.5000 0.5000 0.0000  plane waves:   21764
 k-point     5 :   0.0000 0.0000 0.5000  plane waves:   21790
 k-point     6 :   0.5000 0.0000 0.5000  plane waves:   21780
 k-point     7 :  -0.0000 0.5000 0.5000  plane waves:   21808
 k-point     8 :   0.5000 0.5000 0.5000  plane waves:   21796

 maximum and minimum number of plane-waves per node :      1839     1794

 maximum number of plane-waves:     21825
 maximum index in each direction: 
   IXMAX=   17   IYMAX=   17   IZMAX=   17
   IXMIN=  -18   IYMIN=  -17   IZMIN=  -17


 real space projection operators:
  total allocation   :      12250.50 KBytes
  max/ min on nodes  :       1067.25        881.25


 parallel 3D FFT for wavefunctions:
    minimum data exchange during FFTs selected (reduces bandwidth)
 parallel 3D FFT for charge:
    minimum data exchange during FFTs selected (reduces bandwidth)


 total amount of memory used by VASP MPI-rank0    79051. kBytes
=======================================================================

   base      :      30000. kBytes
   nonlr-proj:       4732. kBytes
   fftplans  :      17991. kBytes
   grid      :       6881. kBytes
   one-center:         18. kBytes
   wavefun   :      19429. kBytes
 
     INWAV:  cpu time      0.0000: real time      0.0000
 Broyden mixing: mesh for mixing (old mesh)
   NGX = 35   NGY = 35   NGZ = 35
  (NGX  =140   NGY  =140   NGZ  =140)
  gives a total of  42875 points

 initial charge density was supplied:
 charge density of overlapping atoms calculated
 number of electron     256.0000000 magnetization 
 keeping initial charge density in first step


--------------------------------------------------------------------------------------------------------


 Maximum index for non-local projection operator          282
 Maximum index for augmentation-charges         3768 (set IRDMAX)


--------------------------------------------------------------------------------------------------------


 First call to EWALD:  gamma=   0.167
 Maximum number of real-space cells 3x 3x 3
 Maximum number of reciprocal cells 3x 3x 3

    FEWALD:  cpu time      0.0101: real time      0.0101


--------------------------------------- Ionic step        1  -------------------------------------------




--------------------------------------- Iteration      1(   1)  ---------------------------------------


    POTLOK:  cpu time      0.0922: real time      0.0998
    SETDIJ:  cpu time      0.0887: real time      0.0895
     EDDAV:  cpu time      1.2616: real time      1.3226
       DOS:  cpu time      0.0105: real time      0.0136
    --------------------------------------------
      LOOP:  cpu time      1.4531: real time      1.5255

 eigenvalue-minimisations  :  2592
 total energy-change (2. order) : 0.5771964E+03  (-0.8512084E+04)
 number of electron     256.0000000 magnetization 
 augmentation part      256.0000000 magnetization 

 Free energy of the ion-electron system (eV)
  ---------------------------------------------------
  alpha Z        PSCENC =       114.90673464
  Ewald energy   TEWEN  =     -7474.65620693
  -Hartree energ DENC   =      -321.47811699
  -exchange      EXHF   =         0.00000000
  -V(xc)+E(xc)   XCENC  =      -550.79150599
  PAW double counting   =      5598.62625415    -4492.17844134
  entropy T*S    EENTRO =        -0.00173518
  eigenvalues    EBANDS =      1137.97359338
  atomic energy  EATOM  =      6564.79586099
  Solvation  Ediel_sol  =         0.00000000
  ---------------------------------------------------
  free energy    TOTEN  =       577.19643674 eV

  energy without entropy =      577.19817192  energy(sigma->0) =      577.19701513


--------------------------------------------------------------------------------------------------------




--------------------------------------- Iteration      1(   2)  ---------------------------------------


     EDDAV:  cpu time      1.3294: real time      1.3484
       DOS:  cpu time      0.0011: real time      0.0011
    --------------------------------------------
      LOOP:  cpu time      1.3305: real time      1.3495

 eigenvalue-minimisations  :  3104
 total energy-change (2. order) :-0.8858729E+03  (-0.8404664E+03)
 number of electron     256.0000000 magnetization 
 augmentation part      256.0000000 magnetization 

 Free energy of the ion-electron system (eV)
  ---------------------------------------------------
  alpha Z        PSCENC =       114.90673464
  Ewald energy   TEWEN  =     -7474.65620693
  -Hartree energ DENC   =      -321.47811699
  -exchange      EXHF   =         0.00000000
  -V(xc)+E(xc)   XCENC  =      -550.79150599
  PAW double counting   =      5598.62625415    -4492.17844134
  entropy T*S    EENTRO =        -0.00153118
  eigenvalues    EBANDS =       252.10049325
  atomic energy  EATOM  =      6564.79586099
  Solvation  Ediel_sol  =         0.00000000
  ---------------------------------------------------
  free energy    TOTEN  =      -308.67645938 eV

  energy without entropy =     -308.67492821  energy(sigma->0) =     -308.67594899


--------------------------------------------------------------------------------------------------------




--------------------------------------- Iteration      1(   3)  ---------------------------------------


     EDDAV:  cpu time      1.3479: real time      1.3668
       DOS:  cpu time      0.0017: real time      0.0017
    --------------------------------------------
      LOOP:  cpu time      1.3495: real time      1.3684

 eigenvalue-minimisations  :  3144
 total energy-change (2. order) :-0.6375460E+02  (-0.6245722E+02)
 number of electron     256.0000000 magnetization 
 augmentation part      256.0000000 magnetization 

 Free energy of the ion-electron system (eV)
  ---------------------------------------------------
  alpha Z        PSCENC =       114.90673464
  Ewald energy   TEWEN  =     -7474.65620693
  -Hartree energ DENC   =      -321.47811699
  -exchange      EXHF   =         0.00000000
  -V(xc)+E(xc)   XCENC  =      -550.79150599
  PAW double counting   =      5598.62625415    -4492.17844134
  entropy T*S    EENTRO =         0.00762417
  eigenvalues    EBANDS =       188.33674133
  atomic energy  EATOM  =      6564.79586099
  Solvation  Ediel_sol  =         0.00000000
  ---------------------------------------------------
  free energy    TOTEN  =      -372.43105596 eV

  energy without entropy =     -372.43868013  energy(sigma->0) =     -372.43359735


--------------------------------------------------------------------------------------------------------




--------------------------------------- Iteration      1(   4)  ---------------------------------------


     EDDAV:  cpu time      1.3229: real time      1.3392
       DOS:  cpu time      0.0011: real time      0.0011
    --------------------------------------------
      LOOP:  cpu time      1.3241: real time      1.3404

 eigenvalue-minimisations  :  3128
 total energy-change (2. order) :-0.1620659E+01  (-0.1609301E+01)
 number of electron     256.0000000 magnetization 
 augmentation part      256.0000000 magnetization 

 Free energy of the ion-electron system (eV)
  ---------------------------------------------------
  alpha Z        PSCENC =       114.90673464
  Ewald energy   TEWEN  =     -7474.65620693
  -Hartree energ DENC   =      -321.47811699
  -exchange      EXHF   =         0.00000000
  -V(xc)+E(xc)   XCENC  =      -550.79150599
  PAW double counting   =      5598.62625415    -4492.17844134
  entropy T*S    EENTRO =         0.00748801
  eigenvalues    EBANDS =       186.71621823
  atomic energy  EATOM  =      6564.79586099
  Solvation  Ediel_sol  =         0.00000000
  ---------------------------------------------------
  free energy    TOTEN  =      -374.05171521 eV

  energy without entropy =     -374.05920323  energy(sigma->0) =     -374.05421122


--------------------------------------------------------------------------------------------------------




--------------------------------------- Iteration      1(   5)  ---------------------------------------


     EDDAV:  cpu time      1.3359: real time      1.3522
       DOS:  cpu time      0.0012: real time      0.0012
    CHARGE:  cpu time      0.2600: real time      0.2632
    MIXING:  cpu time      0.0108: real time      0.0147
    --------------------------------------------
      LOOP:  cpu time      1.6080: real time      1.6314

 eigenvalue-minimisations  :  3128
 total energy-change (2. order) :-0.5032678E-01  (-0.5021720E-01)
 number of electron     255.9999998 magnetization 
 augmentation part      -15.1220985 magnetization 

 Broyden mixing:
  rms(total) = 0.30630E+01    rms(broyden)= 0.30630E+01
  rms(prec ) = 0.33668E+01
  weight for this iteration     100.00

 Free energy of the ion-electron system (eV)
  ---------------------------------------------------
  alpha Z        PSCENC =       114.90673464
  Ewald energy   TEWEN  =     -7474.65620693
  -Hartree energ DENC   =      -321.47811699
  -exchange      EXHF   =         0.00000000
  -V(xc)+E(xc)   XCENC  =      -550.79150599
  PAW double counting   =      5598.62625415    -4492.17844134
  entropy T*S    EENTRO =         0.00747925
  eigenvalues    EBANDS =       186.66590022
  atomic energy  EATOM  =      6564.79586099
  Solvation  Ediel_sol  =         0.00000000
  ---------------------------------------------------
  free energy    TOTEN  =      -374.10204199 eV

  energy without entropy =     -374.10952124  energy(sigma->0) =     -374.10453508


--------------------------------------------------------------------------------------------------------




--------------------------------------- Iteration      1(   6)  ---------------------------------------


    POTLOK:  cpu time      0.0758: real time      0.0888
    SETDIJ:  cpu time      0.0725: real time      0.0727
    EDDIAG:  cpu time      0.1372: real time      0.1396
  RMM-DIIS:  cpu time      0.6992: real time      0.7029
    ORTHCH:  cpu time      0.0199: real time      0.0200
       DOS:  cpu time      0.0020: real time      0.0020
    CHARGE:  cpu time      0.2340: real time      0.2346
    MIXING:  cpu time      0.0063: real time      0.0104
    --------------------------------------------
      LOOP:  cpu time      1.2470: real time      1.2710

 eigenvalue-minimisations  :  2592
 total energy-change (2. order) : 0.6046680E+01  (-0.3192045E+00)
 number of electron     255.9999998 magnetization 
 augmentation part      -14.9354296 magnetization 

 Broyden mixing:
  rms(total) = 0.18482E+01    rms(broyden)= 0.18482E+01
  rms(prec ) = 0.20183E+01
  weight for this iteration     100.00

 eigenvalues of (default mixing * dielectric matrix)
  average eigenvalue GAMMA=   2.5151
  2.5151

 Free energy of the ion-electron system (eV)
  ---------------------------------------------------
  alpha Z        PSCENC =       114.90673464
  Ewald energy   TEWEN  =     -7474.65620693
  -Hartree energ DENC   =      -371.01961394
  -exchange      EXHF   =         0.00000000
  -V(xc)+E(xc)   XCENC  =      -542.94663752
  PAW double counting   =     13285.88663563   -12183.43503069
  entropy T*S    EENTRO =         0.02110985
  eigenvalues    EBANDS =       238.39178640
  atomic energy  EATOM  =      6564.79586099
  Solvation  Ediel_sol  =         0.00000000
  ---------------------------------------------------
  free energy    TOTEN  =      -368.05536156 eV

  energy without entropy =     -368.07647141  energy(sigma->0) =     -368.06239818


--------------------------------------------------------------------------------------------------------




--------------------------------------- Iteration      1(   7)  ---------------------------------------


    POTLOK:  cpu time      0.0744: real time      0.0891
    SETDIJ:  cpu time      0.0727: real time      0.0728
    EDDIAG:  cpu time      0.1366: real time      0.1375
  RMM-DIIS:  cpu time      0.7077: real time      0.7230
    ORTHCH:  cpu time      0.0207: real time      0.0207
       DOS:  cpu time      0.0014: real time      0.0015
    CHARGE:  cpu time      0.2326: real time      0.2372
    MIXING:  cpu time      0.0050: real time      0.0066
    --------------------------------------------
      LOOP:  cpu time      1.2510: real time      1.2884

 eigenvalue-minimisations  :  2643
 total energy-change (2. order) : 0.2621035E+01  (-0.8037968E+00)
 number of electron     255.9999998 magnetization 
 augmentation part      -14.6730027 magnetization 

 Broyden mixing:
  rms(total) = 0.11832E+00    rms(broyden)= 0.11832E+00
  rms(prec ) = 0.14866E+00
  weight for this iteration     100.00

 eigenvalues of (default mixing * dielectric matrix)
  average eigenvalue GAMMA=   2.3161
  2.3161  2.3161

 Free energy of the ion-electron system (eV)
  ---------------------------------------------------
  alpha Z        PSCENC =       114.90673464
  Ewald energy   TEWEN  =     -7474.65620693
  -Hartree energ DENC   =      -452.54086129
  -exchange      EXHF   =         0.00000000
  -V(xc)+E(xc)   XCENC  =      -529.44906782
  PAW double counting   =     32325.80181920   -31228.96140490
  entropy T*S    EENTRO =         0.01366881
  eigenvalues    EBANDS =       314.65513055
  atomic energy  EATOM  =      6564.79586099
  Solvation  Ediel_sol  =         0.00000000
  ---------------------------------------------------
  free energy    TOTEN  =      -365.43432674 eV

  energy without entropy =     -365.44799556  energy(sigma->0) =     -365.43888301


--------------------------------------------------------------------------------------------------------




--------------------------------------- Iteration      1(   8)  ---------------------------------------


    POTLOK:  cpu time      0.0754: real time      0.0875
    SETDIJ:  cpu time      0.0724: real time      0.0728
    EDDIAG:  cpu time      0.1344: real time      0.1347
  RMM-DIIS:  cpu time      0.7024: real time      0.7041
    ORTHCH:  cpu time      0.0203: real time      0.0203
       DOS:  cpu time      0.0014: real time      0.0014
    CHARGE:  cpu time      0.2359: real time      0.2365
    MIXING:  cpu time      0.0066: real time      0.0070
    --------------------------------------------
      LOOP:  cpu time      1.2487: real time      1.2644

 eigenvalue-minimisations  :  2618
 total energy-change (2. order) :-0.3332130E-01  (-0.7637806E-01)
 number of electron     255.9999998 magnetization 
 augmentation part      -14.7330096 magnetization 

 Broyden mixing:
  rms(total) = 0.55594E-01    rms(broyden)= 0.55594E-01
  rms(prec ) = 0.59885E-01
  weight for this iteration     100.00

 eigenvalues of (default mixing * dielectric matrix)
  average eigenvalue GAMMA=   2.0841
  2.5632  1.8445  1.8445

 Free energy of the ion-electron system (eV)
  ---------------------------------------------------
  alpha Z        PSCENC =       114.90673464
  Ewald energy   TEWEN  =     -7474.65620693
  -Hartree energ DENC   =      -442.90418056
  -exchange      EXHF   =         0.00000000
  -V(xc)+E(xc)   XCENC  =      -530.27330536
  PAW double counting   =     32051.62517231   -30953.67049123
  entropy T*S    EENTRO =         0.01895634
  eigenvalues    EBANDS =       304.68981175
  atomic energy  EATOM  =      6564.79586099
  Solvation  Ediel_sol  =         0.00000000
  ---------------------------------------------------
  free energy    TOTEN  =      -365.46764804 eV

  energy without entropy =     -365.48660438  energy(sigma->0) =     -365.47396682


--------------------------------------------------------------------------------------------------------




--------------------------------------- Iteration      1(   9)  ---------------------------------------


    POTLOK:  cpu time      0.0729: real time      0.0887
    SETDIJ:  cpu time      0.0730: real time      0.0735
    EDDIAG:  cpu time      0.1316: real time      0.1319
  RMM-DIIS:  cpu time      0.7021: real time      0.7041
    ORTHCH:  cpu time      0.0199: real time      0.0199
       DOS:  cpu time      0.0016: real time      0.0016
    CHARGE:  cpu time      0.2354: real time      0.2359
    MIXING:  cpu time      0.0045: real time      0.0045
    --------------------------------------------
      LOOP:  cpu time      1.2409: real time      1.2601

 eigenvalue-minimisations  :  2666
 total energy-change (2. order) :-0.2336259E-01  (-0.2299885E-01)
 number of electron     255.9999998 magnetization 
 augmentation part      -14.7168815 magnetization 

 Broyden mixing:
  rms(total) = 0.62120E-01    rms(broyden)= 0.62120E-01
  rms(prec ) = 0.70715E-01
  weight for this iteration     100.00

 eigenvalues of (default mixing * dielectric matrix)
  average eigenvalue GAMMA=   1.8419
  2.5568  2.2254  2.2254  0.3600

 Free energy of the ion-electron system (eV)
  ---------------------------------------------------
  alpha Z        PSCENC =       114.90673464
  Ewald energy   TEWEN  =     -7474.65620693
  -Hartree energ DENC   =      -446.71355819
  -exchange      EXHF   =         0.00000000
  -V(xc)+E(xc)   XCENC  =      -529.76807917
  PAW double counting   =     32536.91423470   -31439.29101089
  entropy T*S    EENTRO =         0.01751035
  eigenvalues    EBANDS =       308.30350387
  atomic energy  EATOM  =      6564.79586099
  Solvation  Ediel_sol  =         0.00000000
  ---------------------------------------------------
  free energy    TOTEN  =      -365.49101064 eV

  energy without entropy =     -365.50852098  energy(sigma->0) =     -365.49684742


--------------------------------------------------------------------------------------------------------




--------------------------------------- Iteration      1(  10)  ---------------------------------------


    POTLOK:  cpu time      0.0736: real time      0.0880
    SETDIJ:  cpu time      0.0727: real time      0.0733
    EDDIAG:  cpu time      0.1350: real time      0.1353
  RMM-DIIS:  cpu time      0.7310: real time      0.7327
    ORTHCH:  cpu time      0.0208: real time      0.0209
       DOS:  cpu time      0.0012: real time      0.0012
    CHARGE:  cpu time      0.2349: real time      0.2354
    MIXING:  cpu time      0.0049: real time      0.0049
    --------------------------------------------
      LOOP:  cpu time      1.2741: real time      1.2919

 eigenvalue-minimisations  :  2726
 total energy-change (2. order) :-0.5062906E-02  (-0.4281415E-02)
 number of electron     255.9999998 magnetization 
 augmentation part      -14.7228140 magnetization 

 Broyden mixing:
  rms(total) = 0.91076E-01    rms(broyden)= 0.91076E-01
  rms(prec ) = 0.99006E-01
  weight for this iteration     100.00

 eigenvalues of (default mixing * dielectric matrix)
  average eigenvalue GAMMA=   1.6508
  2.6691  2.1737  1.9972  0.7069  0.7069

 Free energy of the ion-electron system (eV)
  ---------------------------------------------------
  alpha Z        PSCENC =       114.90673464
  Ewald energy   TEWEN  =     -7474.65620693
  -Hartree energ DENC   =      -446.97131004
  -exchange      EXHF   =         0.00000000
  -V(xc)+E(xc)   XCENC  =      -529.74009358
  PAW double counting   =     32603.90458146   -31506.29040621
  entropy T*S    EENTRO =         0.01735245
  eigenvalues    EBANDS =       308.53741368
  atomic energy  EATOM  =      6564.79586099
  Solvation  Ediel_sol  =         0.00000000
  ---------------------------------------------------
  free energy    TOTEN  =      -365.49607354 eV

  energy without entropy =     -365.51342599  energy(sigma->0) =     -365.50185769


--------------------------------------------------------------------------------------------------------




--------------------------------------- Iteration      1(  11)  ---------------------------------------


    POTLOK:  cpu time      0.0725: real time      0.0883
    SETDIJ:  cpu time      0.0723: real time      0.0729
    EDDIAG:  cpu time      0.1315: real time      0.1318
  RMM-DIIS:  cpu time      0.6900: real time      0.6917
    ORTHCH:  cpu time      0.0200: real time      0.0200
       DOS:  cpu time      0.0014: real time      0.0014
    CHARGE:  cpu time      0.2346: real time      0.2352
    MIXING:  cpu time      0.0062: real time      0.0062
    --------------------------------------------
      LOOP:  cpu time      1.2287: real time      1.2477

 eigenvalue-minimisations  :  2592
 total energy-change (2. order) : 0.5204009E-02  (-0.1567402E-02)
 number of electron     255.9999998 magnetization 
 augmentation part      -14.7381555 magnetization 

 Broyden mixing:
  rms(total) = 0.55297E-01    rms(broyden)= 0.55296E-01
  rms(prec ) = 0.55781E-01
  weight for this iteration     100.00

 eigenvalues of (default mixing * dielectric matrix)
  average eigenvalue GAMMA=   1.5059
  2.6047  2.6047  1.3627  1.3627  0.7810  0.3196

 Free energy of the ion-electron system (eV)
  ---------------------------------------------------
  alpha Z        PSCENC =       114.90673464
  Ewald energy   TEWEN  =     -7474.65620693
  -Hartree energ DENC   =      -444.04824257
  -exchange      EXHF   =         0.00000000
  -V(xc)+E(xc)   XCENC  =      -529.97129697
  PAW double counting   =     32450.14543004   -31352.26032464
  entropy T*S    EENTRO =         0.01904971
  eigenvalues    EBANDS =       305.57812619
  atomic energy  EATOM  =      6564.79586099
  Solvation  Ediel_sol  =         0.00000000
  ---------------------------------------------------
  free energy    TOTEN  =      -365.49086953 eV

  energy without entropy =     -365.50991924  energy(sigma->0) =     -365.49721944


--------------------------------------------------------------------------------------------------------




--------------------------------------- Iteration      1(  12)  ---------------------------------------


    POTLOK:  cpu time      0.0788: real time      0.0886
    SETDIJ:  cpu time      0.0726: real time      0.0731
    EDDIAG:  cpu time      0.1313: real time      0.1316
  RMM-DIIS:  cpu time      0.6894: real time      0.6911
    ORTHCH:  cpu time      0.0201: real time      0.0201
       DOS:  cpu time      0.0013: real time      0.0013
    CHARGE:  cpu time      0.2349: real time      0.2354
    MIXING:  cpu time      0.0062: real time      0.0062
    --------------------------------------------
      LOOP:  cpu time      1.2345: real time      1.2474

 eigenvalue-minimisations  :  2620
 total energy-change (2. order) :-0.2051605E-03  (-0.1980589E-03)
 number of electron     255.9999998 magnetization 
 augmentation part      -14.7410871 magnetization 

 Broyden mixing:
  rms(total) = 0.52557E-01    rms(broyden)= 0.52557E-01
  rms(prec ) = 0.52842E-01
  weight for this iteration     100.00

 eigenvalues of (default mixing * dielectric matrix)
  average eigenvalue GAMMA=   1.4514
  2.6043  2.6043  1.8460  1.0880  0.8683  0.4503  0.6988

 Free energy of the ion-electron system (eV)
  ---------------------------------------------------
  alpha Z        PSCENC =       114.90673464
  Ewald energy   TEWEN  =     -7474.65620693
  -Hartree energ DENC   =      -443.93803007
  -exchange      EXHF   =         0.00000000
  -V(xc)+E(xc)   XCENC  =      -529.99248918
  PAW double counting   =     32371.56987136   -31273.69406216
  entropy T*S    EENTRO =         0.01908535
  eigenvalues    EBANDS =       305.49816130
  atomic energy  EATOM  =      6564.79586099
  Solvation  Ediel_sol  =         0.00000000
  ---------------------------------------------------
  free energy    TOTEN  =      -365.49107469 eV

  energy without entropy =     -365.51016004  energy(sigma->0) =     -365.49743647


--------------------------------------------------------------------------------------------------------




--------------------------------------- Iteration      1(  13)  ---------------------------------------


    POTLOK:  cpu time      0.0729: real time      0.0884
    SETDIJ:  cpu time      0.0727: real time      0.0733
    EDDIAG:  cpu time      0.1318: real time      0.1322
  RMM-DIIS:  cpu time      0.7250: real time      0.7278
    ORTHCH:  cpu time      0.0199: real time      0.0199
       DOS:  cpu time      0.0015: real time      0.0015
    CHARGE:  cpu time      0.2359: real time      0.2366
    MIXING:  cpu time      0.0055: real time      0.0055
    --------------------------------------------
      LOOP:  cpu time      1.2653: real time      1.2853

 eigenvalue-minimisations  :  2725
 total energy-change (2. order) :-0.7296047E-04  (-0.3768695E-04)
 number of electron     255.9999998 magnetization 
 augmentation part      -14.7417173 magnetization 

 Broyden mixing:
  rms(total) = 0.59824E-01    rms(broyden)= 0.59824E-01
  rms(prec ) = 0.60073E-01
  weight for this iteration     100.00

 eigenvalues of (default mixing * dielectric matrix)
  average eigenvalue GAMMA=   1.7207
  2.8946  2.8946  2.3476  2.3476  0.9477  0.9184  0.9184  0.4968

 Free energy of the ion-electron system (eV)
  ---------------------------------------------------
  alpha Z        PSCENC =       114.90673464
  Ewald energy   TEWEN  =     -7474.65620693
  -Hartree energ DENC   =      -443.98375000
  -exchange      EXHF   =         0.00000000
  -V(xc)+E(xc)   XCENC  =      -529.97860393
  PAW double counting   =     32436.28610903   -31338.41343050
  entropy T*S    EENTRO =         0.01909422
  eigenvalues    EBANDS =       305.53304482
  atomic energy  EATOM  =      6564.79586099
  Solvation  Ediel_sol  =         0.00000000
  ---------------------------------------------------
  free energy    TOTEN  =      -365.49114765 eV

  energy without entropy =     -365.51024187  energy(sigma->0) =     -365.49751239


--------------------------------------------------------------------------------------------------------




--------------------------------------- Iteration      1(  14)  ---------------------------------------


    POTLOK:  cpu time      0.0748: real time      0.0883
    SETDIJ:  cpu time      0.0733: real time      0.0735
    EDDIAG:  cpu time      0.1347: real time      0.1351
  RMM-DIIS:  cpu time      0.6972: real time      0.6992
    ORTHCH:  cpu time      0.0200: real time      0.0201
       DOS:  cpu time      0.0016: real time      0.0016
    CHARGE:  cpu time      0.2361: real time      0.2368
    MIXING:  cpu time      0.0054: real time      0.0055
    --------------------------------------------
      LOOP:  cpu time      1.2432: real time      1.2601

 eigenvalue-minimisations  :  2606
 total energy-change (2. order) : 0.1520561E-04  (-0.9843986E-05)
 number of electron     255.9999998 magnetization 
 augmentation part      -14.7416826 magnetization 

 Broyden mixing:
  rms(total) = 0.22598E-01    rms(broyden)= 0.22598E-01
  rms(prec ) = 0.22896E-01
  weight for this iteration     100.00

 eigenvalues of (default mixing * dielectric matrix)
  average eigenvalue GAMMA=   1.5353
  2.6275  2.6275  2.4588  2.1862  0.9500  0.9469  0.9469  0.5369  0.5369

 Free energy of the ion-electron system (eV)
  ---------------------------------------------------
  alpha Z        PSCENC =       114.90673464
  Ewald energy   TEWEN  =     -7474.65620693
  -Hartree energ DENC   =      -443.82464444
  -exchange      EXHF   =         0.00000000
  -V(xc)+E(xc)   XCENC  =      -530.02522026
  PAW double counting   =     32097.30981395   -30999.45534488
  entropy T*S    EENTRO =         0.01909323
  eigenvalues    EBANDS =       305.43878124
  atomic energy  EATOM  =      6564.79586099
  Solvation  Ediel_sol  =         0.00000000
  ---------------------------------------------------
  free energy    TOTEN  =      -365.49113245 eV

  energy without entropy =     -365.51022568  energy(sigma->0) =     -365.49749686


--------------------------------------------------------------------------------------------------------




--------------------------------------- Iteration      1(  15)  ---------------------------------------


    POTLOK:  cpu time      0.0726: real time      0.0878
    SETDIJ:  cpu time      0.0731: real time      0.0733
    EDDIAG:  cpu time      0.1632: real time      0.1640
  RMM-DIIS:  cpu time      0.7055: real time      0.7076
    ORTHCH:  cpu time      0.0202: real time      0.0203
       DOS:  cpu time      0.0015: real time      0.0015
    CHARGE:  cpu time      0.2353: real time      0.2360
    MIXING:  cpu time      0.0053: real time      0.0053
    --------------------------------------------
      LOOP:  cpu time      1.2767: real time      1.2958

 eigenvalue-minimisations  :  2638
 total energy-change (2. order) :-0.4678196E-04  (-0.4230604E-05)
 number of electron     255.9999998 magnetization 
 augmentation part      -14.7419674 magnetization 

 Broyden mixing:
  rms(total) = 0.15011E-01    rms(broyden)= 0.15011E-01
  rms(prec ) = 0.15212E-01
  weight for this iteration     100.00

 eigenvalues of (default mixing * dielectric matrix)
  average eigenvalue GAMMA=   1.4970
  2.7273  2.7273  2.1369  2.1369  0.9225  0.9225  1.0187  1.0187  0.8561  0.5027

 Free energy of the ion-electron system (eV)
  ---------------------------------------------------
  alpha Z        PSCENC =       114.90673464
  Ewald energy   TEWEN  =     -7474.65620693
  -Hartree energ DENC   =      -443.79749762
  -exchange      EXHF   =         0.00000000
  -V(xc)+E(xc)   XCENC  =      -530.02365064
  PAW double counting   =     32074.42376111   -30976.56858187
  entropy T*S    EENTRO =         0.01914536
  eigenvalues    EBANDS =       305.40925571
  atomic energy  EATOM  =      6564.79586099
  Solvation  Ediel_sol  =         0.00000000
  ---------------------------------------------------
  free energy    TOTEN  =      -365.49117923 eV

  energy without entropy =     -365.51032459  energy(sigma->0) =     -365.49756102


--------------------------------------------------------------------------------------------------------




--------------------------------------- Iteration      1(  16)  ---------------------------------------


    POTLOK:  cpu time      0.0731: real time      0.0889
    SETDIJ:  cpu time      0.0735: real time      0.0737
    EDDIAG:  cpu time      0.1431: real time      0.1435
  RMM-DIIS:  cpu time      0.6931: real time      0.6951
    ORTHCH:  cpu time      0.0208: real time      0.0209
       DOS:  cpu time      0.0013: real time      0.0013
    CHARGE:  cpu time      0.2369: real time      0.2380
    MIXING:  cpu time      0.0048: real time      0.0049
    --------------------------------------------
      LOOP:  cpu time      1.2467: real time      1.2663

 eigenvalue-minimisations  :  2592
 total energy-change (2. order) :-0.2821379E-04  (-0.1957162E-05)
 number of electron     255.9999998 magnetization 
 augmentation part      -14.7418602 magnetization 

 Broyden mixing:
  rms(total) = 0.10741E-01    rms(broyden)= 0.10741E-01
  rms(prec ) = 0.10826E-01
  weight for this iteration     100.00

 eigenvalues of (default mixing * dielectric matrix)
  average eigenvalue GAMMA=   1.4548
  2.7601  2.7601  2.2160  2.2160  1.0606  1.0606  0.9929  0.9929  0.8432  0.5297
  0.5710

 Free energy of the ion-electron system (eV)
  ---------------------------------------------------
  alpha Z        PSCENC =       114.90673464
  Ewald energy   TEWEN  =     -7474.65620693
  -Hartree energ DENC   =      -443.86372756
  -exchange      EXHF   =         0.00000000
  -V(xc)+E(xc)   XCENC  =      -530.01453627
  PAW double counting   =     32082.47872415   -30984.62378695
  entropy T*S    EENTRO =         0.01916603
  eigenvalues    EBANDS =       305.46656445
  atomic energy  EATOM  =      6564.79586099
  Solvation  Ediel_sol  =         0.00000000
  ---------------------------------------------------
  free energy    TOTEN  =      -365.49120744 eV

  energy without entropy =     -365.51037347  energy(sigma->0) =     -365.49759612


--------------------------------------------------------------------------------------------------------




--------------------------------------- Iteration      1(  17)  ---------------------------------------


    POTLOK:  cpu time      0.0751: real time      0.0900
    SETDIJ:  cpu time      0.0735: real time      0.0737
    EDDIAG:  cpu time      0.1335: real time      0.1339
  RMM-DIIS:  cpu time      0.6723: real time      0.6746
    ORTHCH:  cpu time      0.0201: real time      0.0202
       DOS:  cpu time      0.0015: real time      0.0019
    CHARGE:  cpu time      0.2368: real time      0.2374
    MIXING:  cpu time      0.0055: real time      0.0055
    --------------------------------------------
      LOOP:  cpu time      1.2183: real time      1.2373

 eigenvalue-minimisations  :  2543
 total energy-change (2. order) :-0.7224381E-05  (-0.7796786E-06)
 number of electron     255.9999998 magnetization 
 augmentation part      -14.7416631 magnetization 

 Broyden mixing:
  rms(total) = 0.30671E-02    rms(broyden)= 0.30671E-02
  rms(prec ) = 0.31078E-02
  weight for this iteration     100.00

 eigenvalues of (default mixing * dielectric matrix)
  average eigenvalue GAMMA=   1.6819
  2.9683  2.9683  2.1112  2.1112  2.4561  2.1232  1.0261  1.0261  0.9966  0.9966
  0.8914  0.5080

 Free energy of the ion-electron system (eV)
  ---------------------------------------------------
  alpha Z        PSCENC =       114.90673464
  Ewald energy   TEWEN  =     -7474.65620693
  -Hartree energ DENC   =      -443.89507824
  -exchange      EXHF   =         0.00000000
  -V(xc)+E(xc)   XCENC  =      -530.01520476
  PAW double counting   =     32040.86873680   -30943.01414272
  entropy T*S    EENTRO =         0.01917632
  eigenvalues    EBANDS =       305.49890922
  atomic energy  EATOM  =      6564.79586099
  Solvation  Ediel_sol  =         0.00000000
  ---------------------------------------------------
  free energy    TOTEN  =      -365.49121467 eV

  energy without entropy =     -365.51039098  energy(sigma->0) =     -365.49760677


--------------------------------------------------------------------------------------------------------




--------------------------------------- Iteration      1(  18)  ---------------------------------------


    POTLOK:  cpu time      0.0725: real time      0.0887
    SETDIJ:  cpu time      0.0729: real time      0.0731
    EDDIAG:  cpu time      0.1352: real time      0.1356
  RMM-DIIS:  cpu time      0.4489: real time      0.4502
    ORTHCH:  cpu time      0.0200: real time      0.0200
       DOS:  cpu time      0.0025: real time      0.0025
    --------------------------------------------
      LOOP:  cpu time      0.7519: real time      0.7701

 eigenvalue-minimisations  :  1575
 total energy-change (2. order) :-0.2671650E-06  (-0.1424830E-06)
 number of electron     255.9999998 magnetization 
 augmentation part      -14.7416631 magnetization 

 Free energy of the ion-electron system (eV)
  ---------------------------------------------------
  alpha Z        PSCENC =       114.90673464
  Ewald energy   TEWEN  =     -7474.65620693
  -Hartree energ DENC   =      -443.89596469
  -exchange      EXHF   =         0.00000000
  -V(xc)+E(xc)   XCENC  =      -530.01713411
  PAW double counting   =     32020.73683914   -30922.88193754
  entropy T*S    EENTRO =         0.01918164
  eigenvalues    EBANDS =       305.50141191
  atomic energy  EATOM  =      6564.79586099
  Solvation  Ediel_sol  =         0.00000000
  ---------------------------------------------------
  free energy    TOTEN  =      -365.49121494 eV

  energy without entropy =     -365.51039657  energy(sigma->0) =     -365.49760881


--------------------------------------------------------------------------------------------------------




 average (electrostatic) potential at core
  the test charge radii are     0.9892
  (the norm of the test charge is              1.0000)
       1 -82.2836       2 -82.2836       3 -82.2836       4 -82.2836       5 -82.2836
       6 -82.2836       7 -82.2836       8 -82.2836       9 -82.2836      10 -82.2836
      11 -82.2836      12 -82.2836      13 -82.2836      14 -82.2836      15 -82.2836
      16 -82.2836      17 -82.2836      18 -82.2836      19 -82.2836      20 -82.2836
      21 -82.2836      22 -82.2836      23 -82.2836      24 -82.2836      25 -82.2836
      26 -82.2836      27 -82.2836      28 -82.2836      29 -82.2836      30 -82.2836
      31 -82.2836      32 -82.2836      33 -82.2836      34 -82.2836      35 -82.2836
      36 -82.2836      37 -82.2836      38 -82.2836      39 -82.2836      40 -82.2836
      41 -82.2836      42 -82.2836      43 -82.2836      44 -82.2836      45 -82.2836
      46 -82.2836      47 -82.2836      48 -82.2836      49 -82.2836      50 -82.2836
      51 -82.2836      52 -82.2836      53 -82.2836      54 -82.2836      55 -82.2836
      56 -82.2836      57 -82.2836      58 -82.2836      59 -82.2836      60 -82.2836
      61 -82.2836      62 -82.2836      63 -82.2836      64 -82.2836
 
 
 
 E-fermi :   6.6524     XC(G=0):  -9.8067     alpha+bet :-12.7921

 val. band max:        6.5332517322   @ k =   0.0000   0.0000   0.0000
 cond. band min:       6.7576451450   @ k =   0.0000   0.0000   0.0000
 fundamental gap:      0.2243934128
 Fermi energy:         6.6524192982

 k-point     1 :       0.0000    0.0000    0.0000
  band No.  band energies     occupation 
      1      -5.9807      2.00000
      2      -4.8577      2.00000
      3      -4.8577      2.00000
      4      -4.8192      2.00000
      5      -4.8192      2.00000
      6      -4.8184      2.00000
      7      -4.8184      2.00000
      8      -3.8668      2.00000
      9      -3.8668      2.00000
     10      -3.8078      2.00000
     11      -3.8078      2.00000
     12      -3.8078      2.00000
     13      -3.8078      2.00000
     14      -3.7797      2.00000
     15      -3.7797      2.00000
     16      -3.7797      2.00000
     17      -3.7797      2.00000
     18      -3.7469      2.00000
     19      -3.7469      2.00000
     20      -3.5266      2.00000
     21      -3.5266      2.00000
     22      -3.3878      2.00000
     23      -3.3878      2.00000
     24      -1.6603      2.00000
     25      -1.6603      2.00000
     26      -1.6149      2.00000
     27      -1.5307      2.00000
     28      -1.5307      2.00000
     29      -1.4816      2.00000
     30      -1.4816      2.00000
     31      -1.4503      2.00000
     32      -1.4348      2.00000
     33      -1.4348      2.00000
     34      -1.3872      2.00000
     35      -1.3872      2.00000
     36      -1.3872      2.00000
     37      -1.3872      2.00000
     38      -1.2925      2.00000
     39      -1.2925      2.00000
     40      -1.2480      2.00000
     41      -1.2480      2.00000
     42      -0.8770      2.00000
     43      -0.8770      2.00000
     44      -0.8509      2.00000
     45      -0.8509      2.00000
     46       0.8040      2.00000
     47       0.8040      2.00000
     48       0.8040      2.00000
     49       0.8040      2.00000
     50       0.8424      2.00000
     51       0.8424      2.00000
     52       0.8813      2.00000
     53       0.8813      2.00000
     54       0.8813      2.00000
     55       0.8813      2.00000
     56       0.9171      2.00000
     57       0.9171      2.00000
     58       2.2765      2.00000
     59       2.2765      2.00000
     60       2.2790      2.00000
     61       2.2790      2.00000
     62       2.2791      2.00000
     63       2.2791      2.00000
     64       2.2791      2.00000
     65       2.2791      2.00000
     66       2.2857      2.00000
     67       2.2857      2.00000
     68       2.2902      2.00000
     69       2.2902      2.00000
     70       2.3363      2.00000
     71       2.3363      2.00000
     72       2.3363      2.00000
     73       2.3363      2.00000
     74       2.4271      2.00000
     75       2.4271      2.00000
     76       2.4526      2.00000
     77       2.4526      2.00000
     78       2.4526      2.00000
     79       2.4526      2.00000
     80       2.4760      2.00000
     81       2.4760      2.00000
     82       2.8619      2.00000
     83       2.8619      2.00000
     84       3.0119      2.00000
     85       3.0119      2.00000
     86       3.0182      2.00000
     87       3.0183      2.00000
     88       3.2614      2.00000
     89       3.3743      2.00000
     90       3.3743      2.00000
     91       3.4890      2.00000
     92       3.5354      2.00000
     93       3.5354      2.00000
     94       4.3013      2.00000
     95       4.3013      2.00000
     96       4.3783      2.00000
     97       4.3783      2.00000
     98       4.4234      2.00000
     99       4.4234      2.00000
    100       4.5052      2.00000
    101       4.5052      2.00000
    102       4.5262      2.00000
    103       4.5262      2.00000
    104       4.5264      2.00000
    105       4.5264      2.00000
    106       4.9552      2.00000
    107       4.9552      2.00000
    108       5.0076      2.00000
    109       5.0076      2.00000
    110       5.0076      2.00000
    111       5.0076      2.00000
    112       5.0637      2.00000
    113       5.0637      2.00000
    114       5.0639      2.00000
    115       5.0639      2.00000
    116       5.1672      2.00000
    117       5.1672      2.00000
    118       5.1790      2.00000
    119       5.1790      2.00000
    120       5.1790      2.00000
    121       5.1790      2.00000
    122       5.2672      2.00000
    123       5.2672      2.00000
    124       5.3707      2.00000
    125       5.3707      2.00000
    126       6.3768      2.06507
    127       6.5235      1.87793
    128       6.5333      1.83628
    129       6.7576      0.23178
    130       6.8748     -0.06635
    131       6.8748     -0.06635
    132       6.9958     -0.03564
    133       7.0389     -0.01977
    134       7.0389     -0.01977
    135       7.3940     -0.00000
    136       7.3940     -0.00000
    137       7.3940     -0.00000
    138       7.3940     -0.00000
    139       7.5542     -0.00000
    140       7.5542     -0.00000
    141       8.0490     -0.00000
    142       8.0490     -0.00000
    143       8.2603     -0.00000
    144       8.2603     -0.00000
    145       8.7376     -0.00000
    146       8.7389     -0.00000
    147       8.8007     -0.00000
    148       8.8009     -0.00000
    149       8.8016     -0.00000
    150       8.8021     -0.00000
    151       8.8701     -0.00000
    152       8.8737     -0.00000
    153       8.8750     -0.00000
    154       8.9701     -0.00000
    155       8.9944     -0.00000
    156       8.9952     -0.00000
    157       8.9965     -0.00000
    158       9.0009     -0.00000
    159       9.2115     -0.00000
    160       9.4798     -0.00000
    161       9.5177     -0.00000
    162       9.5649     -0.00000

 k-point     2 :       0.5000    0.0000    0.0000
  band No.  band energies     occupation 
      1      -5.6977      2.00000
      2      -5.6977      2.00000
      3      -4.5891      2.00000
      4      -4.5891      2.00000
      5      -4.5599      2.00000
      6      -4.5599      2.00000
      7      -4.5599      2.00000
      8      -4.5599      2.00000
      9      -4.5290      2.00000
     10      -4.5290      2.00000
     11      -3.6779      2.00000
     12      -3.6779      2.00000
     13      -3.6779      2.00000
     14      -3.6779      2.00000
     15      -3.5945      2.00000
     16      -3.5945      2.00000
     17      -3.5945      2.00000
     18      -3.5945      2.00000
     19      -3.4910      2.00000
     20      -3.4910      2.00000
     21      -2.7520      2.00000
     22      -2.7520      2.00000
     23      -2.6663      2.00000
     24      -2.6663      2.00000
     25      -2.6663      2.00000
     26      -2.6663      2.00000
     27      -2.5783      2.00000
     28      -2.5783      2.00000
     29      -1.5318      2.00000
     30      -1.5318      2.00000
     31      -1.5000      2.00000
     32      -1.5000      2.00000
     33      -1.3822      2.00000
     34      -1.3822      2.00000
     35      -1.3538      2.00000
     36      -1.3538      2.00000
     37      -0.3135      2.00000
     38      -0.3135      2.00000
     39      -0.2433      2.00000
     40      -0.2433      2.00000
     41      -0.2433      2.00000
     42      -0.2433      2.00000
     43      -0.2270      2.00000
     44      -0.2270      2.00000
     45      -0.2270      2.00000
     46      -0.2270      2.00000
     47      -0.2079      2.00000
     48      -0.2079      2.00000
     49      -0.2079      2.00000
     50      -0.2079      2.00000
     51      -0.1782      2.00000
     52      -0.1782      2.00000
     53       0.5191      2.00000
     54       0.5191      2.00000
     55       1.9253      2.00000
     56       1.9253      2.00000
     57       1.9290      2.00000
     58       1.9290      2.00000
     59       1.9290      2.00000
     60       1.9290      2.00000
     61       1.9331      2.00000
     62       1.9331      2.00000
     63       2.1141      2.00000
     64       2.1141      2.00000
     65       2.1324      2.00000
     66       2.1324      2.00000
     67       2.1324      2.00000
     68       2.1324      2.00000
     69       2.1584      2.00000
     70       2.1584      2.00000
     71       2.6951      2.00000
     72       2.6951      2.00000
     73       2.7415      2.00000
     74       2.7415      2.00000
     75       2.7766      2.00000
     76       2.7766      2.00000
     77       2.8249      2.00000
     78       2.8249      2.00000
     79       3.5073      2.00000
     80       3.5073      2.00000
     81       3.5526      2.00000
     82       3.5526      2.00000
     83       3.5526      2.00000
     84       3.5526      2.00000
     85       3.5712      2.00000
     86       3.5712      2.00000
     87       3.5875      2.00000
     88       3.5875      2.00000
     89       3.6062      2.00000
     90       3.6062      2.00000
     91       3.6062      2.00000
     92       3.6062      2.00000
     93       3.6394      2.00000
     94       3.6394      2.00000
     95       3.7158      2.00000
     96       3.7158      2.00000
     97       3.7158      2.00000
     98       3.7158      2.00000
     99       3.7874      2.00000
    100       3.7874      2.00000
    101       3.7880      2.00000
    102       3.7880      2.00000
    103       3.8252      2.00000
    104       3.8252      2.00000
    105       3.8252      2.00000
    106       3.8252      2.00000
    107       4.9328      2.00000
    108       4.9328      2.00000
    109       4.9328      2.00000
    110       4.9328      2.00000
    111       4.9332      2.00000
    112       4.9332      2.00000
    113       4.9413      2.00000
    114       4.9413      2.00000
    115       5.1034      2.00000
    116       5.1034      2.00000
    117       5.2116      2.00000
    118       5.2116      2.00000
    119       5.2116      2.00000
    120       5.2116      2.00000
    121       5.2808      2.00000
    122       5.2808      2.00000
    123       5.2808      2.00000
    124       5.2808      2.00000
    125       5.6545      2.00000
    126       5.6545      2.00000
    127       5.6580      2.00000
    128       5.6580      2.00000
    129       6.9910     -0.03774
    130       6.9910     -0.03774
    131       7.8292     -0.00000
    132       7.8292     -0.00000
    133       8.0386     -0.00000
    134       8.0387     -0.00000
    135       8.1822     -0.00000
    136       8.1823     -0.00000
    137       8.2039     -0.00000
    138       8.2039     -0.00000
    139       8.3505     -0.00000
    140       8.3505     -0.00000
    141       8.4810     -0.00000
    142       8.4812     -0.00000
    143       8.6999     -0.00000
    144       8.7006     -0.00000
    145       8.7713     -0.00000
    146       8.7717     -0.00000
    147       8.7732     -0.00000
    148       8.7746     -0.00000
    149       8.8603     -0.00000
    150       8.8643     -0.00000
    151       8.9561     -0.00000
    152       8.9591     -0.00000
    153       8.9631     -0.00000
    154       8.9783     -0.00000
    155       9.0674     -0.00000
    156       9.0686     -0.00000
    157       9.0769     -0.00000
    158       9.0911     -0.00000
    159       9.1954     -0.00000
    160       9.2555     -0.00000
    161       9.2844     -0.00000
    162       9.3285     -0.00000

 k-point     3 :      -0.0000    0.5000    0.0000
  band No.  band energies     occupation 
[...]
 -0.000  -0.000   4.169   0.000  -0.000   7.766   0.000  -0.000
  0.001   0.002   0.000   4.169   0.000   0.000   7.766   0.000
 -0.000  -0.000  -0.000   0.000   4.169  -0.000   0.000   7.766
 -0.000  -0.000   7.766   0.000  -0.000  14.477   0.000  -0.000
  0.002   0.003   0.000   7.766   0.000   0.000  14.477   0.000
 -0.000  -0.000  -0.000   0.000   7.766  -0.000   0.000  14.477
 total augmentation occupancy for first ion, spin component:           1
  6.496  -2.596   0.000  -0.053   0.000   0.000   0.020   0.000
 -2.596   1.145   0.000   0.027   0.000   0.000  -0.010   0.000
  0.000  -0.000   3.169   0.000  -0.003  -0.725  -0.000  -0.002
 -0.053   0.027   0.000   3.171   0.000   0.000  -0.725   0.000
  0.000   0.000  -0.003   0.000   3.210  -0.002   0.000  -0.741
  0.000   0.000  -0.725  -0.000  -0.002   0.175   0.000   0.001
  0.020  -0.010   0.000  -0.725   0.000  -0.000   0.176   0.000
  0.000   0.000  -0.002   0.000  -0.741   0.001   0.000   0.180


------------------------ aborting loop because EDIFF is reached ----------------------------------------


    CHARGE:  cpu time      0.2397: real time      0.2407
    FORLOC:  cpu time      0.0212: real time      0.0213
    FORNL :  cpu time      0.6676: real time      0.6715
    STRESS:  cpu time      2.0846: real time      2.0951
    FORCOR:  cpu time      0.0845: real time      0.0848
    FORHAR:  cpu time      0.0341: real time      0.0343
    MIXING:  cpu time      0.0454: real time      0.0456
    OFIELD:  cpu time      0.0000: real time      0.0000

  FORCE on cell =-STRESS in cart. coord.  units (eV):
  Direction    XX          YY          ZZ          XY          YZ          ZX
  --------------------------------------------------------------------------------------
  Alpha Z   114.90673   114.90673   114.90673
  Ewald   -2446.71477 -2514.48689 -2514.30251    -8.38760     0.00000     0.00000
  Hartree   154.80418   144.35871   144.13328    -7.69381    -0.00000    -0.00000
  E(xc)    -831.11279  -830.43234  -830.48782     0.03259    -0.00000    -0.00000
  Local    -955.31734  -873.98476  -874.74563    17.94874     0.00000    -0.00000
  n-local  2534.73309  2523.34860  2524.30461     0.20318     0.00000    -0.00000
  augment  -369.79322  -369.77522  -369.84653     0.63246     0.00000     0.00000
  Kinetic  1844.67737  1866.22961  1865.39818   -13.07244     0.00000    -0.00001
  Fock        0.00000     0.00000     0.00000     0.00000     0.00000     0.00000
  -------------------------------------------------------------------------------------
  Total      46.18326    60.16446    59.36031   -10.33689     0.00000     0.00000
  in kB      61.66322    80.33071    79.25703   -13.80166     0.00000     0.00000
  external pressure =       73.75 kB  Pullay stress =        0.00 kB


 VOLUME and BASIS-vectors are now :
 -----------------------------------------------------------------------------
  energy-cutoff  :      400.00
  volume of cell :     1199.97
      direct lattice vectors                 reciprocal lattice vectors
    10.768055590  0.105569016  0.000000000     0.092876382 -0.000928762  0.000000000
     0.105569016 10.556917559  0.000000000    -0.000928762  0.094733907  0.000000000
     0.000000000  0.000000000 10.556917559     0.000000000  0.000000000  0.094724620

  length of vectors
    10.768573072 10.557445390 10.556917559     0.092881026  0.094738460  0.094724620


 FORCES acting on ions
    electron-ion (+dipol)            ewald-force                    non-local-force                 convergence-correction
 -----------------------------------------------------------------------------------------------
   -.588E-09 0.817E-10 -.165E+01   0.262E-13 0.115E-13 0.118E+01   -.112E-19 0.714E-20 0.474E+00   -.231E-14 -.304E-13 0.291E-04
   -.588E-09 0.817E-10 -.165E+01   0.266E-13 0.115E-13 0.118E+01   0.146E-19 -.630E-20 0.474E+00   -.104E-13 0.307E-14 0.291E-04
   -.588E-09 0.817E-10 -.165E+01   0.324E-13 -.355E-14 0.118E+01   0.435E-20 0.523E-20 0.474E+00   -.128E-13 0.275E-13 0.291E-04
   -.588E-09 0.817E-10 -.165E+01   0.275E-13 0.533E-14 0.118E+01   -.182E-19 -.290E-20 0.474E+00   0.471E-14 -.218E-14 0.291E-04
   -.588E-09 0.817E-10 -.165E+01   0.246E-13 0.977E-14 0.118E+01   0.104E-19 0.404E-20 0.474E+00   -.109E-13 0.200E-13 0.291E-04
   -.589E-09 0.817E-10 -.165E+01   0.315E-13 0.977E-14 0.118E+01   -.150E-19 -.363E-20 0.474E+00   0.195E-13 -.726E-13 0.291E-04
   -.588E-09 0.820E-10 -.165E+01   0.253E-13 0.178E-14 0.118E+01   -.952E-20 0.715E-20 0.474E+00   0.113E-14 -.217E-13 0.291E-04
   -.588E-09 0.813E-10 -.165E+01   0.249E-13 0.355E-14 0.118E+01   0.146E-19 -.313E-20 0.474E+00   0.512E-14 0.748E-13 0.291E-04
   0.141E-08 0.110E-08 0.165E+01   0.111E-13 0.124E-13 -.118E+01   0.180E-19 0.125E-20 -.474E+00   -.185E-13 -.167E-13 -.291E-04
   0.141E-08 0.110E-08 0.165E+01   0.124E-13 0.107E-13 -.118E+01   -.778E-20 0.306E-20 -.474E+00   0.164E-13 0.620E-13 -.291E-04
   0.141E-08 0.110E-08 0.165E+01   0.142E-13 0.173E-13 -.118E+01   -.114E-19 -.914E-21 -.474E+00   -.516E-14 0.156E-13 -.291E-04
   0.141E-08 0.110E-08 0.165E+01   0.231E-13 0.195E-13 -.118E+01   0.483E-20 -.579E-20 -.474E+00   0.167E-13 -.557E-13 -.291E-04
   0.141E-08 0.110E-08 0.165E+01   0.138E-13 0.160E-13 -.118E+01   -.121E-19 -.228E-20 -.474E+00   0.290E-13 0.881E-13 -.291E-04
   0.141E-08 0.110E-08 0.165E+01   0.266E-13 0.124E-13 -.118E+01   -.218E-20 -.593E-20 -.474E+00   -.233E-13 -.622E-13 -.291E-04
   0.141E-08 0.110E-08 0.165E+01   0.204E-13 0.151E-13 -.118E+01   0.127E-19 -.268E-20 -.474E+00   0.142E-13 -.890E-13 -.291E-04
   0.141E-08 0.110E-08 0.165E+01   0.195E-13 0.160E-13 -.118E+01   0.218E-21 0.263E-20 -.474E+00   -.163E-13 0.605E-13 -.291E-04
   -.588E-09 0.817E-10 -.165E+01   0.140E-13 -.377E-14 0.118E+01   0.112E-19 0.977E-21 0.474E+00   0.103E-12 0.361E-13 0.291E-04
   -.588E-09 0.817E-10 -.165E+01   0.187E-13 -.755E-14 0.118E+01   0.186E-20 -.461E-20 0.474E+00   -.115E-12 -.196E-13 0.291E-04
   -.588E-09 0.817E-10 -.165E+01   0.151E-13 -.733E-14 0.118E+01   -.180E-19 0.582E-20 0.474E+00   0.141E-13 -.297E-13 0.291E-04
   -.588E-09 0.817E-10 -.165E+01   0.151E-13 -.444E-15 0.118E+01   0.122E-20 -.310E-20 0.474E+00   -.241E-13 0.201E-13 0.291E-04
   -.588E-09 0.815E-10 -.165E+01   0.235E-13 -.355E-14 0.118E+01   -.196E-19 0.741E-20 0.474E+00   -.113E-12 0.128E-14 0.291E-04
   -.589E-09 0.814E-10 -.165E+01   0.235E-13 -.355E-14 0.118E+01   -.365E-21 -.682E-21 0.474E+00   0.124E-12 0.135E-13 0.291E-04
   -.588E-09 0.818E-10 -.165E+01   0.213E-13 -.355E-14 0.118E+01   0.123E-19 0.321E-21 0.474E+00   -.196E-13 0.373E-14 0.291E-04
   -.588E-09 0.818E-10 -.165E+01   0.711E-14 -.355E-14 0.118E+01   -.450E-20 -.221E-20 0.474E+00   0.247E-13 -.570E-14 0.291E-04
   0.141E-08 0.110E-08 0.165E+01   0.178E-14 -.727E-14 -.118E+01   0.182E-19 0.292E-20 -.474E+00   -.149E-13 -.329E-13 -.291E-04
   0.141E-08 0.110E-08 0.165E+01   0.124E-13 -.727E-14 -.118E+01   -.434E-20 -.184E-20 -.474E+00   0.152E-13 0.906E-14 -.291E-04
   0.141E-08 0.110E-08 0.165E+01   0.178E-14 0.214E-14 -.118E+01   -.781E-20 0.291E-20 -.474E+00   0.516E-13 0.413E-13 -.291E-04
   0.141E-08 0.110E-08 0.165E+01   0.124E-13 0.924E-14 -.118E+01   0.112E-19 -.374E-20 -.474E+00   -.394E-13 0.501E-15 -.291E-04
   0.141E-08 0.110E-08 0.165E+01   0.178E-14 0.114E-14 -.118E+01   -.787E-20 0.398E-20 -.474E+00   0.250E-13 -.247E-13 -.291E-04
   0.141E-08 0.110E-08 0.165E+01   0.178E-14 0.117E-14 -.118E+01   0.275E-20 -.630E-20 -.474E+00   -.186E-13 0.198E-13 -.291E-04
   0.141E-08 0.110E-08 0.165E+01   -.355E-14 0.101E-13 -.118E+01   0.149E-19 0.277E-20 -.474E+00   -.516E-13 0.377E-13 -.291E-04
   0.141E-08 0.110E-08 0.165E+01   0.711E-14 0.106E-13 -.118E+01   -.361E-20 -.667E-21 -.474E+00   0.467E-13 -.137E-13 -.291E-04
   -.588E-09 0.817E-10 -.165E+01   0.355E-14 -.666E-15 0.118E+01   -.814E-20 -.126E-20 0.474E+00   0.787E-13 -.359E-13 0.291E-04
   -.588E-09 0.817E-10 -.165E+01   0.888E-14 0.666E-14 0.118E+01   0.767E-20 -.324E-20 0.474E+00   -.861E-13 -.611E-14 0.291E-04
   -.588E-09 0.817E-10 -.165E+01   0.888E-15 -.822E-14 0.118E+01   0.948E-20 -.427E-20 0.474E+00   0.444E-13 0.364E-13 0.291E-04
   -.588E-09 0.817E-10 -.165E+01   0.444E-14 -.888E-15 0.118E+01   -.722E-20 0.101E-19 0.474E+00   -.573E-13 0.260E-14 0.291E-04
   -.588E-09 0.817E-10 -.165E+01   -.158E-13 -.266E-14 0.118E+01   0.136E-19 0.360E-21 0.474E+00   -.725E-13 -.132E-12 0.291E-04
   -.589E-09 0.817E-10 -.165E+01   -.977E-14 0.444E-14 0.118E+01   -.108E-20 0.818E-20 0.474E+00   0.784E-13 0.951E-13 0.291E-04
   -.589E-09 0.814E-10 -.165E+01   0.799E-14 -.666E-14 0.118E+01   -.159E-19 -.653E-20 0.474E+00   -.413E-13 0.127E-12 0.291E-04
   -.588E-09 0.813E-10 -.165E+01   0.000E+00 -.711E-14 0.118E+01   -.123E-20 -.238E-20 0.474E+00   0.489E-13 -.914E-13 0.291E-04
   0.141E-08 0.110E-08 0.165E+01   -.575E-14 0.266E-14 -.118E+01   -.963E-20 -.412E-20 -.474E+00   0.691E-13 0.335E-13 -.291E-04
   0.141E-08 0.110E-08 0.165E+01   0.250E-15 0.266E-14 -.118E+01   0.791E-20 0.436E-20 -.474E+00   -.869E-13 -.742E-14 -.291E-04
   0.141E-08 0.110E-08 0.165E+01   -.235E-13 0.266E-14 -.118E+01   0.139E-19 -.658E-20 -.474E+00   0.755E-13 -.366E-13 -.291E-04
   0.141E-08 0.110E-08 0.165E+01   -.200E-13 0.266E-14 -.118E+01   -.913E-21 0.669E-20 -.474E+00   -.760E-13 0.964E-14 -.291E-04
   0.141E-08 0.110E-08 0.165E+01   -.180E-13 0.355E-14 -.118E+01   0.957E-20 -.464E-20 -.474E+00   -.702E-13 0.107E-12 -.291E-04
   0.141E-08 0.110E-08 0.165E+01   -.397E-14 0.355E-14 -.118E+01   -.135E-19 0.455E-20 -.474E+00   0.915E-13 -.712E-13 -.291E-04
   0.141E-08 0.110E-08 0.165E+01   -.135E-13 0.107E-13 -.118E+01   -.124E-19 -.292E-20 -.474E+00   -.757E-13 -.110E-12 -.291E-04
   0.141E-08 0.110E-08 0.165E+01   -.140E-13 0.355E-14 -.118E+01   0.748E-20 0.419E-20 -.474E+00   0.769E-13 0.676E-13 -.291E-04
   -.588E-09 0.819E-10 -.165E+01   -.173E-13 -.977E-14 0.118E+01   -.114E-20 -.437E-20 0.474E+00   -.672E-14 -.197E-13 0.291E-04
   -.588E-09 0.815E-10 -.165E+01   -.191E-13 -.169E-13 0.118E+01   0.964E-20 0.412E-20 0.474E+00   -.187E-13 0.332E-13 0.291E-04
   -.588E-09 0.815E-10 -.165E+01   -.195E-13 -.202E-13 0.118E+01   0.145E-19 -.332E-20 0.474E+00   -.498E-13 0.242E-13 0.291E-04
   -.588E-09 0.819E-10 -.165E+01   -.711E-14 -.209E-13 0.118E+01   -.715E-20 0.151E-20 0.474E+00   0.547E-13 -.311E-13 0.291E-04
   -.589E-09 0.823E-10 -.165E+01   -.209E-13 -.138E-13 0.118E+01   -.802E-22 -.454E-20 0.474E+00   0.966E-14 -.619E-14 0.291E-04
   -.589E-09 0.806E-10 -.165E+01   -.191E-13 -.204E-13 0.118E+01   -.958E-20 0.462E-20 0.474E+00   0.833E-14 0.170E-13 0.291E-04
   -.589E-09 0.818E-10 -.165E+01   -.195E-13 -.133E-13 0.118E+01   -.748E-20 -.248E-20 0.474E+00   0.648E-13 0.152E-13 0.291E-04
   -.589E-09 0.819E-10 -.165E+01   -.355E-14 -.178E-13 0.118E+01   0.124E-19 0.292E-20 0.474E+00   -.682E-13 -.163E-13 0.291E-04
   0.141E-08 0.110E-08 0.165E+01   -.261E-13 -.455E-14 -.118E+01   0.151E-19 -.203E-20 -.474E+00   0.930E-13 -.290E-13 -.291E-04
   0.141E-08 0.110E-08 0.165E+01   -.314E-13 -.456E-14 -.118E+01   -.994E-21 0.615E-20 -.474E+00   -.113E-12 0.177E-13 -.291E-04
   0.141E-08 0.110E-08 0.165E+01   -.376E-13 -.781E-14 -.118E+01   -.161E-19 0.130E-20 -.474E+00   -.681E-14 0.335E-13 -.291E-04
   0.141E-08 0.110E-08 0.165E+01   -.358E-13 0.710E-14 -.118E+01   0.708E-20 -.171E-20 -.474E+00   0.852E-15 -.117E-13 -.291E-04
   0.141E-08 0.110E-08 0.165E+01   -.215E-13 -.151E-13 -.118E+01   -.136E-19 0.133E-20 -.474E+00   -.102E-12 -.385E-13 -.291E-04
   0.141E-08 0.110E-08 0.165E+01   -.232E-13 -.155E-13 -.118E+01   0.104E-20 0.175E-21 -.474E+00   0.126E-12 0.198E-13 -.291E-04
   0.141E-08 0.110E-08 0.165E+01   -.299E-13 -.788E-14 -.118E+01   0.159E-19 -.352E-20 -.474E+00   0.342E-14 0.513E-13 -.291E-04
   0.141E-08 0.110E-08 0.165E+01   -.245E-13 -.696E-14 -.118E+01   -.554E-20 0.411E-20 -.474E+00   0.353E-14 -.165E-13 -.291E-04
 -----------------------------------------------------------------------------------------------
   0.262E-07 0.379E-07 0.192E-04   0.799E-13 -.157E-13 -.555E-13   0.136E-19 0.766E-20 0.107E-13   0.119E-13 0.889E-13 0.760E-10
 
 
 POSITION                                       TOTAL-FORCE (eV/Angst)
 -----------------------------------------------------------------------------------
      0.00000      0.00000      0.00896        -0.000000      0.000000      0.000200
      0.00000      0.00000      5.28741        -0.000000      0.000000      0.000200
      0.05278      5.27846      0.00896        -0.000000      0.000000      0.000200
      0.05278      5.27846      5.28741        -0.000000      0.000000      0.000200
      5.38403      0.05278      0.00896         0.000000     -0.000000      0.000200
      5.38403      0.05278      5.28741         0.000000     -0.000000      0.000200
      5.43681      5.33124      0.00896         0.000000     -0.000000      0.000200
      5.43681      5.33124      5.28741         0.000000     -0.000000      0.000200
      4.07761      3.99843      1.31066        -0.000000     -0.000000     -0.000200
      4.07761      3.99843      6.58912        -0.000000     -0.000000     -0.000200
      4.13039      9.27689      1.31066         0.000000      0.000000     -0.000200
      4.13039      9.27689      6.58912         0.000000      0.000000     -0.000200
      9.46164      4.05122      1.31066        -0.000000     -0.000000     -0.000200
      9.46164      4.05122      6.58912        -0.000000     -0.000000     -0.000200
      9.51442      9.32968      1.31066        -0.000000      0.000000     -0.000200
      9.51442      9.32968      6.58912        -0.000000      0.000000     -0.000200
      0.02639      2.63923      2.64818        -0.000000      0.000000      0.000200
      0.02639      2.63923      7.92664        -0.000000      0.000000      0.000200
      0.07918      7.91769      2.64818        -0.000000      0.000000      0.000200
      0.07918      7.91769      7.92664         0.000000      0.000000      0.000200
      5.41042      2.69201      2.64818         0.000000     -0.000000      0.000200
      5.41042      2.69201      7.92664         0.000000     -0.000000      0.000200
      5.46320      7.97047      2.64818         0.000000     -0.000000      0.000200
      5.46320      7.97047      7.92664         0.000000      0.000000      0.000200
      4.05122      1.35920      3.94989         0.000000     -0.000000     -0.000200
      4.05122      1.35920      9.22835        -0.000000      0.000000     -0.000200
      4.10400      6.63766      3.94989         0.000000      0.000000     -0.000200
      4.10400      6.63766      9.22835        -0.000000     -0.000000     -0.000200
      9.43524      1.41199      3.94989        -0.000000     -0.000000     -0.000200
      9.43524      1.41199      9.22835        -0.000000      0.000000     -0.000200
      9.48803      6.69045      3.94989        -0.000000      0.000000     -0.000200
      9.48803      6.69045      9.22835         0.000000     -0.000000     -0.000200
      2.69201      0.02639      2.64818        -0.000000      0.000000      0.000200
      2.69201      0.02639      7.92664        -0.000000      0.000000      0.000200
      2.74480      5.30485      2.64818        -0.000000      0.000000      0.000200
      2.74480      5.30485      7.92664        -0.000000     -0.000000      0.000200
      8.07604      0.07918      2.64818         0.000000      0.000000      0.000200
      8.07604      0.07918      7.92664         0.000000      0.000000      0.000200
      8.12883      5.35764      2.64818         0.000000     -0.000000      0.000200
      8.12883      5.35764      7.92664        -0.000000     -0.000000      0.000200
      1.38560      3.97204      3.94989         0.000000      0.000000     -0.000200
      1.38560      3.97204      9.22835         0.000000      0.000000     -0.000200
      1.43838      9.25050      3.94989        -0.000000     -0.000000     -0.000200
      1.43838      9.25050      9.22835         0.000000      0.000000     -0.000200
      6.76962      4.02482      3.94989        -0.000000     -0.000000     -0.000200
      6.76962      4.02482      9.22835         0.000000      0.000000     -0.000200
      6.82241      9.30328      3.94989         0.000000     -0.000000     -0.000200
      6.82241      9.30328      9.22835        -0.000000     -0.000000     -0.000200
      2.71841      2.66562      0.00896        -0.000000      0.000000      0.000200
      2.71841      2.66562      5.28741        -0.000000     -0.000000      0.000200
      2.77119      7.94408      0.00896        -0.000000     -0.000000      0.000200
      2.77119      7.94408      5.28741        -0.000000     -0.000000      0.000200
      8.10243      2.71841      0.00896        -0.000000     -0.000000      0.000200
      8.10243      2.71841      5.28741         0.000000      0.000000      0.000200
      8.15522      7.99686      0.00896        -0.000000     -0.000000      0.000200
      8.15522      7.99686      5.28741        -0.000000      0.000000      0.000200
      1.35920      1.33281      1.31066         0.000000     -0.000000     -0.000200
      1.35920      1.33281      6.58912         0.000000     -0.000000     -0.000200
      1.41199      6.61127      1.31066         0.000000      0.000000     -0.000200
      1.41199      6.61127      6.58912         0.000000     -0.000000     -0.000200
      6.74323      1.38560      1.31066         0.000000     -0.000000     -0.000200
      6.74323      1.38560      6.58912         0.000000      0.000000     -0.000200
      6.79602      6.66405      1.31066        -0.000000     -0.000000     -0.000200
      6.79602      6.66405      6.58912         0.000000     -0.000000     -0.000200
 -----------------------------------------------------------------------------------
    total drift:                                0.000000      0.000000      0.000019


--------------------------------------------------------------------------------------------------------



  FREE ENERGIE OF THE ION-ELECTRON SYSTEM (eV)
  ---------------------------------------------------
  free  energy   TOTEN  =      -365.56654686 eV

  energy  without entropy=     -365.57713028  energy(sigma->0) =     -365.57007466
 
 d Force = 0.1325675E-01[-0.485E-04, 0.266E-01]  d Energy = 0.1329497E-01-0.382E-04
 d Force =-0.2622537E+00[-0.285E+00,-0.239E+00]  d Ewald  =-0.2622519E+00-0.180E-05


--------------------------------------------------------------------------------------------------------


    POTLOK:  cpu time      0.1439: real time      0.1450


--------------------------------------------------------------------------------------------------------




--------------------------------------------------------------------------------------------------------


  
 reached required accuracy - stopping structural energy minimisation
     LOOP+:  cpu time     12.8809: real time     13.0926
    4ORBIT:  cpu time      0.0000: real time      0.0000

 total amount of memory used by VASP MPI-rank0    79051. kBytes
=======================================================================

   base      :      30000. kBytes
   nonlr-proj:       4732. kBytes
   fftplans  :      17991. kBytes
   grid      :       6881. kBytes
   one-center:         18. kBytes
   wavefun   :      19429. kBytes
 
  
  
 General timing and accounting informations for this job:
 ========================================================
  
                  Total CPU time used (sec):       58.608
                            User time (sec):       55.266
                          System time (sec):        3.342
                         Elapsed time (sec):       62.176
  
                   Maximum memory used (kb):      401336.
                   Average memory used (kb):          N/A
  
                          Minor page faults:        94875
                          Major page faults:            0
                 Voluntary context switches:         9740
