<?xml version="1.0" encoding="ISO-8859-1"?>
<modeling>
 <generator>
  <i name="program" type="string">vasp </i>
  <i name="version" type="string">6.4.3  </i>
  <i name="subversion" type="string">19Mar24 (build Oct 21 2024 22:36:34) complex                          parallel </i>
  <i name="platform" type="string">LinuxIFC </i>
  <i name="date" type="string">2024 11 01 </i>
  <i name="time" type="string">22:58:49 </i>
 </generator>
 <incar>
  <i type="string" name="SYSTEM">Si64</i>
  <i type="int" name="ISTART">     0</i>
  <i type="string" name="PREC">Accurate</i>
  <i type="string" name="ALGO">Fast</i>
  <i type="logical" name="ADDGRID"> T  </i>
  <i type="int" name="ICHARG">     2</i>
  <i type="int" name="NELM">    60</i>
  <i type="int" name="NELMIN">     8</i>
  <i type="int" name="IBRION">     2</i>
  <i name="EDIFF">      0.00000100</i>
  <i name="EDIFFG">     -0.01000000</i>
  <i type="int" name="NSW">    60</i>
  <i type="int" name="ISIF">     2</i>
  <i name="ENCUT">    400.00000000</i>
  <i type="string" name="LREAL">Auto</i>
  <i type="int" name="ISMEAR">     1</i>
  <i name="SIGMA">      0.20000000</i>
  <i type="logical" name="LWAVE"> F  </i>
  <i type="logical" name="LCHARG"> F  </i>
  <i type="logical" name="GGA_COMPAT"> F  </i>
  <i type="string" name="GGA">PS</i>
 </incar>
 <primitive_cell>
  <structure name="primitive_cell" >
   <crystal>
    <varray name="basis" >
     <v>       0.02639225       2.63922939      -2.63922939 </v>
     <v>       0.02639225       2.63922939       2.63922939 </v>
     <v>       2.66562164      -2.61283714       0.00000000 </v>
    </varray>
    <i name="volume">     37.49893995 </i>
    <varray name="rec_basis" >
     <v>       0.18389524       0.18761029      -0.18944924 </v>
     <v>       0.18389524       0.18761029       0.18944924 </v>
     <v>       0.37150553      -0.00371505      -0.00000000 </v>
    </varray>
   </crystal>
   <varray name="positions" >
    <v>       0.00000000       0.00000000       0.00000000 </v>
    <v>       0.25000000       0.75000000       0.50000000 </v>
   </varray>
  </structure>
  <varray name="primitive_index" >
   <v type="int" >        1 </v>
   <v type="int" >       15 </v>
  </varray>
 </primitive_cell>
 <kpoints>
  <generation param="Gamma">
   <v type="int" name="divisions">       2        2        2 </v>
   <v name="usershift">      0.00000000       0.00000000       0.00000000 </v>
   <v name="genvec1">      0.50000000      -0.00000000       0.00000000 </v>
   <v name="genvec2">     -0.00000000       0.50000000       0.00000000 </v>
   <v name="genvec3">      0.00000000       0.00000000       0.50000000 </v>
   <v name="shift">      0.00000000       0.00000000       0.00000000 </v>
  </generation>
  <varray name="kpointlist" >
   <v>       0.00000000       0.00000000       0.00000000 </v>
   <v>       0.50000000       0.00000000       0.00000000 </v>
   <v>      -0.00000000       0.50000000       0.00000000 </v>
   <v>       0.50000000       0.50000000       0.00000000 </v>
   <v>       0.00000000       0.00000000       0.50000000 </v>
   <v>       0.50000000       0.00000000       0.50000000 </v>
   <v>      -0.00000000       0.50000000       0.50000000 </v>
   <v>       0.50000000       0.50000000       0.50000000 </v>
  </varray>
  <varray name="weights" >
   <v>       0.12500000 </v>
   <v>       0.12500000 </v>
   <v>       0.12500000 </v>
   <v>       0.12500000 </v>
   <v>       0.12500000 </v>
   <v>       0.12500000 </v>
   <v>       0.12500000 </v>
   <v>       0.12500000 </v>
  </varray>
 </kpoints>
 <parameters>
  <separator name="general" >
   <i type="string" name="SYSTEM">Si64</i>
   <i type="logical" name="LCOMPAT"> F  </i>
  </separator>
  <separator name="electronic" >
   <i type="string" name="PREC">accura</i>
   <i name="ENMAX">    400.00000000</i>
   <i name="ENAUG">    322.06900000</i>
   <i name="EDIFF">      0.00000100</i>
   <i type="int" name="IALGO">    68</i>
   <i type="int" name="IWAVPR">    11</i>
   <i type="int" name="NBANDS">   162</i>
   <i type="int" name="NBANDSLOW">    -1</i>
   <i type="int" name="NBANDSHIGH">    -1</i>
   <i name="NELECT">    256.00000000</i>
   <i type="int" name="TURBO">     0</i>
   <i type="int" name="IRESTART">     0</i>
   <i type="int" name="NREBOOT">     0</i>
   <i type="int" name="NMIN">     0</i>
   <i name="EREF">      0.00000000</i>
   <separator name="electronic smearing" >
    <i type="int" name="ISMEAR">     1</i>
    <i name="SIGMA">      0.20000000</i>
    <i name="KSPACING">      0.50000000</i>
    <i type="logical" name="KGAMMA"> T  </i>
    <i type="logical" name="KBLOWUP"> T  </i>
   </separator>
   <separator name="electronic projectors" >
    <i type="logical" name="LREAL"> T  </i>
    <v name="ROPT">     -0.00025000</v>
    <i type="int" name="LMAXPAW">  -100</i>
    <i type="int" name="LMAXMIX">     2</i>
    <i type="logical" name="NLSPLINE"> F  </i>
   </separator>
   <separator name="electronic startup" >
    <i type="int" name="ISTART">     0</i>
    <i type="int" name="ICHARG">     2</i>
    <i type="int" name="INIWAV">     1</i>
   </separator>
   <separator name="electronic spin" >
    <i type="int" name="ISPIN">     1</i>
    <i type="logical" name="LNONCOLLINEAR"> F  </i>
    <v name="MAGMOM">      1.00000000      1.00000000      1.00000000      1.00000000      1.00000000      1.00000000      1.00000000      1.00000000      1.00000000      1.00000000      1.00000000      1.00000000      1.00000000      1.00000000      1.00000000      1.00000000      1.00000000      1.00000000      1.00000000      1.00000000
      1.00000000      1.00000000      1.00000000      1.00000000      1.00000000      1.00000000      1.00000000      1.00000000      1.00000000      1.00000000      1.00000000      1.00000000      1.00000000      1.00000000      1.00000000      1.00000000      1.00000000      1.00000000      1.00000000      1.00000000
      1.00000000      1.00000000      1.00000000      1.00000000      1.00000000      1.00000000      1.00000000      1.00000000      1.00000000      1.00000000      1.00000000      1.00000000      1.00000000      1.00000000      1.00000000      1.00000000      1.00000000      1.00000000      1.00000000      1.00000000
      1.00000000      1.00000000      1.00000000      1.00000000</v>
    <i name="NUPDOWN">     -1.00000000</i>
    <i type="logical" name="LSORBIT"> F  </i>
    <v name="SAXIS">      0.00000000      0.00000000      1.00000000</v>
    <i type="logical" name="LSPIRAL"> F  </i>
    <v name="QSPIRAL">      0.00000000      0.00000000      0.00000000</v>
    <i type="logical" name="LZEROZ"> F  </i>
   </separator>
   <separator name="electronic exchange-correlation" >
    <i type="logical" name="LASPH"> F  </i>
   </separator>
   <separator name="electronic convergence" >
    <i type="int" name="NELM">    60</i>
    <i type="int" name="NELMDL">    -5</i>
    <i type="int" name="NELMIN">     8</i>
    <i name="ENINI">    400.00000000</i>
    <separator name="electronic convergence detail" >
     <i type="logical" name="LDIAG"> T  </i>
     <i type="logical" name="LSUBROT"> F  </i>
     <i name="WEIMIN">      0.00100000</i>
     <i name="EBREAK">      0.00000000</i>
     <i name="DEPER">      0.30000000</i>
     <i type="int" name="NRMM">     4</i>
     <i name="TIME">      0.40000000</i>
    </separator>
   </separator>
   <separator name="electronic mixer" >
    <i name="AMIX">      0.40000000</i>
    <i name="BMIX">      1.00000000</i>
    <i name="AMIN">      0.10000000</i>
    <i name="AMIX_MAG">      1.60000000</i>
    <i name="BMIX_MAG">      1.00000000</i>
    <separator name="electronic mixer details" >
     <i type="int" name="IMIX">     4</i>
     <i type="logical" name="MIXFIRST"> F  </i>
     <i type="int" name="MAXMIX">   -45</i>
     <i name="WC">    100.00000000</i>
     <i type="int" name="INIMIX">     1</i>
     <i type="int" name="MIXPRE">     1</i>
     <i type="int" name="MREMOVE">     5</i>
    </separator>
   </separator>
   <separator name="electronic dipolcorrection" >
    <i type="logical" name="LDIPOL"> F  </i>
    <i type="logical" name="LMONO"> F  </i>
    <i type="int" name="IDIPOL">     0</i>
    <i name="EPSILON">      1.00000000</i>
    <v name="DIPOL">   -100.00000000   -100.00000000   -100.00000000</v>
    <i name="EFIELD">      0.00000000</i>
    <i type="logical" name="LVACPOTAV"> F  </i>
   </separator>
  </separator>
  <separator name="grids" >
   <i type="int" name="NGX">    70</i>
   <i type="int" name="NGY">    70</i>
   <i type="int" name="NGZ">    70</i>
   <i type="int" name="NGXF">   140</i>
   <i type="int" name="NGYF">   140</i>
   <i type="int" name="NGZF">   140</i>
   <i type="logical" name="ADDGRID"> T  </i>
  </separator>
  <separator name="ionic" >
   <i type="int" name="NSW">    60</i>
   <i type="int" name="IBRION">     2</i>
   <i type="int" name="MDALGO">     0</i>
   <i type="int" name="ISIF">     2</i>
   <i name="PSTRESS">      0.00000000</i>
   <i name="EDIFFG">     -0.01000000</i>
   <i type="int" name="NFREE">     1</i>
   <i name="POTIM">      0.50000000</i>
   <i name="SMASS">     -3.00000000</i>
   <i name="SCALEE">      1.00000000</i>
  </separator>
  <separator name="ionic md" >
   <i name="TEBEG">      0.00010000</i>
   <i name="TEEND">      0.00010000</i>
   <i type="int" name="NBLOCK">     1</i>
   <i type="int" name="KBLOCK">    60</i>
   <i type="int" name="NPACO">   256</i>
   <i name="APACO">     10.00000000</i>
  </separator>
  <separator name="symmetry" >
   <i type="int" name="ISYM">     2</i>
   <i name="SYMPREC">      0.00001000</i>
  </separator>
  <separator name="dos" >
   <i type="int" name="LORBIT">     0</i>
   <v name="RWIGS">     -1.00000000</v>
   <i type="int" name="NEDOS">   301</i>
   <i name="EMIN">     10.00000000</i>
   <i name="EMAX">    -10.00000000</i>
   <i name="EFERMI">      0.00000000</i>
  </separator>
  <separator name="writing" >
   <i type="int" name="NWRITE">     2</i>
   <i type="logical" name="LWAVE"> F  </i>
   <i type="logical" name="LDOWNSAMPLE"> F  </i>
   <i type="logical" name="LCHARG"> F  </i>
   <i type="logical" name="LPARD"> F  </i>
   <i type="logical" name="LVTOT"> F  </i>
   <i type="logical" name="LVHAR"> F  </i>
   <i type="logical" name="LELF"> F  </i>
   <i type="logical" name="LOPTICS"> F  </i>
   <v name="STM">      0.00000000      0.00000000      0.00000000      0.00000000      0.00000000      0.00000000      0.00000000</v>
  </separator>
  <separator name="performance" >
   <i type="int" name="NPAR">     2</i>
   <i type="int" name="NSIM">     4</i>
   <i type="int" name="NBLK">    -1</i>
   <i type="logical" name="LPLANE"> T  </i>
   <i type="logical" name="LSCALAPACK"> T  </i>
   <i type="logical" name="LSCAAWARE"> F  </i>
   <i type="logical" name="LSCALU"> F  </i>
   <i type="logical" name="LASYNC"> F  </i>
   <i type="logical" name="LORBITALREAL"> F  </i>
  </separator>
  <separator name="miscellaneous" >
   <i type="int" name="IDIOT">     3</i>
   <i type="int" name="PHON_NSTRUCT">    -1</i>
   <i type="logical" name="LMUSIC"> F  </i>
   <v name="POMASS">     28.08500000</v>
   <v name="DARWINR">      0.00000000</v>
   <v name="DARWINV">      1.00000000</v>
   <i type="logical" name="LCORR"> T  </i>
  </separator>
  <i type="logical" name="GGA_COMPAT"> F  </i>
  <i type="logical" name="LBERRY"> F  </i>
  <i type="int" name="ICORELEVEL">     0</i>
  <i type="logical" name="LDAU"> F  </i>
  <i type="int" name="I_CONSTRAINED_M">     0</i>
  <separator name="electronic exchange-correlation" >
   <i type="string" name="GGA    ">PS</i>
   <i type="string" name="XC_C">1</i>
   <i type="int" name="VOSKOWN">     0</i>
   <i type="logical" name="LHFCALC"> F  </i>
   <i type="string" name="PRECFOCK"></i>
   <i type="logical" name="LSYMGRAD"> F  </i>
   <i type="logical" name="LHFONE"> F  </i>
   <i type="logical" name="LRHFCALC"> F  </i>
   <i type="logical" name="LTHOMAS"> F  </i>
   <i type="logical" name="LMODELHF"> F  </i>
   <i type="logical" name="LFOCKACE"> F  </i>
   <i name="ENCUT4O">     -1.00000000</i>
   <i type="int" name="EXXOEP">     0</i>
   <i type="int" name="FOURORBIT">     0</i>
   <i name="AEXX">      0.00000000</i>
   <i name="HFALPHA">      0.00000000</i>
   <i name="MCALPHA">      0.00000000</i>
   <i name="ALDAX">      1.00000000</i>
   <i name="AGGAX">      1.00000000</i>
   <i name="AMGGAX">      1.00000000</i>
   <i name="ALDAC">      1.00000000</i>
   <i name="AGGAC">      1.00000000</i>
   <i name="AMGGAC">      1.00000000</i>
   <i type="int" name="NKREDX">     1</i>
   <i type="int" name="NKREDY">     1</i>
   <i type="int" name="NKREDZ">     1</i>
   <i type="logical" name="SHIFTRED"> F  </i>
   <i type="logical" name="ODDONLY"> F  </i>
   <i type="logical" name="EVENONLY"> F  </i>
   <i type="int" name="LMAXFOCK">     0</i>
   <i type="int" name="NMAXFOCKAE">     0</i>
   <i type="logical" name="LFOCKAEDFT"> F  </i>
   <i name="HFSCREEN">      0.00000000</i>
   <i name="HFSCREENC">      0.00000000</i>
   <i type="int" name="NBANDSGWLOW">     0</i>
  </separator>
  <separator name="vdW DFT" >
   <i type="logical" name="LUSE_VDW"> F  </i>
   <i type="int" name="IVDW_NL">    -1</i>
   <i type="logical" name="LSPIN_VDW"> F  </i>
   <i name="ZAB_VDW">     -0.84910000</i>
   <i name="GAMMA_VDW">      1.39626340</i>
   <i name="ALPHA_VDW">      0.00000000</i>
   <i name="PARAM1">      0.12340000</i>
   <i name="PARAM2">      1.00000000</i>
   <i name="BPARAM">      6.30000000</i>
   <i name="CPARAM">      0.00930000</i>
  </separator>
  <separator name="model GW" >
   <i type="int" name="MODEL_GW">     0</i>
   <i name="MODEL_EPS0">     11.24968199</i>
   <i name="MODEL_ALPHA">      1.00000000</i>
  </separator>
  <separator name="linear response parameters" >
   <i type="logical" name="LEPSILON"> F  </i>
   <i type="logical" name="LRPA"> F  </i>
   <i type="logical" name="LNABLA"> F  </i>
   <i type="logical" name="LVEL"> F  </i>
   <i name="CSHIFT">      0.10000000</i>
   <i name="OMEGAMAX">     -1.00000000</i>
   <i name="DEG_THRESHOLD">      0.00200000</i>
   <i name="RTIME">     -0.10000000</i>
   <i name="WPLASMAI">      0.00000000</i>
   <v name="DFIELD">      0.00000000      0.00000000      0.00000000</v>
   <v name="WPLASMA">      0.00000000      0.00000000      0.00000000      0.00000000      0.00000000      0.00000000      0.00000000      0.00000000      0.00000000</v>
  </separator>
  <separator name="orbital magnetization" >
   <i type="logical" name="NUCIND"> F  </i>
   <v name="MAGPOS">      0.00000000      0.00000000      0.00000000</v>
   <i type="logical" name="LNICSALL"> T  </i>
   <i type="logical" name="ORBITALMAG"> F  </i>
   <i type="logical" name="LMAGBLOCH"> F  </i>
   <i type="logical" name="LCHIMAG"> F  </i>
   <i type="logical" name="LGAUGE"> T  </i>
   <i type="int" name="MAGATOM">     0</i>
   <v name="MAGDIPOL">      0.00000000      0.00000000      0.00000000</v>
   <v name="AVECCONST">      0.00000000      0.00000000      0.00000000</v>
  </separator>
  <separator name="response functions" >
   <i type="logical" name="LALL_IN_ONE"> F  </i>
   <i type="int" name="IALL_IN_ONE">    -1</i>
   <i type="int" name="NBANDS_WAVE">    -1</i>
   <i type="logical" name="LFINITE_TEMPERATURE"> F  </i>
   <i type="logical" name="LADDER"> F  </i>
   <i type="logical" name="LRPAFORCE"> F  </i>
   <i type="logical" name="LFXC"> F  </i>
   <i type="logical" name="LHARTREE"> T  </i>
   <i type="int" name="IBSE">     0</i>
   <v type="int" name="KPOINT">    -1     0     0     0</v>
   <i type="logical" name="LTCTC"> F  </i>
   <i type="logical" name="LTCTE"> F  </i>
   <i type="logical" name="LTETE"> F  </i>
   <i type="logical" name="LTRIPLET"> F  </i>
   <i type="logical" name="LFXCEPS"> F  </i>
   <i type="logical" name="LFXHEG"> F  </i>
   <i type="int" name="NATURALO">     2</i>
   <i type="logical" name="LHOLEGF"> F  </i>
   <i type="logical" name="L2ORDER"> F  </i>
   <i type="logical" name="LDMP1"> F  </i>
   <i type="logical" name="LMP2LT"> F  </i>
   <i type="logical" name="LSMP2LT"> F  </i>
   <i type="logical" name="LGWLF"> F  </i>
   <i name="ENCUTGW">     -1.60000002</i>
   <i name="ENCUTGWSOFT">     -1.60000002</i>
   <i name="ENCUTLF">     -1.00000000</i>
   <i type="logical" name="ESF_SPLINES"> F  </i>
   <i name="ESF_CONV">      0.01000000</i>
   <i type="int" name="ESF_NINTER">    15</i>
   <i type="int" name="LMAXMP2">    -1</i>
   <i name="SCISSOR">      0.00000000</i>
   <i type="int" name="NOMEGA">     0</i>
   <i type="int" name="NOMEGAR">     0</i>
   <i type="int" name="NBANDSGW">    -1</i>
   <i type="int" name="NBANDSO">    -1</i>
   <i type="int" name="NBANDSV">    -1</i>
   <i type="int" name="NELMGW">     1</i>
   <i type="int" name="NELMHF">     1</i>
   <i type="int" name="DIM">     3</i>
   <i type="int" name="IESPILON">     4</i>
   <i type="int" name="ANTIRES">     0</i>
   <i name="OMEGAMAX">    -30.00000000</i>
   <i name="OMEGAMIN">    -30.00000000</i>
   <i name="OMEGATL">   -200.00000000</i>
   <i type="int" name="OMEGAGRID">     0</i>
   <i name="CSHIFT">     -0.10000000</i>
   <i type="logical" name="LSELFENERGY"> F  </i>
   <i type="logical" name="LSPECTRAL"> F  </i>
   <i type="logical" name="LSPECTRALGW"> F  </i>
   <i type="logical" name="LSINGLES"> F  </i>
   <i type="logical" name="LFERMIGW"> F  </i>
   <i type="logical" name="ODDONLYGW"> F  </i>
   <i type="logical" name="EVENONLYGW"> F  </i>
   <i type="int" name="NKREDLFX">     1</i>
   <i type="int" name="NKREDLFY">     1</i>
   <i type="int" name="NKREDLFZ">     1</i>
   <i type="int" name="MAXMEM">  2800</i>
   <i type="int" name="TELESCOPE">     0</i>
   <i type="int" name="NTAUPAR">    -1</i>
   <i type="int" name="NOMEGAPAR">    -1</i>
   <i name="DAMP_NEWTON">      0.80000001</i>
   <i name="LAMBDA">      1.00000000</i>
  </separator>
  <separator name="External order field" >
   <i name="OFIELD_KAPPA">      0.00000000</i>
   <v name="OFIELD_K">      0.00000000      0.00000000      0.00000000</v>
   <i name="OFIELD_Q6_NEAR">      0.00000000</i>
   <i name="OFIELD_Q6_FAR">      0.00000000</i>
   <i name="OFIELD_A">      0.00000000</i>
  </separator>
  <separator name="optional k-points parameters" >
   <i type="int" name="KPOINTS_OPT_MODE">     1</i>
   <i type="logical" name="LKPOINTS_OPT"> F  </i>
  </separator>
 </parameters>
 <atominfo>
  <atoms>      64 </atoms>
  <types>       1 </types>
  <array name="atoms" >
   <dimension dim="1">ion</dimension>
   <field type="string">element</field>
   <field type="int">atomtype</field>
   <set>
    <rc><c>Si</c><c>   1</c></rc>
    <rc><c>Si</c><c>   1</c></rc>
    <rc><c>Si</c><c>   1</c></rc>
    <rc><c>Si</c><c>   1</c></rc>
    <rc><c>Si</c><c>   1</c></rc>
    <rc><c>Si</c><c>   1</c></rc>
    <rc><c>Si</c><c>   1</c></rc>
    <rc><c>Si</c><c>   1</c></rc>
    <rc><c>Si</c><c>   1</c></rc>
    <rc><c>Si</c><c>   1</c></rc>
    <rc><c>Si</c><c>   1</c></rc>
    <rc><c>Si</c><c>   1</c></rc>
    <rc><c>Si</c><c>   1</c></rc>
    <rc><c>Si</c><c>   1</c></rc>
    <rc><c>Si</c><c>   1</c></rc>
    <rc><c>Si</c><c>   1</c></rc>
    <rc><c>Si</c><c>   1</c></rc>
    <rc><c>Si</c><c>   1</c></rc>
    <rc><c>Si</c><c>   1</c></rc>
    <rc><c>Si</c><c>   1</c></rc>
    <rc><c>Si</c><c>   1</c></rc>
    <rc><c>Si</c><c>   1</c></rc>
    <rc><c>Si</c><c>   1</c></rc>
    <rc><c>Si</c><c>   1</c></rc>
    <rc><c>Si</c><c>   1</c></rc>
    <rc><c>Si</c><c>   1</c></rc>
    <rc><c>Si</c><c>   1</c></rc>
    <rc><c>Si</c><c>   1</c></rc>
    <rc><c>Si</c><c>   1</c></rc>
    <rc><c>Si</c><c>   1</c></rc>
    <rc><c>Si</c><c>   1</c></rc>
    <rc><c>Si</c><c>   1</c></rc>
    <rc><c>Si</c><c>   1</c></rc>
    <rc><c>Si</c><c>   1</c></rc>
    <rc><c>Si</c><c>   1</c></rc>
    <rc><c>Si</c><c>   1</c></rc>
    <rc><c>Si</c><c>   1</c></rc>
    <rc><c>Si</c><c>   1</c></rc>
    <rc><c>Si</c><c>   1</c></rc>
    <rc><c>Si</c><c>   1</c></rc>
    <rc><c>Si</c><c>   1</c></rc>
    <rc><c>Si</c><c>   1</c></rc>
    <rc><c>Si</c><c>   1</c></rc>
    <rc><c>Si</c><c>   1</c></rc>
    <rc><c>Si</c><c>   1</c></rc>
    <rc><c>Si</c><c>   1</c></rc>
    <rc><c>Si</c><c>   1</c></rc>
    <rc><c>Si</c><c>   1</c></rc>
    <rc><c>Si</c><c>   1</c></rc>
    <rc><c>Si</c><c>   1</c></rc>
    <rc><c>Si</c><c>   1</c></rc>
    <rc><c>Si</c><c>   1</c></rc>
    <rc><c>Si</c><c>   1</c></rc>
    <rc><c>Si</c><c>   1</c></rc>
    <rc><c>Si</c><c>   1</c></rc>
    <rc><c>Si</c><c>   1</c></rc>
    <rc><c>Si</c><c>   1</c></rc>
    <rc><c>Si</c><c>   1</c></rc>
    <rc><c>Si</c><c>   1</c></rc>
    <rc><c>Si</c><c>   1</c></rc>
    <rc><c>Si</c><c>   1</c></rc>
    <rc><c>Si</c><c>   1</c></rc>
    <rc><c>Si</c><c>   1</c></rc>
    <rc><c>Si</c><c>   1</c></rc>
   </set>
  </array>
  <array name="atomtypes" >
   <dimension dim="1">type</dimension>
   <field type="int">atomspertype</field>
   <field type="string">element</field>
   <field>mass</field>
   <field>valence</field>
   <field type="string">pseudopotential</field>
   <set>
    <rc><c>  64</c><c>Si</c><c>     28.08500000</c><c>      4.00000000</c><c>  PAW_PBE Si 05Jan2001                  </c></rc>
   </set>
  </array>
 </atominfo>
 <structure name="initialpos" >
  <crystal>
   <varray name="basis" >
    <v>      10.76805559       0.10556902       0.00000000 </v>
    <v>       0.10556902      10.55691756       0.00000000 </v>
    <v>       0.00000000       0.00000000      10.55691756 </v>
   </varray>
   <i name="volume">   1199.96607843 </i>
   <varray name="rec_basis" >
    <v>       0.09287638      -0.00092876       0.00000000 </v>
    <v>      -0.00092876       0.09473391       0.00000000 </v>
    <v>       0.00000000       0.00000000       0.09472462 </v>
   </varray>
  </crystal>
  <varray name="positions" >
   <v>       0.00000000       0.00000000       0.00000000 </v>
   <v>       0.00000000       0.00000000       0.50000000 </v>
   <v>       0.00000000       0.50000000       0.00000000 </v>
   <v>       0.00000000       0.50000000       0.50000000 </v>
   <v>       0.50000000       0.00000000       0.00000000 </v>
   <v>       0.50000000       0.00000000       0.50000000 </v>
   <v>       0.50000000       0.50000000       0.00000000 </v>
   <v>       0.50000000       0.50000000       0.50000000 </v>
   <v>       0.37500000       0.37500000       0.12500000 </v>
   <v>       0.37500000       0.37500000       0.62500000 </v>
   <v>       0.37500000       0.87500000       0.12500000 </v>
   <v>       0.37500000       0.87500000       0.62500000 </v>
   <v>       0.87500000       0.37500000       0.12500000 </v>
   <v>       0.87500000       0.37500000       0.62500000 </v>
   <v>       0.87500000       0.87500000       0.12500000 </v>
   <v>       0.87500000       0.87500000       0.62500000 </v>
   <v>       0.00000000       0.25000000       0.25000000 </v>
   <v>       0.00000000       0.25000000       0.75000000 </v>
   <v>       0.00000000       0.75000000       0.25000000 </v>
   <v>       0.00000000       0.75000000       0.75000000 </v>
   <v>       0.50000000       0.25000000       0.25000000 </v>
   <v>       0.50000000       0.25000000       0.75000000 </v>
   <v>       0.50000000       0.75000000       0.25000000 </v>
   <v>       0.50000000       0.75000000       0.75000000 </v>
   <v>       0.37500000       0.12500000       0.37500000 </v>
   <v>       0.37500000       0.12500000       0.87500000 </v>
   <v>       0.37500000       0.62500000       0.37500000 </v>
   <v>       0.37500000       0.62500000       0.87500000 </v>
   <v>       0.87500000       0.12500000       0.37500000 </v>
   <v>       0.87500000       0.12500000       0.87500000 </v>
   <v>       0.87500000       0.62500000       0.37500000 </v>
   <v>       0.87500000       0.62500000       0.87500000 </v>
   <v>       0.25000000       0.00000000       0.25000000 </v>
   <v>       0.25000000       0.00000000       0.75000000 </v>
   <v>       0.25000000       0.50000000       0.25000000 </v>
   <v>       0.25000000       0.50000000       0.75000000 </v>
   <v>       0.75000000       0.00000000       0.25000000 </v>
   <v>       0.75000000       0.00000000       0.75000000 </v>
   <v>       0.75000000       0.50000000       0.25000000 </v>
   <v>       0.75000000       0.50000000       0.75000000 </v>
   <v>       0.12500000       0.37500000       0.37500000 </v>
   <v>       0.12500000       0.37500000       0.87500000 </v>
   <v>       0.12500000       0.87500000       0.37500000 </v>
   <v>       0.12500000       0.87500000       0.87500000 </v>
   <v>       0.62500000       0.37500000       0.37500000 </v>
   <v>       0.62500000       0.37500000       0.87500000 </v>
   <v>       0.62500000       0.87500000       0.37500000 </v>
   <v>       0.62500000       0.87500000       0.87500000 </v>
   <v>       0.25000000       0.25000000       0.00000000 </v>
   <v>       0.25000000       0.25000000       0.50000000 </v>
   <v>       0.25000000       0.75000000       0.00000000 </v>
   <v>       0.25000000       0.75000000       0.50000000 </v>
   <v>       0.75000000       0.25000000       0.00000000 </v>
   <v>       0.75000000       0.25000000       0.50000000 </v>
   <v>       0.75000000       0.75000000       0.00000000 </v>
   <v>       0.75000000       0.75000000       0.50000000 </v>
   <v>       0.12500000       0.12500000       0.12500000 </v>
   <v>       0.12500000       0.12500000       0.62500000 </v>
   <v>       0.12500000       0.62500000       0.12500000 </v>
   <v>       0.12500000       0.62500000       0.62500000 </v>
   <v>       0.62500000       0.12500000       0.12500000 </v>
   <v>       0.62500000       0.12500000       0.62500000 </v>
   <v>       0.62500000       0.62500000       0.12500000 </v>
   <v>       0.62500000       0.62500000       0.62500000 </v>
  </varray>
 </structure>
 <calculation>
  <scstep>
   <time name="dav">    1.26    1.32</time>
   <time name="total">    1.45    1.53</time>
   <energy>
    <i name="alphaZ">    114.90673464 </i>
    <i name="ewald">  -7474.65620693 </i>
    <i name="hartreedc">   -321.47811699 </i>
    <i name="XCdc">   -550.79150599 </i>
    <i name="pawpsdc">   5598.62625415 </i>
    <i name="pawaedc">  -4492.17844134 </i>
    <i name="eentropy">     -0.00173518 </i>
    <i name="bandstr">   1137.97359338 </i>
    <i name="atom">   6564.79586099 </i>
    <i name="e_fr_energy">    577.19643674 </i>
    <i name="e_wo_entrp">    577.19817192 </i>
    <i name="e_0_energy">    577.19701513 </i>
   </energy>
  </scstep>
  <scstep>
   <time name="dav">    1.33    1.35</time>
   <time name="total">    1.33    1.35</time>
   <energy>
    <i name="e_fr_energy">   -308.67645938 </i>
    <i name="e_wo_entrp">   -308.67492821 </i>
    <i name="e_0_energy">   -308.67594899 </i>
   </energy>
  </scstep>
  <scstep>
   <time name="dav">    1.35    1.37</time>
   <time name="total">    1.35    1.37</time>
   <energy>
    <i name="e_fr_energy">   -372.43105596 </i>
    <i name="e_wo_entrp">   -372.43868013 </i>
    <i name="e_0_energy">   -372.43359735 </i>
   </energy>
  </scstep>
  <scstep>
   <time name="dav">    1.32    1.34</time>
   <time name="total">    1.32    1.34</time>
   <energy>
    <i name="e_fr_energy">   -374.05171521 </i>
    <i name="e_wo_entrp">   -374.05920323 </i>
    <i name="e_0_energy">   -374.05421122 </i>
   </energy>
  </scstep>
  <scstep>
   <time name="dav">    1.34    1.35</time>
   <time name="total">    1.61    1.63</time>
   <energy>
    <i name="e_fr_energy">   -374.10204199 </i>
    <i name="e_wo_entrp">   -374.10952124 </i>
    <i name="e_0_energy">   -374.10453508 </i>
   </energy>
  </scstep>
  <scstep>
   <time name="diag">    0.14    0.14</time>
   <time name="diis">    0.70    0.70</time>
   <time name="orth">    0.02    0.02</time>
   <time name="total">    1.25    1.27</time>
   <energy>
    <i name="e_fr_energy">   -368.05536156 </i>
    <i name="e_wo_entrp">   -368.07647141 </i>
    <i name="e_0_energy">   -368.06239818 </i>
   </energy>
  </scstep>
  <scstep>
   <time name="diag">    0.14    0.14</time>
   <time name="diis">    0.71    0.72</time>
   <time name="orth">    0.02    0.02</time>
   <time name="total">    1.25    1.29</time>
   <energy>
    <i name="e_fr_energy">   -365.43432674 </i>
    <i name="e_wo_entrp">   -365.44799556 </i>
    <i name="e_0_energy">   -365.43888301 </i>
   </energy>
  </scstep>
  <scstep>
   <time name="diag">    0.13    0.13</time>
   <time name="diis">    0.70    0.70</time>
   <time name="orth">    0.02    0.02</time>
   <time name="total">    1.25    1.26</time>
   <energy>
    <i name="e_fr_energy">   -365.46764804 </i>
    <i name="e_wo_entrp">   -365.48660438 </i>
    <i name="e_0_energy">   -365.47396682 </i>
   </energy>
  </scstep>
  <scstep>
   <time name="diag">    0.13    0.13</time>
   <time name="diis">    0.70    0.70</time>
   <time name="orth">    0.02    0.02</time>
   <time name="total">    1.24    1.26</time>
   <energy>
    <i name="e_fr_energy">   -365.49101064 </i>
    <i name="e_wo_entrp">   -365.50852098 </i>
    <i name="e_0_energy">   -365.49684742 </i>
   </energy>
  </scstep>
  <scstep>
   <time name="diag">    0.14    0.14</time>
   <time name="diis">    0.73    0.73</time>
   <time name="orth">    0.02    0.02</time>
   <time name="total">    1.27    1.29</time>
   <energy>
    <i name="e_fr_energy">   -365.49607354 </i>
    <i name="e_wo_entrp">   -365.51342599 </i>
    <i name="e_0_energy">   -365.50185769 </i>
   </energy>
  </scstep>
  <scstep>
   <time name="diag">    0.13    0.13</time>
   <time name="diis">    0.69    0.69</time>
   <time name="orth">    0.02    0.02</time>
   <time name="total">    1.23    1.25</time>
   <energy>
    <i name="e_fr_energy">   -365.49086953 </i>
    <i name="e_wo_entrp">   -365.50991924 </i>
    <i name="e_0_energy">   -365.49721944 </i>
   </energy>
  </scstep>
  <scstep>
   <time name="diag">    0.13    0.13</time>
   <time name="diis">    0.69    0.69</time>
   <time name="orth">    0.02    0.02</time>
   <time name="total">    1.23    1.25</time>
   <energy>
    <i name="e_fr_energy">   -365.49107469 </i>
    <i name="e_wo_entrp">   -365.51016004 </i>
    <i name="e_0_energy">   -365.49743647 </i>
   </energy>
  </scstep>
  <scstep>
   <time name="diag">    0.13    0.13</time>
   <time name="diis">    0.73    0.73</time>
   <time name="orth">    0.02    0.02</time>
   <time name="total">    1.27    1.29</time>
   <energy>
    <i name="e_fr_energy">   -365.49114765 </i>
    <i name="e_wo_entrp">   -365.51024187 </i>
    <i name="e_0_energy">   -365.49751239 </i>
   </energy>
  </scstep>
  <scstep>
   <time name="diag">    0.13    0.14</time>
   <time name="diis">    0.70    0.70</time>
   <time name="orth">    0.02    0.02</time>
   <time name="total">    1.24    1.26</time>
   <energy>
    <i name="e_fr_energy">   -365.49113245 </i>
    <i name="e_wo_entrp">   -365.51022568 </i>
    <i name="e_0_energy">   -365.49749686 </i>
   </energy>
  </scstep>
  <scstep>
   <time name="diag">    0.16    0.16</time>
   <time name="diis">    0.71    0.71</time>
   <time name="orth">    0.02    0.02</time>
   <time name="total">    1.28    1.30</time>
   <energy>
    <i name="e_fr_energy">   -365.49117923 </i>
    <i name="e_wo_entrp">   -365.51032459 </i>
    <i name="e_0_energy">   -365.49756102 </i>
   </energy>
  </scstep>
  <scstep>
   <time name="diag">    0.14    0.14</time>
   <time name="diis">    0.69    0.70</time>
   <time name="orth">    0.02    0.02</time>
   <time name="total">    1.25    1.27</time>
   <energy>
    <i name="e_fr_energy">   -365.49120744 </i>
    <i name="e_wo_entrp">   -365.51037347 </i>
    <i name="e_0_energy">   -365.49759612 </i>
   </energy>
  </scstep>
  <scstep>
   <time name="diag">    0.13    0.13</time>
   <time name="diis">    0.67    0.67</time>
   <time name="orth">    0.02    0.02</time>
   <time name="total">    1.22    1.24</time>
   <energy>
    <i name="e_fr_energy">   -365.49121467 </i>
    <i name="e_wo_entrp">   -365.51039098 </i>
    <i name="e_0_energy">   -365.49760677 </i>
   </energy>
  </scstep>
  <scstep>
   <time name="diag">    0.14    0.14</time>
   <time name="diis">    0.45    0.45</time>
   <time name="orth">    0.02    0.02</time>
   <time name="total">    0.75    0.77</time>
   <energy>
    <i name="alphaZ">    114.90673464 </i>
    <i name="ewald">  -7474.65620693 </i>
    <i name="hartreedc">   -443.89596469 </i>
    <i name="XCdc">   -530.01713411 </i>
    <i name="pawpsdc">  32020.73683914 </i>
    <i name="pawaedc"> -30922.88193754 </i>
    <i name="eentropy">      0.01918164 </i>
    <i name="bandstr">    305.50141191 </i>
    <i name="atom">   6564.79586099 </i>
    <i name="e_fr_energy">   -365.49121494 </i>
    <i name="e_wo_entrp">   -365.51039657 </i>
    <i name="e_0_energy">   -365.49760881 </i>
   </energy>
  </scstep>
  <structure>
   <crystal>
    <varray name="basis" >
     <v>      10.76805559       0.10556902       0.00000000 </v>
     <v>       0.10556902      10.55691756       0.00000000 </v>
     <v>       0.00000000       0.00000000      10.55691756 </v>
    </varray>
    <i name="volume">   1199.96607843 </i>
    <varray name="rec_basis" >
     <v>       0.09287638      -0.00092876       0.00000000 </v>
     <v>      -0.00092876       0.09473391       0.00000000 </v>
     <v>       0.00000000       0.00000000       0.09472462 </v>
    </varray>
   </crystal>
   <varray name="positions" >
    <v>       0.00000000       0.00000000       0.00000000 </v>
    <v>       0.00000000       0.00000000       0.50000000 </v>
    <v>       0.00000000       0.50000000       0.00000000 </v>
    <v>       0.00000000       0.50000000       0.50000000 </v>
    <v>       0.50000000       0.00000000       0.00000000 </v>
    <v>       0.50000000       0.00000000       0.50000000 </v>
    <v>       0.50000000       0.50000000       0.00000000 </v>
    <v>       0.50000000       0.50000000       0.50000000 </v>
    <v>       0.37500000       0.37500000       0.12500000 </v>
    <v>       0.37500000       0.37500000       0.62500000 </v>
    <v>       0.37500000       0.87500000       0.12500000 </v>
    <v>       0.37500000       0.87500000       0.62500000 </v>
    <v>       0.87500000       0.37500000       0.12500000 </v>
    <v>       0.87500000       0.37500000       0.62500000 </v>
    <v>       0.87500000       0.87500000       0.12500000 </v>
    <v>       0.87500000       0.87500000       0.62500000 </v>
    <v>       0.00000000       0.25000000       0.25000000 </v>
    <v>       0.00000000       0.25000000       0.75000000 </v>
    <v>       0.00000000       0.75000000       0.25000000 </v>
    <v>       0.00000000       0.75000000       0.75000000 </v>
    <v>       0.50000000       0.25000000       0.25000000 </v>
    <v>       0.50000000       0.25000000       0.75000000 </v>
    <v>       0.50000000       0.75000000       0.25000000 </v>
    <v>       0.50000000       0.75000000       0.75000000 </v>
    <v>       0.37500000       0.12500000       0.37500000 </v>
    <v>       0.37500000       0.12500000       0.87500000 </v>
    <v>       0.37500000       0.62500000       0.37500000 </v>
    <v>       0.37500000       0.62500000       0.87500000 </v>
    <v>       0.87500000       0.12500000       0.37500000 </v>
    <v>       0.87500000       0.12500000       0.87500000 </v>
    <v>       0.87500000       0.62500000       0.37500000 </v>
    <v>       0.87500000       0.62500000       0.87500000 </v>
    <v>       0.25000000       0.00000000       0.25000000 </v>
    <v>       0.25000000       0.00000000       0.75000000 </v>
    <v>       0.25000000       0.50000000       0.25000000 </v>
    <v>       0.25000000       0.50000000       0.75000000 </v>
    <v>       0.75000000       0.00000000       0.25000000 </v>
    <v>       0.75000000       0.00000000       0.75000000 </v>
    <v>       0.75000000       0.50000000       0.25000000 </v>
    <v>       0.75000000       0.50000000       0.75000000 </v>
    <v>       0.12500000       0.37500000       0.37500000 </v>
    <v>       0.12500000       0.37500000       0.87500000 </v>
    <v>       0.12500000       0.87500000       0.37500000 </v>
    <v>       0.12500000       0.87500000       0.87500000 </v>
    <v>       0.62500000       0.37500000       0.37500000 </v>
    <v>       0.62500000       0.37500000       0.87500000 </v>
    <v>       0.62500000       0.87500000       0.37500000 </v>
    <v>       0.62500000       0.87500000       0.87500000 </v>
    <v>       0.25000000       0.25000000       0.00000000 </v>
    <v>       0.25000000       0.25000000       0.50000000 </v>
    <v>       0.25000000       0.75000000       0.00000000 </v>
    <v>       0.25000000       0.75000000       0.50000000 </v>
    <v>       0.75000000       0.25000000       0.00000000 </v>
    <v>       0.75000000       0.25000000       0.50000000 </v>
    <v>       0.75000000       0.75000000       0.00000000 </v>
    <v>       0.75000000       0.75000000       0.50000000 </v>
    <v>       0.12500000       0.12500000       0.12500000 </v>
    <v>       0.12500000       0.12500000       0.62500000 </v>
    <v>       0.12500000       0.62500000       0.12500000 </v>
    <v>       0.12500000       0.62500000       0.62500000 </v>
    <v>       0.62500000       0.12500000       0.12500000 </v>
    <v>       0.62500000       0.12500000       0.62500000 </v>
    <v>       0.62500000       0.62500000       0.12500000 </v>
    <v>       0.62500000       0.62500000       0.62500000 </v>
   </varray>
  </structure>
  <varray name="forces" >
   <v>       0.00000000       0.00000000       0.26420213 </v>
   <v>       0.00000000       0.00000000       0.26420213 </v>
   <v>       0.00000000       0.00000000       0.26420213 </v>
   <v>       0.00000000       0.00000000       0.26420213 </v>
   <v>      -0.00000000      -0.00000000       0.26420213 </v>
   <v>      -0.00000000      -0.00000000       0.26420213 </v>
   <v>      -0.00000000      -0.00000000       0.26420213 </v>
   <v>      -0.00000000      -0.00000000       0.26420213 </v>
   <v>       0.00000000      -0.00000000      -0.26420213 </v>
   <v>       0.00000000      -0.00000000      -0.26420213 </v>
   <v>       0.00000000      -0.00000000      -0.26420213 </v>
   <v>       0.00000000       0.00000000      -0.26420213 </v>
   <v>      -0.00000000       0.00000000      -0.26420213 </v>
   <v>      -0.00000000       0.00000000      -0.26420213 </v>
   <v>      -0.00000000       0.00000000      -0.26420213 </v>
   <v>      -0.00000000       0.00000000      -0.26420213 </v>
   <v>       0.00000000       0.00000000       0.26420213 </v>
   <v>       0.00000000       0.00000000       0.26420213 </v>
   <v>       0.00000000       0.00000000       0.26420213 </v>
   <v>       0.00000000       0.00000000       0.26420213 </v>
   <v>      -0.00000000      -0.00000000       0.26420213 </v>
   <v>      -0.00000000      -0.00000000       0.26420213 </v>
   <v>      -0.00000000      -0.00000000       0.26420213 </v>
   <v>      -0.00000000      -0.00000000       0.26420213 </v>
   <v>       0.00000000       0.00000000      -0.26420213 </v>
   <v>      -0.00000000       0.00000000      -0.26420213 </v>
   <v>       0.00000000      -0.00000000      -0.26420213 </v>
   <v>       0.00000000      -0.00000000      -0.26420213 </v>
   <v>      -0.00000000      -0.00000000      -0.26420213 </v>
   <v>       0.00000000       0.00000000      -0.26420213 </v>
   <v>      -0.00000000       0.00000000      -0.26420213 </v>
   <v>      -0.00000000       0.00000000      -0.26420213 </v>
   <v>       0.00000000       0.00000000       0.26420213 </v>
   <v>       0.00000000       0.00000000       0.26420213 </v>
   <v>       0.00000000       0.00000000       0.26420213 </v>
   <v>      -0.00000000      -0.00000000       0.26420213 </v>
   <v>       0.00000000       0.00000000       0.26420213 </v>
   <v>       0.00000000       0.00000000       0.26420213 </v>
   <v>      -0.00000000      -0.00000000       0.26420213 </v>
   <v>      -0.00000000      -0.00000000       0.26420213 </v>
   <v>      -0.00000000       0.00000000      -0.26420213 </v>
   <v>      -0.00000000       0.00000000      -0.26420213 </v>
   <v>      -0.00000000       0.00000000      -0.26420213 </v>
   <v>      -0.00000000       0.00000000      -0.26420213 </v>
   <v>       0.00000000      -0.00000000      -0.26420213 </v>
   <v>       0.00000000      -0.00000000      -0.26420213 </v>
   <v>       0.00000000      -0.00000000      -0.26420213 </v>
   <v>       0.00000000      -0.00000000      -0.26420213 </v>
   <v>       0.00000000      -0.00000000       0.26420213 </v>
   <v>       0.00000000       0.00000000       0.26420213 </v>
   <v>       0.00000000      -0.00000000       0.26420213 </v>
   <v>       0.00000000       0.00000000       0.26420213 </v>
   <v>      -0.00000000       0.00000000       0.26420213 </v>
   <v>      -0.00000000      -0.00000000       0.26420213 </v>
   <v>      -0.00000000      -0.00000000       0.26420213 </v>
   <v>       0.00000000       0.00000000       0.26420213 </v>
   <v>      -0.00000000       0.00000000      -0.26420213 </v>
   <v>      -0.00000000       0.00000000      -0.26420213 </v>
   <v>      -0.00000000       0.00000000      -0.26420213 </v>
   <v>      -0.00000000       0.00000000      -0.26420213 </v>
   <v>       0.00000000      -0.00000000      -0.26420213 </v>
   <v>       0.00000000      -0.00000000      -0.26420213 </v>
   <v>       0.00000000      -0.00000000      -0.26420213 </v>
   <v>       0.00000000      -0.00000000      -0.26420213 </v>
  </varray>
  <varray name="stress" >
   <v>      62.19254357     -24.21062293       0.00000000 </v>
   <v>     -24.21062295      80.92893254       0.00000000 </v>
   <v>       0.00000000       0.00000000      80.31049854 </v>
  </varray>
  <energy>
   <i name="e_fr_energy">   -365.49121494 </i>
   <i name="e_wo_entrp">   -365.51039657 </i>
   <i name="e_0_energy">   -365.49760881 </i>
  </energy>
  <time name="totalsc">   26.49   26.95</time>
 </calculation>
 <calculation>
  <scstep>
   <time name="dav">    1.27    1.29</time>
   <time name="total">    1.66    1.68</time>
   <energy>
    <i name="alphaZ">    114.90673464 </i>
    <i name="ewald">  -7475.72102755 </i>
    <i name="hartreedc">   -443.35128861 </i>
    <i name="XCdc">   -530.03752963 </i>
    <i name="pawpsdc">  32028.91431988 </i>
    <i name="pawaedc"> -30931.05879508 </i>
    <i name="eentropy">      0.00636148 </i>
    <i name="bandstr">    306.00696853 </i>
    <i name="atom">   6564.79586099 </i>
    <i name="e_fr_energy">   -365.53839534 </i>
    <i name="e_wo_entrp">   -365.54475682 </i>
    <i name="e_0_energy">   -365.54051584 </i>
   </energy>
  </scstep>
  <scstep>
   <time name="diag">    0.13    0.13</time>
   <time name="diis">    0.70    0.70</time>
   <time name="orth">    0.02    0.02</time>
   <time name="total">    1.24    1.26</time>
   <energy>
    <i name="e_fr_energy">   -365.55180158 </i>
    <i name="e_wo_entrp">   -365.55823805 </i>
    <i name="e_0_energy">   -365.55394707 </i>
   </energy>
  </scstep>
  <scstep>
   <time name="diag">    0.13    0.14</time>
   <time name="diis">    0.70    0.71</time>
   <time name="orth">    0.02    0.02</time>
   <time name="total">    1.26    1.28</time>
   <energy>
    <i name="e_fr_energy">   -365.55327612 </i>
    <i name="e_wo_entrp">   -365.56002820 </i>
    <i name="e_0_energy">   -365.55552681 </i>
   </energy>
  </scstep>
  <scstep>
   <time name="diag">    0.13    0.13</time>
   <time name="diis">    0.70    0.70</time>
   <time name="orth">    0.02    0.02</time>
   <time name="total">    1.24    1.26</time>
   <energy>
    <i name="e_fr_energy">   -365.55321408 </i>
    <i name="e_wo_entrp">   -365.56020749 </i>
    <i name="e_0_energy">   -365.55554522 </i>
   </energy>
  </scstep>
  <scstep>
   <time name="diag">    0.13    0.13</time>
   <time name="diis">    0.70    0.71</time>
   <time name="orth">    0.02    0.02</time>
   <time name="total">    1.24    1.26</time>
   <energy>
    <i name="e_fr_energy">   -365.55323684 </i>
    <i name="e_wo_entrp">   -365.56031973 </i>
    <i name="e_0_energy">   -365.55559780 </i>
   </energy>
  </scstep>
  <scstep>
   <time name="diag">    0.16    0.18</time>
   <time name="diis">    0.74    0.75</time>
   <time name="orth">    0.02    0.02</time>
   <time name="total">    1.31    1.35</time>
   <energy>
    <i name="e_fr_energy">   -365.55325006 </i>
    <i name="e_wo_entrp">   -365.56032771 </i>
    <i name="e_0_energy">   -365.55560928 </i>
   </energy>
  </scstep>
  <scstep>
   <time name="diag">    0.13    0.13</time>
   <time name="diis">    0.67    0.67</time>
   <time name="orth">    0.02    0.02</time>
   <time name="total">    1.22    1.23</time>
   <energy>
    <i name="e_fr_energy">   -365.55325171 </i>
    <i name="e_wo_entrp">   -365.56032771 </i>
    <i name="e_0_energy">   -365.55561038 </i>
   </energy>
  </scstep>
  <scstep>
   <time name="diag">    0.13    0.13</time>
   <time name="diis">    0.50    0.50</time>
   <time name="orth">    0.02    0.02</time>
   <time name="total">    0.80    0.82</time>
   <energy>
    <i name="alphaZ">    114.90673464 </i>
    <i name="ewald">  -7475.72102755 </i>
    <i name="hartreedc">   -443.00686177 </i>
    <i name="XCdc">   -530.08792029 </i>
    <i name="pawpsdc">  31978.12413148 </i>
    <i name="pawaedc"> -30880.24008515 </i>
    <i name="eentropy">      0.00707706 </i>
    <i name="bandstr">    305.66883871 </i>
    <i name="atom">   6564.79586099 </i>
    <i name="e_fr_energy">   -365.55325189 </i>
    <i name="e_wo_entrp">   -365.56032894 </i>
    <i name="e_0_energy">   -365.55561091 </i>
   </energy>
  </scstep>
  <structure>
   <crystal>
    <varray name="basis" >
     <v>      10.76805559       0.10556902       0.00000000 </v>
     <v>       0.10556902      10.55691756       0.00000000 </v>
     <v>       0.00000000       0.00000000      10.55691756 </v>
    </varray>
    <i name="volume">   1199.96607843 </i>
    <varray name="rec_basis" >
     <v>       0.09287638      -0.00092876       0.00000000 </v>
     <v>      -0.00092876       0.09473391       0.00000000 </v>
     <v>       0.00000000       0.00000000       0.09472462 </v>
    </varray>
   </crystal>
   <varray name="positions" >
    <v>       0.00000000       0.00000000       0.00120734 </v>
    <v>       0.00000000       0.00000000       0.50120734 </v>
    <v>       0.00000000       0.50000000       0.00120734 </v>
    <v>       0.00000000       0.50000000       0.50120734 </v>
    <v>       0.50000000       1.00000000       0.00120734 </v>
    <v>       0.50000000       1.00000000       0.50120734 </v>
    <v>       0.50000000       0.50000000       0.00120734 </v>
    <v>       0.50000000       0.50000000       0.50120734 </v>
    <v>       0.37500000       0.37500000       0.12379266 </v>
    <v>       0.37500000       0.37500000       0.62379266 </v>
    <v>       0.37500000       0.87500000       0.12379266 </v>
    <v>       0.37500000       0.87500000       0.62379266 </v>
    <v>       0.87500000       0.37500000       0.12379266 </v>
    <v>       0.87500000       0.37500000       0.62379266 </v>
    <v>       0.87500000       0.87500000       0.12379266 </v>
    <v>       0.87500000       0.87500000       0.62379266 </v>
    <v>       0.00000000       0.25000000       0.25120734 </v>
    <v>       0.00000000       0.25000000       0.75120734 </v>
    <v>       0.00000000       0.75000000       0.25120734 </v>
    <v>       0.00000000       0.75000000       0.75120734 </v>
    <v>       0.50000000       0.25000000       0.25120734 </v>
    <v>       0.50000000       0.25000000       0.75120734 </v>
    <v>       0.50000000       0.75000000       0.25120734 </v>
    <v>       0.50000000       0.75000000       0.75120734 </v>
    <v>       0.37500000       0.12500000       0.37379266 </v>
    <v>       0.37500000       0.12500000       0.87379266 </v>
    <v>       0.37500000       0.62500000       0.37379266 </v>
    <v>       0.37500000       0.62500000       0.87379266 </v>
    <v>       0.87500000       0.12500000       0.37379266 </v>
    <v>       0.87500000       0.12500000       0.87379266 </v>
    <v>       0.87500000       0.62500000       0.37379266 </v>
    <v>       0.87500000       0.62500000       0.87379266 </v>
    <v>       0.25000000       0.00000000       0.25120734 </v>
    <v>       0.25000000       0.00000000       0.75120734 </v>
    <v>       0.25000000       0.50000000       0.25120734 </v>
    <v>       0.25000000       0.50000000       0.75120734 </v>
    <v>       0.75000000       0.00000000       0.25120734 </v>
    <v>       0.75000000       0.00000000       0.75120734 </v>
    <v>       0.75000000       0.50000000       0.25120734 </v>
    <v>       0.75000000       0.50000000       0.75120734 </v>
    <v>       0.12500000       0.37500000       0.37379266 </v>
    <v>       0.12500000       0.37500000       0.87379266 </v>
    <v>       0.12500000       0.87500000       0.37379266 </v>
    <v>       0.12500000       0.87500000       0.87379266 </v>
    <v>       0.62500000       0.37500000       0.37379266 </v>
    <v>       0.62500000       0.37500000       0.87379266 </v>
    <v>       0.62500000       0.87500000       0.37379266 </v>
    <v>       0.62500000       0.87500000       0.87379266 </v>
    <v>       0.25000000       0.25000000       0.00120734 </v>
    <v>       0.25000000       0.25000000       0.50120734 </v>
    <v>       0.25000000       0.75000000       0.00120734 </v>
    <v>       0.25000000       0.75000000       0.50120734 </v>
    <v>       0.75000000       0.25000000       0.00120734 </v>
    <v>       0.75000000       0.25000000       0.50120734 </v>
    <v>       0.75000000       0.75000000       0.00120734 </v>
    <v>       0.75000000       0.75000000       0.50120734 </v>
    <v>       0.12500000       0.12500000       0.12379266 </v>
    <v>       0.12500000       0.12500000       0.62379266 </v>
    <v>       0.12500000       0.62500000       0.12379266 </v>
    <v>       0.12500000       0.62500000       0.62379266 </v>
    <v>       0.62500000       0.12500000       0.12379266 </v>
    <v>       0.62500000       0.12500000       0.62379266 </v>
    <v>       0.62500000       0.62500000       0.12379266 </v>
    <v>       0.62500000       0.62500000       0.62379266 </v>
   </varray>
  </structure>
  <varray name="forces" >
   <v>      -0.00000000      -0.00000000      -0.10949831 </v>
   <v>      -0.00000000      -0.00000000      -0.10949831 </v>
   <v>      -0.00000000      -0.00000000      -0.10949831 </v>
   <v>       0.00000000       0.00000000      -0.10949831 </v>
   <v>      -0.00000000      -0.00000000      -0.10949831 </v>
   <v>       0.00000000       0.00000000      -0.10949831 </v>
   <v>       0.00000000       0.00000000      -0.10949831 </v>
   <v>      -0.00000000       0.00000000      -0.10949831 </v>
   <v>      -0.00000000      -0.00000000       0.10949831 </v>
   <v>      -0.00000000       0.00000000       0.10949831 </v>
   <v>      -0.00000000      -0.00000000       0.10949831 </v>
   <v>       0.00000000      -0.00000000       0.10949831 </v>
   <v>       0.00000000       0.00000000       0.10949831 </v>
   <v>      -0.00000000      -0.00000000       0.10949831 </v>
   <v>      -0.00000000      -0.00000000       0.10949831 </v>
   <v>       0.00000000      -0.00000000       0.10949831 </v>
   <v>      -0.00000000      -0.00000000      -0.10949831 </v>
   <v>      -0.00000000      -0.00000000      -0.10949831 </v>
   <v>      -0.00000000      -0.00000000      -0.10949831 </v>
   <v>       0.00000000      -0.00000000      -0.10949831 </v>
   <v>       0.00000000       0.00000000      -0.10949831 </v>
   <v>       0.00000000       0.00000000      -0.10949831 </v>
   <v>      -0.00000000       0.00000000      -0.10949831 </v>
   <v>       0.00000000       0.00000000      -0.10949831 </v>
   <v>      -0.00000000      -0.00000000       0.10949831 </v>
   <v>      -0.00000000       0.00000000       0.10949831 </v>
   <v>      -0.00000000      -0.00000000       0.10949831 </v>
   <v>      -0.00000000       0.00000000       0.10949831 </v>
   <v>       0.00000000       0.00000000       0.10949831 </v>
   <v>      -0.00000000      -0.00000000       0.10949831 </v>
   <v>      -0.00000000      -0.00000000       0.10949831 </v>
   <v>       0.00000000       0.00000000       0.10949831 </v>
   <v>       0.00000000      -0.00000000      -0.10949831 </v>
   <v>      -0.00000000      -0.00000000      -0.10949831 </v>
   <v>      -0.00000000       0.00000000      -0.10949831 </v>
   <v>      -0.00000000       0.00000000      -0.10949831 </v>
   <v>       0.00000000       0.00000000      -0.10949831 </v>
   <v>       0.00000000       0.00000000      -0.10949831 </v>
   <v>      -0.00000000      -0.00000000      -0.10949831 </v>
   <v>      -0.00000000      -0.00000000      -0.10949831 </v>
   <v>       0.00000000       0.00000000       0.10949831 </v>
   <v>       0.00000000       0.00000000       0.10949831 </v>
   <v>       0.00000000       0.00000000       0.10949831 </v>
   <v>       0.00000000       0.00000000       0.10949831 </v>
   <v>      -0.00000000      -0.00000000       0.10949831 </v>
   <v>      -0.00000000      -0.00000000       0.10949831 </v>
   <v>      -0.00000000      -0.00000000       0.10949831 </v>
   <v>      -0.00000000      -0.00000000       0.10949831 </v>
   <v>       0.00000000      -0.00000000      -0.10949831 </v>
   <v>      -0.00000000       0.00000000      -0.10949831 </v>
   <v>      -0.00000000      -0.00000000      -0.10949831 </v>
   <v>      -0.00000000       0.00000000      -0.10949831 </v>
   <v>       0.00000000       0.00000000      -0.10949831 </v>
   <v>      -0.00000000      -0.00000000      -0.10949831 </v>
   <v>      -0.00000000       0.00000000      -0.10949831 </v>
   <v>       0.00000000      -0.00000000      -0.10949831 </v>
   <v>       0.00000000       0.00000000       0.10949831 </v>
   <v>       0.00000000       0.00000000       0.10949831 </v>
   <v>       0.00000000       0.00000000       0.10949831 </v>
   <v>       0.00000000       0.00000000       0.10949831 </v>
   <v>      -0.00000000      -0.00000000       0.10949831 </v>
   <v>      -0.00000000      -0.00000000       0.10949831 </v>
   <v>      -0.00000000      -0.00000000       0.10949831 </v>
   <v>      -0.00000000       0.00000000       0.10949831 </v>
  </varray>
  <varray name="stress" >
   <v>      61.57909202      -9.33891836       0.00000000 </v>
   <v>      -9.33891842      80.18889536       0.00000000 </v>
   <v>       0.00000000       0.00000000      78.76395640 </v>
  </varray>
  <energy>
   <i name="e_fr_energy">   -365.55325189 </i>
   <i name="e_wo_entrp">   -365.56032894 </i>
   <i name="e_0_energy">   -365.55561091 </i>
  </energy>
  <time name="totalsc">   13.60   13.78</time>
 </calculation>
 <calculation>
  <scstep>
   <time name="dav">    1.28    1.29</time>
   <time name="total">    1.67    1.68</time>
   <energy>
    <i name="alphaZ">    114.90673464 </i>
    <i name="ewald">  -7475.45877565 </i>
    <i name="hartreedc">   -443.16277236 </i>
    <i name="XCdc">   -530.08058268 </i>
    <i name="pawpsdc">  31976.79788792 </i>
    <i name="pawaedc"> -30878.91378447 </i>
    <i name="eentropy">      0.01091875 </i>
    <i name="bandstr">    305.53923260 </i>
    <i name="atom">   6564.79586099 </i>
    <i name="e_fr_energy">   -365.56528026 </i>
    <i name="e_wo_entrp">   -365.57619901 </i>
    <i name="e_0_energy">   -365.56891984 </i>
   </energy>
  </scstep>
  <scstep>
   <time name="diag">    0.13    0.13</time>
   <time name="diis">    0.69    0.69</time>
   <time name="orth">    0.02    0.02</time>
   <time name="total">    1.23    1.24</time>
   <energy>
    <i name="e_fr_energy">   -365.56643483 </i>
    <i name="e_wo_entrp">   -365.57730516 </i>
    <i name="e_0_energy">   -365.57005827 </i>
   </energy>
  </scstep>
  <scstep>
   <time name="diag">    0.13    0.13</time>
   <time name="diis">    0.69    0.69</time>
   <time name="orth">    0.02    0.02</time>
   <time name="total">    1.23    1.25</time>
   <energy>
    <i name="e_fr_energy">   -365.56654937 </i>
    <i name="e_wo_entrp">   -365.57726610 </i>
    <i name="e_0_energy">   -365.57012162 </i>
   </energy>
  </scstep>
  <scstep>
   <time name="diag">    0.13    0.13</time>
   <time name="diis">    0.69    0.69</time>
   <time name="orth">    0.02    0.02</time>
   <time name="total">    1.23    1.25</time>
   <energy>
    <i name="e_fr_energy">   -365.56654366 </i>
    <i name="e_wo_entrp">   -365.57715940 </i>
    <i name="e_0_energy">   -365.57008224 </i>
   </energy>
  </scstep>
  <scstep>
   <time name="diag">    0.13    0.13</time>
   <time name="diis">    0.70    0.70</time>
   <time name="orth">    0.02    0.02</time>
   <time name="total">    1.24    1.26</time>
   <energy>
    <i name="e_fr_energy">   -365.56654569 </i>
    <i name="e_wo_entrp">   -365.57712626 </i>
    <i name="e_0_energy">   -365.57007255 </i>
   </energy>
  </scstep>
  <scstep>
   <time name="diag">    0.13    0.13</time>
   <time name="diis">    0.60    0.60</time>
   <time name="orth">    0.02    0.02</time>
   <time name="total">    1.14    1.16</time>
   <energy>
    <i name="e_fr_energy">   -365.56654665 </i>
    <i name="e_wo_entrp">   -365.57712889 </i>
    <i name="e_0_energy">   -365.57007406 </i>
   </energy>
  </scstep>
  <scstep>
   <time name="diag">    0.13    0.13</time>
   <time name="diis">    0.46    0.49</time>
   <time name="orth">    0.02    0.02</time>
   <time name="total">    1.00    1.05</time>
   <energy>
    <i name="e_fr_energy">   -365.56654679 </i>
    <i name="e_wo_entrp">   -365.57713067 </i>
    <i name="e_0_energy">   -365.57007475 </i>
   </energy>
  </scstep>
  <scstep>
   <time name="diag">    0.13    0.13</time>
   <time name="diis">    0.42    0.43</time>
   <time name="orth">    0.02    0.02</time>
   <time name="total">    0.71    0.74</time>
   <energy>
    <i name="alphaZ">    114.90673464 </i>
    <i name="ewald">  -7475.45877565 </i>
    <i name="hartreedc">   -443.29625227 </i>
    <i name="XCdc">   -530.06277817 </i>
    <i name="pawpsdc">  31993.68640437 </i>
    <i name="pawaedc"> -30895.81037349 </i>
    <i name="eentropy">      0.01058342 </i>
    <i name="bandstr">    305.66204929 </i>
    <i name="atom">   6564.79586099 </i>
    <i name="e_fr_energy">   -365.56654686 </i>
    <i name="e_wo_entrp">   -365.57713028 </i>
    <i name="e_0_energy">   -365.57007466 </i>
   </energy>
  </scstep>
  <structure>
   <crystal>
    <varray name="basis" >
     <v>      10.76805559       0.10556902       0.00000000 </v>
     <v>       0.10556902      10.55691756       0.00000000 </v>
     <v>       0.00000000       0.00000000      10.55691756 </v>
    </varray>
    <i name="volume">   1199.96607843 </i>
    <varray name="rec_basis" >
     <v>       0.09287638      -0.00092876       0.00000000 </v>
     <v>      -0.00092876       0.09473391       0.00000000 </v>
     <v>       0.00000000       0.00000000       0.09472462 </v>
    </varray>
   </crystal>
   <varray name="positions" >
    <v>       0.00000000       0.00000000       0.00084831 </v>
    <v>       0.00000000       0.00000000       0.50084831 </v>
    <v>       0.00000000       0.50000000       0.00084831 </v>
    <v>       0.00000000       0.50000000       0.50084831 </v>
    <v>       0.50000000       0.00000000       0.00084831 </v>
    <v>       0.50000000       0.00000000       0.50084831 </v>
    <v>       0.50000000       0.50000000       0.00084831 </v>
    <v>       0.50000000       0.50000000       0.50084831 </v>
    <v>       0.37500000       0.37500000       0.12415169 </v>
    <v>       0.37500000       0.37500000       0.62415169 </v>
    <v>       0.37500000       0.87500000       0.12415169 </v>
    <v>       0.37500000       0.87500000       0.62415169 </v>
    <v>       0.87500000       0.37500000       0.12415169 </v>
    <v>       0.87500000       0.37500000       0.62415169 </v>
    <v>       0.87500000       0.87500000       0.12415169 </v>
    <v>       0.87500000       0.87500000       0.62415169 </v>
    <v>       0.00000000       0.25000000       0.25084831 </v>
    <v>       0.00000000       0.25000000       0.75084831 </v>
    <v>       0.00000000       0.75000000       0.25084831 </v>
    <v>       0.00000000       0.75000000       0.75084831 </v>
    <v>       0.50000000       0.25000000       0.25084831 </v>
    <v>       0.50000000       0.25000000       0.75084831 </v>
    <v>       0.50000000       0.75000000       0.25084831 </v>
    <v>       0.50000000       0.75000000       0.75084831 </v>
    <v>       0.37500000       0.12500000       0.37415169 </v>
    <v>       0.37500000       0.12500000       0.87415169 </v>
    <v>       0.37500000       0.62500000       0.37415169 </v>
    <v>       0.37500000       0.62500000       0.87415169 </v>
    <v>       0.87500000       0.12500000       0.37415169 </v>
    <v>       0.87500000       0.12500000       0.87415169 </v>
    <v>       0.87500000       0.62500000       0.37415169 </v>
    <v>       0.87500000       0.62500000       0.87415169 </v>
    <v>       0.25000000       0.00000000       0.25084831 </v>
    <v>       0.25000000       0.00000000       0.75084831 </v>
    <v>       0.25000000       0.50000000       0.25084831 </v>
    <v>       0.25000000       0.50000000       0.75084831 </v>
    <v>       0.75000000       0.00000000       0.25084831 </v>
    <v>       0.75000000       0.00000000       0.75084831 </v>
    <v>       0.75000000       0.50000000       0.25084831 </v>
    <v>       0.75000000       0.50000000       0.75084831 </v>
    <v>       0.12500000       0.37500000       0.37415169 </v>
    <v>       0.12500000       0.37500000       0.87415169 </v>
    <v>       0.12500000       0.87500000       0.37415169 </v>
    <v>       0.12500000       0.87500000       0.87415169 </v>
    <v>       0.62500000       0.37500000       0.37415169 </v>
    <v>       0.62500000       0.37500000       0.87415169 </v>
    <v>       0.62500000       0.87500000       0.37415169 </v>
    <v>       0.62500000       0.87500000       0.87415169 </v>
    <v>       0.25000000       0.25000000       0.00084831 </v>
    <v>       0.25000000       0.25000000       0.50084831 </v>
    <v>       0.25000000       0.75000000       0.00084831 </v>
    <v>       0.25000000       0.75000000       0.50084831 </v>
    <v>       0.75000000       0.25000000       0.00084831 </v>
    <v>       0.75000000       0.25000000       0.50084831 </v>
    <v>       0.75000000       0.75000000       0.00084831 </v>
    <v>       0.75000000       0.75000000       0.50084831 </v>
    <v>       0.12500000       0.12500000       0.12415169 </v>
    <v>       0.12500000       0.12500000       0.62415169 </v>
    <v>       0.12500000       0.62500000       0.12415169 </v>
    <v>       0.12500000       0.62500000       0.62415169 </v>
    <v>       0.62500000       0.12500000       0.12415169 </v>
    <v>       0.62500000       0.12500000       0.62415169 </v>
    <v>       0.62500000       0.62500000       0.12415169 </v>
    <v>       0.62500000       0.62500000       0.62415169 </v>
   </varray>
  </structure>
  <varray name="forces" >
   <v>      -0.00000000       0.00000000       0.00020007 </v>
   <v>      -0.00000000       0.00000000       0.00020007 </v>
   <v>      -0.00000000       0.00000000       0.00020007 </v>
   <v>      -0.00000000       0.00000000       0.00020007 </v>
   <v>       0.00000000      -0.00000000       0.00020007 </v>
   <v>       0.00000000      -0.00000000       0.00020007 </v>
   <v>       0.00000000      -0.00000000       0.00020007 </v>
   <v>       0.00000000      -0.00000000       0.00020007 </v>
   <v>      -0.00000000      -0.00000000      -0.00020007 </v>
   <v>      -0.00000000      -0.00000000      -0.00020007 </v>
   <v>       0.00000000       0.00000000      -0.00020007 </v>
   <v>       0.00000000       0.00000000      -0.00020007 </v>
   <v>      -0.00000000      -0.00000000      -0.00020007 </v>
   <v>      -0.00000000      -0.00000000      -0.00020007 </v>
   <v>      -0.00000000       0.00000000      -0.00020007 </v>
   <v>      -0.00000000       0.00000000      -0.00020007 </v>
   <v>      -0.00000000       0.00000000       0.00020007 </v>
   <v>      -0.00000000       0.00000000       0.00020007 </v>
   <v>      -0.00000000       0.00000000       0.00020007 </v>
   <v>       0.00000000       0.00000000       0.00020007 </v>
   <v>       0.00000000      -0.00000000       0.00020007 </v>
   <v>       0.00000000      -0.00000000       0.00020007 </v>
   <v>       0.00000000      -0.00000000       0.00020007 </v>
   <v>       0.00000000       0.00000000       0.00020007 </v>
   <v>       0.00000000      -0.00000000      -0.00020007 </v>
   <v>      -0.00000000       0.00000000      -0.00020007 </v>
   <v>       0.00000000       0.00000000      -0.00020007 </v>
   <v>      -0.00000000      -0.00000000      -0.00020007 </v>
   <v>      -0.00000000      -0.00000000      -0.00020007 </v>
   <v>      -0.00000000       0.00000000      -0.00020007 </v>
   <v>      -0.00000000       0.00000000      -0.00020007 </v>
   <v>       0.00000000      -0.00000000      -0.00020007 </v>
   <v>      -0.00000000       0.00000000       0.00020007 </v>
   <v>      -0.00000000       0.00000000       0.00020007 </v>
   <v>      -0.00000000       0.00000000       0.00020007 </v>
   <v>      -0.00000000      -0.00000000       0.00020007 </v>
   <v>       0.00000000       0.00000000       0.00020007 </v>
   <v>       0.00000000       0.00000000       0.00020007 </v>
   <v>       0.00000000      -0.00000000       0.00020007 </v>
   <v>      -0.00000000      -0.00000000       0.00020007 </v>
   <v>       0.00000000       0.00000000      -0.00020007 </v>
   <v>       0.00000000       0.00000000      -0.00020007 </v>
   <v>      -0.00000000      -0.00000000      -0.00020007 </v>
   <v>       0.00000000       0.00000000      -0.00020007 </v>
   <v>      -0.00000000      -0.00000000      -0.00020007 </v>
   <v>       0.00000000       0.00000000      -0.00020007 </v>
   <v>       0.00000000      -0.00000000      -0.00020007 </v>
   <v>      -0.00000000      -0.00000000      -0.00020007 </v>
   <v>      -0.00000000       0.00000000       0.00020007 </v>
   <v>      -0.00000000      -0.00000000       0.00020007 </v>
   <v>      -0.00000000      -0.00000000       0.00020007 </v>
   <v>      -0.00000000      -0.00000000       0.00020007 </v>
   <v>      -0.00000000      -0.00000000       0.00020007 </v>
   <v>       0.00000000       0.00000000       0.00020007 </v>
   <v>      -0.00000000      -0.00000000       0.00020007 </v>
   <v>      -0.00000000       0.00000000       0.00020007 </v>
   <v>       0.00000000      -0.00000000      -0.00020007 </v>
   <v>       0.00000000      -0.00000000      -0.00020007 </v>
   <v>       0.00000000       0.00000000      -0.00020007 </v>
   <v>       0.00000000      -0.00000000      -0.00020007 </v>
   <v>       0.00000000      -0.00000000      -0.00020007 </v>
   <v>       0.00000000       0.00000000      -0.00020007 </v>
   <v>      -0.00000000      -0.00000000      -0.00020007 </v>
   <v>       0.00000000      -0.00000000      -0.00020007 </v>
  </varray>
  <varray name="stress" >
   <v>      61.66322261     -13.80166242       0.00000000 </v>
   <v>     -13.80166237      80.33070979       0.00000000 </v>
   <v>       0.00000000       0.00000000      79.25702591 </v>
  </varray>
  <energy>
   <i name="e_fr_energy">   -365.56654686 </i>
   <i name="e_wo_entrp">   -365.57713028 </i>
   <i name="e_0_energy">   -365.57007466 </i>
  </energy>
  <time name="totalsc">   12.88   13.09</time>
  <eigenvalues>
   <array>
    <dimension dim="1">band</dimension>
    <dimension dim="2">kpoint</dimension>
    <dimension dim="3">spin</dimension>
    <field>eigene</field>
    <field>occ</field>
    <set>
     <set comment="spin 1">
      <set comment="kpoint 1">
       <r>   -5.9799    1.0000 </r>
       <r>   -4.8568    1.0000 </r>
       <r>   -4.8568    1.0000 </r>
       <r>   -4.8180    1.0000 </r>
       <r>   -4.8180    1.0000 </r>
       <r>   -4.8175    1.0000 </r>
       <r>   -4.8175    1.0000 </r>
       <r>   -3.8540    1.0000 </r>
       <r>   -3.8540    1.0000 </r>
       <r>   -3.8065    1.0000 </r>
       <r>   -3.8065    1.0000 </r>
       <r>   -3.8065    1.0000 </r>
       <r>   -3.8064    1.0000 </r>
       <r>   -3.7782    1.0000 </r>
       <r>   -3.7782    1.0000 </r>
       <r>   -3.7782    1.0000 </r>
       <r>   -3.7782    1.0000 </r>
       <r>   -3.7579    1.0000 </r>
       <r>   -3.7579    1.0000 </r>
       <r>   -3.5058    1.0000 </r>
       <r>   -3.5058    1.0000 </r>
       <r>   -3.4067    1.0000 </r>
       <r>   -3.4067    1.0000 </r>
       <r>   -1.6592    1.0000 </r>
       <r>   -1.6592    1.0000 </r>
       <r>   -1.5601    1.0000 </r>
       <r>   -1.5296    1.0000 </r>
       <r>   -1.5296    1.0000 </r>
       <r>   -1.5036    1.0000 </r>
       <r>   -1.4403    1.0000 </r>
       <r>   -1.4403    1.0000 </r>
       <r>   -1.3924    1.0000 </r>
       <r>   -1.3924    1.0000 </r>
       <r>   -1.3858    1.0000 </r>
       <r>   -1.3858    1.0000 </r>
       <r>   -1.3858    1.0000 </r>
       <r>   -1.3858    1.0000 </r>
       <r>   -1.3334    1.0000 </r>
       <r>   -1.3334    1.0000 </r>
       <r>   -1.2901    1.0000 </r>
       <r>   -1.2901    1.0000 </r>
       <r>   -0.8910    1.0000 </r>
       <r>   -0.8910    1.0000 </r>
       <r>   -0.8359    1.0000 </r>
       <r>   -0.8359    1.0000 </r>
       <r>    0.8019    1.0000 </r>
       <r>    0.8019    1.0000 </r>
       <r>    0.8019    1.0000 </r>
       <r>    0.8019    1.0000 </r>
       <r>    0.8622    1.0000 </r>
       <r>    0.8622    1.0000 </r>
       <r>    0.8793    1.0000 </r>
       <r>    0.8793    1.0000 </r>
       <r>    0.8793    1.0000 </r>
       <r>    0.8793    1.0000 </r>
       <r>    0.8991    1.0000 </r>
       <r>    0.8991    1.0000 </r>
       <r>    2.2532    1.0000 </r>
       <r>    2.2532    1.0000 </r>
       <r>    2.2608    1.0000 </r>
       <r>    2.2608    1.0000 </r>
       <r>    2.2784    1.0000 </r>
       <r>    2.2784    1.0000 </r>
       <r>    2.2784    1.0000 </r>
       <r>    2.2784    1.0000 </r>
       <r>    2.3042    1.0000 </r>
       <r>    2.3042    1.0000 </r>
       <r>    2.3169    1.0000 </r>
       <r>    2.3169    1.0000 </r>
       <r>    2.3392    1.0000 </r>
       <r>    2.3392    1.0000 </r>
       <r>    2.3392    1.0000 </r>
       <r>    2.3392    1.0000 </r>
       <r>    2.4321    1.0000 </r>
       <r>    2.4321    1.0000 </r>
       <r>    2.4556    1.0000 </r>
       <r>    2.4556    1.0000 </r>
       <r>    2.4556    1.0000 </r>
       <r>    2.4556    1.0000 </r>
       <r>    2.4708    1.0000 </r>
       <r>    2.4708    1.0000 </r>
       <r>    2.8609    1.0000 </r>
       <r>    2.8609    1.0000 </r>
       <r>    3.0126    1.0000 </r>
       <r>    3.0126    1.0000 </r>
       <r>    3.0167    1.0000 </r>
       <r>    3.0167    1.0000 </r>
       <r>    3.2326    1.0000 </r>
       <r>    3.3741    1.0000 </r>
       <r>    3.3741    1.0000 </r>
       <r>    3.5199    1.0000 </r>
       <r>    3.5352    1.0000 </r>
       <r>    3.5352    1.0000 </r>
       <r>    4.2656    1.0000 </r>
       <r>    4.2656    1.0000 </r>
       <r>    4.3816    1.0000 </r>
       <r>    4.3816    1.0000 </r>
       <r>    4.4241    1.0000 </r>
       <r>    4.4241    1.0000 </r>
       <r>    4.5271    1.0000 </r>
       <r>    4.5271    1.0000 </r>
       <r>    4.5287    1.0000 </r>
       <r>    4.5287    1.0000 </r>
       <r>    4.5435    1.0000 </r>
       <r>    4.5435    1.0000 </r>
       <r>    4.9061    1.0000 </r>
       <r>    4.9061    1.0000 </r>
       <r>    5.0072    1.0000 </r>
       <r>    5.0072    1.0000 </r>
       <r>    5.0072    1.0000 </r>
       <r>    5.0072    1.0000 </r>
       <r>    5.0274    1.0000 </r>
       <r>    5.0274    1.0000 </r>
       <r>    5.1147    1.0000 </r>
       <r>    5.1147    1.0000 </r>
       <r>    5.1788    1.0000 </r>
       <r>    5.1788    1.0000 </r>
       <r>    5.1788    1.0000 </r>
       <r>    5.1788    1.0000 </r>
       <r>    5.1926    1.0000 </r>
       <r>    5.1926    1.0000 </r>
       <r>    5.2846    1.0000 </r>
       <r>    5.2846    1.0000 </r>
       <r>    5.3665    1.0000 </r>
       <r>    5.3665    1.0000 </r>
       <r>    6.3199    1.0202 </r>
       <r>    6.5236    0.9386 </r>
       <r>    6.5919    0.7431 </r>
       <r>    6.7167    0.2424 </r>
       <r>    6.8745   -0.0332 </r>
       <r>    6.8745   -0.0332 </r>
       <r>    7.0350   -0.0105 </r>
       <r>    7.0387   -0.0099 </r>
       <r>    7.0387   -0.0099 </r>
       <r>    7.3879   -0.0000 </r>
       <r>    7.3880   -0.0000 </r>
       <r>    7.3934   -0.0000 </r>
       <r>    7.3935   -0.0000 </r>
       <r>    7.5538   -0.0000 </r>
       <r>    7.5538   -0.0000 </r>
       <r>    8.0412   -0.0000 </r>
       <r>    8.0412   -0.0000 </r>
       <r>    8.2665   -0.0000 </r>
       <r>    8.2665   -0.0000 </r>
       <r>    8.6918   -0.0000 </r>
       <r>    8.6918   -0.0000 </r>
       <r>    8.8023   -0.0000 </r>
       <r>    8.8023   -0.0000 </r>
       <r>    8.8023   -0.0000 </r>
       <r>    8.8023   -0.0000 </r>
       <r>    8.9169   -0.0000 </r>
       <r>    8.9173   -0.0000 </r>
       <r>    8.9173   -0.0000 </r>
       <r>    8.9716   -0.0000 </r>
       <r>    8.9948   -0.0000 </r>
       <r>    8.9948   -0.0000 </r>
       <r>    8.9948   -0.0000 </r>
       <r>    8.9949   -0.0000 </r>
       <r>    9.1486   -0.0000 </r>
       <r>    9.4432   -0.0000 </r>
       <r>    9.4609   -0.0000 </r>
       <r>    9.4894   -0.0000 </r>
      </set>
      <set comment="kpoint 2">
       <r>   -5.6968    1.0000 </r>
       <r>   -5.6968    1.0000 </r>
       <r>   -4.5831    1.0000 </r>
       <r>   -4.5831    1.0000 </r>
       <r>   -4.5586    1.0000 </r>
       <r>   -4.5586    1.0000 </r>
       <r>   -4.5586    1.0000 </r>
       <r>   -4.5586    1.0000 </r>
       <r>   -4.5331    1.0000 </r>
       <r>   -4.5331    1.0000 </r>
       <r>   -3.6655    1.0000 </r>
       <r>   -3.6655    1.0000 </r>
       <r>   -3.6655    1.0000 </r>
       <r>   -3.6655    1.0000 </r>
       <r>   -3.6042    1.0000 </r>
       <r>   -3.6042    1.0000 </r>
       <r>   -3.6042    1.0000 </r>
       <r>   -3.6042    1.0000 </r>
       <r>   -3.4900    1.0000 </r>
       <r>   -3.4900    1.0000 </r>
       <r>   -2.7276    1.0000 </r>
       <r>   -2.7276    1.0000 </r>
       <r>   -2.6647    1.0000 </r>
       <r>   -2.6647    1.0000 </r>
       <r>   -2.6647    1.0000 </r>
       <r>   -2.6647    1.0000 </r>
       <r>   -2.6013    1.0000 </r>
       <r>   -2.6013    1.0000 </r>
       <r>   -1.4789    1.0000 </r>
       <r>   -1.4789    1.0000 </r>
       <r>   -1.4784    1.0000 </r>
       <r>   -1.4784    1.0000 </r>
       <r>   -1.4061    1.0000 </r>
       <r>   -1.4061    1.0000 </r>
       <r>   -1.4017    1.0000 </r>
       <r>   -1.4017    1.0000 </r>
       <r>   -0.2603    1.0000 </r>
       <r>   -0.2603    1.0000 </r>
       <r>   -0.2590    1.0000 </r>
       <r>   -0.2590    1.0000 </r>
       <r>   -0.2590    1.0000 </r>
       <r>   -0.2590    1.0000 </r>
       <r>   -0.2435    1.0000 </r>
       <r>   -0.2435    1.0000 </r>
       <r>   -0.2435    1.0000 </r>
       <r>   -0.2435    1.0000 </r>
       <r>   -0.2305    1.0000 </r>
       <r>   -0.2305    1.0000 </r>
       <r>   -0.1758    1.0000 </r>
       <r>   -0.1758    1.0000 </r>
       <r>   -0.1758    1.0000 </r>
       <r>   -0.1758    1.0000 </r>
       <r>    0.5200    1.0000 </r>
       <r>    0.5200    1.0000 </r>
       <r>    1.9195    1.0000 </r>
       <r>    1.9195    1.0000 </r>
       <r>    1.9303    1.0000 </r>
       <r>    1.9303    1.0000 </r>
       <r>    1.9303    1.0000 </r>
       <r>    1.9303    1.0000 </r>
       <r>    1.9394    1.0000 </r>
       <r>    1.9394    1.0000 </r>
       <r>    2.1038    1.0000 </r>
       <r>    2.1038    1.0000 </r>
       <r>    2.1304    1.0000 </r>
       <r>    2.1304    1.0000 </r>
       <r>    2.1305    1.0000 </r>
       <r>    2.1305    1.0000 </r>
       <r>    2.1699    1.0000 </r>
       <r>    2.1699    1.0000 </r>
       <r>    2.6641    1.0000 </r>
       <r>    2.6641    1.0000 </r>
       <r>    2.7512    1.0000 </r>
       <r>    2.7512    1.0000 </r>
       <r>    2.7671    1.0000 </r>
       <r>    2.7671    1.0000 </r>
       <r>    2.8577    1.0000 </r>
       <r>    2.8577    1.0000 </r>
       <r>    3.5167    1.0000 </r>
       <r>    3.5167    1.0000 </r>
       <r>    3.5335    1.0000 </r>
       <r>    3.5335    1.0000 </r>
       <r>    3.5538    1.0000 </r>
       <r>    3.5538    1.0000 </r>
       <r>    3.5538    1.0000 </r>
       <r>    3.5538    1.0000 </r>
       <r>    3.5782    1.0000 </r>
       <r>    3.5782    1.0000 </r>
       <r>    3.6050    1.0000 </r>
       <r>    3.6050    1.0000 </r>
       <r>    3.6050    1.0000 </r>
       <r>    3.6050    1.0000 </r>
       <r>    3.6790    1.0000 </r>
       <r>    3.6790    1.0000 </r>
       <r>    3.6907    1.0000 </r>
       <r>    3.6907    1.0000 </r>
       <r>    3.6907    1.0000 </r>
       <r>    3.6907    1.0000 </r>
       <r>    3.7875    1.0000 </r>
       <r>    3.7875    1.0000 </r>
       <r>    3.7881    1.0000 </r>
       <r>    3.7881    1.0000 </r>
       <r>    3.8518    1.0000 </r>
       <r>    3.8518    1.0000 </r>
       <r>    3.8518    1.0000 </r>
       <r>    3.8518    1.0000 </r>
       <r>    4.8757    1.0000 </r>
       <r>    4.8757    1.0000 </r>
       <r>    4.9357    1.0000 </r>
       <r>    4.9357    1.0000 </r>
       <r>    4.9357    1.0000 </r>
       <r>    4.9357    1.0000 </r>
       <r>    5.0006    1.0000 </r>
       <r>    5.0006    1.0000 </r>
       <r>    5.0899    1.0000 </r>
       <r>    5.0899    1.0000 </r>
       <r>    5.2199    1.0000 </r>
       <r>    5.2199    1.0000 </r>
       <r>    5.2199    1.0000 </r>
       <r>    5.2199    1.0000 </r>
       <r>    5.2725    1.0000 </r>
       <r>    5.2725    1.0000 </r>
       <r>    5.2725    1.0000 </r>
       <r>    5.2725    1.0000 </r>
       <r>    5.6555    1.0000 </r>
       <r>    5.6555    1.0000 </r>
       <r>    5.6736    1.0000 </r>
       <r>    5.6736    1.0000 </r>
       <r>    6.9905   -0.0189 </r>
       <r>    6.9905   -0.0189 </r>
       <r>    7.8292   -0.0000 </r>
       <r>    7.8292   -0.0000 </r>
       <r>    7.9989   -0.0000 </r>
       <r>    7.9989   -0.0000 </r>
       <r>    8.1707   -0.0000 </r>
       <r>    8.1707   -0.0000 </r>
       <r>    8.2148   -0.0000 </r>
       <r>    8.2148   -0.0000 </r>
       <r>    8.3894   -0.0000 </r>
       <r>    8.3894   -0.0000 </r>
       <r>    8.4838   -0.0000 </r>
       <r>    8.4838   -0.0000 </r>
       <r>    8.7155   -0.0000 </r>
       <r>    8.7155   -0.0000 </r>
       <r>    8.7641   -0.0000 </r>
       <r>    8.7641   -0.0000 </r>
       <r>    8.7641   -0.0000 </r>
       <r>    8.7641   -0.0000 </r>
       <r>    8.8428   -0.0000 </r>
       <r>    8.8429   -0.0000 </r>
       <r>    8.9561   -0.0000 </r>
       <r>    8.9561   -0.0000 </r>
       <r>    8.9562   -0.0000 </r>
       <r>    8.9563   -0.0000 </r>
       <r>    9.0704   -0.0000 </r>
       <r>    9.0705   -0.0000 </r>
       <r>    9.0708   -0.0000 </r>
       <r>    9.0719   -0.0000 </r>
       <r>    9.1029   -0.0000 </r>
       <r>    9.1142   -0.0000 </r>
       <r>    9.2672   -0.0000 </r>
       <r>    9.2727   -0.0000 </r>
      </set>
      <set comment="kpoint 3">
       <r>   -5.6867    1.0000 </r>
       <r>   -5.6867    1.0000 </r>
[...]
      </set>
     </set>
    </set>
   </array>
  </eigenvalues>
  <separator name="orbital magnetization" >
   <v name="MAGDIPOLOUT">      0.00000000      0.00000000      0.00000000</v>
  </separator>
  <dos>
   <i name="efermi">      6.65226798 </i>
   <total>
    <array>
     <dimension dim="1">gridpoints</dimension>
     <dimension dim="2">spin</dimension>
     <field>energy</field>
     <field>total</field>
     <field>integrated</field>
     <set>
      <set comment="spin 1">
       <r>    -7.9799     0.0000     0.0000 </r>
       <r>    -7.9135     0.0000     0.0000 </r>
       <r>    -7.8472     0.0000     0.0000 </r>
       <r>    -7.7809     0.0000     0.0000 </r>
       <r>    -7.7146     0.0000     0.0000 </r>
       <r>    -7.6483     0.0000     0.0000 </r>
       <r>    -7.5820    -0.0000    -0.0000 </r>
       <r>    -7.5157    -0.0000    -0.0000 </r>
       <r>    -7.4494    -0.0000    -0.0000 </r>
       <r>    -7.3831    -0.0000    -0.0000 </r>
       <r>    -7.3167    -0.0000    -0.0000 </r>
       <r>    -7.2504    -0.0000    -0.0000 </r>
       <r>    -7.1841    -0.0000    -0.0000 </r>
       <r>    -7.1178    -0.0000    -0.0000 </r>
       <r>    -7.0515    -0.0000    -0.0000 </r>
       <r>    -6.9852    -0.0000    -0.0000 </r>
       <r>    -6.9189    -0.0000    -0.0000 </r>
       <r>    -6.8526    -0.0000    -0.0000 </r>
       <r>    -6.7862    -0.0000    -0.0000 </r>
       <r>    -6.7199    -0.0000    -0.0000 </r>
       <r>    -6.6536    -0.0000    -0.0000 </r>
       <r>    -6.5873    -0.0002    -0.0000 </r>
       <r>    -6.5210    -0.0014    -0.0001 </r>
       <r>    -6.4547    -0.0059    -0.0005 </r>
       <r>    -6.3884    -0.0188    -0.0017 </r>
       <r>    -6.3221    -0.0427    -0.0046 </r>
       <r>    -6.2557    -0.0589    -0.0085 </r>
       <r>    -6.1894    -0.0097    -0.0091 </r>
       <r>    -6.1231     0.1651     0.0018 </r>
       <r>    -6.0568     0.4255     0.0300 </r>
       <r>    -5.9905     0.6328     0.0720 </r>
       <r>    -5.9242     0.8270     0.1268 </r>
       <r>    -5.8579     1.4491     0.2229 </r>
       <r>    -5.7916     2.8772     0.4137 </r>
       <r>    -5.7253     4.6197     0.7201 </r>
       <r>    -5.6589     5.6494     1.0947 </r>
       <r>    -5.5926     5.9985     1.4925 </r>
       <r>    -5.5263     7.1020     1.9634 </r>
       <r>    -5.4600     9.5860     2.5991 </r>
       <r>    -5.3937    11.6972     3.3747 </r>
       <r>    -5.3274    11.4420     4.1335 </r>
       <r>    -5.2611     9.4748     4.7618 </r>
       <r>    -5.1948     8.0402     5.2949 </r>
       <r>    -5.1284     7.6863     5.8046 </r>
       <r>    -5.0621     7.0501     6.2721 </r>
       <r>    -4.9958     5.5562     6.6406 </r>
       <r>    -4.9295     4.2821     6.9245 </r>
       <r>    -4.8632     4.1417     7.1992 </r>
       <r>    -4.7969     5.1911     7.5434 </r>
       <r>    -4.7306     8.0088     8.0745 </r>
       <r>    -4.6643    13.4793     8.9683 </r>
       <r>    -4.5979    20.2445    10.3108 </r>
       <r>    -4.5316    24.8448    11.9583 </r>
       <r>    -4.4653    25.9602    13.6798 </r>
       <r>    -4.3990    25.8468    15.3937 </r>
       <r>    -4.3327    25.7998    17.1046 </r>
       <r>    -4.2664    23.4097    18.6569 </r>
       <r>    -4.2001    16.6184    19.7589 </r>
       <r>    -4.1338     7.6613    20.2670 </r>
       <r>    -4.0674     0.8673    20.3245 </r>
       <r>    -4.0011    -1.3425    20.2354 </r>
       <r>    -3.9348     1.0658    20.3061 </r>
       <r>    -3.8685     7.2460    20.7866 </r>
       <r>    -3.8022    15.7905    21.8337 </r>
       <r>    -3.7359    24.1961    23.4382 </r>
       <r>    -3.6696    29.2775    25.3797 </r>
       <r>    -3.6033    28.9117    27.2969 </r>
       <r>    -3.5370    23.7968    28.8749 </r>
       <r>    -3.4706    17.3677    30.0266 </r>
       <r>    -3.4043    13.6956    30.9347 </r>
       <r>    -3.3380    15.2538    31.9462 </r>
       <r>    -3.2717    21.7846    33.3908 </r>
       <r>    -3.2054    30.3169    35.4012 </r>
       <r>    -3.1391    36.8281    37.8433 </r>
       <r>    -3.0728    38.9995    40.4295 </r>
       <r>    -3.0065    37.3670    42.9074 </r>
       <r>    -2.9401    33.7529    45.1456 </r>
       <r>    -2.8738    29.5485    47.1050 </r>
       <r>    -2.8075    25.9716    48.8272 </r>
       <r>    -2.7412    24.4109    50.4460 </r>
       <r>    -2.6749    24.6838    52.0828 </r>
       <r>    -2.6086    23.8597    53.6650 </r>
       <r>    -2.5423    19.0559    54.9286 </r>
       <r>    -2.4760    11.1034    55.6649 </r>
       <r>    -2.4096     3.7036    55.9105 </r>
       <r>    -2.3433    -0.5384    55.8748 </r>
       <r>    -2.2770    -1.7262    55.7603 </r>
       <r>    -2.2107    -0.9086    55.7001 </r>
       <r>    -2.1444     1.5972    55.8060 </r>
       <r>    -2.0781     5.6172    56.1785 </r>
       <r>    -2.0118     9.6697    56.8197 </r>
       <r>    -1.9455    11.2677    57.5669 </r>
       <r>    -1.8792     9.2119    58.1777 </r>
       <r>    -1.8128     5.1642    58.5202 </r>
       <r>    -1.7465     2.5995    58.6926 </r>
       <r>    -1.6802     4.4705    58.9890 </r>
       <r>    -1.6139    11.5810    59.7570 </r>
       <r>    -1.5476    21.9174    61.2104 </r>
       <r>    -1.4813    30.9693    63.2640 </r>
       <r>    -1.4150    33.8758    65.5104 </r>
       <r>    -1.3487    28.7973    67.4200 </r>
       <r>    -1.2823    18.5552    68.6504 </r>
       <r>    -1.2160     8.6111    69.2214 </r>
       <r>    -1.1497     3.2936    69.4398 </r>
       <r>    -1.0834     3.6007    69.6786 </r>
       <r>    -1.0171     7.4773    70.1745 </r>
       <r>    -0.9508    11.3995    70.9304 </r>
       <r>    -0.8845    12.6037    71.7662 </r>
       <r>    -0.8182    11.4278    72.5239 </r>
       <r>    -0.7518    11.4059    73.2803 </r>
       <r>    -0.6855    15.2800    74.2935 </r>
       <r>    -0.6192    20.6172    75.6607 </r>
       <r>    -0.5529    21.7187    77.1009 </r>
       <r>    -0.4866    17.1890    78.2408 </r>
       <r>    -0.4203    13.5622    79.1401 </r>
       <r>    -0.3540    19.2957    80.4196 </r>
       <r>    -0.2877    35.5443    82.7767 </r>
       <r>    -0.2214    53.6630    86.3352 </r>
       <r>    -0.1550    61.7534    90.4302 </r>
       <r>    -0.0887    54.0883    94.0169 </r>
       <r>    -0.0224    35.1311    96.3465 </r>
       <r>     0.0439    15.0898    97.3471 </r>
       <r>     0.1102     2.1180    97.4876 </r>
       <r>     0.1765    -1.3319    97.3992 </r>
       <r>     0.2428     3.1525    97.6083 </r>
       <r>     0.3091    12.1213    98.4121 </r>
       <r>     0.3755    20.6730    99.7829 </r>
       <r>     0.4418    23.8713   101.3659 </r>
       <r>     0.5081    20.1846   102.7044 </r>
       <r>     0.5744    12.9529   103.5633 </r>
       <r>     0.6407     7.4213   104.0554 </r>
       <r>     0.7070     6.8467   104.5095 </r>
       <r>     0.7733    11.4517   105.2688 </r>
       <r>     0.8396    19.2198   106.5433 </r>
       <r>     0.9060    26.5528   108.3041 </r>
       <r>     0.9723    29.5117   110.2611 </r>
       <r>     1.0386    26.1503   111.9952 </r>
       <r>     1.1049    17.9913   113.1882 </r>
       <r>     1.1712     8.9172   113.7795 </r>
       <r>     1.2375     2.3645   113.9363 </r>
       <r>     1.3038    -0.6738   113.8917 </r>
       <r>     1.3701    -1.3723   113.8006 </r>
       <r>     1.4365    -1.4077   113.7073 </r>
       <r>     1.5028    -1.5827   113.6023 </r>
       <r>     1.5691    -1.2600   113.5188 </r>
       <r>     1.6354     1.4697   113.6163 </r>
       <r>     1.7017     8.3647   114.1709 </r>
       <r>     1.7680    18.6246   115.4060 </r>
       <r>     1.8343    28.1848   117.2750 </r>
       <r>     1.9006    32.8829   119.4555 </r>
       <r>     1.9669    32.5395   121.6133 </r>
       <r>     2.0333    30.5691   123.6404 </r>
       <r>     2.0996    29.6093   125.6038 </r>
       <r>     2.1659    29.3822   127.5522 </r>
       <r>     2.2322    28.7275   129.4572 </r>
       <r>     2.2985    27.2420   131.2637 </r>
       <r>     2.3648    24.6560   132.8986 </r>
       <r>     2.4311    21.0452   134.2942 </r>
       <r>     2.4974    18.6564   135.5313 </r>
       <r>     2.5638    22.1705   137.0015 </r>
       <r>     2.6301    35.2483   139.3389 </r>
       <r>     2.6964    55.5245   143.0208 </r>
       <r>     2.7627    73.5251   147.8964 </r>
       <r>     2.8290    78.5366   153.1044 </r>
       <r>     2.8953    66.9266   157.5424 </r>
       <r>     2.9616    44.7726   160.5114 </r>
       <r>     3.0279    22.3818   161.9955 </r>
       <r>     3.0943     6.7074   162.4403 </r>
       <r>     3.1606    -1.2424   162.3579 </r>
       <r>     3.2269    -3.2146   162.1448 </r>
       <r>     3.2932     0.5803   162.1833 </r>
       <r>     3.3595    11.9706   162.9770 </r>
       <r>     3.4258    30.7286   165.0147 </r>
       <r>     3.4921    51.0958   168.4030 </r>
       <r>     3.5584    65.0019   172.7134 </r>
       <r>     3.6247    69.1186   177.2968 </r>
       <r>     3.6911    66.4128   181.7008 </r>
       <r>     3.7574    60.9612   185.7432 </r>
       <r>     3.8237    54.3465   189.3471 </r>
       <r>     3.8900    47.3409   192.4863 </r>
       <r>     3.9563    41.9503   195.2681 </r>
       <r>     4.0226    40.1786   197.9325 </r>
       <r>     4.0889    41.5190   200.6857 </r>
       <r>     4.1552    42.3968   203.4971 </r>
       <r>     4.2216    38.8675   206.0745 </r>
       <r>     4.2879    30.8428   208.1197 </r>
       <r>     4.3542    23.1324   209.6537 </r>
       <r>     4.4205    20.9676   211.0441 </r>
       <r>     4.4868    24.8158   212.6897 </r>
       <r>     4.5531    30.5971   214.7186 </r>
       <r>     4.6194    34.2966   216.9929 </r>
       <r>     4.6857    35.2970   219.3335 </r>
       <r>     4.7521    35.8513   221.7109 </r>
       <r>     4.8184    38.3797   224.2559 </r>
       <r>     4.8847    43.0650   227.1117 </r>
       <r>     4.9510    47.5093   230.2621 </r>
       <r>     5.0173    48.8820   233.5036 </r>
       <r>     5.0836    46.4431   236.5833 </r>
       <r>     5.1499    41.4676   239.3331 </r>
       <r>     5.2162    35.0084   241.6546 </r>
       <r>     5.2825    27.1784   243.4568 </r>
       <r>     5.3489    18.8919   244.7096 </r>
       <r>     5.4152    12.6163   245.5462 </r>
       <r>     5.4815    10.4856   246.2415 </r>
       <r>     5.5478    12.4437   247.0667 </r>
       <r>     5.6141    16.3508   248.1510 </r>
       <r>     5.6804    19.1654   249.4219 </r>
       <r>     5.7467    18.4558   250.6457 </r>
       <r>     5.8130    13.9870   251.5732 </r>
       <r>     5.8794     8.0601   252.1077 </r>
       <r>     5.9457     3.7998   252.3597 </r>
       <r>     6.0120     2.9045   252.5523 </r>
       <r>     6.0783     4.8770   252.8757 </r>
       <r>     6.1446     7.8678   253.3974 </r>
       <r>     6.2109     9.8916   254.0533 </r>
       <r>     6.2772     9.7134   254.6974 </r>
       <r>     6.3435     7.4292   255.1901 </r>
       <r>     6.4099     4.4061   255.4823 </r>
       <r>     6.4762     2.2243   255.6298 </r>
       <r>     6.5425     1.5307   255.7313 </r>
       <r>     6.6088     2.0467   255.8670 </r>
       <r>     6.6751     3.3333   256.0880 </r>
       <r>     6.7414     5.0280   256.4214 </r>
       <r>     6.8077     6.5849   256.8581 </r>
       <r>     6.8740     7.4429   257.3517 </r>
       <r>     6.9404     7.4387   257.8449 </r>
       <r>     7.0067     6.6764   258.2876 </r>
       <r>     7.0730     5.2762   258.6375 </r>
       <r>     7.1393     3.7226   258.8844 </r>
       <r>     7.2056     3.0815   259.0887 </r>
       <r>     7.2719     4.2143   259.3682 </r>
       <r>     7.3382     6.8222   259.8206 </r>
       <r>     7.4045     9.6890   260.4631 </r>
       <r>     7.4708    11.9119   261.2530 </r>
       <r>     7.5372    13.5792   262.1534 </r>
       <r>     7.6035    15.2642   263.1656 </r>
       <r>     7.6698    17.3316   264.3149 </r>
       <r>     7.7361    19.6898   265.6206 </r>
       <r>     7.8024    21.6398   267.0556 </r>
       <r>     7.8687    22.0402   268.5171 </r>
       <r>     7.9350    20.3402   269.8659 </r>
       <r>     8.0013    17.7779   271.0448 </r>
       <r>     8.0677    17.0171   272.1732 </r>
       <r>     8.1340    19.7075   273.4801 </r>
       <r>     8.2003    24.5023   275.1049 </r>
       <r>     8.2666    28.5553   276.9984 </r>
       <r>     8.3329    30.7573   279.0380 </r>
       <r>     8.3992    31.9179   281.1546 </r>
       <r>     8.4655    32.3482   283.2996 </r>
       <r>     8.5318    32.0157   285.4227 </r>
       <r>     8.5982    32.9709   287.6090 </r>
       <r>     8.6645    38.2636   290.1464 </r>
       <r>     8.7308    47.6564   293.3066 </r>
       <r>     8.7971    57.1467   297.0961 </r>
       <r>     8.8634    63.2370   301.2894 </r>
       <r>     8.9297    64.9365   305.5955 </r>
       <r>     8.9960    61.5746   309.6787 </r>
       <r>     9.0623    52.2999   313.1468 </r>
       <r>     9.1286    38.7752   315.7180 </r>
       <r>     9.1950    25.7258   317.4240 </r>
       <r>     9.2613    17.4927   318.5839 </r>
       <r>     9.3276    14.8981   319.5719 </r>
       <r>     9.3939    15.5224   320.6012 </r>
       <r>     9.4602    15.9960   321.6619 </r>
       <r>     9.5265    14.0456   322.5933 </r>
       <r>     9.5928     9.6001   323.2299 </r>
       <r>     9.6591     4.5758   323.5333 </r>
       <r>     9.7255     1.1988   323.6128 </r>
       <r>     9.7918     0.2604   323.6301 </r>
       <r>     9.8581     0.8948   323.6894 </r>
       <r>     9.9244     1.6701   323.8002 </r>
       <r>     9.9907     1.7227   323.9144 </r>
       <r>    10.0570     1.1181   323.9886 </r>
       <r>    10.1233     0.4108   324.0158 </r>
       <r>    10.1896    -0.0028   324.0156 </r>
       <r>    10.2560    -0.1099   324.0083 </r>
       <r>    10.3223    -0.0787   324.0031 </r>
       <r>    10.3886    -0.0338   324.0009 </r>
       <r>    10.4549    -0.0103   324.0002 </r>
       <r>    10.5212    -0.0024   324.0000 </r>
       <r>    10.5875    -0.0004   324.0000 </r>
       <r>    10.6538    -0.0001   324.0000 </r>
       <r>    10.7201    -0.0000   324.0000 </r>
       <r>    10.7864    -0.0000   324.0000 </r>
       <r>    10.8528    -0.0000   324.0000 </r>
       <r>    10.9191    -0.0000   324.0000 </r>
       <r>    10.9854    -0.0000   324.0000 </r>
       <r>    11.0517    -0.0000   324.0000 </r>
       <r>    11.1180    -0.0000   324.0000 </r>
       <r>    11.1843    -0.0000   324.0000 </r>
       <r>    11.2506     0.0000   324.0000 </r>
       <r>    11.3169     0.0000   324.0000 </r>
       <r>    11.3833     0.0000   324.0000 </r>
       <r>    11.4496     0.0000   324.0000 </r>
       <r>    11.5159     0.0000   324.0000 </r>
       <r>    11.5822     0.0000   324.0000 </r>
       <r>    11.6485     0.0000   324.0000 </r>
       <r>    11.7148     0.0000   324.0000 </r>
       <r>    11.7811     0.0000   324.0000 </r>
       <r>    11.8474     0.0000   324.0000 </r>
       <r>    11.9138     0.0000   324.0000 </r>
      </set>
     </set>
    </array>
   </total>
  </dos>
 </calculation>
 <structure name="finalpos" >
  <crystal>
   <varray name="basis" >
    <v>      10.76805559       0.10556902       0.00000000 </v>
    <v>       0.10556902      10.55691756       0.00000000 </v>
    <v>       0.00000000       0.00000000      10.55691756 </v>
   </varray>
   <i name="volume">   1199.96607843 </i>
   <varray name="rec_basis" >
    <v>       0.09287638      -0.00092876       0.00000000 </v>
    <v>      -0.00092876       0.09473391       0.00000000 </v>
    <v>       0.00000000       0.00000000       0.09472462 </v>
   </varray>
  </crystal>
  <varray name="positions" >
   <v>       0.00000000       0.00000000       0.00084831 </v>
   <v>       0.00000000       0.00000000       0.50084831 </v>
   <v>       0.00000000       0.50000000       0.00084831 </v>
   <v>       0.00000000       0.50000000       0.50084831 </v>
   <v>       0.50000000       0.00000000       0.00084831 </v>
   <v>       0.50000000       0.00000000       0.50084831 </v>
   <v>       0.50000000       0.50000000       0.00084831 </v>
   <v>       0.50000000       0.50000000       0.50084831 </v>
   <v>       0.37500000       0.37500000       0.12415169 </v>
   <v>       0.37500000       0.37500000       0.62415169 </v>
   <v>       0.37500000       0.87500000       0.12415169 </v>
   <v>       0.37500000       0.87500000       0.62415169 </v>
   <v>       0.87500000       0.37500000       0.12415169 </v>
   <v>       0.87500000       0.37500000       0.62415169 </v>
   <v>       0.87500000       0.87500000       0.12415169 </v>
   <v>       0.87500000       0.87500000       0.62415169 </v>
   <v>       0.00000000       0.25000000       0.25084831 </v>
   <v>       0.00000000       0.25000000       0.75084831 </v>
   <v>       0.00000000       0.75000000       0.25084831 </v>
   <v>       0.00000000       0.75000000       0.75084831 </v>
   <v>       0.50000000       0.25000000       0.25084831 </v>
   <v>       0.50000000       0.25000000       0.75084831 </v>
   <v>       0.50000000       0.75000000       0.25084831 </v>
   <v>       0.50000000       0.75000000       0.75084831 </v>
   <v>       0.37500000       0.12500000       0.37415169 </v>
   <v>       0.37500000       0.12500000       0.87415169 </v>
   <v>       0.37500000       0.62500000       0.37415169 </v>
   <v>       0.37500000       0.62500000       0.87415169 </v>
   <v>       0.87500000       0.12500000       0.37415169 </v>
   <v>       0.87500000       0.12500000       0.87415169 </v>
   <v>       0.87500000       0.62500000       0.37415169 </v>
   <v>       0.87500000       0.62500000       0.87415169 </v>
   <v>       0.25000000       0.00000000       0.25084831 </v>
   <v>       0.25000000       0.00000000       0.75084831 </v>
   <v>       0.25000000       0.50000000       0.25084831 </v>
   <v>       0.25000000       0.50000000       0.75084831 </v>
   <v>       0.75000000       0.00000000       0.25084831 </v>
   <v>       0.75000000       0.00000000       0.75084831 </v>
   <v>       0.75000000       0.50000000       0.25084831 </v>
   <v>       0.75000000       0.50000000       0.75084831 </v>
   <v>       0.12500000       0.37500000       0.37415169 </v>
   <v>       0.12500000       0.37500000       0.87415169 </v>
   <v>       0.12500000       0.87500000       0.37415169 </v>
   <v>       0.12500000       0.87500000       0.87415169 </v>
   <v>       0.62500000       0.37500000       0.37415169 </v>
   <v>       0.62500000       0.37500000       0.87415169 </v>
   <v>       0.62500000       0.87500000       0.37415169 </v>
   <v>       0.62500000       0.87500000       0.87415169 </v>
   <v>       0.25000000       0.25000000       0.00084831 </v>
   <v>       0.25000000       0.25000000       0.50084831 </v>
   <v>       0.25000000       0.75000000       0.00084831 </v>
   <v>       0.25000000       0.75000000       0.50084831 </v>
   <v>       0.75000000       0.25000000       0.00084831 </v>
   <v>       0.75000000       0.25000000       0.50084831 </v>
   <v>       0.75000000       0.75000000       0.00084831 </v>
   <v>       0.75000000       0.75000000       0.50084831 </v>
   <v>       0.12500000       0.12500000       0.12415169 </v>
   <v>       0.12500000       0.12500000       0.62415169 </v>
   <v>       0.12500000       0.62500000       0.12415169 </v>
   <v>       0.12500000       0.62500000       0.62415169 </v>
   <v>       0.62500000       0.12500000       0.12415169 </v>
   <v>       0.62500000       0.12500000       0.62415169 </v>
   <v>       0.62500000       0.62500000       0.12415169 </v>
   <v>       0.62500000       0.62500000       0.62415169 </v>
  </varray>
 </structure>
</modeling>
