Si64                                    
           1
    10.768056    0.105569    0.000000
     0.105569   10.556918    0.000000
     0.000000    0.000000   10.556918
   Si
    64
Direct configuration=     1
   0.00000000  0.00000000  0.00000000
   0.00000000  0.00000000  0.50000000
   0.00000000  0.50000000  0.00000000
   0.00000000  0.50000000  0.50000000
   0.50000000  0.00000000  0.00000000
   0.50000000  0.00000000  0.50000000
   0.50000000  0.50000000  0.00000000
   0.50000000  0.50000000  0.50000000
   0.37500000  0.37500000  0.12500000
   0.37500000  0.37500000  0.62500000
   0.37500000  0.87500000  0.12500000
   0.37500000  0.87500000  0.62500000
   0.87500000  0.37500000  0.12500000
   0.87500000  0.37500000  0.62500000
   0.87500000  0.87500000  0.12500000
   0.87500000  0.87500000  0.62500000
   0.00000000  0.25000000  0.25000000
   0.00000000  0.25000000  0.75000000
   0.00000000  0.75000000  0.25000000
   0.00000000  0.75000000  0.75000000
   0.50000000  0.25000000  0.25000000
   0.50000000  0.25000000  0.75000000
   0.50000000  0.75000000  0.25000000
   0.50000000  0.75000000  0.75000000
   0.37500000  0.12500000  0.37500000
   0.37500000  0.12500000  0.87500000
   0.37500000  0.62500000  0.37500000
   0.37500000  0.62500000  0.87500000
   0.87500000  0.12500000  0.37500000
   0.87500000  0.12500000  0.87500000
   0.87500000  0.62500000  0.37500000
   0.87500000  0.62500000  0.87500000
   0.25000000  0.00000000  0.25000000
   0.25000000  0.00000000  0.75000000
   0.25000000  0.50000000  0.25000000
   0.25000000  0.50000000  0.75000000
   0.75000000  0.00000000  0.25000000
   0.75000000  0.00000000  0.75000000
   0.75000000  0.50000000  0.25000000
   0.75000000  0.50000000  0.75000000
   0.12500000  0.37500000  0.37500000
   0.12500000  0.37500000  0.87500000
   0.12500000  0.87500000  0.37500000
   0.12500000  0.87500000  0.87500000
   0.62500000  0.37500000  0.37500000
   0.62500000  0.37500000  0.87500000
   0.62500000  0.87500000  0.37500000
   0.62500000  0.87500000  0.87500000
   0.25000000  0.25000000  0.00000000
   0.25000000  0.25000000  0.50000000
   0.25000000  0.75000000  0.00000000
   0.25000000  0.75000000  0.50000000
   0.75000000  0.25000000  0.00000000
   0.75000000  0.25000000  0.50000000
   0.75000000  0.75000000  0.00000000
   0.75000000  0.75000000  0.50000000
   0.12500000  0.12500000  0.12500000
   0.12500000  0.12500000  0.62500000
   0.12500000  0.62500000  0.12500000
   0.12500000  0.62500000  0.62500000
   0.62500000  0.12500000  0.12500000
   0.62500000  0.12500000  0.62500000
   0.62500000  0.62500000  0.12500000
   0.62500000  0.62500000  0.62500000
Direct configuration=     2
   0.00000000  0.00000000  0.00120734
   0.00000000  0.00000000  0.50120734
   0.00000000  0.50000000  0.00120734
   0.00000000  0.50000000  0.50120734
   0.50000000  1.00000000  0.00120734
   0.50000000  1.00000000  0.50120734
   0.50000000  0.50000000  0.00120734
   0.50000000  0.50000000  0.50120734
   0.37500000  0.37500000  0.12379266
   0.37500000  0.37500000  0.62379266
   0.37500000  0.87500000  0.12379266
   0.37500000  0.87500000  0.62379266
   0.87500000  0.37500000  0.12379266
   0.87500000  0.37500000  0.62379266
   0.87500000  0.87500000  0.12379266
   0.87500000  0.87500000  0.62379266
   0.00000000  0.25000000  0.25120734
   0.00000000  0.25000000  0.75120734
   0.00000000  0.75000000  0.25120734
   0.00000000  0.75000000  0.75120734
   0.50000000  0.25000000  0.25120734
   0.50000000  0.25000000  0.75120734
   0.50000000  0.75000000  0.25120734
   0.50000000  0.75000000  0.75120734
   0.37500000  0.12500000  0.37379266
   0.37500000  0.12500000  0.87379266
   0.37500000  0.62500000  0.37379266
   0.37500000  0.62500000  0.87379266
   0.87500000  0.12500000  0.37379266
   0.87500000  0.12500000  0.87379266
   0.87500000  0.62500000  0.37379266
   0.87500000  0.62500000  0.87379266
   0.25000000  0.00000000  0.25120734
   0.25000000  0.00000000  0.75120734
   0.25000000  0.50000000  0.25120734
   0.25000000  0.50000000  0.75120734
   0.75000000  0.00000000  0.25120734
   0.75000000  0.00000000  0.75120734
   0.75000000  0.50000000  0.25120734
   0.75000000  0.50000000  0.75120734
   0.12500000  0.37500000  0.37379266
   0.12500000  0.37500000  0.87379266
   0.12500000  0.87500000  0.37379266
   0.12500000  0.87500000  0.87379266
   0.62500000  0.37500000  0.37379266
   0.62500000  0.37500000  0.87379266
   0.62500000  0.87500000  0.37379266
   0.62500000  0.87500000  0.87379266
   0.25000000  0.25000000  0.00120734
   0.25000000  0.25000000  0.50120734
   0.25000000  0.75000000  0.00120734
   0.25000000  0.75000000  0.50120734
   0.75000000  0.25000000  0.00120734
   0.75000000  0.25000000  0.50120734
   0.75000000  0.75000000  0.00120734
   0.75000000  0.75000000  0.50120734
   0.12500000  0.12500000  0.12379266
   0.12500000  0.12500000  0.62379266
   0.12500000  0.62500000  0.12379266
   0.12500000  0.62500000  0.62379266
   0.62500000  0.12500000  0.12379266
   0.62500000  0.12500000  0.62379266
   0.62500000  0.62500000  0.12379266
   0.62500000  0.62500000  0.62379266
Direct configuration=     3
   0.00000000  0.00000000  0.00084831
   0.00000000  0.00000000  0.50084831
   0.00000000  0.50000000  0.00084831
   0.00000000  0.50000000  0.50084831
   0.50000000  0.00000000  0.00084831
   0.50000000  0.00000000  0.50084831
   0.50000000  0.50000000  0.00084831
   0.50000000  0.50000000  0.50084831
   0.37500000  0.37500000  0.12415169
   0.37500000  0.37500000  0.62415169
   0.37500000  0.87500000  0.12415169
   0.37500000  0.87500000  0.62415169
   0.87500000  0.37500000  0.12415169
   0.87500000  0.37500000  0.62415169
   0.87500000  0.87500000  0.12415169
   0.87500000  0.87500000  0.62415169
   0.00000000  0.25000000  0.25084831
   0.00000000  0.25000000  0.75084831
   0.00000000  0.75000000  0.25084831
   0.00000000  0.75000000  0.75084831
   0.50000000  0.25000000  0.25084831
   0.50000000  0.25000000  0.75084831
   0.50000000  0.75000000  0.25084831
   0.50000000  0.75000000  0.75084831
   0.37500000  0.12500000  0.37415169
   0.37500000  0.12500000  0.87415169
   0.37500000  0.62500000  0.37415169
   0.37500000  0.62500000  0.87415169
   0.87500000  0.12500000  0.37415169
   0.87500000  0.12500000  0.87415169
   0.87500000  0.62500000  0.37415169
   0.87500000  0.62500000  0.87415169
   0.25000000  0.00000000  0.25084831
   0.25000000  0.00000000  0.75084831
   0.25000000  0.50000000  0.25084831
   0.25000000  0.50000000  0.75084831
   0.75000000  0.00000000  0.25084831
   0.75000000  0.00000000  0.75084831
   0.75000000  0.50000000  0.25084831
   0.75000000  0.50000000  0.75084831
   0.12500000  0.37500000  0.37415169
   0.12500000  0.37500000  0.87415169
   0.12500000  0.87500000  0.37415169
   0.12500000  0.87500000  0.87415169
   0.62500000  0.37500000  0.37415169
   0.62500000  0.37500000  0.87415169
   0.62500000  0.87500000  0.37415169
   0.62500000  0.87500000  0.87415169
   0.25000000  0.25000000  0.00084831
   0.25000000  0.25000000  0.50084831
   0.25000000  0.75000000  0.00084831
   0.25000000  0.75000000  0.50084831
   0.75000000  0.25000000  0.00084831
   0.75000000  0.25000000  0.50084831
   0.75000000  0.75000000  0.00084831
   0.75000000  0.75000000  0.50084831
   0.12500000  0.12500000  0.12415169
   0.12500000  0.12500000  0.62415169
   0.12500000  0.62500000  0.12415169
   0.12500000  0.62500000  0.62415169
   0.62500000  0.12500000  0.12415169
   0.62500000  0.12500000  0.62415169
   0.62500000  0.62500000  0.12415169
   0.62500000  0.62500000  0.62415169
