   8   8   0   0
  0.5613887E+01  0.3519083E-09  0.3572671E-09  0.3572570E-09  0.5000000E-15
  1.000000000000000E-004
  CAR 
 C8                                      
     24.03892404    -13.73743167  301     10.06954251      1.00000000
    -13.737  0.0000E+00  0.0000E+00
    -13.612  0.0000E+00  0.0000E+00
    -13.486  0.0000E+00  0.0000E+00
    -13.360  0.0000E+00  0.0000E+00
    -13.234  0.0000E+00  0.0000E+00
    -13.108  0.0000E+00  0.0000E+00
    -12.982  0.0000E+00  0.0000E+00
    -12.856  0.0000E+00  0.0000E+00
    -12.730  0.0000E+00  0.0000E+00
    -12.604  0.0000E+00  0.0000E+00
    -12.478  0.0000E+00  0.0000E+00
    -12.352  0.0000E+00  0.0000E+00
    -12.226  0.0000E+00  0.0000E+00
    -12.100  0.0000E+00  0.0000E+00
    -11.975  0.0000E+00  0.0000E+00
    -11.849  0.0000E+00  0.0000E+00
    -11.723  0.1069E-01  0.5252E-04
    -11.597  0.1844E+00  0.1298E-01
    -11.471  0.2286E+00  0.3698E-01
    -11.345  0.2711E+00  0.6842E-01
    -11.219  0.3199E+00  0.1054E+00
    -11.093  0.3515E+00  0.1477E+00
    -10.967  0.3895E+00  0.1943E+00
    -10.841  0.4200E+00  0.2455E+00
    -10.715  0.4485E+00  0.3001E+00
    -10.589  0.4805E+00  0.3585E+00
    -10.463  0.5046E+00  0.4206E+00
    -10.338  0.5294E+00  0.4857E+00
    -10.212  0.5565E+00  0.5540E+00
    -10.086  0.5799E+00  0.6257E+00
     -9.960  0.6014E+00  0.7000E+00
     -9.834  0.6243E+00  0.7772E+00
     -9.708  0.6741E+00  0.8574E+00
     -9.582  0.7742E+00  0.9503E+00
     -9.456  0.7119E+00  0.1041E+01
     -9.330  0.6661E+00  0.1128E+01
     -9.204  0.6354E+00  0.1210E+01
     -9.078  0.7914E+00  0.1298E+01
     -8.952  0.7853E+00  0.1394E+01
     -8.827  0.7876E+00  0.1492E+01
     -8.701  0.8124E+00  0.1592E+01
     -8.575  0.8304E+00  0.1696E+01
     -8.449  0.8489E+00  0.1801E+01
     -8.323  0.8671E+00  0.1910E+01
     -8.197  0.8872E+00  0.2020E+01
     -8.071  0.9068E+00  0.2133E+01
     -7.945  0.9264E+00  0.2248E+01
     -7.819  0.9476E+00  0.2366E+01
     -7.693  0.1016E+01  0.2489E+01
     -7.567  0.1003E+01  0.2614E+01
     -7.441  0.1029E+01  0.2742E+01
     -7.315  0.1044E+01  0.2872E+01
     -7.190  0.1149E+01  0.3007E+01
     -7.064  0.1082E+01  0.3144E+01
     -6.938  0.1049E+01  0.3278E+01
     -6.812  0.1048E+01  0.3409E+01
     -6.686  0.1172E+01  0.3549E+01
     -6.560  0.1197E+01  0.3697E+01
     -6.434  0.1189E+01  0.3846E+01
     -6.308  0.1231E+01  0.3998E+01
     -6.182  0.1295E+01  0.4157E+01
     -6.056  0.1363E+01  0.4325E+01
     -5.930  0.1530E+01  0.4509E+01
     -5.804  0.1524E+01  0.4697E+01
     -5.678  0.1509E+01  0.4890E+01
     -5.553  0.1470E+01  0.5074E+01
     -5.427  0.1419E+01  0.5258E+01
     -5.301  0.1386E+01  0.5433E+01
     -5.175  0.1368E+01  0.5606E+01
     -5.049  0.1301E+01  0.5774E+01
     -4.923  0.1265E+01  0.5935E+01
     -4.797  0.1240E+01  0.6092E+01
     -4.671  0.1191E+01  0.6246E+01
     -4.545  0.1204E+01  0.6396E+01
     -4.419  0.1130E+01  0.6542E+01
     -4.293  0.1077E+01  0.6680E+01
     -4.167  0.1039E+01  0.6814E+01
     -4.042  0.1003E+01  0.6942E+01
     -3.916  0.9878E+00  0.7067E+01
     -3.790  0.9532E+00  0.7190E+01
     -3.664  0.9022E+00  0.7307E+01
     -3.538  0.9709E+00  0.7421E+01
     -3.412  0.1024E+01  0.7546E+01
     -3.286  0.1118E+01  0.7683E+01
     -3.160  0.1093E+01  0.7822E+01
     -3.034  0.1122E+01  0.7961E+01
     -2.908  0.1044E+01  0.8100E+01
     -2.782  0.1011E+01  0.8228E+01
     -2.656  0.9880E+00  0.8352E+01
     -2.530  0.9814E+00  0.8476E+01
     -2.405  0.1044E+01  0.8602E+01
     -2.279  0.1178E+01  0.8740E+01
     -2.153  0.1329E+01  0.8897E+01
     -2.027  0.1577E+01  0.9077E+01
     -1.901  0.1952E+01  0.9297E+01
     -1.775  0.2415E+01  0.9572E+01
     -1.649  0.2690E+01  0.9896E+01
     -1.523  0.2409E+01  0.1022E+02
     -1.397  0.2037E+01  0.1050E+02
     -1.271  0.1826E+01  0.1074E+02
     -1.145  0.1703E+01  0.1096E+02
     -1.019  0.1649E+01  0.1117E+02
     -0.893  0.1516E+01  0.1137E+02
     -0.768  0.1403E+01  0.1155E+02
     -0.642  0.1335E+01  0.1172E+02
     -0.516  0.1290E+01  0.1189E+02
     -0.390  0.1245E+01  0.1205E+02
     -0.264  0.1191E+01  0.1220E+02
     -0.138  0.1154E+01  0.1235E+02
     -0.012  0.1118E+01  0.1249E+02
      0.114  0.1079E+01  0.1263E+02
      0.240  0.1053E+01  0.1276E+02
      0.366  0.1095E+01  0.1290E+02
      0.492  0.1157E+01  0.1304E+02
      0.618  0.1499E+01  0.1320E+02
      0.744  0.1692E+01  0.1341E+02
      0.869  0.1711E+01  0.1362E+02
      0.995  0.1859E+01  0.1384E+02
      1.121  0.2112E+01  0.1409E+02
      1.247  0.2183E+01  0.1436E+02
      1.373  0.2153E+01  0.1463E+02
      1.499  0.2245E+01  0.1491E+02
      1.625  0.2272E+01  0.1520E+02
      1.751  0.1912E+01  0.1547E+02
      1.877  0.1459E+01  0.1568E+02
      2.003  0.1591E+01  0.1586E+02
      2.129  0.2079E+01  0.1609E+02
      2.255  0.2316E+01  0.1637E+02
      2.380  0.2255E+01  0.1666E+02
      2.506  0.2220E+01  0.1694E+02
      2.632  0.2301E+01  0.1722E+02
      2.758  0.2314E+01  0.1751E+02
      2.884  0.2353E+01  0.1780E+02
      3.010  0.2493E+01  0.1811E+02
      3.136  0.2698E+01  0.1843E+02
      3.262  0.2795E+01  0.1878E+02
      3.388  0.2720E+01  0.1912E+02
      3.514  0.2961E+01  0.1948E+02
      3.640  0.2916E+01  0.1985E+02
      3.766  0.3079E+01  0.2022E+02
      3.892  0.3261E+01  0.2062E+02
      4.017  0.3159E+01  0.2103E+02
      4.143  0.3111E+01  0.2141E+02
      4.269  0.3075E+01  0.2181E+02
      4.395  0.2918E+01  0.2218E+02
      4.521  0.3138E+01  0.2256E+02
      4.647  0.2941E+01  0.2294E+02
      4.773  0.2720E+01  0.2330E+02
      4.899  0.2712E+01  0.2364E+02
      5.025  0.2813E+01  0.2398E+02
      5.151  0.3010E+01  0.2435E+02
      5.277  0.2948E+01  0.2472E+02
      5.403  0.2930E+01  0.2509E+02
      5.529  0.2831E+01  0.2545E+02
      5.654  0.2647E+01  0.2579E+02
      5.780  0.2637E+01  0.2613E+02
      5.906  0.2581E+01  0.2645E+02
      6.032  0.2648E+01  0.2678E+02
      6.158  0.2653E+01  0.2712E+02
      6.284  0.2714E+01  0.2746E+02
      6.410  0.2669E+01  0.2779E+02
      6.536  0.2570E+01  0.2812E+02
      6.662  0.2705E+01  0.2845E+02
      6.788  0.2522E+01  0.2878E+02
      6.914  0.2462E+01  0.2908E+02
      7.040  0.2030E+01  0.2936E+02
      7.165  0.1692E+01  0.2957E+02
      7.291  0.2269E+01  0.2982E+02
      7.417  0.1914E+01  0.3006E+02
      7.543  0.1721E+01  0.3029E+02
      7.669  0.1370E+01  0.3047E+02
      7.795  0.1264E+01  0.3064E+02
      7.921  0.1175E+01  0.3079E+02
      8.047  0.1089E+01  0.3094E+02
      8.173  0.1008E+01  0.3107E+02
      8.299  0.9283E+00  0.3119E+02
      8.425  0.8575E+00  0.3130E+02
      8.551  0.7884E+00  0.3141E+02
      8.677  0.7246E+00  0.3150E+02
      8.802  0.6607E+00  0.3159E+02
      8.928  0.5995E+00  0.3167E+02
      9.054  0.5301E+00  0.3174E+02
      9.180  0.4770E+00  0.3180E+02
      9.306  0.4156E+00  0.3186E+02
      9.432  0.3490E+00  0.3191E+02
      9.558  0.2816E+00  0.3195E+02
      9.684  0.1946E+00  0.3198E+02
      9.810  0.8415E-01  0.3199E+02
      9.936  0.2182E-01  0.3200E+02
     10.062  0.0000E+00  0.3200E+02
     10.188  0.0000E+00  0.3200E+02
     10.314  0.0000E+00  0.3200E+02
     10.439  0.0000E+00  0.3200E+02
     10.565  0.0000E+00  0.3200E+02
     10.691  0.0000E+00  0.3200E+02
     10.817  0.0000E+00  0.3200E+02
     10.943  0.0000E+00  0.3200E+02
     11.069  0.0000E+00  0.3200E+02
     11.195  0.0000E+00  0.3200E+02
     11.321  0.0000E+00  0.3200E+02
     11.447  0.0000E+00  0.3200E+02
     11.573  0.0000E+00  0.3200E+02
     11.699  0.0000E+00  0.3200E+02
     11.825  0.0000E+00  0.3200E+02
     11.950  0.0000E+00  0.3200E+02
     12.076  0.0000E+00  0.3200E+02
     12.202  0.0000E+00  0.3200E+02
     12.328  0.0000E+00  0.3200E+02
     12.454  0.0000E+00  0.3200E+02
     12.580  0.0000E+00  0.3200E+02
     12.706  0.0000E+00  0.3200E+02
     12.832  0.0000E+00  0.3200E+02
     12.958  0.0000E+00  0.3200E+02
     13.084  0.0000E+00  0.3200E+02
     13.210  0.0000E+00  0.3200E+02
     13.336  0.0000E+00  0.3200E+02
     13.462  0.0000E+00  0.3200E+02
     13.587  0.0000E+00  0.3200E+02
     13.713  0.0000E+00  0.3200E+02
     13.839  0.1335E-01  0.3200E+02
     13.965  0.9383E-01  0.3201E+02
     14.091  0.1232E+00  0.3202E+02
     14.217  0.2193E+00  0.3204E+02
     14.343  0.4506E+00  0.3208E+02
     14.469  0.5509E+00  0.3215E+02
     14.595  0.6661E+00  0.3222E+02
     14.721  0.7929E+00  0.3231E+02
     14.847  0.9115E+00  0.3242E+02
     14.973  0.1055E+01  0.3254E+02
     15.099  0.1146E+01  0.3268E+02
     15.224  0.1331E+01  0.3284E+02
     15.350  0.1510E+01  0.3302E+02
     15.476  0.1570E+01  0.3321E+02
     15.602  0.1621E+01  0.3341E+02
     15.728  0.1679E+01  0.3362E+02
     15.854  0.1800E+01  0.3384E+02
     15.980  0.1893E+01  0.3407E+02
     16.106  0.2012E+01  0.3432E+02
     16.232  0.2007E+01  0.3457E+02
     16.358  0.2027E+01  0.3482E+02
     16.484  0.2169E+01  0.3509E+02
     16.610  0.2248E+01  0.3536E+02
     16.735  0.2317E+01  0.3565E+02
     16.861  0.2412E+01  0.3595E+02
     16.987  0.2516E+01  0.3626E+02
     17.113  0.2619E+01  0.3658E+02
     17.239  0.2801E+01  0.3693E+02
     17.365  0.2791E+01  0.3727E+02
     17.491  0.2959E+01  0.3763E+02
     17.617  0.3145E+01  0.3801E+02
     17.743  0.3444E+01  0.3842E+02
     17.869  0.3804E+01  0.3888E+02
     17.995  0.4150E+01  0.3937E+02
     18.121  0.4949E+01  0.3993E+02
     18.247  0.3915E+01  0.4049E+02
     18.372  0.3221E+01  0.4090E+02
     18.498  0.3492E+01  0.4132E+02
     18.624  0.3602E+01  0.4175E+02
     18.750  0.3691E+01  0.4220E+02
     18.876  0.3524E+01  0.4264E+02
     19.002  0.3563E+01  0.4309E+02
     19.128  0.3321E+01  0.4352E+02
     19.254  0.3173E+01  0.4393E+02
     19.380  0.2981E+01  0.4431E+02
     19.506  0.2858E+01  0.4468E+02
     19.632  0.2773E+01  0.4503E+02
     19.758  0.2679E+01  0.4537E+02
     19.884  0.2735E+01  0.4571E+02
     20.009  0.2638E+01  0.4605E+02
     20.135  0.2625E+01  0.4638E+02
     20.261  0.2274E+01  0.4669E+02
     20.387  0.2006E+01  0.4696E+02
     20.513  0.1904E+01  0.4720E+02
     20.639  0.1608E+01  0.4742E+02
     20.765  0.1278E+01  0.4760E+02
     20.891  0.9637E+00  0.4775E+02
     21.017  0.6845E+00  0.4784E+02
     21.143  0.4076E+00  0.4791E+02
     21.269  0.2062E+00  0.4795E+02
     21.395  0.1343E+00  0.4797E+02
     21.521  0.8963E-01  0.4799E+02
     21.646  0.4354E-01  0.4799E+02
     21.772  0.2101E-01  0.4800E+02
     21.898  0.8521E-02  0.4800E+02
     22.024  0.1023E-03  0.4800E+02
     22.150  0.0000E+00  0.4800E+02
     22.276  0.0000E+00  0.4800E+02
     22.402  0.0000E+00  0.4800E+02
     22.528  0.0000E+00  0.4800E+02
     22.654  0.0000E+00  0.4800E+02
     22.780  0.0000E+00  0.4800E+02
     22.906  0.0000E+00  0.4800E+02
     23.032  0.0000E+00  0.4800E+02
     23.157  0.0000E+00  0.4800E+02
     23.283  0.0000E+00  0.4800E+02
     23.409  0.0000E+00  0.4800E+02
     23.535  0.0000E+00  0.4800E+02
     23.661  0.0000E+00  0.4800E+02
     23.787  0.0000E+00  0.4800E+02
     23.913  0.0000E+00  0.4800E+02
     24.039  0.0000E+00  0.4800E+02
