       N       E                     dE             d eps       ncg     rms          rms(c)
DAV:   1     0.672074712856E+02    0.67207E+02   -0.17937E+04 62640   0.131E+03
DAV:   2    -0.724514777405E+02   -0.13966E+03   -0.13702E+03 83448   0.231E+02
DAV:   3    -0.753137346616E+02   -0.28623E+01   -0.28587E+01 87924   0.360E+01
DAV:   4    -0.753317643889E+02   -0.18030E-01   -0.18024E-01 81012   0.291E+00
DAV:   5    -0.753320172183E+02   -0.25283E-03   -0.25278E-03 87216   0.319E-01    0.113E+01
RMM:   6    -0.733446467331E+02    0.19874E+01   -0.12310E+00 62761   0.646E+00    0.668E+00
RMM:   7    -0.726785441817E+02    0.66610E+00   -0.19541E+00 68890   0.863E+00    0.146E+00
RMM:   8    -0.726931857205E+02   -0.14642E-01   -0.11110E-01 67442   0.250E+00    0.246E-01
RMM:   9    -0.726942883764E+02   -0.11027E-02   -0.20799E-02 73420   0.970E-01    0.127E-01
RMM:  10    -0.726944408606E+02   -0.15248E-03   -0.29985E-03 72949   0.366E-01    0.411E-02
RMM:  11    -0.726945031355E+02   -0.62275E-04   -0.67979E-04 77043   0.154E-01    0.933E-03
RMM:  12    -0.726945143963E+02   -0.11261E-04   -0.10421E-04 78212   0.634E-02    0.143E-02
RMM:  13    -0.726945193343E+02   -0.49380E-05   -0.25307E-05 75958   0.250E-02    0.407E-03
RMM:  14    -0.726945188829E+02    0.45143E-06   -0.37403E-06 62588   0.108E-02
   1 F= -.72694519E+02 E0= -.72694519E+02  d E =0.000000E+00
