 vasp.6.4.3 19Mar24 (build Oct 21 2024 22:36:34) complex                        
  
 executed on             LinuxIFC date 2024.12.26  00:34:19
 running   96 mpi-ranks, on    1 nodes
 distrk:  each k-point on   12 cores,    8 groups
 distr:  one band on NCORE=   1 cores,   12 groups


--------------------------------------------------------------------------------------------------------


 INCAR:
   SYSTEM = C8
   ISTART = 0
   ICHARG = 2
   LREAL = Auto
   PREC = Normal
   LWAVE = .False.
   LCHARG = .False.
   ADDGRID = .True.
   ENCUT = 520
   ISMEAR = -5
   NELM = 60
   NELMIN = 8
   EDIFF = 1e-06
   NSW = 0
   IBRION = -1
   ISIF = 2
   KPAR = 8
   ALGO = Fast

 POTCAR:    PAW_PBE C 08Apr2002                   
 -----------------------------------------------------------------------------
|                                                                             |
|           W    W    AA    RRRRR   N    N  II  N    N   GGGG   !!!           |
|           W    W   A  A   R    R  NN   N  II  NN   N  G    G  !!!           |
|           W    W  A    A  R    R  N N  N  II  N N  N  G       !!!           |
|           W WW W  AAAAAA  RRRRR   N  N N  II  N  N N  G  GGG   !            |
|           WW  WW  A    A  R   R   N   NN  II  N   NN  G    G                |
|           W    W  A    A  R    R  N    N  II  N    N   GGGG   !!!           |
|                                                                             |
|     For optimal performance we recommend to set                             |
|       NCORE = 2 up to number-of-cores-per-socket                            |
|     NCORE specifies how many cores store one orbital (NPAR=cpu/NCORE).      |
|     This setting can greatly improve the performance of VASP for DFT.       |
|     The default, NCORE=1 might be grossly inefficient on modern             |
|     multi-core architectures or massively parallel machines. Do your        |
|     own testing! More info at https://www.vasp.at/wiki/index.php/NCORE      |
|     Unfortunately you need to use the default for GW and RPA                |
|     calculations (for HF NCORE is supported but not extensively tested      |
|     yet).                                                                   |
|                                                                             |
 -----------------------------------------------------------------------------

 POTCAR:    PAW_PBE C 08Apr2002                   
   VRHFIN =C: s2p2                                                                                  
   LEXCH  = PE                                                                                      
   EATOM  =   147.1560 eV,   10.8157 Ry                                                             
                                                                                                    
   TITEL  = PAW_PBE C 08Apr2002                                                                     
   LULTRA =        F    use ultrasoft PP ?                                                          
   IUNSCR =        1    unscreen: 0-lin 1-nonlin 2-no                                               
   RPACOR =    1.200    partial core radius                                                         
   POMASS =   12.011; ZVAL   =    4.000    mass and valenz                                          
   RCORE  =    1.500    outmost cutoff radius                                                       
   RWIGS  =    1.630; RWIGS  =    0.863    wigner-seitz radius (au A)                               
   ENMAX  =  400.000; ENMIN  =  300.000 eV                                                          
   ICORE  =        2    local potential                                                             
   LCOR   =        T    correct aug charges                                                         
   LPAW   =        T    paw PP                                                                      
   EAUG   =  644.873                                                                                
   DEXC   =    0.000                                                                                
   RMAX   =    1.529    core radius for proj-oper                                                   
   RAUG   =    1.300    factor for augmentation sphere                                              
   RDEP   =    1.501    radius for radial grids                                                     
   RDEPT  =    1.300    core radius for aug-charge                                                  
                                                                                                    
   Atomic configuration                                                                             
    4 entries                                                                                       
     n  l   j            E        occ.                                                              
     1  0  0.50      -273.3789   2.0000                                                             
     2  0  0.50       -13.7508   2.0000                                                             
     2  1  0.50        -5.2854   2.0000                                                             
     3  2  1.50        -5.4423   0.0000                                                             
   Description                                                                                      
     l       E           TYP  RCUT    TYP  RCUT                                                     
     0    -13.7508458     23  1.200                                                                 
     0     -8.2022199     23  1.200                                                                 
     1     -5.2854383     23  1.500                                                                 
     1     34.0145650     23  1.500                                                                 
     2     -5.4423304      7  1.500                                                                 
  local pseudopotential read in
  partial core-charges read in
  partial kinetic energy density read in
  atomic valenz-charges read in
  non local Contribution for L=           0  read in
    real space projection operators read in
  non local Contribution for L=           0  read in
    real space projection operators read in
  non local Contribution for L=           1  read in
    real space projection operators read in
  non local Contribution for L=           1  read in
    real space projection operators read in
    PAW grid and wavefunctions read in
 
   number of l-projection  operators is LMAX  =           4
   number of lm-projection operators is LMMAX =           8
 
 -----------------------------------------------------------------------------
|                                                                             |
|               ----> ADVICE to this user running VASP <----                  |
|                                                                             |
|     You have a (more or less) 'small supercell' and for smaller cells       |
|     it is recommended to use the reciprocal-space projection scheme!        |
|     The real-space optimization is not efficient for small cells and it     |
|     is also less accurate ...                                               |
|     Therefore, set LREAL=.FALSE. in the INCAR file.                         |
|                                                                             |
 -----------------------------------------------------------------------------

 Optimization of the real space projectors (new method)

 maximal supplied QI-value         = 25.13
 optimisation between [QCUT,QGAM] = [ 11.56, 23.12] = [ 37.43,149.72] Ry 
 Optimized for a Real-space Cutoff    1.04 Angstroem

   l    n(q)    QCUT    max X(q) W(low)/X(q) W(high)/X(q)  e(spline) 
   0      7    11.561   115.676    0.20E-03    0.60E-03    0.21E-06
   0      7    11.561    87.132    0.20E-03    0.59E-03    0.21E-06
   1      7    11.561     4.429    0.23E-03    0.35E-03    0.15E-06
   1      7    11.561     2.733    0.18E-03    0.25E-03    0.12E-06
  PAW_PBE C 08Apr2002                   :
 energy of atom  1       EATOM= -147.1560
 kinetic energy error for atom=    0.0071 (will be added to EATOM!!)
 
 
 POSCAR: C8
  positions in direct lattice
  velocities in cartesian coordinates


 exchange-correlation table for PE
   RHO(1)=    0.500       N(1)  =     2000
   RHO(2)=  100.500       N(2)  =     4000
 


--------------------------------------------------------------------------------------------------------


 ion  position               nearest neighbor table
   1  0.000  0.000  0.500-   2 1.53   8 1.53   6 1.55   4 1.55
   2  0.250  0.250  0.750-   1 1.53   7 1.53   5 1.55   3 1.55
   3  0.000  0.500  0.000-   4 1.53   6 1.53   2 1.55   8 1.55
   4  0.250  0.750  0.250-   3 1.53   5 1.53   1 1.55   7 1.55
   5  0.500  0.000  0.000-   4 1.53   6 1.53   2 1.55   8 1.55
   6  0.750  0.250  0.250-   3 1.53   5 1.53   1 1.55   7 1.55
   7  0.500  0.500  0.500-   2 1.53   8 1.53   6 1.55   4 1.55
   8  0.750  0.750  0.750-   1 1.53   7 1.53   5 1.55   3 1.55
 
  LATTYP: Found a simple monoclinic cell.
 ALAT       =     3.5190830162
 B/A-ratio  =     1.0151991285
 C/A-ratio  =     1.0152276800
 COS(beta)  =    -0.0151131959
  
  Lattice vectors:
  
 A1 = (   3.5189810111,  -0.0267940001,   0.0000000000)
 A2 = (   0.0000000000,   0.0000000000,  -3.5725700112)
 A3 = (  -0.0267940001,   3.5725700112,   0.0000000000)


Analysis of symmetry for initial positions (statically):
=====================================================================
 Subroutine PRICEL returns following result:
 
  LATTYP: Found a base centered monoclinic cell.
 ALAT       =     3.5190830162
 B/A-ratio  =     1.0151991285
 C/A-ratio  =     0.7071068824
 COS(beta)  =    -0.6962573054
  
  Lattice vectors:
  
 A1 = (  -1.7594905055,   0.0133970000,  -1.7862850056)
 A2 = (  -1.7594905055,   0.0133970000,   1.7862850056)
 A3 = (   1.7460935055,   1.7728880056,   0.0000000000)
 
   4 primitive cells build up your supercell.
 

 Routine SETGRP: Setting up the symmetry group for a 
 simple monoclinic supercell.


 Subroutine GETGRP returns: Found  4 space group operations
 (whereof  2 operations were pure point group operations)
 out of a pool of  4 trial point group operations.


The static configuration has the point symmetry C_2 .
 The point group associated with its full space group is C_2h.


Analysis of symmetry for dynamics (positions and initial velocities):
=====================================================================
 Subroutine PRICEL returns following result:
 
  LATTYP: Found a base centered monoclinic cell.
 ALAT       =     3.5190830162
 B/A-ratio  =     1.0151991285
 C/A-ratio  =     0.7071068824
 COS(beta)  =    -0.6962573054
  
  Lattice vectors:
  
 A1 = (  -1.7594905055,   0.0133970000,  -1.7862850056)
 A2 = (  -1.7594905055,   0.0133970000,   1.7862850056)
 A3 = (   1.7460935055,   1.7728880056,   0.0000000000)
 
   4 primitive cells build up your supercell.
 

 Routine SETGRP: Setting up the symmetry group for a 
 simple monoclinic supercell.


 Subroutine GETGRP returns: Found  4 space group operations
 (whereof  2 operations were pure point group operations)
 out of a pool of  4 trial point group operations.


The dynamic configuration has the point symmetry C_2 .
 The point group associated with its full space group is C_2h.


 Subroutine INISYM returns: Found  4 space group operations
 (whereof  2 operations are pure point group operations),
 and found     4 'primitive' translations


----------------------------------------------------------------------------------------

                                     Primitive cell                                     

  volume of cell :      11.2278

  direct lattice vectors                    reciprocal lattice vectors
    -1.759490506  0.013397000 -1.786285006    -0.282058003  0.277795126 -0.279910540
    -1.759490506  0.013397000  1.786285006    -0.282058003  0.277795126  0.279910540
     1.746093505  1.772888006  0.000000000     0.004262797  0.559853050  0.000000000

  length of vectors
     2.507349286  2.507349286  2.488367821     0.484847151  0.484847151  0.559869279

  position of ions in fractional coordinates (direct lattice)
     0.500000000  0.500000000  0.000000000
     0.250000000  0.750000000  0.500000000

  ion indices of the primitive-cell ions
   primitive index   ion index
                 1           1
                 2           2

----------------------------------------------------------------------------------------

 
 
 KPOINTS: Automatic mesh                          

Automatic generation of k-mesh.
 Grid dimensions read from file:
 generate k-points for:   17   17   17

 Generating k-lattice:

  Cartesian coordinates                     Fractional coordinates (reciprocal lattice)
     0.016717024  0.000125376  0.000000000     0.058823529  0.000000000  0.000000000
     0.000125376  0.016466266  0.000000000    -0.000000000  0.058823529  0.000000000
     0.000000000  0.000000000  0.016465326     0.000000000  0.000000000  0.058823529

  Length of vectors
     0.016717494  0.016466743  0.016465326

  Shift w.r.t. Gamma in fractional coordinates (k-lattice)
     0.000000000  0.000000000  0.000000000

 TETIRR: Found  14712 inequivalent tetrahedra from    29478
 
 Subroutine IBZKPT returns following result:
 ===========================================
 
 Found   1305 irreducible k-points:
 
 Following reciprocal coordinates:
            Coordinates               Weight
  0.000000  0.000000  0.000000      1.000000
  0.058824 -0.000000  0.000000      2.000000
  0.117647  0.000000  0.000000      2.000000
  0.176471 -0.000000  0.000000      2.000000
  0.235294  0.000000  0.000000      2.000000
  0.294118  0.000000  0.000000      2.000000
  0.352941 -0.000000  0.000000      2.000000
  0.411765 -0.000000  0.000000      2.000000
  0.470588  0.000000  0.000000      2.000000
 -0.000000  0.058824  0.000000      2.000000
  0.058824  0.058824  0.000000      2.000000
  0.117647  0.058824  0.000000      2.000000
  0.176471  0.058824  0.000000      2.000000
  0.235294  0.058824  0.000000      2.000000
  0.294118  0.058824  0.000000      2.000000
  0.352941  0.058824  0.000000      2.000000
  0.411765  0.058824  0.000000      2.000000
  0.470588  0.058824  0.000000      2.000000
 -0.470588  0.058824  0.000000      2.000000
 -0.411765  0.058824  0.000000      2.000000
 -0.352941  0.058824  0.000000      2.000000
 -0.294118  0.058824  0.000000      2.000000
 -0.235294  0.058824  0.000000      2.000000
 -0.176471  0.058824  0.000000      2.000000
 -0.117647  0.058824  0.000000      2.000000
 -0.058824  0.058824  0.000000      2.000000
  0.000000  0.117647  0.000000      2.000000
  0.058824  0.117647  0.000000      2.000000
  0.117647  0.117647  0.000000      2.000000
  0.176471  0.117647  0.000000      2.000000
  0.235294  0.117647  0.000000      2.000000
  0.294118  0.117647  0.000000      2.000000
  0.352941  0.117647  0.000000      2.000000
  0.411765  0.117647  0.000000      2.000000
  0.470588  0.117647  0.000000      2.000000
 -0.470588  0.117647  0.000000      2.000000
 -0.411765  0.117647  0.000000      2.000000
 -0.352941  0.117647  0.000000      2.000000
 -0.294118  0.117647  0.000000      2.000000
 -0.235294  0.117647  0.000000      2.000000
 -0.176471  0.117647  0.000000      2.000000
 -0.117647  0.117647  0.000000      2.000000
 -0.058824  0.117647  0.000000      2.000000
 -0.000000  0.176471  0.000000      2.000000
  0.058824  0.176471  0.000000      2.000000
  0.117647  0.176471  0.000000      2.000000
  0.176471  0.176471  0.000000      2.000000
  0.235294  0.176471  0.000000      2.000000
  0.294118  0.176471  0.000000      2.000000
  0.352941  0.176471  0.000000      2.000000
  0.411765  0.176471  0.000000      2.000000
  0.470588  0.176471  0.000000      2.000000
 -0.470588  0.176471  0.000000      2.000000
 -0.411765  0.176471  0.000000      2.000000
 -0.352941  0.176471  0.000000      2.000000
 -0.294118  0.176471  0.000000      2.000000
 -0.235294  0.176471  0.000000      2.000000
 -0.176471  0.176471  0.000000      2.000000
 -0.117647  0.176471  0.000000      2.000000
 -0.058824  0.176471  0.000000      2.000000
  0.000000  0.235294  0.000000      2.000000
  0.058824  0.235294  0.000000      2.000000
  0.117647  0.235294  0.000000      2.000000
  0.176471  0.235294  0.000000      2.000000
  0.235294  0.235294  0.000000      2.000000
  0.294118  0.235294  0.000000      2.000000
  0.352941  0.235294  0.000000      2.000000
  0.411765  0.235294  0.000000      2.000000
  0.470588  0.235294  0.000000      2.000000
 -0.470588  0.235294  0.000000      2.000000
 -0.411765  0.235294  0.000000      2.000000
 -0.352941  0.235294  0.000000      2.000000
 -0.294118  0.235294  0.000000      2.000000
 -0.235294  0.235294  0.000000      2.000000
 -0.176471  0.235294  0.000000      2.000000
 -0.117647  0.235294  0.000000      2.000000
 -0.058824  0.235294  0.000000      2.000000
  0.000000  0.294118  0.000000      2.000000
  0.058824  0.294118  0.000000      2.000000
  0.117647  0.294118  0.000000      2.000000
  0.176471  0.294118  0.000000      2.000000
  0.235294  0.294118  0.000000      2.000000
  0.294118  0.294118  0.000000      2.000000
  0.352941  0.294118  0.000000      2.000000
  0.411765  0.294118  0.000000      2.000000
  0.470588  0.294118  0.000000      2.000000
 -0.470588  0.294118  0.000000      2.000000
 -0.411765  0.294118  0.000000      2.000000
 -0.352941  0.294118  0.000000      2.000000
 -0.294118  0.294118  0.000000      2.000000
 -0.235294  0.294118  0.000000      2.000000
 -0.176471  0.294118  0.000000      2.000000
 -0.117647  0.294118  0.000000      2.000000
 -0.058824  0.294118  0.000000      2.000000
 -0.000000  0.352941  0.000000      2.000000
  0.058824  0.352941  0.000000      2.000000
  0.117647  0.352941  0.000000      2.000000
  0.176471  0.352941  0.000000      2.000000
  0.235294  0.352941  0.000000      2.000000
  0.294118  0.352941  0.000000      2.000000
  0.352941  0.352941  0.000000      2.000000
  0.411765  0.352941  0.000000      2.000000
  0.470588  0.352941  0.000000      2.000000
 -0.470588  0.352941  0.000000      2.000000
 -0.411765  0.352941  0.000000      2.000000
 -0.352941  0.352941  0.000000      2.000000
 -0.294118  0.352941  0.000000      2.000000
 -0.235294  0.352941  0.000000      2.000000
 -0.176471  0.352941  0.000000      2.000000
 -0.117647  0.352941  0.000000      2.000000
 -0.058824  0.352941  0.000000      2.000000
 -0.000000  0.411765  0.000000      2.000000
  0.058824  0.411765  0.000000      2.000000
  0.117647  0.411765  0.000000      2.000000
  0.176471  0.411765  0.000000      2.000000
  0.235294  0.411765  0.000000      2.000000
  0.294118  0.411765  0.000000      2.000000
  0.352941  0.411765  0.000000      2.000000
  0.411765  0.411765  0.000000      2.000000
  0.470588  0.411765  0.000000      2.000000
 -0.470588  0.411765  0.000000      2.000000
 -0.411765  0.411765  0.000000      2.000000
 -0.352941  0.411765  0.000000      2.000000
 -0.294118  0.411765  0.000000      2.000000
 -0.235294  0.411765  0.000000      2.000000
 -0.176471  0.411765  0.000000      2.000000
 -0.117647  0.411765  0.000000      2.000000
 -0.058824  0.411765  0.000000      2.000000
  0.000000  0.470588  0.000000      2.000000
  0.058824  0.470588  0.000000      2.000000
  0.117647  0.470588  0.000000      2.000000
  0.176471  0.470588  0.000000      2.000000
  0.235294  0.470588  0.000000      2.000000
  0.294118  0.470588  0.000000      2.000000
  0.352941  0.470588  0.000000      2.000000
  0.411765  0.470588  0.000000      2.000000
  0.470588  0.470588  0.000000      2.000000
 -0.470588  0.470588  0.000000      2.000000
 -0.411765  0.470588  0.000000      2.000000
 -0.352941  0.470588  0.000000      2.000000
 -0.294118  0.470588  0.000000      2.000000
 -0.235294  0.470588  0.000000      2.000000
 -0.176471  0.470588  0.000000      2.000000
 -0.117647  0.470588  0.000000      2.000000
 -0.058824  0.470588  0.000000      2.000000
  0.000000  0.000000  0.058824      2.000000
  0.058824 -0.000000  0.058824      4.000000
  0.117647  0.000000  0.058824      4.000000
  0.176471 -0.000000  0.058824      4.000000
  0.235294  0.000000  0.058824      4.000000
  0.294118  0.000000  0.058824      4.000000
  0.352941 -0.000000  0.058824      4.000000
  0.411765 -0.000000  0.058824      4.000000
  0.470588  0.000000  0.058824      4.000000
 -0.000000  0.058824  0.058824      4.000000
  0.058824  0.058824  0.058824      4.000000
  0.117647  0.058824  0.058824      4.000000
  0.176471  0.058824  0.058824      4.000000
  0.235294  0.058824  0.058824      4.000000
  0.294118  0.058824  0.058824      4.000000
  0.352941  0.058824  0.058824      4.000000
  0.411765  0.058824  0.058824      4.000000
  0.470588  0.058824  0.058824      4.000000
 -0.470588  0.058824  0.058824      4.000000
 -0.411765  0.058824  0.058824      4.000000
 -0.352941  0.058824  0.058824      4.000000
 -0.294118  0.058824  0.058824      4.000000
 -0.235294  0.058824  0.058824      4.000000
 -0.176471  0.058824  0.058824      4.000000
 -0.117647  0.058824  0.058824      4.000000
 -0.058824  0.058824  0.058824      4.000000
  0.000000  0.117647  0.058824      4.000000
  0.058824  0.117647  0.058824      4.000000
  0.117647  0.117647  0.058824      4.000000
  0.176471  0.117647  0.058824      4.000000
  0.235294  0.117647  0.058824      4.000000
  0.294118  0.117647  0.058824      4.000000
  0.352941  0.117647  0.058824      4.000000
  0.411765  0.117647  0.058824      4.000000
  0.470588  0.117647  0.058824      4.000000
 -0.470588  0.117647  0.058824      4.000000
 -0.411765  0.117647  0.058824      4.000000
 -0.352941  0.117647  0.058824      4.000000
 -0.294118  0.117647  0.058824      4.000000
 -0.235294  0.117647  0.058824      4.000000
 -0.176471  0.117647  0.058824      4.000000
 -0.117647  0.117647  0.058824      4.000000
 -0.058824  0.117647  0.058824      4.000000
 -0.000000  0.176471  0.058824      4.000000
  0.058824  0.176471  0.058824      4.000000
  0.117647  0.176471  0.058824      4.000000
  0.176471  0.176471  0.058824      4.000000
  0.235294  0.176471  0.058824      4.000000
  0.294118  0.176471  0.058824      4.000000
  0.352941  0.176471  0.058824      4.000000
  0.411765  0.176471  0.058824      4.000000
  0.470588  0.176471  0.058824      4.000000
 -0.470588  0.176471  0.058824      4.000000
 -0.411765  0.176471  0.058824      4.000000
 -0.352941  0.176471  0.058824      4.000000
 -0.294118  0.176471  0.058824      4.000000
 -0.235294  0.176471  0.058824      4.000000
 -0.176471  0.176471  0.058824      4.000000
 -0.117647  0.176471  0.058824      4.000000
 -0.058824  0.176471  0.058824      4.000000
  0.000000  0.235294  0.058824      4.000000
  0.058824  0.235294  0.058824      4.000000
  0.117647  0.235294  0.058824      4.000000
  0.176471  0.235294  0.058824      4.000000
  0.235294  0.235294  0.058824      4.000000
  0.294118  0.235294  0.058824      4.000000
  0.352941  0.235294  0.058824      4.000000
  0.411765  0.235294  0.058824      4.000000
  0.470588  0.235294  0.058824      4.000000
 -0.470588  0.235294  0.058824      4.000000
 -0.411765  0.235294  0.058824      4.000000
 -0.352941  0.235294  0.058824      4.000000
 -0.294118  0.235294  0.058824      4.000000
 -0.235294  0.235294  0.058824      4.000000
 -0.176471  0.235294  0.058824      4.000000
 -0.117647  0.235294  0.058824      4.000000
 -0.058824  0.235294  0.058824      4.000000
  0.000000  0.294118  0.058824      4.000000
  0.058824  0.294118  0.058824      4.000000
  0.117647  0.294118  0.058824      4.000000
  0.176471  0.294118  0.058824      4.000000
  0.235294  0.294118  0.058824      4.000000
  0.294118  0.294118  0.058824      4.000000
  0.352941  0.294118  0.058824      4.000000
  0.411765  0.294118  0.058824      4.000000
  0.470588  0.294118  0.058824      4.000000
 -0.470588  0.294118  0.058824      4.000000
 -0.411765  0.294118  0.058824      4.000000
 -0.352941  0.294118  0.058824      4.000000
 -0.294118  0.294118  0.058824      4.000000
 -0.235294  0.294118  0.058824      4.000000
 -0.176471  0.294118  0.058824      4.000000
 -0.117647  0.294118  0.058824      4.000000
 -0.058824  0.294118  0.058824      4.000000
 -0.000000  0.352941  0.058824      4.000000
  0.058824  0.352941  0.058824      4.000000
  0.117647  0.352941  0.058824      4.000000
  0.176471  0.352941  0.058824      4.000000
  0.235294  0.352941  0.058824      4.000000
  0.294118  0.352941  0.058824      4.000000
  0.352941  0.352941  0.058824      4.000000
  0.411765  0.352941  0.058824      4.000000
  0.470588  0.352941  0.058824      4.000000
 -0.470588  0.352941  0.058824      4.000000
 -0.411765  0.352941  0.058824      4.000000
 -0.352941  0.352941  0.058824      4.000000
 -0.294118  0.352941  0.058824      4.000000
 -0.235294  0.352941  0.058824      4.000000
 -0.176471  0.352941  0.058824      4.000000
 -0.117647  0.352941  0.058824      4.000000
 -0.058824  0.352941  0.058824      4.000000
 -0.000000  0.411765  0.058824      4.000000
  0.058824  0.411765  0.058824      4.000000
  0.117647  0.411765  0.058824      4.000000
  0.176471  0.411765  0.058824      4.000000
  0.235294  0.411765  0.058824      4.000000
  0.294118  0.411765  0.058824      4.000000
  0.352941  0.411765  0.058824      4.000000
  0.411765  0.411765  0.058824      4.000000
  0.470588  0.411765  0.058824      4.000000
 -0.470588  0.411765  0.058824      4.000000
 -0.411765  0.411765  0.058824      4.000000
 -0.352941  0.411765  0.058824      4.000000
 -0.294118  0.411765  0.058824      4.000000
 -0.235294  0.411765  0.058824      4.000000
 -0.176471  0.411765  0.058824      4.000000
 -0.117647  0.411765  0.058824      4.000000
 -0.058824  0.411765  0.058824      4.000000
  0.000000  0.470588  0.058824      4.000000
  0.058824  0.470588  0.058824      4.000000
  0.117647  0.470588  0.058824      4.000000
  0.176471  0.470588  0.058824      4.000000
  0.235294  0.470588  0.058824      4.000000
  0.294118  0.470588  0.058824      4.000000
  0.352941  0.470588  0.058824      4.000000
  0.411765  0.470588  0.058824      4.000000
  0.470588  0.470588  0.058824      4.000000
 -0.470588  0.470588  0.058824      4.000000
 -0.411765  0.470588  0.058824      4.000000
 -0.352941  0.470588  0.058824      4.000000
 -0.294118  0.470588  0.058824      4.000000
 -0.235294  0.470588  0.058824      4.000000
 -0.176471  0.470588  0.058824      4.000000
 -0.117647  0.470588  0.058824      4.000000
 -0.058824  0.470588  0.058824      4.000000
  0.000000  0.000000  0.117647      2.000000
  0.058824 -0.000000  0.117647      4.000000
  0.117647  0.000000  0.117647      4.000000
  0.176471 -0.000000  0.117647      4.000000
  0.235294  0.000000  0.117647      4.000000
  0.294118  0.000000  0.117647      4.000000
  0.352941 -0.000000  0.117647      4.000000
  0.411765 -0.000000  0.117647      4.000000
  0.470588  0.000000  0.117647      4.000000
 -0.000000  0.058824  0.117647      4.000000
  0.058824  0.058824  0.117647      4.000000
  0.117647  0.058824  0.117647      4.000000
  0.176471  0.058824  0.117647      4.000000
  0.235294  0.058824  0.117647      4.000000
  0.294118  0.058824  0.117647      4.000000
  0.352941  0.058824  0.117647      4.000000
  0.411765  0.058824  0.117647      4.000000
  0.470588  0.058824  0.117647      4.000000
 -0.470588  0.058824  0.117647      4.000000
 -0.411765  0.058824  0.117647      4.000000
 -0.352941  0.058824  0.117647      4.000000
 -0.294118  0.058824  0.117647      4.000000
 -0.235294  0.058824  0.117647      4.000000
 -0.176471  0.058824  0.117647      4.000000
 -0.117647  0.058824  0.117647      4.000000
 -0.058824  0.058824  0.117647      4.000000
  0.000000  0.117647  0.117647      4.000000
  0.058824  0.117647  0.117647      4.000000
  0.117647  0.117647  0.117647      4.000000
  0.176471  0.117647  0.117647      4.000000
  0.235294  0.117647  0.117647      4.000000
  0.294118  0.117647  0.117647      4.000000
  0.352941  0.117647  0.117647      4.000000
  0.411765  0.117647  0.117647      4.000000
  0.470588  0.117647  0.117647      4.000000
 -0.470588  0.117647  0.117647      4.000000
 -0.411765  0.117647  0.117647      4.000000
 -0.352941  0.117647  0.117647      4.000000
 -0.294118  0.117647  0.117647      4.000000
 -0.235294  0.117647  0.117647      4.000000
 -0.176471  0.117647  0.117647      4.000000
 -0.117647  0.117647  0.117647      4.000000
 -0.058824  0.117647  0.117647      4.000000
 -0.000000  0.176471  0.117647      4.000000
  0.058824  0.176471  0.117647      4.000000
  0.117647  0.176471  0.117647      4.000000
  0.176471  0.176471  0.117647      4.000000
  0.235294  0.176471  0.117647      4.000000
  0.294118  0.176471  0.117647      4.000000
  0.352941  0.176471  0.117647      4.000000
  0.411765  0.176471  0.117647      4.000000
  0.470588  0.176471  0.117647      4.000000
 -0.470588  0.176471  0.117647      4.000000
 -0.411765  0.176471  0.117647      4.000000
 -0.352941  0.176471  0.117647      4.000000
 -0.294118  0.176471  0.117647      4.000000
 -0.235294  0.176471  0.117647      4.000000
 -0.176471  0.176471  0.117647      4.000000
 -0.117647  0.176471  0.117647      4.000000
 -0.058824  0.176471  0.117647      4.000000
  0.000000  0.235294  0.117647      4.000000
  0.058824  0.235294  0.117647      4.000000
  0.117647  0.235294  0.117647      4.000000
  0.176471  0.235294  0.117647      4.000000
  0.235294  0.235294  0.117647      4.000000
  0.294118  0.235294  0.117647      4.000000
  0.352941  0.235294  0.117647      4.000000
  0.411765  0.235294  0.117647      4.000000
  0.470588  0.235294  0.117647      4.000000
 -0.470588  0.235294  0.117647      4.000000
 -0.411765  0.235294  0.117647      4.000000
 -0.352941  0.235294  0.117647      4.000000
 -0.294118  0.235294  0.117647      4.000000
 -0.235294  0.235294  0.117647      4.000000
 -0.176471  0.235294  0.117647      4.000000
 -0.117647  0.235294  0.117647      4.000000
 -0.058824  0.235294  0.117647      4.000000
  0.000000  0.294118  0.117647      4.000000
  0.058824  0.294118  0.117647      4.000000
  0.117647  0.294118  0.117647      4.000000
  0.176471  0.294118  0.117647      4.000000
  0.235294  0.294118  0.117647      4.000000
  0.294118  0.294118  0.117647      4.000000
  0.352941  0.294118  0.117647      4.000000
  0.411765  0.294118  0.117647      4.000000
  0.470588  0.294118  0.117647      4.000000
 -0.470588  0.294118  0.117647      4.000000
 -0.411765  0.294118  0.117647      4.000000
 -0.352941  0.294118  0.117647      4.000000
 -0.294118  0.294118  0.117647      4.000000
 -0.235294  0.294118  0.117647      4.000000
 -0.176471  0.294118  0.117647      4.000000
 -0.117647  0.294118  0.117647      4.000000
 -0.058824  0.294118  0.117647      4.000000
 -0.000000  0.352941  0.117647      4.000000
  0.058824  0.352941  0.117647      4.000000
  0.117647  0.352941  0.117647      4.000000
  0.176471  0.352941  0.117647      4.000000
  0.235294  0.352941  0.117647      4.000000
  0.294118  0.352941  0.117647      4.000000
  0.352941  0.352941  0.117647      4.000000
  0.411765  0.352941  0.117647      4.000000
  0.470588  0.352941  0.117647      4.000000
 -0.470588  0.352941  0.117647      4.000000
 -0.411765  0.352941  0.117647      4.000000
 -0.352941  0.352941  0.117647      4.000000
 -0.294118  0.352941  0.117647      4.000000
 -0.235294  0.352941  0.117647      4.000000
 -0.176471  0.352941  0.117647      4.000000
 -0.117647  0.352941  0.117647      4.000000
 -0.058824  0.352941  0.117647      4.000000
 -0.000000  0.411765  0.117647      4.000000
  0.058824  0.411765  0.117647      4.000000
  0.117647  0.411765  0.117647      4.000000
  0.176471  0.411765  0.117647      4.000000
  0.235294  0.411765  0.117647      4.000000
  0.294118  0.411765  0.117647      4.000000
  0.352941  0.411765  0.117647      4.000000
  0.411765  0.411765  0.117647      4.000000
  0.470588  0.411765  0.117647      4.000000
 -0.470588  0.411765  0.117647      4.000000
 -0.411765  0.411765  0.117647      4.000000
 -0.352941  0.411765  0.117647      4.000000
 -0.294118  0.411765  0.117647      4.000000
 -0.235294  0.411765  0.117647      4.000000
 -0.176471  0.411765  0.117647      4.000000
 -0.117647  0.411765  0.117647      4.000000
 -0.058824  0.411765  0.117647      4.000000
  0.000000  0.470588  0.117647      4.000000
  0.058824  0.470588  0.117647      4.000000
  0.117647  0.470588  0.117647      4.000000
  0.176471  0.470588  0.117647      4.000000
  0.235294  0.470588  0.117647      4.000000
  0.294118  0.470588  0.117647      4.000000
  0.352941  0.470588  0.117647      4.000000
  0.411765  0.470588  0.117647      4.000000
  0.470588  0.470588  0.117647      4.000000
 -0.470588  0.470588  0.117647      4.000000
 -0.411765  0.470588  0.117647      4.000000
 -0.352941  0.470588  0.117647      4.000000
 -0.294118  0.470588  0.117647      4.000000
 -0.235294  0.470588  0.117647      4.000000
 -0.176471  0.470588  0.117647      4.000000
 -0.117647  0.470588  0.117647      4.000000
 -0.058824  0.470588  0.117647      4.000000
  0.000000  0.000000  0.176471      2.000000
  0.058824 -0.000000  0.176471      4.000000
  0.117647  0.000000  0.176471      4.000000
  0.176471 -0.000000  0.176471      4.000000
  0.235294  0.000000  0.176471      4.000000
  0.294118  0.000000  0.176471      4.000000
  0.352941 -0.000000  0.176471      4.000000
  0.411765 -0.000000  0.176471      4.000000
  0.470588  0.000000  0.176471      4.000000
 -0.000000  0.058824  0.176471      4.000000
  0.058824  0.058824  0.176471      4.000000
  0.117647  0.058824  0.176471      4.000000
  0.176471  0.058824  0.176471      4.000000
  0.235294  0.058824  0.176471      4.000000
  0.294118  0.058824  0.176471      4.000000
  0.352941  0.058824  0.176471      4.000000
  0.411765  0.058824  0.176471      4.000000
  0.470588  0.058824  0.176471      4.000000
 -0.470588  0.058824  0.176471      4.000000
 -0.411765  0.058824  0.176471      4.000000
 -0.352941  0.058824  0.176471      4.000000
 -0.294118  0.058824  0.176471      4.000000
 -0.235294  0.058824  0.176471      4.000000
 -0.176471  0.058824  0.176471      4.000000
 -0.117647  0.058824  0.176471      4.000000
 -0.058824  0.058824  0.176471      4.000000
  0.000000  0.117647  0.176471      4.000000
  0.058824  0.117647  0.176471      4.000000
  0.117647  0.117647  0.176471      4.000000
  0.176471  0.117647  0.176471      4.000000
  0.235294  0.117647  0.176471      4.000000
  0.294118  0.117647  0.176471      4.000000
  0.352941  0.117647  0.176471      4.000000
  0.411765  0.117647  0.176471      4.000000
  0.470588  0.117647  0.176471      4.000000
 -0.470588  0.117647  0.176471      4.000000
 -0.411765  0.117647  0.176471      4.000000
 -0.352941  0.117647  0.176471      4.000000
 -0.294118  0.117647  0.176471      4.000000
 -0.235294  0.117647  0.176471      4.000000
 -0.176471  0.117647  0.176471      4.000000
 -0.117647  0.117647  0.176471      4.000000
 -0.058824  0.117647  0.176471      4.000000
 -0.000000  0.176471  0.176471      4.000000
  0.058824  0.176471  0.176471      4.000000
  0.117647  0.176471  0.176471      4.000000
  0.176471  0.176471  0.176471      4.000000
  0.235294  0.176471  0.176471      4.000000
  0.294118  0.176471  0.176471      4.000000
  0.352941  0.176471  0.176471      4.000000
  0.411765  0.176471  0.176471      4.000000
  0.470588  0.176471  0.176471      4.000000
 -0.470588  0.176471  0.176471      4.000000
 -0.411765  0.176471  0.176471      4.000000
 -0.352941  0.176471  0.176471      4.000000
 -0.294118  0.176471  0.176471      4.000000
 -0.235294  0.176471  0.176471      4.000000
 -0.176471  0.176471  0.176471      4.000000
 -0.117647  0.176471  0.176471      4.000000
 -0.058824  0.176471  0.176471      4.000000
  0.000000  0.235294  0.176471      4.000000
  0.058824  0.235294  0.176471      4.000000
  0.117647  0.235294  0.176471      4.000000
  0.176471  0.235294  0.176471      4.000000
  0.235294  0.235294  0.176471      4.000000
  0.294118  0.235294  0.176471      4.000000
  0.352941  0.235294  0.176471      4.000000
  0.411765  0.235294  0.176471      4.000000
  0.470588  0.235294  0.176471      4.000000
 -0.470588  0.235294  0.176471      4.000000
 -0.411765  0.235294  0.176471      4.000000
 -0.352941  0.235294  0.176471      4.000000
 -0.294118  0.235294  0.176471      4.000000
 -0.235294  0.235294  0.176471      4.000000
 -0.176471  0.235294  0.176471      4.000000
 -0.117647  0.235294  0.176471      4.000000
 -0.058824  0.235294  0.176471      4.000000
  0.000000  0.294118  0.176471      4.000000
  0.058824  0.294118  0.176471      4.000000
  0.117647  0.294118  0.176471      4.000000
  0.176471  0.294118  0.176471      4.000000
  0.235294  0.294118  0.176471      4.000000
  0.294118  0.294118  0.176471      4.000000
  0.352941  0.294118  0.176471      4.000000
  0.411765  0.294118  0.176471      4.000000
  0.470588  0.294118  0.176471      4.000000
 -0.470588  0.294118  0.176471      4.000000
 -0.411765  0.294118  0.176471      4.000000
 -0.352941  0.294118  0.176471      4.000000
 -0.294118  0.294118  0.176471      4.000000
 -0.235294  0.294118  0.176471      4.000000
 -0.176471  0.294118  0.176471      4.000000
 -0.117647  0.294118  0.176471      4.000000
 -0.058824  0.294118  0.176471      4.000000
 -0.000000  0.352941  0.176471      4.000000
  0.058824  0.352941  0.176471      4.000000
  0.117647  0.352941  0.176471      4.000000
  0.176471  0.352941  0.176471      4.000000
  0.235294  0.352941  0.176471      4.000000
  0.294118  0.352941  0.176471      4.000000
  0.352941  0.352941  0.176471      4.000000
  0.411765  0.352941  0.176471      4.000000
  0.470588  0.352941  0.176471      4.000000
 -0.470588  0.352941  0.176471      4.000000
 -0.411765  0.352941  0.176471      4.000000
 -0.352941  0.352941  0.176471      4.000000
 -0.294118  0.352941  0.176471      4.000000
 -0.235294  0.352941  0.176471      4.000000
 -0.176471  0.352941  0.176471      4.000000
 -0.117647  0.352941  0.176471      4.000000
 -0.058824  0.352941  0.176471      4.000000
 -0.000000  0.411765  0.176471      4.000000
  0.058824  0.411765  0.176471      4.000000
  0.117647  0.411765  0.176471      4.000000
  0.176471  0.411765  0.176471      4.000000
  0.235294  0.411765  0.176471      4.000000
  0.294118  0.411765  0.176471      4.000000
  0.352941  0.411765  0.176471      4.000000
  0.411765  0.411765  0.176471      4.000000
  0.470588  0.411765  0.176471      4.000000
 -0.470588  0.411765  0.176471      4.000000
 -0.411765  0.411765  0.176471      4.000000
 -0.352941  0.411765  0.176471      4.000000
 -0.294118  0.411765  0.176471      4.000000
 -0.235294  0.411765  0.176471      4.000000
 -0.176471  0.411765  0.176471      4.000000
 -0.117647  0.411765  0.176471      4.000000
 -0.058824  0.411765  0.176471      4.000000
  0.000000  0.470588  0.176471      4.000000
  0.058824  0.470588  0.176471      4.000000
  0.117647  0.470588  0.176471      4.000000
  0.176471  0.470588  0.176471      4.000000
  0.235294  0.470588  0.176471      4.000000
  0.294118  0.470588  0.176471      4.000000
  0.352941  0.470588  0.176471      4.000000
  0.411765  0.470588  0.176471      4.000000
  0.470588  0.470588  0.176471      4.000000
 -0.470588  0.470588  0.176471      4.000000
 -0.411765  0.470588  0.176471      4.000000
 -0.352941  0.470588  0.176471      4.000000
 -0.294118  0.470588  0.176471      4.000000
 -0.235294  0.470588  0.176471      4.000000
 -0.176471  0.470588  0.176471      4.000000
 -0.117647  0.470588  0.176471      4.000000
 -0.058824  0.470588  0.176471      4.000000
  0.000000  0.000000  0.235294      2.000000
  0.058824 -0.000000  0.235294      4.000000
  0.117647  0.000000  0.235294      4.000000
  0.176471 -0.000000  0.235294      4.000000
  0.235294  0.000000  0.235294      4.000000
  0.294118  0.000000  0.235294      4.000000
  0.352941 -0.000000  0.235294      4.000000
  0.411765 -0.000000  0.235294      4.000000
  0.470588  0.000000  0.235294      4.000000
 -0.000000  0.058824  0.235294      4.000000
  0.058824  0.058824  0.235294      4.000000
  0.117647  0.058824  0.235294      4.000000
  0.176471  0.058824  0.235294      4.000000
  0.235294  0.058824  0.235294      4.000000
  0.294118  0.058824  0.235294      4.000000
  0.352941  0.058824  0.235294      4.000000
  0.411765  0.058824  0.235294      4.000000
  0.470588  0.058824  0.235294      4.000000
 -0.470588  0.058824  0.235294      4.000000
 -0.411765  0.058824  0.235294      4.000000
 -0.352941  0.058824  0.235294      4.000000
 -0.294118  0.058824  0.235294      4.000000
 -0.235294  0.058824  0.235294      4.000000
 -0.176471  0.058824  0.235294      4.000000
 -0.117647  0.058824  0.235294      4.000000
 -0.058824  0.058824  0.235294      4.000000
  0.000000  0.117647  0.235294      4.000000
  0.058824  0.117647  0.235294      4.000000
  0.117647  0.117647  0.235294      4.000000
  0.176471  0.117647  0.235294      4.000000
  0.235294  0.117647  0.235294      4.000000
  0.294118  0.117647  0.235294      4.000000
  0.352941  0.117647  0.235294      4.000000
  0.411765  0.117647  0.235294      4.000000
  0.470588  0.117647  0.235294      4.000000
 -0.470588  0.117647  0.235294      4.000000
 -0.411765  0.117647  0.235294      4.000000
 -0.352941  0.117647  0.235294      4.000000
 -0.294118  0.117647  0.235294      4.000000
 -0.235294  0.117647  0.235294      4.000000
 -0.176471  0.117647  0.235294      4.000000
 -0.117647  0.117647  0.235294      4.000000
 -0.058824  0.117647  0.235294      4.000000
 -0.000000  0.176471  0.235294      4.000000
  0.058824  0.176471  0.235294      4.000000
  0.117647  0.176471  0.235294      4.000000
  0.176471  0.176471  0.235294      4.000000
  0.235294  0.176471  0.235294      4.000000
  0.294118  0.176471  0.235294      4.000000
  0.352941  0.176471  0.235294      4.000000
  0.411765  0.176471  0.235294      4.000000
  0.470588  0.176471  0.235294      4.000000
 -0.470588  0.176471  0.235294      4.000000
 -0.411765  0.176471  0.235294      4.000000
 -0.352941  0.176471  0.235294      4.000000
 -0.294118  0.176471  0.235294      4.000000
 -0.235294  0.176471  0.235294      4.000000
 -0.176471  0.176471  0.235294      4.000000
 -0.117647  0.176471  0.235294      4.000000
 -0.058824  0.176471  0.235294      4.000000
  0.000000  0.235294  0.235294      4.000000
  0.058824  0.235294  0.235294      4.000000
  0.117647  0.235294  0.235294      4.000000
  0.176471  0.235294  0.235294      4.000000
  0.235294  0.235294  0.235294      4.000000
  0.294118  0.235294  0.235294      4.000000
  0.352941  0.235294  0.235294      4.000000
  0.411765  0.235294  0.235294      4.000000
  0.470588  0.235294  0.235294      4.000000
 -0.470588  0.235294  0.235294      4.000000
 -0.411765  0.235294  0.235294      4.000000
 -0.352941  0.235294  0.235294      4.000000
 -0.294118  0.235294  0.235294      4.000000
 -0.235294  0.235294  0.235294      4.000000
 -0.176471  0.235294  0.235294      4.000000
 -0.117647  0.235294  0.235294      4.000000
 -0.058824  0.235294  0.235294      4.000000
  0.000000  0.294118  0.235294      4.000000
  0.058824  0.294118  0.235294      4.000000
  0.117647  0.294118  0.235294      4.000000
  0.176471  0.294118  0.235294      4.000000
  0.235294  0.294118  0.235294      4.000000
  0.294118  0.294118  0.235294      4.000000
  0.352941  0.294118  0.235294      4.000000
  0.411765  0.294118  0.235294      4.000000
  0.470588  0.294118  0.235294      4.000000
 -0.470588  0.294118  0.235294      4.000000
 -0.411765  0.294118  0.235294      4.000000
 -0.352941  0.294118  0.235294      4.000000
 -0.294118  0.294118  0.235294      4.000000
 -0.235294  0.294118  0.235294      4.000000
 -0.176471  0.294118  0.235294      4.000000
 -0.117647  0.294118  0.235294      4.000000
 -0.058824  0.294118  0.235294      4.000000
 -0.000000  0.352941  0.235294      4.000000
  0.058824  0.352941  0.235294      4.000000
  0.117647  0.352941  0.235294      4.000000
  0.176471  0.352941  0.235294      4.000000
  0.235294  0.352941  0.235294      4.000000
  0.294118  0.352941  0.235294      4.000000
  0.352941  0.352941  0.235294      4.000000
  0.411765  0.352941  0.235294      4.000000
  0.470588  0.352941  0.235294      4.000000
 -0.470588  0.352941  0.235294      4.000000
 -0.411765  0.352941  0.235294      4.000000
 -0.352941  0.352941  0.235294      4.000000
 -0.294118  0.352941  0.235294      4.000000
 -0.235294  0.352941  0.235294      4.000000
 -0.176471  0.352941  0.235294      4.000000
 -0.117647  0.352941  0.235294      4.000000
 -0.058824  0.352941  0.235294      4.000000
 -0.000000  0.411765  0.235294      4.000000
  0.058824  0.411765  0.235294      4.000000
  0.117647  0.411765  0.235294      4.000000
  0.176471  0.411765  0.235294      4.000000
  0.235294  0.411765  0.235294      4.000000
  0.294118  0.411765  0.235294      4.000000
  0.352941  0.411765  0.235294      4.000000
  0.411765  0.411765  0.235294      4.000000
  0.470588  0.411765  0.235294      4.000000
 -0.470588  0.411765  0.235294      4.000000
 -0.411765  0.411765  0.235294      4.000000
 -0.352941  0.411765  0.235294      4.000000
 -0.294118  0.411765  0.235294      4.000000
 -0.235294  0.411765  0.235294      4.000000
 -0.176471  0.411765  0.235294      4.000000
 -0.117647  0.411765  0.235294      4.000000
 -0.058824  0.411765  0.235294      4.000000
  0.000000  0.470588  0.235294      4.000000
  0.058824  0.470588  0.235294      4.000000
  0.117647  0.470588  0.235294      4.000000
  0.176471  0.470588  0.235294      4.000000
  0.235294  0.470588  0.235294      4.000000
  0.294118  0.470588  0.235294      4.000000
  0.352941  0.470588  0.235294      4.000000
  0.411765  0.470588  0.235294      4.000000
  0.470588  0.470588  0.235294      4.000000
 -0.470588  0.470588  0.235294      4.000000
 -0.411765  0.470588  0.235294      4.000000
 -0.352941  0.470588  0.235294      4.000000
 -0.294118  0.470588  0.235294      4.000000
 -0.235294  0.470588  0.235294      4.000000
 -0.176471  0.470588  0.235294      4.000000
 -0.117647  0.470588  0.235294      4.000000
 -0.058824  0.470588  0.235294      4.000000
  0.000000  0.000000  0.294118      2.000000
  0.058824 -0.000000  0.294118      4.000000
  0.117647  0.000000  0.294118      4.000000
  0.176471 -0.000000  0.294118      4.000000
  0.235294  0.000000  0.294118      4.000000
  0.294118  0.000000  0.294118      4.000000
  0.352941 -0.000000  0.294118      4.000000
  0.411765 -0.000000  0.294118      4.000000
  0.470588  0.000000  0.294118      4.000000
 -0.000000  0.058824  0.294118      4.000000
  0.058824  0.058824  0.294118      4.000000
  0.117647  0.058824  0.294118      4.000000
  0.176471  0.058824  0.294118      4.000000
  0.235294  0.058824  0.294118      4.000000
  0.294118  0.058824  0.294118      4.000000
  0.352941  0.058824  0.294118      4.000000
  0.411765  0.058824  0.294118      4.000000
  0.470588  0.058824  0.294118      4.000000
 -0.470588  0.058824  0.294118      4.000000
 -0.411765  0.058824  0.294118      4.000000
 -0.352941  0.058824  0.294118      4.000000
 -0.294118  0.058824  0.294118      4.000000
 -0.235294  0.058824  0.294118      4.000000
 -0.176471  0.058824  0.294118      4.000000
 -0.117647  0.058824  0.294118      4.000000
 -0.058824  0.058824  0.294118      4.000000
  0.000000  0.117647  0.294118      4.000000
  0.058824  0.117647  0.294118      4.000000
  0.117647  0.117647  0.294118      4.000000
  0.176471  0.117647  0.294118      4.000000
  0.235294  0.117647  0.294118      4.000000
  0.294118  0.117647  0.294118      4.000000
  0.352941  0.117647  0.294118      4.000000
  0.411765  0.117647  0.294118      4.000000
  0.470588  0.117647  0.294118      4.000000
 -0.470588  0.117647  0.294118      4.000000
 -0.411765  0.117647  0.294118      4.000000
 -0.352941  0.117647  0.294118      4.000000
 -0.294118  0.117647  0.294118      4.000000
 -0.235294  0.117647  0.294118      4.000000
 -0.176471  0.117647  0.294118      4.000000
 -0.117647  0.117647  0.294118      4.000000
 -0.058824  0.117647  0.294118      4.000000
 -0.000000  0.176471  0.294118      4.000000
  0.058824  0.176471  0.294118      4.000000
  0.117647  0.176471  0.294118      4.000000
  0.176471  0.176471  0.294118      4.000000
  0.235294  0.176471  0.294118      4.000000
  0.294118  0.176471  0.294118      4.000000
  0.352941  0.176471  0.294118      4.000000
  0.411765  0.176471  0.294118      4.000000
  0.470588  0.176471  0.294118      4.000000
 -0.470588  0.176471  0.294118      4.000000
 -0.411765  0.176471  0.294118      4.000000
 -0.352941  0.176471  0.294118      4.000000
 -0.294118  0.176471  0.294118      4.000000
 -0.235294  0.176471  0.294118      4.000000
 -0.176471  0.176471  0.294118      4.000000
 -0.117647  0.176471  0.294118      4.000000
 -0.058824  0.176471  0.294118      4.000000
  0.000000  0.235294  0.294118      4.000000
  0.058824  0.235294  0.294118      4.000000
  0.117647  0.235294  0.294118      4.000000
  0.176471  0.235294  0.294118      4.000000
  0.235294  0.235294  0.294118      4.000000
  0.294118  0.235294  0.294118      4.000000
  0.352941  0.235294  0.294118      4.000000
  0.411765  0.235294  0.294118      4.000000
  0.470588  0.235294  0.294118      4.000000
 -0.470588  0.235294  0.294118      4.000000
 -0.411765  0.235294  0.294118      4.000000
 -0.352941  0.235294  0.294118      4.000000
 -0.294118  0.235294  0.294118      4.000000
 -0.235294  0.235294  0.294118      4.000000
 -0.176471  0.235294  0.294118      4.000000
 -0.117647  0.235294  0.294118      4.000000
 -0.058824  0.235294  0.294118      4.000000
  0.000000  0.294118  0.294118      4.000000
  0.058824  0.294118  0.294118      4.000000
  0.117647  0.294118  0.294118      4.000000
  0.176471  0.294118  0.294118      4.000000
  0.235294  0.294118  0.294118      4.000000
  0.294118  0.294118  0.294118      4.000000
  0.352941  0.294118  0.294118      4.000000
  0.411765  0.294118  0.294118      4.000000
  0.470588  0.294118  0.294118      4.000000
 -0.470588  0.294118  0.294118      4.000000
 -0.411765  0.294118  0.294118      4.000000
 -0.352941  0.294118  0.294118      4.000000
 -0.294118  0.294118  0.294118      4.000000
 -0.235294  0.294118  0.294118      4.000000
 -0.176471  0.294118  0.294118      4.000000
 -0.117647  0.294118  0.294118      4.000000
 -0.058824  0.294118  0.294118      4.000000
 -0.000000  0.352941  0.294118      4.000000
  0.058824  0.352941  0.294118      4.000000
  0.117647  0.352941  0.294118      4.000000
  0.176471  0.352941  0.294118      4.000000
  0.235294  0.352941  0.294118      4.000000
  0.294118  0.352941  0.294118      4.000000
  0.352941  0.352941  0.294118      4.000000
  0.411765  0.352941  0.294118      4.000000
  0.470588  0.352941  0.294118      4.000000
 -0.470588  0.352941  0.294118      4.000000
 -0.411765  0.352941  0.294118      4.000000
 -0.352941  0.352941  0.294118      4.000000
 -0.294118  0.352941  0.294118      4.000000
 -0.235294  0.352941  0.294118      4.000000
 -0.176471  0.352941  0.294118      4.000000
 -0.117647  0.352941  0.294118      4.000000
 -0.058824  0.352941  0.294118      4.000000
 -0.000000  0.411765  0.294118      4.000000
  0.058824  0.411765  0.294118      4.000000
  0.117647  0.411765  0.294118      4.000000
  0.176471  0.411765  0.294118      4.000000
  0.235294  0.411765  0.294118      4.000000
  0.294118  0.411765  0.294118      4.000000
  0.352941  0.411765  0.294118      4.000000
  0.411765  0.411765  0.294118      4.000000
  0.470588  0.411765  0.294118      4.000000
 -0.470588  0.411765  0.294118      4.000000
 -0.411765  0.411765  0.294118      4.000000
 -0.352941  0.411765  0.294118      4.000000
 -0.294118  0.411765  0.294118      4.000000
 -0.235294  0.411765  0.294118      4.000000
 -0.176471  0.411765  0.294118      4.000000
 -0.117647  0.411765  0.294118      4.000000
 -0.058824  0.411765  0.294118      4.000000
  0.000000  0.470588  0.294118      4.000000
  0.058824  0.470588  0.294118      4.000000
  0.117647  0.470588  0.294118      4.000000
  0.176471  0.470588  0.294118      4.000000
  0.235294  0.470588  0.294118      4.000000
  0.294118  0.470588  0.294118      4.000000
  0.352941  0.470588  0.294118      4.000000
  0.411765  0.470588  0.294118      4.000000
  0.470588  0.470588  0.294118      4.000000
 -0.470588  0.470588  0.294118      4.000000
 -0.411765  0.470588  0.294118      4.000000
 -0.352941  0.470588  0.294118      4.000000
 -0.294118  0.470588  0.294118      4.000000
 -0.235294  0.470588  0.294118      4.000000
 -0.176471  0.470588  0.294118      4.000000
 -0.117647  0.470588  0.294118      4.000000
 -0.058824  0.470588  0.294118      4.000000
  0.000000  0.000000  0.352941      2.000000
  0.058824 -0.000000  0.352941      4.000000
  0.117647  0.000000  0.352941      4.000000
  0.176471 -0.000000  0.352941      4.000000
  0.235294  0.000000  0.352941      4.000000
  0.294118  0.000000  0.352941      4.000000
  0.352941 -0.000000  0.352941      4.000000
  0.411765 -0.000000  0.352941      4.000000
  0.470588  0.000000  0.352941      4.000000
 -0.000000  0.058824  0.352941      4.000000
  0.058824  0.058824  0.352941      4.000000
  0.117647  0.058824  0.352941      4.000000
  0.176471  0.058824  0.352941      4.000000
  0.235294  0.058824  0.352941      4.000000
  0.294118  0.058824  0.352941      4.000000
  0.352941  0.058824  0.352941      4.000000
  0.411765  0.058824  0.352941      4.000000
  0.470588  0.058824  0.352941      4.000000
 -0.470588  0.058824  0.352941      4.000000
 -0.411765  0.058824  0.352941      4.000000
 -0.352941  0.058824  0.352941      4.000000
 -0.294118  0.058824  0.352941      4.000000
 -0.235294  0.058824  0.352941      4.000000
 -0.176471  0.058824  0.352941      4.000000
 -0.117647  0.058824  0.352941      4.000000
 -0.058824  0.058824  0.352941      4.000000
  0.000000  0.117647  0.352941      4.000000
  0.058824  0.117647  0.352941      4.000000
  0.117647  0.117647  0.352941      4.000000
  0.176471  0.117647  0.352941      4.000000
  0.235294  0.117647  0.352941      4.000000
  0.294118  0.117647  0.352941      4.000000
  0.352941  0.117647  0.352941      4.000000
  0.411765  0.117647  0.352941      4.000000
  0.470588  0.117647  0.352941      4.000000
 -0.470588  0.117647  0.352941      4.000000
 -0.411765  0.117647  0.352941      4.000000
 -0.352941  0.117647  0.352941      4.000000
 -0.294118  0.117647  0.352941      4.000000
 -0.235294  0.117647  0.352941      4.000000
 -0.176471  0.117647  0.352941      4.000000
 -0.117647  0.117647  0.352941      4.000000
 -0.058824  0.117647  0.352941      4.000000
 -0.000000  0.176471  0.352941      4.000000
  0.058824  0.176471  0.352941      4.000000
  0.117647  0.176471  0.352941      4.000000
  0.176471  0.176471  0.352941      4.000000
  0.235294  0.176471  0.352941      4.000000
  0.294118  0.176471  0.352941      4.000000
  0.352941  0.176471  0.352941      4.000000
  0.411765  0.176471  0.352941      4.000000
  0.470588  0.176471  0.352941      4.000000
 -0.470588  0.176471  0.352941      4.000000
 -0.411765  0.176471  0.352941      4.000000
 -0.352941  0.176471  0.352941      4.000000
 -0.294118  0.176471  0.352941      4.000000
 -0.235294  0.176471  0.352941      4.000000
 -0.176471  0.176471  0.352941      4.000000
 -0.117647  0.176471  0.352941      4.000000
 -0.058824  0.176471  0.352941      4.000000
  0.000000  0.235294  0.352941      4.000000
  0.058824  0.235294  0.352941      4.000000
  0.117647  0.235294  0.352941      4.000000
  0.176471  0.235294  0.352941      4.000000
  0.235294  0.235294  0.352941      4.000000
  0.294118  0.235294  0.352941      4.000000
  0.352941  0.235294  0.352941      4.000000
  0.411765  0.235294  0.352941      4.000000
  0.470588  0.235294  0.352941      4.000000
 -0.470588  0.235294  0.352941      4.000000
 -0.411765  0.235294  0.352941      4.000000
 -0.352941  0.235294  0.352941      4.000000
 -0.294118  0.235294  0.352941      4.000000
 -0.235294  0.235294  0.352941      4.000000
 -0.176471  0.235294  0.352941      4.000000
 -0.117647  0.235294  0.352941      4.000000
 -0.058824  0.235294  0.352941      4.000000
  0.000000  0.294118  0.352941      4.000000
  0.058824  0.294118  0.352941      4.000000
  0.117647  0.294118  0.352941      4.000000
  0.176471  0.294118  0.352941      4.000000
  0.235294  0.294118  0.352941      4.000000
  0.294118  0.294118  0.352941      4.000000
  0.352941  0.294118  0.352941      4.000000
  0.411765  0.294118  0.352941      4.000000
  0.470588  0.294118  0.352941      4.000000
 -0.470588  0.294118  0.352941      4.000000
 -0.411765  0.294118  0.352941      4.000000
 -0.352941  0.294118  0.352941      4.000000
 -0.294118  0.294118  0.352941      4.000000
 -0.235294  0.294118  0.352941      4.000000
 -0.176471  0.294118  0.352941      4.000000
 -0.117647  0.294118  0.352941      4.000000
 -0.058824  0.294118  0.352941      4.000000
 -0.000000  0.352941  0.352941      4.000000
  0.058824  0.352941  0.352941      4.000000
  0.117647  0.352941  0.352941      4.000000
  0.176471  0.352941  0.352941      4.000000
  0.235294  0.352941  0.352941      4.000000
  0.294118  0.352941  0.352941      4.000000
  0.352941  0.352941  0.352941      4.000000
  0.411765  0.352941  0.352941      4.000000
  0.470588  0.352941  0.352941      4.000000
 -0.470588  0.352941  0.352941      4.000000
 -0.411765  0.352941  0.352941      4.000000
 -0.352941  0.352941  0.352941      4.000000
 -0.294118  0.352941  0.352941      4.000000
 -0.235294  0.352941  0.352941      4.000000
 -0.176471  0.352941  0.352941      4.000000
 -0.117647  0.352941  0.352941      4.000000
 -0.058824  0.352941  0.352941      4.000000
 -0.000000  0.411765  0.352941      4.000000
  0.058824  0.411765  0.352941      4.000000
  0.117647  0.411765  0.352941      4.000000
  0.176471  0.411765  0.352941      4.000000
  0.235294  0.411765  0.352941      4.000000
  0.294118  0.411765  0.352941      4.000000
  0.352941  0.411765  0.352941      4.000000
  0.411765  0.411765  0.352941      4.000000
  0.470588  0.411765  0.352941      4.000000
 -0.470588  0.411765  0.352941      4.000000
 -0.411765  0.411765  0.352941      4.000000
 -0.352941  0.411765  0.352941      4.000000
 -0.294118  0.411765  0.352941      4.000000
 -0.235294  0.411765  0.352941      4.000000
 -0.176471  0.411765  0.352941      4.000000
 -0.117647  0.411765  0.352941      4.000000
 -0.058824  0.411765  0.352941      4.000000
  0.000000  0.470588  0.352941      4.000000
  0.058824  0.470588  0.352941      4.000000
  0.117647  0.470588  0.352941      4.000000
  0.176471  0.470588  0.352941      4.000000
  0.235294  0.470588  0.352941      4.000000
  0.294118  0.470588  0.352941      4.000000
  0.352941  0.470588  0.352941      4.000000
  0.411765  0.470588  0.352941      4.000000
  0.470588  0.470588  0.352941      4.000000
 -0.470588  0.470588  0.352941      4.000000
 -0.411765  0.470588  0.352941      4.000000
 -0.352941  0.470588  0.352941      4.000000
 -0.294118  0.470588  0.352941      4.000000
 -0.235294  0.470588  0.352941      4.000000
 -0.176471  0.470588  0.352941      4.000000
 -0.117647  0.470588  0.352941      4.000000
 -0.058824  0.470588  0.352941      4.000000
  0.000000  0.000000  0.411765      2.000000
  0.058824 -0.000000  0.411765      4.000000
  0.117647  0.000000  0.411765      4.000000
  0.176471 -0.000000  0.411765      4.000000
  0.235294  0.000000  0.411765      4.000000
  0.294118  0.000000  0.411765      4.000000
  0.352941 -0.000000  0.411765      4.000000
  0.411765 -0.000000  0.411765      4.000000
  0.470588  0.000000  0.411765      4.000000
 -0.000000  0.058824  0.411765      4.000000
  0.058824  0.058824  0.411765      4.000000
  0.117647  0.058824  0.411765      4.000000
  0.176471  0.058824  0.411765      4.000000
  0.235294  0.058824  0.411765      4.000000
  0.294118  0.058824  0.411765      4.000000
  0.352941  0.058824  0.411765      4.000000
  0.411765  0.058824  0.411765      4.000000
  0.470588  0.058824  0.411765      4.000000
 -0.470588  0.058824  0.411765      4.000000
 -0.411765  0.058824  0.411765      4.000000
 -0.352941  0.058824  0.411765      4.000000
 -0.294118  0.058824  0.411765      4.000000
 -0.235294  0.058824  0.411765      4.000000
 -0.176471  0.058824  0.411765      4.000000
 -0.117647  0.058824  0.411765      4.000000
 -0.058824  0.058824  0.411765      4.000000
  0.000000  0.117647  0.411765      4.000000
  0.058824  0.117647  0.411765      4.000000
  0.117647  0.117647  0.411765      4.000000
  0.176471  0.117647  0.411765      4.000000
  0.235294  0.117647  0.411765      4.000000
  0.294118  0.117647  0.411765      4.000000
  0.352941  0.117647  0.411765      4.000000
  0.411765  0.117647  0.411765      4.000000
  0.470588  0.117647  0.411765      4.000000
 -0.470588  0.117647  0.411765      4.000000
 -0.411765  0.117647  0.411765      4.000000
 -0.352941  0.117647  0.411765      4.000000
 -0.294118  0.117647  0.411765      4.000000
 -0.235294  0.117647  0.411765      4.000000
 -0.176471  0.117647  0.411765      4.000000
 -0.117647  0.117647  0.411765      4.000000
 -0.058824  0.117647  0.411765      4.000000
 -0.000000  0.176471  0.411765      4.000000
  0.058824  0.176471  0.411765      4.000000
  0.117647  0.176471  0.411765      4.000000
  0.176471  0.176471  0.411765      4.000000
  0.235294  0.176471  0.411765      4.000000
  0.294118  0.176471  0.411765      4.000000
  0.352941  0.176471  0.411765      4.000000
  0.411765  0.176471  0.411765      4.000000
  0.470588  0.176471  0.411765      4.000000
 -0.470588  0.176471  0.411765      4.000000
 -0.411765  0.176471  0.411765      4.000000
 -0.352941  0.176471  0.411765      4.000000
 -0.294118  0.176471  0.411765      4.000000
 -0.235294  0.176471  0.411765      4.000000
 -0.176471  0.176471  0.411765      4.000000
 -0.117647  0.176471  0.411765      4.000000
 -0.058824  0.176471  0.411765      4.000000
  0.000000  0.235294  0.411765      4.000000
  0.058824  0.235294  0.411765      4.000000
  0.117647  0.235294  0.411765      4.000000
  0.176471  0.235294  0.411765      4.000000
  0.235294  0.235294  0.411765      4.000000
  0.294118  0.235294  0.411765      4.000000
  0.352941  0.235294  0.411765      4.000000
  0.411765  0.235294  0.411765      4.000000
  0.470588  0.235294  0.411765      4.000000
 -0.470588  0.235294  0.411765      4.000000
 -0.411765  0.235294  0.411765      4.000000
 -0.352941  0.235294  0.411765      4.000000
 -0.294118  0.235294  0.411765      4.000000
 -0.235294  0.235294  0.411765      4.000000
 -0.176471  0.235294  0.411765      4.000000
 -0.117647  0.235294  0.411765      4.000000
 -0.058824  0.235294  0.411765      4.000000
  0.000000  0.294118  0.411765      4.000000
  0.058824  0.294118  0.411765      4.000000
  0.117647  0.294118  0.411765      4.000000
  0.176471  0.294118  0.411765      4.000000
  0.235294  0.294118  0.411765      4.000000
  0.294118  0.294118  0.411765      4.000000
  0.352941  0.294118  0.411765      4.000000
  0.411765  0.294118  0.411765      4.000000
  0.470588  0.294118  0.411765      4.000000
 -0.470588  0.294118  0.411765      4.000000
 -0.411765  0.294118  0.411765      4.000000
 -0.352941  0.294118  0.411765      4.000000
 -0.294118  0.294118  0.411765      4.000000
 -0.235294  0.294118  0.411765      4.000000
 -0.176471  0.294118  0.411765      4.000000
 -0.117647  0.294118  0.411765      4.000000
 -0.058824  0.294118  0.411765      4.000000
 -0.000000  0.352941  0.411765      4.000000
  0.058824  0.352941  0.411765      4.000000
  0.117647  0.352941  0.411765      4.000000
  0.176471  0.352941  0.411765      4.000000
  0.235294  0.352941  0.411765      4.000000
  0.294118  0.352941  0.411765      4.000000
  0.352941  0.352941  0.411765      4.000000
  0.411765  0.352941  0.411765      4.000000
  0.470588  0.352941  0.411765      4.000000
 -0.470588  0.352941  0.411765      4.000000
 -0.411765  0.352941  0.411765      4.000000
 -0.352941  0.352941  0.411765      4.000000
 -0.294118  0.352941  0.411765      4.000000
 -0.235294  0.352941  0.411765      4.000000
 -0.176471  0.352941  0.411765      4.000000
 -0.117647  0.352941  0.411765      4.000000
 -0.058824  0.352941  0.411765      4.000000
 -0.000000  0.411765  0.411765      4.000000
  0.058824  0.411765  0.411765      4.000000
  0.117647  0.411765  0.411765      4.000000
  0.176471  0.411765  0.411765      4.000000
  0.235294  0.411765  0.411765      4.000000
  0.294118  0.411765  0.411765      4.000000
  0.352941  0.411765  0.411765      4.000000
  0.411765  0.411765  0.411765      4.000000
  0.470588  0.411765  0.411765      4.000000
 -0.470588  0.411765  0.411765      4.000000
 -0.411765  0.411765  0.411765      4.000000
 -0.352941  0.411765  0.411765      4.000000
 -0.294118  0.411765  0.411765      4.000000
 -0.235294  0.411765  0.411765      4.000000
 -0.176471  0.411765  0.411765      4.000000
 -0.117647  0.411765  0.411765      4.000000
 -0.058824  0.411765  0.411765      4.000000
  0.000000  0.470588  0.411765      4.000000
  0.058824  0.470588  0.411765      4.000000
  0.117647  0.470588  0.411765      4.000000
  0.176471  0.470588  0.411765      4.000000
  0.235294  0.470588  0.411765      4.000000
  0.294118  0.470588  0.411765      4.000000
  0.352941  0.470588  0.411765      4.000000
  0.411765  0.470588  0.411765      4.000000
  0.470588  0.470588  0.411765      4.000000
 -0.470588  0.470588  0.411765      4.000000
 -0.411765  0.470588  0.411765      4.000000
 -0.352941  0.470588  0.411765      4.000000
 -0.294118  0.470588  0.411765      4.000000
 -0.235294  0.470588  0.411765      4.000000
 -0.176471  0.470588  0.411765      4.000000
 -0.117647  0.470588  0.411765      4.000000
 -0.058824  0.470588  0.411765      4.000000
  0.000000  0.000000  0.470588      2.000000
  0.058824 -0.000000  0.470588      4.000000
  0.117647  0.000000  0.470588      4.000000
  0.176471 -0.000000  0.470588      4.000000
  0.235294  0.000000  0.470588      4.000000
  0.294118  0.000000  0.470588      4.000000
  0.352941 -0.000000  0.470588      4.000000
  0.411765 -0.000000  0.470588      4.000000
  0.470588  0.000000  0.470588      4.000000
 -0.000000  0.058824  0.470588      4.000000
  0.058824  0.058824  0.470588      4.000000
  0.117647  0.058824  0.470588      4.000000
  0.176471  0.058824  0.470588      4.000000
  0.235294  0.058824  0.470588      4.000000
  0.294118  0.058824  0.470588      4.000000
  0.352941  0.058824  0.470588      4.000000
  0.411765  0.058824  0.470588      4.000000
  0.470588  0.058824  0.470588      4.000000
 -0.470588  0.058824  0.470588      4.000000
 -0.411765  0.058824  0.470588      4.000000
 -0.352941  0.058824  0.470588      4.000000
 -0.294118  0.058824  0.470588      4.000000
 -0.235294  0.058824  0.470588      4.000000
 -0.176471  0.058824  0.470588      4.000000
 -0.117647  0.058824  0.470588      4.000000
 -0.058824  0.058824  0.470588      4.000000
  0.000000  0.117647  0.470588      4.000000
  0.058824  0.117647  0.470588      4.000000
  0.117647  0.117647  0.470588      4.000000
  0.176471  0.117647  0.470588      4.000000
  0.235294  0.117647  0.470588      4.000000
  0.294118  0.117647  0.470588      4.000000
  0.352941  0.117647  0.470588      4.000000
  0.411765  0.117647  0.470588      4.000000
  0.470588  0.117647  0.470588      4.000000
 -0.470588  0.117647  0.470588      4.000000
 -0.411765  0.117647  0.470588      4.000000
 -0.352941  0.117647  0.470588      4.000000
 -0.294118  0.117647  0.470588      4.000000
 -0.235294  0.117647  0.470588      4.000000
 -0.176471  0.117647  0.470588      4.000000
 -0.117647  0.117647  0.470588      4.000000
 -0.058824  0.117647  0.470588      4.000000
 -0.000000  0.176471  0.470588      4.000000
  0.058824  0.176471  0.470588      4.000000
  0.117647  0.176471  0.470588      4.000000
  0.176471  0.176471  0.470588      4.000000
  0.235294  0.176471  0.470588      4.000000
  0.294118  0.176471  0.470588      4.000000
  0.352941  0.176471  0.470588      4.000000
  0.411765  0.176471  0.470588      4.000000
  0.470588  0.176471  0.470588      4.000000
 -0.470588  0.176471  0.470588      4.000000
 -0.411765  0.176471  0.470588      4.000000
 -0.352941  0.176471  0.470588      4.000000
 -0.294118  0.176471  0.470588      4.000000
 -0.235294  0.176471  0.470588      4.000000
 -0.176471  0.176471  0.470588      4.000000
 -0.117647  0.176471  0.470588      4.000000
 -0.058824  0.176471  0.470588      4.000000
  0.000000  0.235294  0.470588      4.000000
  0.058824  0.235294  0.470588      4.000000
  0.117647  0.235294  0.470588      4.000000
  0.176471  0.235294  0.470588      4.000000
  0.235294  0.235294  0.470588      4.000000
  0.294118  0.235294  0.470588      4.000000
  0.352941  0.235294  0.470588      4.000000
  0.411765  0.235294  0.470588      4.000000
  0.470588  0.235294  0.470588      4.000000
 -0.470588  0.235294  0.470588      4.000000
 -0.411765  0.235294  0.470588      4.000000
 -0.352941  0.235294  0.470588      4.000000
 -0.294118  0.235294  0.470588      4.000000
 -0.235294  0.235294  0.470588      4.000000
 -0.176471  0.235294  0.470588      4.000000
 -0.117647  0.235294  0.470588      4.000000
 -0.058824  0.235294  0.470588      4.000000
  0.000000  0.294118  0.470588      4.000000
  0.058824  0.294118  0.470588      4.000000
  0.117647  0.294118  0.470588      4.000000
  0.176471  0.294118  0.470588      4.000000
  0.235294  0.294118  0.470588      4.000000
  0.294118  0.294118  0.470588      4.000000
  0.352941  0.294118  0.470588      4.000000
  0.411765  0.294118  0.470588      4.000000
  0.470588  0.294118  0.470588      4.000000
 -0.470588  0.294118  0.470588      4.000000
 -0.411765  0.294118  0.470588      4.000000
 -0.352941  0.294118  0.470588      4.000000
 -0.294118  0.294118  0.470588      4.000000
 -0.235294  0.294118  0.470588      4.000000
 -0.176471  0.294118  0.470588      4.000000
 -0.117647  0.294118  0.470588      4.000000
 -0.058824  0.294118  0.470588      4.000000
 -0.000000  0.352941  0.470588      4.000000
  0.058824  0.352941  0.470588      4.000000
  0.117647  0.352941  0.470588      4.000000
  0.176471  0.352941  0.470588      4.000000
  0.235294  0.352941  0.470588      4.000000
  0.294118  0.352941  0.470588      4.000000
  0.352941  0.352941  0.470588      4.000000
  0.411765  0.352941  0.470588      4.000000
  0.470588  0.352941  0.470588      4.000000
 -0.470588  0.352941  0.470588      4.000000
 -0.411765  0.352941  0.470588      4.000000
 -0.352941  0.352941  0.470588      4.000000
 -0.294118  0.352941  0.470588      4.000000
 -0.235294  0.352941  0.470588      4.000000
 -0.176471  0.352941  0.470588      4.000000
 -0.117647  0.352941  0.470588      4.000000
 -0.058824  0.352941  0.470588      4.000000
 -0.000000  0.411765  0.470588      4.000000
  0.058824  0.411765  0.470588      4.000000
  0.117647  0.411765  0.470588      4.000000
  0.176471  0.411765  0.470588      4.000000
  0.235294  0.411765  0.470588      4.000000
  0.294118  0.411765  0.470588      4.000000
  0.352941  0.411765  0.470588      4.000000
  0.411765  0.411765  0.470588      4.000000
  0.470588  0.411765  0.470588      4.000000
 -0.470588  0.411765  0.470588      4.000000
 -0.411765  0.411765  0.470588      4.000000
 -0.352941  0.411765  0.470588      4.000000
 -0.294118  0.411765  0.470588      4.000000
 -0.235294  0.411765  0.470588      4.000000
 -0.176471  0.411765  0.470588      4.000000
 -0.117647  0.411765  0.470588      4.000000
 -0.058824  0.411765  0.470588      4.000000
  0.000000  0.470588  0.470588      4.000000
  0.058824  0.470588  0.470588      4.000000
  0.117647  0.470588  0.470588      4.000000
  0.176471  0.470588  0.470588      4.000000
  0.235294  0.470588  0.470588      4.000000
  0.294118  0.470588  0.470588      4.000000
  0.352941  0.470588  0.470588      4.000000
  0.411765  0.470588  0.470588      4.000000
  0.470588  0.470588  0.470588      4.000000
 -0.470588  0.470588  0.470588      4.000000
 -0.411765  0.470588  0.470588      4.000000
 -0.352941  0.470588  0.470588      4.000000
 -0.294118  0.470588  0.470588      4.000000
 -0.235294  0.470588  0.470588      4.000000
 -0.176471  0.470588  0.470588      4.000000
 -0.117647  0.470588  0.470588      4.000000
 -0.058824  0.470588  0.470588      4.000000
 
 Following cartesian coordinates:
            Coordinates               Weight
  0.000000  0.000000  0.000000      1.000000
  0.016717  0.000125  0.000000      2.000000
  0.033434  0.000251  0.000000      2.000000
  0.050151  0.000376  0.000000      2.000000
  0.066868  0.000502  0.000000      2.000000
  0.083585  0.000627  0.000000      2.000000
  0.100302  0.000752  0.000000      2.000000
  0.117019  0.000878  0.000000      2.000000
  0.133736  0.001003  0.000000      2.000000
  0.000125  0.016466  0.000000      2.000000
  0.016842  0.016592  0.000000      2.000000
  0.033559  0.016717  0.000000      2.000000
  0.050276  0.016842  0.000000      2.000000
  0.066993  0.016968  0.000000      2.000000
  0.083710  0.017093  0.000000      2.000000
  0.100428  0.017219  0.000000      2.000000
  0.117145  0.017344  0.000000      2.000000
  0.133862  0.017469  0.000000      2.000000
 -0.133611  0.015463  0.000000      2.000000
 -0.116894  0.015589  0.000000      2.000000
 -0.100177  0.015714  0.000000      2.000000
 -0.083460  0.015839  0.000000      2.000000
 -0.066743  0.015965  0.000000      2.000000
 -0.050026  0.016090  0.000000      2.000000
 -0.033309  0.016216  0.000000      2.000000
 -0.016592  0.016341  0.000000      2.000000
  0.000251  0.032933  0.000000      2.000000
  0.016968  0.033058  0.000000      2.000000
  0.033685  0.033183  0.000000      2.000000
  0.050402  0.033309  0.000000      2.000000
  0.067119  0.033434  0.000000      2.000000
  0.083836  0.033559  0.000000      2.000000
  0.100553  0.033685  0.000000      2.000000
  0.117270  0.033810  0.000000      2.000000
  0.133987  0.033936  0.000000      2.000000
 -0.133485  0.031930  0.000000      2.000000
 -0.116768  0.032055  0.000000      2.000000
 -0.100051  0.032180  0.000000      2.000000
 -0.083334  0.032306  0.000000      2.000000
 -0.066617  0.032431  0.000000      2.000000
 -0.049900  0.032556  0.000000      2.000000
 -0.033183  0.032682  0.000000      2.000000
 -0.016466  0.032807  0.000000      2.000000
  0.000376  0.049399  0.000000      2.000000
  0.017093  0.049524  0.000000      2.000000
  0.033810  0.049650  0.000000      2.000000
  0.050527  0.049775  0.000000      2.000000
  0.067244  0.049900  0.000000      2.000000
  0.083961  0.050026  0.000000      2.000000
  0.100678  0.050151  0.000000      2.000000
  0.117395  0.050276  0.000000      2.000000
  0.134112  0.050402  0.000000      2.000000
 -0.133360  0.048396  0.000000      2.000000
 -0.116643  0.048521  0.000000      2.000000
 -0.099926  0.048647  0.000000      2.000000
 -0.083209  0.048772  0.000000      2.000000
 -0.066492  0.048897  0.000000      2.000000
 -0.049775  0.049023  0.000000      2.000000
 -0.033058  0.049148  0.000000      2.000000
 -0.016341  0.049273  0.000000      2.000000
  0.000502  0.065865  0.000000      2.000000
  0.017219  0.065990  0.000000      2.000000
  0.033936  0.066116  0.000000      2.000000
  0.050653  0.066241  0.000000      2.000000
  0.067370  0.066367  0.000000      2.000000
  0.084087  0.066492  0.000000      2.000000
  0.100804  0.066617  0.000000      2.000000
  0.117521  0.066743  0.000000      2.000000
  0.134238  0.066868  0.000000      2.000000
 -0.133235  0.064862  0.000000      2.000000
 -0.116518  0.064987  0.000000      2.000000
 -0.099801  0.065113  0.000000      2.000000
 -0.083084  0.065238  0.000000      2.000000
 -0.066367  0.065364  0.000000      2.000000
 -0.049650  0.065489  0.000000      2.000000
 -0.032933  0.065614  0.000000      2.000000
 -0.016216  0.065740  0.000000      2.000000
  0.000627  0.082331  0.000000      2.000000
  0.017344  0.082457  0.000000      2.000000
  0.034061  0.082582  0.000000      2.000000
  0.050778  0.082707  0.000000      2.000000
  0.067495  0.082833  0.000000      2.000000
  0.084212  0.082958  0.000000      2.000000
  0.100929  0.083084  0.000000      2.000000
  0.117646  0.083209  0.000000      2.000000
  0.134363  0.083334  0.000000      2.000000
 -0.133109  0.081328  0.000000      2.000000
 -0.116392  0.081454  0.000000      2.000000
 -0.099675  0.081579  0.000000      2.000000
 -0.082958  0.081704  0.000000      2.000000
 -0.066241  0.081830  0.000000      2.000000
 -0.049524  0.081955  0.000000      2.000000
 -0.032807  0.082081  0.000000      2.000000
 -0.016090  0.082206  0.000000      2.000000
  0.000752  0.098798  0.000000      2.000000
  0.017469  0.098923  0.000000      2.000000
  0.034186  0.099048  0.000000      2.000000
  0.050903  0.099174  0.000000      2.000000
  0.067620  0.099299  0.000000      2.000000
  0.084337  0.099424  0.000000      2.000000
  0.101054  0.099550  0.000000      2.000000
  0.117771  0.099675  0.000000      2.000000
  0.134488  0.099801  0.000000      2.000000
 -0.132984  0.097795  0.000000      2.000000
 -0.116267  0.097920  0.000000      2.000000
 -0.099550  0.098045  0.000000      2.000000
 -0.082833  0.098171  0.000000      2.000000
 -0.066116  0.098296  0.000000      2.000000
 -0.049399  0.098421  0.000000      2.000000
 -0.032682  0.098547  0.000000      2.000000
 -0.015965  0.098672  0.000000      2.000000
  0.000878  0.115264  0.000000      2.000000
  0.017595  0.115389  0.000000      2.000000
  0.034312  0.115515  0.000000      2.000000
  0.051029  0.115640  0.000000      2.000000
  0.067746  0.115765  0.000000      2.000000
  0.084463  0.115891  0.000000      2.000000
  0.101180  0.116016  0.000000      2.000000
  0.117897  0.116141  0.000000      2.000000
  0.134614  0.116267  0.000000      2.000000
 -0.132859  0.114261  0.000000      2.000000
 -0.116142  0.114386  0.000000      2.000000
 -0.099425  0.114512  0.000000      2.000000
 -0.082707  0.114637  0.000000      2.000000
 -0.065990  0.114762  0.000000      2.000000
 -0.049273  0.114888  0.000000      2.000000
 -0.032556  0.115013  0.000000      2.000000
 -0.015839  0.115138  0.000000      2.000000
  0.001003  0.131730  0.000000      2.000000
  0.017720  0.131856  0.000000      2.000000
  0.034437  0.131981  0.000000      2.000000
  0.051154  0.132106  0.000000      2.000000
  0.067871  0.132232  0.000000      2.000000
  0.084588  0.132357  0.000000      2.000000
  0.101305  0.132482  0.000000      2.000000
  0.118022  0.132608  0.000000      2.000000
  0.134739  0.132733  0.000000      2.000000
 -0.132733  0.130727  0.000000      2.000000
 -0.116016  0.130852  0.000000      2.000000
 -0.099299  0.130978  0.000000      2.000000
 -0.082582  0.131103  0.000000      2.000000
 -0.065865  0.131229  0.000000      2.000000
 -0.049148  0.131354  0.000000      2.000000
 -0.032431  0.131479  0.000000      2.000000
 -0.015714  0.131605  0.000000      2.000000
  0.000000  0.000000  0.016465      2.000000
  0.016717  0.000125  0.016465      4.000000
  0.033434  0.000251  0.016465      4.000000
  0.050151  0.000376  0.016465      4.000000
  0.066868  0.000502  0.016465      4.000000
  0.083585  0.000627  0.016465      4.000000
  0.100302  0.000752  0.016465      4.000000
  0.117019  0.000878  0.016465      4.000000
  0.133736  0.001003  0.016465      4.000000
  0.000125  0.016466  0.016465      4.000000
  0.016842  0.016592  0.016465      4.000000
  0.033559  0.016717  0.016465      4.000000
  0.050276  0.016842  0.016465      4.000000
  0.066993  0.016968  0.016465      4.000000
  0.083710  0.017093  0.016465      4.000000
  0.100428  0.017219  0.016465      4.000000
  0.117145  0.017344  0.016465      4.000000
  0.133862  0.017469  0.016465      4.000000
 -0.133611  0.015463  0.016465      4.000000
 -0.116894  0.015589  0.016465      4.000000
 -0.100177  0.015714  0.016465      4.000000
[...]
      1      -7.2570      2.00000
      2      -6.8631      2.00000
      3      -6.7722      2.00000
      4      -6.4098      2.00000
      5      -2.0000      2.00000
      6      -1.5632      2.00000
      7      -1.4636      2.00000
      8      -1.0002      2.00000
      9       4.9563      2.00000
     10       5.1188      2.00000
     11       5.2664      2.00000
     12       5.4890      2.00000
     13       6.5919      2.00000
     14       6.6775      2.00000
     15       6.7816      2.00000
     16       6.9722      2.00000
     17      17.7005      0.00000
     18      17.9505      0.00000
     19      18.0204      0.00000
     20      18.0340      0.00000
     21      18.8461      0.00000
     22      18.8911      0.00000
     23      18.9366      0.00000
     24      19.5167      0.00000

 k-point  1294 :       0.2941    0.4706    0.4706
  band No.  band energies     occupation 
      1      -6.9925      2.00000
      2      -6.6440      2.00000
      3      -6.5258      2.00000
      4      -6.2282      2.00000
      5      -2.6367      2.00000
      6      -2.2325      2.00000
      7      -2.1547      2.00000
      8      -1.7045      2.00000
      9       5.7066      2.00000
     10       5.8184      2.00000
     11       5.9578      2.00000
     12       6.1457      2.00000
     13       6.6833      2.00000
     14       6.7148      2.00000
     15       6.8392      2.00000
     16       6.9604      2.00000
     17      17.8602      0.00000
     18      18.0676      0.00000
     19      18.1019      0.00000
     20      18.1532      0.00000
     21      18.6160      0.00000
     22      18.6391      0.00000
     23      18.6604      0.00000
     24      19.1604      0.00000

 k-point  1295 :       0.3529    0.4706    0.4706
  band No.  band energies     occupation 
      1      -6.6852      2.00000
      2      -6.4017      2.00000
      3      -6.2522      2.00000
      4      -6.0573      2.00000
      5      -3.1542      2.00000
      6      -2.8171      2.00000
      7      -2.7666      2.00000
      8      -2.3459      2.00000
      9       6.3512      2.00000
     10       6.3930      2.00000
     11       6.5230      2.00000
     12       6.6681      2.00000
     13       6.7568      2.00000
     14       6.7781      2.00000
     15       6.8969      2.00000
     16       6.9397      2.00000
     17      18.0165      0.00000
     18      18.1389      0.00000
     19      18.1790      0.00000
     20      18.2717      0.00000
     21      18.4134      0.00000
     22      18.4584      0.00000
     23      18.5015      0.00000
     24      18.8458      0.00000

 k-point  1296 :       0.4118    0.4706    0.4706
  band No.  band energies     occupation 
      1      -6.3522      2.00000
      2      -6.1715      2.00000
      3      -5.9870      2.00000
      4      -5.9613      2.00000
      5      -3.4843      2.00000
      6      -3.2777      2.00000
      7      -3.2599      2.00000
      8      -2.9025      2.00000
      9       6.7188      2.00000
     10       6.8418      2.00000
     11       6.8606      2.00000
     12       6.8768      2.00000
     13       6.8795      2.00000
     14       6.9022      2.00000
     15       7.0100      2.00000
     16       7.0165      2.00000
     17      18.1362      0.00000
     18      18.1382      0.00000
     19      18.2271      0.00000
     20      18.2658      0.00000
     21      18.3441      0.00000
     22      18.4404      0.00000
     23      18.4455      0.00000
     24      18.6124      0.00000

 k-point  1297 :       0.4706    0.4706    0.4706
  band No.  band energies     occupation 
      1      -6.0312      2.00000
      2      -6.0186      2.00000
      3      -6.0152      2.00000
      4      -5.8047      2.00000
      5      -3.5573      2.00000
      6      -3.5503      2.00000
      7      -3.5470      2.00000
      8      -3.3347      2.00000
      9       6.7622      2.00000
     10       6.8556      2.00000
     11       6.9177      2.00000
     12       6.9472      2.00000
     13       7.0744      2.00000
     14       7.1463      2.00000
     15       7.1648      2.00000
     16       7.1913      2.00000
     17      18.1295      0.00000
     18      18.1807      0.00000
     19      18.1913      0.00000
     20      18.2083      0.00000
     21      18.4217      0.00000
     22      18.4532      0.00000
     23      18.5072      0.00000
     24      18.5193      0.00000

 k-point  1298 :      -0.4706    0.4706    0.4706
  band No.  band energies     occupation 
      1      -6.2227      2.00000
      2      -6.0171      2.00000
      3      -5.8030      2.00000
      4      -5.7993      2.00000
      5      -3.5639      2.00000
      6      -3.5604      2.00000
      7      -3.5498      2.00000
      8      -3.3474      2.00000
      9       6.7646      2.00000
     10       6.7938      2.00000
     11       6.9198      2.00000
     12       7.0111      2.00000
     13       7.0482      2.00000
     14       7.0744      2.00000
     15       7.1915      2.00000
     16       7.2636      2.00000
     17      18.1124      0.00000
     18      18.1535      0.00000
     19      18.1643      0.00000
     20      18.1840      0.00000
     21      18.4732      0.00000
     22      18.4928      0.00000
     23      18.5117      0.00000
     24      18.5690      0.00000

 k-point  1299 :      -0.4118    0.4706    0.4706
  band No.  band energies     occupation 
      1      -6.5114      2.00000
      2      -6.1680      2.00000
      3      -5.9828      2.00000
      4      -5.7517      2.00000
      5      -3.4944      2.00000
      6      -3.2849      2.00000
      7      -3.2677      2.00000
      8      -2.9480      2.00000
      9       6.7075      2.00000
     10       6.7409      2.00000
     11       6.7442      2.00000
     12       6.8644      2.00000
     13       6.8822      2.00000
     14       6.9947      2.00000
     15       7.0540      2.00000
     16       7.1401      2.00000
     17      18.0433      0.00000
     18      18.1135      0.00000
     19      18.1721      0.00000
     20      18.1761      0.00000
     21      18.4942      0.00000
     22      18.5687      0.00000
     23      18.6039      0.00000
     24      18.6100      0.00000

 k-point  1300 :      -0.3529    0.4706    0.4706
  band No.  band energies     occupation 
      1      -6.8147      2.00000
      2      -6.3974      2.00000
      3      -6.2473      2.00000
      4      -5.8814      2.00000
      5      -3.1345      2.00000
      6      -2.8274      2.00000
      7      -2.7776      2.00000
      8      -2.4198      2.00000
      9       6.2218      2.00000
     10       6.4234      2.00000
     11       6.5518      2.00000
     12       6.6459      2.00000
     13       6.7369      2.00000
     14       6.8028      2.00000
     15       6.8776      2.00000
     16       7.0809      2.00000
     17      17.9221      0.00000
     18      18.0661      0.00000
     19      18.1493      0.00000
     20      18.1996      0.00000
     21      18.5174      0.00000
     22      18.6631      0.00000
     23      18.6882      0.00000
     24      18.8460      0.00000

 k-point  1301 :      -0.2941    0.4706    0.4706
  band No.  band energies     occupation 
      1      -7.0962      2.00000
      2      -6.6399      2.00000
      3      -6.5212      2.00000
      4      -6.0900      2.00000
      5      -2.5848      2.00000
      6      -2.2449      2.00000
      7      -2.1677      2.00000
      8      -1.8018      2.00000
      9       5.5695      2.00000
     10       5.8450      2.00000
     11       5.9846      2.00000
     12       6.2917      2.00000
     13       6.5678      2.00000
     14       6.7010      2.00000
     15       6.8239      2.00000
     16       7.0865      2.00000
     17      17.7769      0.00000
     18      17.9955      0.00000
     19      18.0786      0.00000
     20      18.1775      0.00000
     21      18.6324      0.00000
     22      18.8404      0.00000
     23      18.8636      0.00000
     24      19.1541      0.00000

 k-point  1302 :      -0.2353    0.4706    0.4706
  band No.  band energies     occupation 
      1      -7.3376      2.00000
      2      -6.8596      2.00000
      3      -6.7683      2.00000
      4      -6.3050      2.00000
      5      -1.9219      2.00000
      6      -1.5774      2.00000
      7      -1.4784      2.00000
      8      -1.1165      2.00000
      9       4.8134      2.00000
     10       5.1445      2.00000
     11       5.2928      2.00000
     12       5.6447      2.00000
     13       6.4963      2.00000
     14       6.6664      2.00000
     15       6.7683      2.00000
     16       7.0784      2.00000
     17      17.6322      0.00000
     18      17.9081      0.00000
     19      17.9794      0.00000
     20      18.1027      0.00000
     21      18.8367      0.00000
     22      19.0913      0.00000
     23      19.1152      0.00000
     24      19.5038      0.00000

 k-point  1303 :      -0.1765    0.4706    0.4706
  band No.  band energies     occupation 
      1      -7.5293      2.00000
      2      -7.0387      2.00000
      3      -6.9721      2.00000
      4      -6.4920      2.00000
      5      -1.1871      2.00000
      6      -0.8491      2.00000
      7      -0.7335      2.00000
      8      -0.3800      2.00000
      9       3.9931      2.00000
     10       4.3655      2.00000
     11       4.5185      2.00000
     12       4.9044      2.00000
     13       6.4369      2.00000
     14       6.6366      2.00000
     15       6.7147      2.00000
     16       7.0613      2.00000
     17      17.5059      0.00000
     18      17.8220      0.00000
     19      17.8774      0.00000
     20      18.0146      0.00000
     21      19.0761      0.00000
     22      19.3740      0.00000
     23      19.3959      0.00000
     24      19.8579      0.00000

 k-point  1304 :      -0.1176    0.4706    0.4706
  band No.  band energies     occupation 
      1      -7.6662      2.00000
      2      -7.1682      2.00000
      3      -7.1245      2.00000
      4      -6.6356      2.00000
      5      -0.4107      2.00000
      6      -0.0819      2.00000
      7       0.0442      2.00000
      8       0.3900      2.00000
      9       3.1479      2.00000
     10       3.5500      2.00000
     11       3.7017      2.00000
     12       4.1123      2.00000
     13       6.3945      2.00000
     14       6.6161      2.00000
     15       6.6686      2.00000
     16       7.0406      2.00000
     17      17.4103      0.00000
     18      17.7532      0.00000
     19      17.7911      0.00000
     20      17.9366      0.00000
     21      19.2989      0.00000
     22      19.6336      0.00000
     23      19.6494      0.00000
     24      20.1703      0.00000

 k-point  1305 :      -0.0588    0.4706    0.4706
  band No.  band energies     occupation 
      1      -7.7456      2.00000
      2      -7.2434      2.00000
      3      -7.2217      2.00000
      4      -6.7287      2.00000
      5       0.3524      2.00000
      6       0.6832      2.00000
      7       0.8039      2.00000
      8       1.1547      2.00000
      9       2.3424      2.00000
     10       2.7636      2.00000
     11       2.8976      2.00000
     12       3.3247      2.00000
     13       6.3727      2.00000
     14       6.6085      2.00000
     15       6.6343      2.00000
     16       7.0203      2.00000
     17      17.3535      0.00000
     18      17.7121      0.00000
     19      17.7321      0.00000
     20      17.8816      0.00000
     21      19.4576      0.00000
     22      19.8111      0.00000
     23      19.8156      0.00000
     24      20.3904      0.00000


--------------------------------------------------------------------------------------------------------


 soft charge-density along one line, spin component           1
         0         1         2         3         4         5         6         7         8         9
 total charge-density along one line
 
 pseudopotential strength for first ion, spin component:           1
  9.425  12.516  -0.000   0.000  -0.000   0.000  -0.000   0.000
 12.516  16.618  -0.000   0.000  -0.000   0.000  -0.000   0.000
 -0.000  -0.000  -3.653  -0.000  -0.000   7.155   0.000  -0.000
  0.000   0.000  -0.000  -3.653  -0.000   0.000   7.155   0.000
 -0.000  -0.000  -0.000  -0.000  -3.653  -0.000   0.000   7.154
  0.000   0.000   7.155   0.000  -0.000 -16.107  -0.000   0.000
 -0.000  -0.000   0.000   7.155   0.000  -0.000 -16.107  -0.000
  0.000   0.000  -0.000   0.000   7.154   0.000  -0.000 -16.106
 total augmentation occupancy for first ion, spin component:           1
  7.544  -3.345   0.000   0.035  -0.000   0.000   0.006   0.000
 -3.345   1.568   0.000  -0.020   0.000   0.000  -0.003   0.000
  0.000   0.000   1.577  -0.000   0.014   0.131  -0.000   0.001
  0.035  -0.020   0.000   1.577   0.000  -0.000   0.131  -0.000
 -0.000  -0.000   0.014   0.000   1.577   0.001   0.000   0.130
  0.000  -0.000   0.131   0.000   0.001   0.013   0.000   0.000
  0.006  -0.003   0.000   0.131   0.000   0.000   0.013   0.000
  0.000  -0.000   0.001   0.000   0.130   0.000  -0.000   0.012


------------------------ aborting loop because EDIFF is reached ----------------------------------------


    CHARGE:  cpu time      0.0327: real time      0.0328
    FORLOC:  cpu time      0.0006: real time      0.0006
    FORNL :  cpu time      0.6026: real time      0.6043
    STRESS:  cpu time      1.4223: real time      1.4258
    FORCOR:  cpu time      0.0049: real time      0.0052
    FORHAR:  cpu time      0.0014: real time      0.0014
    MIXING:  cpu time      0.0009: real time      0.0009
    OFIELD:  cpu time      0.0007: real time      0.0009

  FORCE on cell =-STRESS in cart. coord.  units (eV):
  Direction    XX          YY          ZZ          XY          YZ          ZX
  --------------------------------------------------------------------------------------
  Alpha Z   117.06217   117.06217   117.06217
  Ewald    -471.99652  -462.31400  -462.31337     7.92522     0.00000     0.00000
  Hartree    33.66796    35.70247    35.67562     2.02537    -0.00000    -0.00000
  E(xc)    -122.08503  -122.01606  -122.01613     0.00401     0.00000     0.00000
  Local     -36.05911   -46.98585   -46.93929    -9.14520     0.00000    -0.00000
  n-local   -29.63494   -29.15915   -29.17179    -0.27641     0.62316     0.01865
  augment    -2.93612    -2.94307    -2.94324    -0.00185     0.00000     0.00000
  Kinetic   516.58824   511.36865   511.30532     2.04811    -4.95920    -0.18328
  Fock        0.00000     0.00000     0.00000     0.00000     0.00000     0.00000
  -------------------------------------------------------------------------------------
  Total       4.60665     0.71517     0.65929     2.57925     0.00000     0.00000
  in kB     164.33962    25.51319    23.51977    92.01324     0.00000     0.00000
  external pressure =       71.12 kB  Pullay stress =        0.00 kB


 VOLUME and BASIS-vectors are now :
 -----------------------------------------------------------------------------
  energy-cutoff  :      520.00
  volume of cell :       44.91
      direct lattice vectors                 reciprocal lattice vectors
     3.518981011 -0.026794000  0.000000000     0.284189402  0.002131399  0.000000000
    -0.026794000  3.572570011  0.000000000     0.002131399  0.279926525  0.000000000
     0.000000000  0.000000000  3.572570011     0.000000000  0.000000000  0.279910540

  length of vectors
     3.519083016  3.572670486  3.572570011     0.284197394  0.279934639  0.279910540


 FORCES acting on ions
    electron-ion (+dipol)            ewald-force                    non-local-force                 convergence-correction
 -----------------------------------------------------------------------------------------------
   0.199E-10 0.796E-11 0.270E+01   0.426E-13 0.711E-14 -.277E+01   -.304E-16 -.159E-17 0.122E-01   -.547E-13 -.369E-13 0.202E-04
   -.199E-10 -.812E-11 -.270E+01   0.145E-13 -.582E-15 0.277E+01   -.519E-16 -.159E-17 -.122E-01   0.512E-13 0.360E-13 -.202E-04
   0.199E-10 0.798E-11 0.270E+01   0.284E-13 -.711E-14 -.277E+01   -.185E-16 -.221E-17 0.122E-01   -.541E-13 -.352E-13 0.202E-04
   -.199E-10 -.811E-11 -.270E+01   -.404E-15 -.143E-13 0.277E+01   0.176E-16 -.146E-17 -.122E-01   0.517E-13 0.310E-13 -.202E-04
   0.199E-10 0.796E-11 0.270E+01   0.000E+00 0.142E-13 -.277E+01   -.834E-17 0.311E-18 0.122E-01   -.222E-13 -.370E-13 0.202E-04
   -.199E-10 -.739E-11 -.270E+01   -.284E-13 0.927E-14 0.277E+01   0.846E-18 0.194E-17 -.122E-01   0.266E-13 0.355E-13 -.202E-04
   0.199E-10 0.833E-11 0.270E+01   -.142E-13 0.000E+00 -.277E+01   0.474E-16 -.687E-18 0.122E-01   -.203E-13 -.347E-13 0.202E-04
   -.199E-10 -.775E-11 -.270E+01   -.426E-13 -.708E-14 0.277E+01   0.518E-16 0.478E-18 -.122E-01   0.262E-13 0.294E-13 -.202E-04
 -----------------------------------------------------------------------------------------------
   0.118E-12 0.849E-12 -.662E-12   0.126E-16 0.157E-14 0.444E-15   0.838E-17 -.482E-17 -.139E-16   0.428E-14 -.119E-13 -.105E-13
 
 
 POSITION                                       TOTAL-FORCE (eV/Angst)
 -----------------------------------------------------------------------------------
      0.00000      0.00000      1.78629        -0.000000      0.000000     -0.062084
      0.87305      0.88644      2.67943        -0.000000     -0.000000      0.062084
     -0.01340      1.78629      0.00000         0.000000      0.000000     -0.062084
      0.85965      2.67273      0.89314         0.000000      0.000000      0.062084
      1.75949     -0.01340      0.00000        -0.000000     -0.000000     -0.062084
      2.63254      0.87305      0.89314         0.000000     -0.000000      0.062084
      1.74609      1.77289      1.78629         0.000000      0.000000     -0.062084
      2.61914      2.65933      2.67943         0.000000     -0.000000      0.062084
 -----------------------------------------------------------------------------------
    total drift:                                0.000000      0.000000     -0.000000


--------------------------------------------------------------------------------------------------------



  FREE ENERGIE OF THE ION-ELECTRON SYSTEM (eV)
  ---------------------------------------------------
  free  energy   TOTEN  =       -72.69451888 eV

  energy  without entropy=      -72.69451888  energy(sigma->0) =      -72.69451888
 


--------------------------------------------------------------------------------------------------------


    POTLOK:  cpu time      0.0977: real time      0.0980


--------------------------------------------------------------------------------------------------------


     LOOP+:  cpu time     19.7465: real time     20.0875
    4ORBIT:  cpu time      0.0000: real time      0.0000
 BZINTS: Fermi energy:   10.069543;   32.000000 electrons
         Band energy: 0.269780E+02;  BLOECHL correction:    0.000000

 total amount of memory used by VASP MPI-rank0    86736. kBytes
=======================================================================

   base      :      30000. kBytes
   nonlr-proj:        576. kBytes
   fftplans  :        871. kBytes
   grid      :        643. kBytes
   one-center:         24. kBytes
   wavefun   :      54622. kBytes
 
  
  
 General timing and accounting informations for this job:
 ========================================================
  
                  Total CPU time used (sec):       38.056
                            User time (sec):       26.143
                          System time (sec):       11.913
                         Elapsed time (sec):       39.317
  
                   Maximum memory used (kb):      247828.
                   Average memory used (kb):          N/A
  
                          Minor page faults:        47212
                          Major page faults:            0
                 Voluntary context switches:         6296
