<?xml version="1.0" encoding="ISO-8859-1"?>
<modeling>
 <generator>
  <i name="program" type="string">vasp </i>
  <i name="version" type="string">6.4.3  </i>
  <i name="subversion" type="string">19Mar24 (build Oct 21 2024 22:36:34) complex                          parallel </i>
  <i name="platform" type="string">LinuxIFC </i>
  <i name="date" type="string">2024 12 26 </i>
  <i name="time" type="string">00:34:19 </i>
 </generator>
 <incar>
  <i type="string" name="SYSTEM">C8</i>
  <i type="int" name="ISTART">     0</i>
  <i type="string" name="PREC">Normal</i>
  <i type="string" name="ALGO">Fast</i>
  <i type="logical" name="ADDGRID"> T  </i>
  <i type="int" name="ICHARG">     2</i>
  <i type="int" name="NELM">    60</i>
  <i type="int" name="NELMIN">     8</i>
  <i type="int" name="IBRION">    -1</i>
  <i name="EDIFF">      0.00000100</i>
  <i type="int" name="NSW">     0</i>
  <i type="int" name="ISIF">     2</i>
  <i name="ENCUT">    520.00000000</i>
  <i type="string" name="LREAL">Auto</i>
  <i type="int" name="ISMEAR">    -5</i>
  <i type="logical" name="LWAVE"> F  </i>
  <i type="logical" name="LCHARG"> F  </i>
 </incar>
 <primitive_cell>
  <structure name="primitive_cell" >
   <crystal>
    <varray name="basis" >
     <v>      -1.75949051       0.01339700      -1.78628501 </v>
     <v>      -1.75949051       0.01339700       1.78628501 </v>
     <v>       1.74609351       1.77288801       0.00000000 </v>
    </varray>
    <i name="volume">     11.22777310 </i>
    <varray name="rec_basis" >
     <v>      -0.28205800       0.27779513      -0.27991054 </v>
     <v>      -0.28205800       0.27779513       0.27991054 </v>
     <v>       0.00426280       0.55985305       0.00000000 </v>
    </varray>
   </crystal>
   <varray name="positions" >
    <v>       0.50000000       0.50000000       0.00000000 </v>
    <v>       0.25000000       0.75000000       0.50000000 </v>
   </varray>
  </structure>
  <varray name="primitive_index" >
   <v type="int" >        1 </v>
   <v type="int" >        2 </v>
  </varray>
 </primitive_cell>
 <kpoints>
  <generation param="Gamma">
   <v type="int" name="divisions">      17       17       17 </v>
   <v name="usershift">      0.00000000       0.00000000       0.00000000 </v>
   <v name="genvec1">      0.05882353       0.00000000       0.00000000 </v>
   <v name="genvec2">     -0.00000000       0.05882353       0.00000000 </v>
   <v name="genvec3">      0.00000000       0.00000000       0.05882353 </v>
   <v name="shift">      0.00000000       0.00000000       0.00000000 </v>
  </generation>
  <varray name="kpointlist" >
   <v>       0.00000000       0.00000000       0.00000000 </v>
   <v>       0.05882353      -0.00000000       0.00000000 </v>
   <v>       0.11764706       0.00000000       0.00000000 </v>
   <v>       0.17647059      -0.00000000       0.00000000 </v>
   <v>       0.23529412       0.00000000       0.00000000 </v>
   <v>       0.29411765       0.00000000       0.00000000 </v>
   <v>       0.35294118      -0.00000000       0.00000000 </v>
   <v>       0.41176471      -0.00000000       0.00000000 </v>
   <v>       0.47058824       0.00000000       0.00000000 </v>
   <v>      -0.00000000       0.05882353       0.00000000 </v>
   <v>       0.05882353       0.05882353       0.00000000 </v>
   <v>       0.11764706       0.05882353       0.00000000 </v>
   <v>       0.17647059       0.05882353       0.00000000 </v>
   <v>       0.23529412       0.05882353       0.00000000 </v>
   <v>       0.29411765       0.05882353       0.00000000 </v>
   <v>       0.35294118       0.05882353       0.00000000 </v>
   <v>       0.41176471       0.05882353       0.00000000 </v>
   <v>       0.47058824       0.05882353       0.00000000 </v>
   <v>      -0.47058824       0.05882353       0.00000000 </v>
   <v>      -0.41176471       0.05882353       0.00000000 </v>
   <v>      -0.35294118       0.05882353       0.00000000 </v>
   <v>      -0.29411765       0.05882353       0.00000000 </v>
   <v>      -0.23529412       0.05882353       0.00000000 </v>
   <v>      -0.17647059       0.05882353       0.00000000 </v>
   <v>      -0.11764706       0.05882353       0.00000000 </v>
   <v>      -0.05882353       0.05882353       0.00000000 </v>
   <v>       0.00000000       0.11764706       0.00000000 </v>
   <v>       0.05882353       0.11764706       0.00000000 </v>
   <v>       0.11764706       0.11764706       0.00000000 </v>
   <v>       0.17647059       0.11764706       0.00000000 </v>
   <v>       0.23529412       0.11764706       0.00000000 </v>
   <v>       0.29411765       0.11764706       0.00000000 </v>
   <v>       0.35294118       0.11764706       0.00000000 </v>
   <v>       0.41176471       0.11764706       0.00000000 </v>
   <v>       0.47058824       0.11764706       0.00000000 </v>
   <v>      -0.47058824       0.11764706       0.00000000 </v>
   <v>      -0.41176471       0.11764706       0.00000000 </v>
   <v>      -0.35294118       0.11764706       0.00000000 </v>
   <v>      -0.29411765       0.11764706       0.00000000 </v>
   <v>      -0.23529412       0.11764706       0.00000000 </v>
   <v>      -0.17647059       0.11764706       0.00000000 </v>
   <v>      -0.11764706       0.11764706       0.00000000 </v>
   <v>      -0.05882353       0.11764706       0.00000000 </v>
   <v>      -0.00000000       0.17647059       0.00000000 </v>
   <v>       0.05882353       0.17647059       0.00000000 </v>
   <v>       0.11764706       0.17647059       0.00000000 </v>
   <v>       0.17647059       0.17647059       0.00000000 </v>
   <v>       0.23529412       0.17647059       0.00000000 </v>
   <v>       0.29411765       0.17647059       0.00000000 </v>
   <v>       0.35294118       0.17647059       0.00000000 </v>
   <v>       0.41176471       0.17647059       0.00000000 </v>
   <v>       0.47058824       0.17647059       0.00000000 </v>
   <v>      -0.47058824       0.17647059       0.00000000 </v>
   <v>      -0.41176471       0.17647059       0.00000000 </v>
   <v>      -0.35294118       0.17647059       0.00000000 </v>
   <v>      -0.29411765       0.17647059       0.00000000 </v>
   <v>      -0.23529412       0.17647059       0.00000000 </v>
   <v>      -0.17647059       0.17647059       0.00000000 </v>
   <v>      -0.11764706       0.17647059       0.00000000 </v>
   <v>      -0.05882353       0.17647059       0.00000000 </v>
   <v>       0.00000000       0.23529412       0.00000000 </v>
   <v>       0.05882353       0.23529412       0.00000000 </v>
   <v>       0.11764706       0.23529412       0.00000000 </v>
   <v>       0.17647059       0.23529412       0.00000000 </v>
   <v>       0.23529412       0.23529412       0.00000000 </v>
   <v>       0.29411765       0.23529412       0.00000000 </v>
   <v>       0.35294118       0.23529412       0.00000000 </v>
   <v>       0.41176471       0.23529412       0.00000000 </v>
   <v>       0.47058824       0.23529412       0.00000000 </v>
   <v>      -0.47058824       0.23529412       0.00000000 </v>
   <v>      -0.41176471       0.23529412       0.00000000 </v>
   <v>      -0.35294118       0.23529412       0.00000000 </v>
   <v>      -0.29411765       0.23529412       0.00000000 </v>
   <v>      -0.23529412       0.23529412       0.00000000 </v>
   <v>      -0.17647059       0.23529412       0.00000000 </v>
   <v>      -0.11764706       0.23529412       0.00000000 </v>
   <v>      -0.05882353       0.23529412       0.00000000 </v>
   <v>       0.00000000       0.29411765       0.00000000 </v>
   <v>       0.05882353       0.29411765       0.00000000 </v>
   <v>       0.11764706       0.29411765       0.00000000 </v>
   <v>       0.17647059       0.29411765       0.00000000 </v>
   <v>       0.23529412       0.29411765       0.00000000 </v>
   <v>       0.29411765       0.29411765       0.00000000 </v>
   <v>       0.35294118       0.29411765       0.00000000 </v>
   <v>       0.41176471       0.29411765       0.00000000 </v>
   <v>       0.47058824       0.29411765       0.00000000 </v>
   <v>      -0.47058824       0.29411765       0.00000000 </v>
   <v>      -0.41176471       0.29411765       0.00000000 </v>
   <v>      -0.35294118       0.29411765       0.00000000 </v>
   <v>      -0.29411765       0.29411765       0.00000000 </v>
   <v>      -0.23529412       0.29411765       0.00000000 </v>
   <v>      -0.17647059       0.29411765       0.00000000 </v>
   <v>      -0.11764706       0.29411765       0.00000000 </v>
   <v>      -0.05882353       0.29411765       0.00000000 </v>
   <v>      -0.00000000       0.35294118       0.00000000 </v>
   <v>       0.05882353       0.35294118       0.00000000 </v>
   <v>       0.11764706       0.35294118       0.00000000 </v>
   <v>       0.17647059       0.35294118       0.00000000 </v>
   <v>       0.23529412       0.35294118       0.00000000 </v>
   <v>       0.29411765       0.35294118       0.00000000 </v>
   <v>       0.35294118       0.35294118       0.00000000 </v>
   <v>       0.41176471       0.35294118       0.00000000 </v>
   <v>       0.47058824       0.35294118       0.00000000 </v>
   <v>      -0.47058824       0.35294118       0.00000000 </v>
   <v>      -0.41176471       0.35294118       0.00000000 </v>
   <v>      -0.35294118       0.35294118       0.00000000 </v>
   <v>      -0.29411765       0.35294118       0.00000000 </v>
   <v>      -0.23529412       0.35294118       0.00000000 </v>
   <v>      -0.17647059       0.35294118       0.00000000 </v>
   <v>      -0.11764706       0.35294118       0.00000000 </v>
   <v>      -0.05882353       0.35294118       0.00000000 </v>
   <v>      -0.00000000       0.41176471       0.00000000 </v>
   <v>       0.05882353       0.41176471       0.00000000 </v>
   <v>       0.11764706       0.41176471       0.00000000 </v>
   <v>       0.17647059       0.41176471       0.00000000 </v>
   <v>       0.23529412       0.41176471       0.00000000 </v>
   <v>       0.29411765       0.41176471       0.00000000 </v>
   <v>       0.35294118       0.41176471       0.00000000 </v>
   <v>       0.41176471       0.41176471       0.00000000 </v>
   <v>       0.47058824       0.41176471       0.00000000 </v>
   <v>      -0.47058824       0.41176471       0.00000000 </v>
   <v>      -0.41176471       0.41176471       0.00000000 </v>
   <v>      -0.35294118       0.41176471       0.00000000 </v>
   <v>      -0.29411765       0.41176471       0.00000000 </v>
   <v>      -0.23529412       0.41176471       0.00000000 </v>
   <v>      -0.17647059       0.41176471       0.00000000 </v>
   <v>      -0.11764706       0.41176471       0.00000000 </v>
   <v>      -0.05882353       0.41176471       0.00000000 </v>
   <v>       0.00000000       0.47058824       0.00000000 </v>
   <v>       0.05882353       0.47058824       0.00000000 </v>
   <v>       0.11764706       0.47058824       0.00000000 </v>
   <v>       0.17647059       0.47058824       0.00000000 </v>
   <v>       0.23529412       0.47058824       0.00000000 </v>
   <v>       0.29411765       0.47058824       0.00000000 </v>
   <v>       0.35294118       0.47058824       0.00000000 </v>
   <v>       0.41176471       0.47058824       0.00000000 </v>
   <v>       0.47058824       0.47058824       0.00000000 </v>
   <v>      -0.47058824       0.47058824       0.00000000 </v>
   <v>      -0.41176471       0.47058824       0.00000000 </v>
   <v>      -0.35294118       0.47058824       0.00000000 </v>
   <v>      -0.29411765       0.47058824       0.00000000 </v>
   <v>      -0.23529412       0.47058824       0.00000000 </v>
   <v>      -0.17647059       0.47058824       0.00000000 </v>
   <v>      -0.11764706       0.47058824       0.00000000 </v>
   <v>      -0.05882353       0.47058824       0.00000000 </v>
   <v>       0.00000000       0.00000000       0.05882353 </v>
   <v>       0.05882353      -0.00000000       0.05882353 </v>
   <v>       0.11764706       0.00000000       0.05882353 </v>
   <v>       0.17647059      -0.00000000       0.05882353 </v>
   <v>       0.23529412       0.00000000       0.05882353 </v>
   <v>       0.29411765       0.00000000       0.05882353 </v>
   <v>       0.35294118      -0.00000000       0.05882353 </v>
   <v>       0.41176471      -0.00000000       0.05882353 </v>
   <v>       0.47058824       0.00000000       0.05882353 </v>
   <v>      -0.00000000       0.05882353       0.05882353 </v>
   <v>       0.05882353       0.05882353       0.05882353 </v>
   <v>       0.11764706       0.05882353       0.05882353 </v>
   <v>       0.17647059       0.05882353       0.05882353 </v>
   <v>       0.23529412       0.05882353       0.05882353 </v>
   <v>       0.29411765       0.05882353       0.05882353 </v>
   <v>       0.35294118       0.05882353       0.05882353 </v>
   <v>       0.41176471       0.05882353       0.05882353 </v>
   <v>       0.47058824       0.05882353       0.05882353 </v>
   <v>      -0.47058824       0.05882353       0.05882353 </v>
   <v>      -0.41176471       0.05882353       0.05882353 </v>
   <v>      -0.35294118       0.05882353       0.05882353 </v>
   <v>      -0.29411765       0.05882353       0.05882353 </v>
   <v>      -0.23529412       0.05882353       0.05882353 </v>
   <v>      -0.17647059       0.05882353       0.05882353 </v>
   <v>      -0.11764706       0.05882353       0.05882353 </v>
   <v>      -0.05882353       0.05882353       0.05882353 </v>
   <v>       0.00000000       0.11764706       0.05882353 </v>
   <v>       0.05882353       0.11764706       0.05882353 </v>
   <v>       0.11764706       0.11764706       0.05882353 </v>
   <v>       0.17647059       0.11764706       0.05882353 </v>
   <v>       0.23529412       0.11764706       0.05882353 </v>
   <v>       0.29411765       0.11764706       0.05882353 </v>
   <v>       0.35294118       0.11764706       0.05882353 </v>
   <v>       0.41176471       0.11764706       0.05882353 </v>
   <v>       0.47058824       0.11764706       0.05882353 </v>
   <v>      -0.47058824       0.11764706       0.05882353 </v>
   <v>      -0.41176471       0.11764706       0.05882353 </v>
   <v>      -0.35294118       0.11764706       0.05882353 </v>
   <v>      -0.29411765       0.11764706       0.05882353 </v>
   <v>      -0.23529412       0.11764706       0.05882353 </v>
   <v>      -0.17647059       0.11764706       0.05882353 </v>
   <v>      -0.11764706       0.11764706       0.05882353 </v>
   <v>      -0.05882353       0.11764706       0.05882353 </v>
   <v>      -0.00000000       0.17647059       0.05882353 </v>
   <v>       0.05882353       0.17647059       0.05882353 </v>
   <v>       0.11764706       0.17647059       0.05882353 </v>
   <v>       0.17647059       0.17647059       0.05882353 </v>
   <v>       0.23529412       0.17647059       0.05882353 </v>
   <v>       0.29411765       0.17647059       0.05882353 </v>
   <v>       0.35294118       0.17647059       0.05882353 </v>
   <v>       0.41176471       0.17647059       0.05882353 </v>
   <v>       0.47058824       0.17647059       0.05882353 </v>
   <v>      -0.47058824       0.17647059       0.05882353 </v>
   <v>      -0.41176471       0.17647059       0.05882353 </v>
   <v>      -0.35294118       0.17647059       0.05882353 </v>
   <v>      -0.29411765       0.17647059       0.05882353 </v>
   <v>      -0.23529412       0.17647059       0.05882353 </v>
   <v>      -0.17647059       0.17647059       0.05882353 </v>
   <v>      -0.11764706       0.17647059       0.05882353 </v>
   <v>      -0.05882353       0.17647059       0.05882353 </v>
   <v>       0.00000000       0.23529412       0.05882353 </v>
   <v>       0.05882353       0.23529412       0.05882353 </v>
   <v>       0.11764706       0.23529412       0.05882353 </v>
   <v>       0.17647059       0.23529412       0.05882353 </v>
   <v>       0.23529412       0.23529412       0.05882353 </v>
   <v>       0.29411765       0.23529412       0.05882353 </v>
   <v>       0.35294118       0.23529412       0.05882353 </v>
   <v>       0.41176471       0.23529412       0.05882353 </v>
   <v>       0.47058824       0.23529412       0.05882353 </v>
   <v>      -0.47058824       0.23529412       0.05882353 </v>
   <v>      -0.41176471       0.23529412       0.05882353 </v>
   <v>      -0.35294118       0.23529412       0.05882353 </v>
   <v>      -0.29411765       0.23529412       0.05882353 </v>
   <v>      -0.23529412       0.23529412       0.05882353 </v>
   <v>      -0.17647059       0.23529412       0.05882353 </v>
   <v>      -0.11764706       0.23529412       0.05882353 </v>
   <v>      -0.05882353       0.23529412       0.05882353 </v>
   <v>       0.00000000       0.29411765       0.05882353 </v>
   <v>       0.05882353       0.29411765       0.05882353 </v>
   <v>       0.11764706       0.29411765       0.05882353 </v>
   <v>       0.17647059       0.29411765       0.05882353 </v>
   <v>       0.23529412       0.29411765       0.05882353 </v>
   <v>       0.29411765       0.29411765       0.05882353 </v>
   <v>       0.35294118       0.29411765       0.05882353 </v>
   <v>       0.41176471       0.29411765       0.05882353 </v>
   <v>       0.47058824       0.29411765       0.05882353 </v>
   <v>      -0.47058824       0.29411765       0.05882353 </v>
   <v>      -0.41176471       0.29411765       0.05882353 </v>
   <v>      -0.35294118       0.29411765       0.05882353 </v>
   <v>      -0.29411765       0.29411765       0.05882353 </v>
   <v>      -0.23529412       0.29411765       0.05882353 </v>
   <v>      -0.17647059       0.29411765       0.05882353 </v>
   <v>      -0.11764706       0.29411765       0.05882353 </v>
   <v>      -0.05882353       0.29411765       0.05882353 </v>
   <v>      -0.00000000       0.35294118       0.05882353 </v>
   <v>       0.05882353       0.35294118       0.05882353 </v>
   <v>       0.11764706       0.35294118       0.05882353 </v>
   <v>       0.17647059       0.35294118       0.05882353 </v>
   <v>       0.23529412       0.35294118       0.05882353 </v>
   <v>       0.29411765       0.35294118       0.05882353 </v>
   <v>       0.35294118       0.35294118       0.05882353 </v>
   <v>       0.41176471       0.35294118       0.05882353 </v>
   <v>       0.47058824       0.35294118       0.05882353 </v>
   <v>      -0.47058824       0.35294118       0.05882353 </v>
   <v>      -0.41176471       0.35294118       0.05882353 </v>
   <v>      -0.35294118       0.35294118       0.05882353 </v>
   <v>      -0.29411765       0.35294118       0.05882353 </v>
   <v>      -0.23529412       0.35294118       0.05882353 </v>
   <v>      -0.17647059       0.35294118       0.05882353 </v>
   <v>      -0.11764706       0.35294118       0.05882353 </v>
   <v>      -0.05882353       0.35294118       0.05882353 </v>
   <v>      -0.00000000       0.41176471       0.05882353 </v>
   <v>       0.05882353       0.41176471       0.05882353 </v>
   <v>       0.11764706       0.41176471       0.05882353 </v>
   <v>       0.17647059       0.41176471       0.05882353 </v>
   <v>       0.23529412       0.41176471       0.05882353 </v>
   <v>       0.29411765       0.41176471       0.05882353 </v>
   <v>       0.35294118       0.41176471       0.05882353 </v>
   <v>       0.41176471       0.41176471       0.05882353 </v>
   <v>       0.47058824       0.41176471       0.05882353 </v>
   <v>      -0.47058824       0.41176471       0.05882353 </v>
   <v>      -0.41176471       0.41176471       0.05882353 </v>
   <v>      -0.35294118       0.41176471       0.05882353 </v>
   <v>      -0.29411765       0.41176471       0.05882353 </v>
   <v>      -0.23529412       0.41176471       0.05882353 </v>
   <v>      -0.17647059       0.41176471       0.05882353 </v>
   <v>      -0.11764706       0.41176471       0.05882353 </v>
   <v>      -0.05882353       0.41176471       0.05882353 </v>
   <v>       0.00000000       0.47058824       0.05882353 </v>
   <v>       0.05882353       0.47058824       0.05882353 </v>
   <v>       0.11764706       0.47058824       0.05882353 </v>
   <v>       0.17647059       0.47058824       0.05882353 </v>
   <v>       0.23529412       0.47058824       0.05882353 </v>
   <v>       0.29411765       0.47058824       0.05882353 </v>
   <v>       0.35294118       0.47058824       0.05882353 </v>
   <v>       0.41176471       0.47058824       0.05882353 </v>
   <v>       0.47058824       0.47058824       0.05882353 </v>
   <v>      -0.47058824       0.47058824       0.05882353 </v>
   <v>      -0.41176471       0.47058824       0.05882353 </v>
   <v>      -0.35294118       0.47058824       0.05882353 </v>
   <v>      -0.29411765       0.47058824       0.05882353 </v>
   <v>      -0.23529412       0.47058824       0.05882353 </v>
   <v>      -0.17647059       0.47058824       0.05882353 </v>
   <v>      -0.11764706       0.47058824       0.05882353 </v>
   <v>      -0.05882353       0.47058824       0.05882353 </v>
   <v>       0.00000000       0.00000000       0.11764706 </v>
   <v>       0.05882353      -0.00000000       0.11764706 </v>
   <v>       0.11764706       0.00000000       0.11764706 </v>
   <v>       0.17647059      -0.00000000       0.11764706 </v>
   <v>       0.23529412       0.00000000       0.11764706 </v>
   <v>       0.29411765       0.00000000       0.11764706 </v>
   <v>       0.35294118      -0.00000000       0.11764706 </v>
   <v>       0.41176471      -0.00000000       0.11764706 </v>
   <v>       0.47058824       0.00000000       0.11764706 </v>
   <v>      -0.00000000       0.05882353       0.11764706 </v>
   <v>       0.05882353       0.05882353       0.11764706 </v>
   <v>       0.11764706       0.05882353       0.11764706 </v>
   <v>       0.17647059       0.05882353       0.11764706 </v>
   <v>       0.23529412       0.05882353       0.11764706 </v>
   <v>       0.29411765       0.05882353       0.11764706 </v>
   <v>       0.35294118       0.05882353       0.11764706 </v>
   <v>       0.41176471       0.05882353       0.11764706 </v>
   <v>       0.47058824       0.05882353       0.11764706 </v>
   <v>      -0.47058824       0.05882353       0.11764706 </v>
   <v>      -0.41176471       0.05882353       0.11764706 </v>
   <v>      -0.35294118       0.05882353       0.11764706 </v>
   <v>      -0.29411765       0.05882353       0.11764706 </v>
   <v>      -0.23529412       0.05882353       0.11764706 </v>
   <v>      -0.17647059       0.05882353       0.11764706 </v>
   <v>      -0.11764706       0.05882353       0.11764706 </v>
   <v>      -0.05882353       0.05882353       0.11764706 </v>
   <v>       0.00000000       0.11764706       0.11764706 </v>
   <v>       0.05882353       0.11764706       0.11764706 </v>
   <v>       0.11764706       0.11764706       0.11764706 </v>
   <v>       0.17647059       0.11764706       0.11764706 </v>
   <v>       0.23529412       0.11764706       0.11764706 </v>
   <v>       0.29411765       0.11764706       0.11764706 </v>
   <v>       0.35294118       0.11764706       0.11764706 </v>
   <v>       0.41176471       0.11764706       0.11764706 </v>
   <v>       0.47058824       0.11764706       0.11764706 </v>
   <v>      -0.47058824       0.11764706       0.11764706 </v>
   <v>      -0.41176471       0.11764706       0.11764706 </v>
   <v>      -0.35294118       0.11764706       0.11764706 </v>
   <v>      -0.29411765       0.11764706       0.11764706 </v>
   <v>      -0.23529412       0.11764706       0.11764706 </v>
   <v>      -0.17647059       0.11764706       0.11764706 </v>
   <v>      -0.11764706       0.11764706       0.11764706 </v>
   <v>      -0.05882353       0.11764706       0.11764706 </v>
   <v>      -0.00000000       0.17647059       0.11764706 </v>
   <v>       0.05882353       0.17647059       0.11764706 </v>
   <v>       0.11764706       0.17647059       0.11764706 </v>
   <v>       0.17647059       0.17647059       0.11764706 </v>
   <v>       0.23529412       0.17647059       0.11764706 </v>
   <v>       0.29411765       0.17647059       0.11764706 </v>
   <v>       0.35294118       0.17647059       0.11764706 </v>
   <v>       0.41176471       0.17647059       0.11764706 </v>
   <v>       0.47058824       0.17647059       0.11764706 </v>
   <v>      -0.47058824       0.17647059       0.11764706 </v>
   <v>      -0.41176471       0.17647059       0.11764706 </v>
   <v>      -0.35294118       0.17647059       0.11764706 </v>
   <v>      -0.29411765       0.17647059       0.11764706 </v>
   <v>      -0.23529412       0.17647059       0.11764706 </v>
   <v>      -0.17647059       0.17647059       0.11764706 </v>
   <v>      -0.11764706       0.17647059       0.11764706 </v>
   <v>      -0.05882353       0.17647059       0.11764706 </v>
   <v>       0.00000000       0.23529412       0.11764706 </v>
   <v>       0.05882353       0.23529412       0.11764706 </v>
   <v>       0.11764706       0.23529412       0.11764706 </v>
   <v>       0.17647059       0.23529412       0.11764706 </v>
   <v>       0.23529412       0.23529412       0.11764706 </v>
   <v>       0.29411765       0.23529412       0.11764706 </v>
   <v>       0.35294118       0.23529412       0.11764706 </v>
   <v>       0.41176471       0.23529412       0.11764706 </v>
   <v>       0.47058824       0.23529412       0.11764706 </v>
   <v>      -0.47058824       0.23529412       0.11764706 </v>
   <v>      -0.41176471       0.23529412       0.11764706 </v>
   <v>      -0.35294118       0.23529412       0.11764706 </v>
   <v>      -0.29411765       0.23529412       0.11764706 </v>
   <v>      -0.23529412       0.23529412       0.11764706 </v>
   <v>      -0.17647059       0.23529412       0.11764706 </v>
   <v>      -0.11764706       0.23529412       0.11764706 </v>
   <v>      -0.05882353       0.23529412       0.11764706 </v>
   <v>       0.00000000       0.29411765       0.11764706 </v>
   <v>       0.05882353       0.29411765       0.11764706 </v>
   <v>       0.11764706       0.29411765       0.11764706 </v>
   <v>       0.17647059       0.29411765       0.11764706 </v>
   <v>       0.23529412       0.29411765       0.11764706 </v>
   <v>       0.29411765       0.29411765       0.11764706 </v>
   <v>       0.35294118       0.29411765       0.11764706 </v>
   <v>       0.41176471       0.29411765       0.11764706 </v>
   <v>       0.47058824       0.29411765       0.11764706 </v>
   <v>      -0.47058824       0.29411765       0.11764706 </v>
   <v>      -0.41176471       0.29411765       0.11764706 </v>
   <v>      -0.35294118       0.29411765       0.11764706 </v>
   <v>      -0.29411765       0.29411765       0.11764706 </v>
   <v>      -0.23529412       0.29411765       0.11764706 </v>
   <v>      -0.17647059       0.29411765       0.11764706 </v>
   <v>      -0.11764706       0.29411765       0.11764706 </v>
   <v>      -0.05882353       0.29411765       0.11764706 </v>
   <v>      -0.00000000       0.35294118       0.11764706 </v>
   <v>       0.05882353       0.35294118       0.11764706 </v>
   <v>       0.11764706       0.35294118       0.11764706 </v>
   <v>       0.17647059       0.35294118       0.11764706 </v>
   <v>       0.23529412       0.35294118       0.11764706 </v>
   <v>       0.29411765       0.35294118       0.11764706 </v>
   <v>       0.35294118       0.35294118       0.11764706 </v>
   <v>       0.41176471       0.35294118       0.11764706 </v>
   <v>       0.47058824       0.35294118       0.11764706 </v>
   <v>      -0.47058824       0.35294118       0.11764706 </v>
   <v>      -0.41176471       0.35294118       0.11764706 </v>
   <v>      -0.35294118       0.35294118       0.11764706 </v>
   <v>      -0.29411765       0.35294118       0.11764706 </v>
   <v>      -0.23529412       0.35294118       0.11764706 </v>
   <v>      -0.17647059       0.35294118       0.11764706 </v>
   <v>      -0.11764706       0.35294118       0.11764706 </v>
   <v>      -0.05882353       0.35294118       0.11764706 </v>
   <v>      -0.00000000       0.41176471       0.11764706 </v>
   <v>       0.05882353       0.41176471       0.11764706 </v>
   <v>       0.11764706       0.41176471       0.11764706 </v>
   <v>       0.17647059       0.41176471       0.11764706 </v>
   <v>       0.23529412       0.41176471       0.11764706 </v>
   <v>       0.29411765       0.41176471       0.11764706 </v>
   <v>       0.35294118       0.41176471       0.11764706 </v>
   <v>       0.41176471       0.41176471       0.11764706 </v>
   <v>       0.47058824       0.41176471       0.11764706 </v>
   <v>      -0.47058824       0.41176471       0.11764706 </v>
   <v>      -0.41176471       0.41176471       0.11764706 </v>
   <v>      -0.35294118       0.41176471       0.11764706 </v>
   <v>      -0.29411765       0.41176471       0.11764706 </v>
   <v>      -0.23529412       0.41176471       0.11764706 </v>
   <v>      -0.17647059       0.41176471       0.11764706 </v>
   <v>      -0.11764706       0.41176471       0.11764706 </v>
   <v>      -0.05882353       0.41176471       0.11764706 </v>
   <v>       0.00000000       0.47058824       0.11764706 </v>
   <v>       0.05882353       0.47058824       0.11764706 </v>
   <v>       0.11764706       0.47058824       0.11764706 </v>
   <v>       0.17647059       0.47058824       0.11764706 </v>
   <v>       0.23529412       0.47058824       0.11764706 </v>
   <v>       0.29411765       0.47058824       0.11764706 </v>
   <v>       0.35294118       0.47058824       0.11764706 </v>
   <v>       0.41176471       0.47058824       0.11764706 </v>
   <v>       0.47058824       0.47058824       0.11764706 </v>
   <v>      -0.47058824       0.47058824       0.11764706 </v>
   <v>      -0.41176471       0.47058824       0.11764706 </v>
   <v>      -0.35294118       0.47058824       0.11764706 </v>
   <v>      -0.29411765       0.47058824       0.11764706 </v>
   <v>      -0.23529412       0.47058824       0.11764706 </v>
   <v>      -0.17647059       0.47058824       0.11764706 </v>
   <v>      -0.11764706       0.47058824       0.11764706 </v>
   <v>      -0.05882353       0.47058824       0.11764706 </v>
   <v>       0.00000000       0.00000000       0.17647059 </v>
   <v>       0.05882353      -0.00000000       0.17647059 </v>
   <v>       0.11764706       0.00000000       0.17647059 </v>
   <v>       0.17647059      -0.00000000       0.17647059 </v>
   <v>       0.23529412       0.00000000       0.17647059 </v>
   <v>       0.29411765       0.00000000       0.17647059 </v>
   <v>       0.35294118      -0.00000000       0.17647059 </v>
   <v>       0.41176471      -0.00000000       0.17647059 </v>
   <v>       0.47058824       0.00000000       0.17647059 </v>
   <v>      -0.00000000       0.05882353       0.17647059 </v>
   <v>       0.05882353       0.05882353       0.17647059 </v>
   <v>       0.11764706       0.05882353       0.17647059 </v>
   <v>       0.17647059       0.05882353       0.17647059 </v>
   <v>       0.23529412       0.05882353       0.17647059 </v>
   <v>       0.29411765       0.05882353       0.17647059 </v>
   <v>       0.35294118       0.05882353       0.17647059 </v>
   <v>       0.41176471       0.05882353       0.17647059 </v>
   <v>       0.47058824       0.05882353       0.17647059 </v>
   <v>      -0.47058824       0.05882353       0.17647059 </v>
   <v>      -0.41176471       0.05882353       0.17647059 </v>
   <v>      -0.35294118       0.05882353       0.17647059 </v>
   <v>      -0.29411765       0.05882353       0.17647059 </v>
   <v>      -0.23529412       0.05882353       0.17647059 </v>
   <v>      -0.17647059       0.05882353       0.17647059 </v>
   <v>      -0.11764706       0.05882353       0.17647059 </v>
   <v>      -0.05882353       0.05882353       0.17647059 </v>
   <v>       0.00000000       0.11764706       0.17647059 </v>
   <v>       0.05882353       0.11764706       0.17647059 </v>
   <v>       0.11764706       0.11764706       0.17647059 </v>
   <v>       0.17647059       0.11764706       0.17647059 </v>
   <v>       0.23529412       0.11764706       0.17647059 </v>
   <v>       0.29411765       0.11764706       0.17647059 </v>
   <v>       0.35294118       0.11764706       0.17647059 </v>
   <v>       0.41176471       0.11764706       0.17647059 </v>
   <v>       0.47058824       0.11764706       0.17647059 </v>
   <v>      -0.47058824       0.11764706       0.17647059 </v>
   <v>      -0.41176471       0.11764706       0.17647059 </v>
   <v>      -0.35294118       0.11764706       0.17647059 </v>
   <v>      -0.29411765       0.11764706       0.17647059 </v>
   <v>      -0.23529412       0.11764706       0.17647059 </v>
   <v>      -0.17647059       0.11764706       0.17647059 </v>
   <v>      -0.11764706       0.11764706       0.17647059 </v>
   <v>      -0.05882353       0.11764706       0.17647059 </v>
   <v>      -0.00000000       0.17647059       0.17647059 </v>
   <v>       0.05882353       0.17647059       0.17647059 </v>
   <v>       0.11764706       0.17647059       0.17647059 </v>
   <v>       0.17647059       0.17647059       0.17647059 </v>
   <v>       0.23529412       0.17647059       0.17647059 </v>
   <v>       0.29411765       0.17647059       0.17647059 </v>
   <v>       0.35294118       0.17647059       0.17647059 </v>
   <v>       0.41176471       0.17647059       0.17647059 </v>
   <v>       0.47058824       0.17647059       0.17647059 </v>
   <v>      -0.47058824       0.17647059       0.17647059 </v>
   <v>      -0.41176471       0.17647059       0.17647059 </v>
   <v>      -0.35294118       0.17647059       0.17647059 </v>
   <v>      -0.29411765       0.17647059       0.17647059 </v>
   <v>      -0.23529412       0.17647059       0.17647059 </v>
   <v>      -0.17647059       0.17647059       0.17647059 </v>
   <v>      -0.11764706       0.17647059       0.17647059 </v>
   <v>      -0.05882353       0.17647059       0.17647059 </v>
   <v>       0.00000000       0.23529412       0.17647059 </v>
   <v>       0.05882353       0.23529412       0.17647059 </v>
   <v>       0.11764706       0.23529412       0.17647059 </v>
   <v>       0.17647059       0.23529412       0.17647059 </v>
   <v>       0.23529412       0.23529412       0.17647059 </v>
   <v>       0.29411765       0.23529412       0.17647059 </v>
   <v>       0.35294118       0.23529412       0.17647059 </v>
   <v>       0.41176471       0.23529412       0.17647059 </v>
   <v>       0.47058824       0.23529412       0.17647059 </v>
   <v>      -0.47058824       0.23529412       0.17647059 </v>
   <v>      -0.41176471       0.23529412       0.17647059 </v>
   <v>      -0.35294118       0.23529412       0.17647059 </v>
   <v>      -0.29411765       0.23529412       0.17647059 </v>
   <v>      -0.23529412       0.23529412       0.17647059 </v>
   <v>      -0.17647059       0.23529412       0.17647059 </v>
   <v>      -0.11764706       0.23529412       0.17647059 </v>
   <v>      -0.05882353       0.23529412       0.17647059 </v>
   <v>       0.00000000       0.29411765       0.17647059 </v>
   <v>       0.05882353       0.29411765       0.17647059 </v>
   <v>       0.11764706       0.29411765       0.17647059 </v>
   <v>       0.17647059       0.29411765       0.17647059 </v>
   <v>       0.23529412       0.29411765       0.17647059 </v>
   <v>       0.29411765       0.29411765       0.17647059 </v>
   <v>       0.35294118       0.29411765       0.17647059 </v>
   <v>       0.41176471       0.29411765       0.17647059 </v>
   <v>       0.47058824       0.29411765       0.17647059 </v>
   <v>      -0.47058824       0.29411765       0.17647059 </v>
   <v>      -0.41176471       0.29411765       0.17647059 </v>
   <v>      -0.35294118       0.29411765       0.17647059 </v>
   <v>      -0.29411765       0.29411765       0.17647059 </v>
   <v>      -0.23529412       0.29411765       0.17647059 </v>
   <v>      -0.17647059       0.29411765       0.17647059 </v>
   <v>      -0.11764706       0.29411765       0.17647059 </v>
   <v>      -0.05882353       0.29411765       0.17647059 </v>
   <v>      -0.00000000       0.35294118       0.17647059 </v>
   <v>       0.05882353       0.35294118       0.17647059 </v>
   <v>       0.11764706       0.35294118       0.17647059 </v>
   <v>       0.17647059       0.35294118       0.17647059 </v>
   <v>       0.23529412       0.35294118       0.17647059 </v>
   <v>       0.29411765       0.35294118       0.17647059 </v>
   <v>       0.35294118       0.35294118       0.17647059 </v>
   <v>       0.41176471       0.35294118       0.17647059 </v>
   <v>       0.47058824       0.35294118       0.17647059 </v>
   <v>      -0.47058824       0.35294118       0.17647059 </v>
   <v>      -0.41176471       0.35294118       0.17647059 </v>
   <v>      -0.35294118       0.35294118       0.17647059 </v>
   <v>      -0.29411765       0.35294118       0.17647059 </v>
   <v>      -0.23529412       0.35294118       0.17647059 </v>
   <v>      -0.17647059       0.35294118       0.17647059 </v>
   <v>      -0.11764706       0.35294118       0.17647059 </v>
   <v>      -0.05882353       0.35294118       0.17647059 </v>
   <v>      -0.00000000       0.41176471       0.17647059 </v>
   <v>       0.05882353       0.41176471       0.17647059 </v>
   <v>       0.11764706       0.41176471       0.17647059 </v>
   <v>       0.17647059       0.41176471       0.17647059 </v>
   <v>       0.23529412       0.41176471       0.17647059 </v>
   <v>       0.29411765       0.41176471       0.17647059 </v>
   <v>       0.35294118       0.41176471       0.17647059 </v>
   <v>       0.41176471       0.41176471       0.17647059 </v>
   <v>       0.47058824       0.41176471       0.17647059 </v>
   <v>      -0.47058824       0.41176471       0.17647059 </v>
   <v>      -0.41176471       0.41176471       0.17647059 </v>
   <v>      -0.35294118       0.41176471       0.17647059 </v>
   <v>      -0.29411765       0.41176471       0.17647059 </v>
   <v>      -0.23529412       0.41176471       0.17647059 </v>
   <v>      -0.17647059       0.41176471       0.17647059 </v>
   <v>      -0.11764706       0.41176471       0.17647059 </v>
   <v>      -0.05882353       0.41176471       0.17647059 </v>
   <v>       0.00000000       0.47058824       0.17647059 </v>
   <v>       0.05882353       0.47058824       0.17647059 </v>
   <v>       0.11764706       0.47058824       0.17647059 </v>
   <v>       0.17647059       0.47058824       0.17647059 </v>
   <v>       0.23529412       0.47058824       0.17647059 </v>
   <v>       0.29411765       0.47058824       0.17647059 </v>
   <v>       0.35294118       0.47058824       0.17647059 </v>
   <v>       0.41176471       0.47058824       0.17647059 </v>
   <v>       0.47058824       0.47058824       0.17647059 </v>
   <v>      -0.47058824       0.47058824       0.17647059 </v>
   <v>      -0.41176471       0.47058824       0.17647059 </v>
   <v>      -0.35294118       0.47058824       0.17647059 </v>
   <v>      -0.29411765       0.47058824       0.17647059 </v>
   <v>      -0.23529412       0.47058824       0.17647059 </v>
   <v>      -0.17647059       0.47058824       0.17647059 </v>
   <v>      -0.11764706       0.47058824       0.17647059 </v>
   <v>      -0.05882353       0.47058824       0.17647059 </v>
   <v>       0.00000000       0.00000000       0.23529412 </v>
   <v>       0.05882353      -0.00000000       0.23529412 </v>
   <v>       0.11764706       0.00000000       0.23529412 </v>
   <v>       0.17647059      -0.00000000       0.23529412 </v>
   <v>       0.23529412       0.00000000       0.23529412 </v>
   <v>       0.29411765       0.00000000       0.23529412 </v>
   <v>       0.35294118      -0.00000000       0.23529412 </v>
   <v>       0.41176471      -0.00000000       0.23529412 </v>
   <v>       0.47058824       0.00000000       0.23529412 </v>
   <v>      -0.00000000       0.05882353       0.23529412 </v>
   <v>       0.05882353       0.05882353       0.23529412 </v>
   <v>       0.11764706       0.05882353       0.23529412 </v>
   <v>       0.17647059       0.05882353       0.23529412 </v>
   <v>       0.23529412       0.05882353       0.23529412 </v>
   <v>       0.29411765       0.05882353       0.23529412 </v>
   <v>       0.35294118       0.05882353       0.23529412 </v>
   <v>       0.41176471       0.05882353       0.23529412 </v>
   <v>       0.47058824       0.05882353       0.23529412 </v>
   <v>      -0.47058824       0.05882353       0.23529412 </v>
   <v>      -0.41176471       0.05882353       0.23529412 </v>
   <v>      -0.35294118       0.05882353       0.23529412 </v>
   <v>      -0.29411765       0.05882353       0.23529412 </v>
   <v>      -0.23529412       0.05882353       0.23529412 </v>
   <v>      -0.17647059       0.05882353       0.23529412 </v>
   <v>      -0.11764706       0.05882353       0.23529412 </v>
   <v>      -0.05882353       0.05882353       0.23529412 </v>
   <v>       0.00000000       0.11764706       0.23529412 </v>
   <v>       0.05882353       0.11764706       0.23529412 </v>
   <v>       0.11764706       0.11764706       0.23529412 </v>
   <v>       0.17647059       0.11764706       0.23529412 </v>
   <v>       0.23529412       0.11764706       0.23529412 </v>
   <v>       0.29411765       0.11764706       0.23529412 </v>
   <v>       0.35294118       0.11764706       0.23529412 </v>
   <v>       0.41176471       0.11764706       0.23529412 </v>
   <v>       0.47058824       0.11764706       0.23529412 </v>
   <v>      -0.47058824       0.11764706       0.23529412 </v>
   <v>      -0.41176471       0.11764706       0.23529412 </v>
   <v>      -0.35294118       0.11764706       0.23529412 </v>
   <v>      -0.29411765       0.11764706       0.23529412 </v>
   <v>      -0.23529412       0.11764706       0.23529412 </v>
   <v>      -0.17647059       0.11764706       0.23529412 </v>
   <v>      -0.11764706       0.11764706       0.23529412 </v>
   <v>      -0.05882353       0.11764706       0.23529412 </v>
   <v>      -0.00000000       0.17647059       0.23529412 </v>
   <v>       0.05882353       0.17647059       0.23529412 </v>
   <v>       0.11764706       0.17647059       0.23529412 </v>
   <v>       0.17647059       0.17647059       0.23529412 </v>
   <v>       0.23529412       0.17647059       0.23529412 </v>
   <v>       0.29411765       0.17647059       0.23529412 </v>
   <v>       0.35294118       0.17647059       0.23529412 </v>
   <v>       0.41176471       0.17647059       0.23529412 </v>
   <v>       0.47058824       0.17647059       0.23529412 </v>
   <v>      -0.47058824       0.17647059       0.23529412 </v>
   <v>      -0.41176471       0.17647059       0.23529412 </v>
   <v>      -0.35294118       0.17647059       0.23529412 </v>
   <v>      -0.29411765       0.17647059       0.23529412 </v>
   <v>      -0.23529412       0.17647059       0.23529412 </v>
   <v>      -0.17647059       0.17647059       0.23529412 </v>
   <v>      -0.11764706       0.17647059       0.23529412 </v>
   <v>      -0.05882353       0.17647059       0.23529412 </v>
   <v>       0.00000000       0.23529412       0.23529412 </v>
   <v>       0.05882353       0.23529412       0.23529412 </v>
   <v>       0.11764706       0.23529412       0.23529412 </v>
   <v>       0.17647059       0.23529412       0.23529412 </v>
   <v>       0.23529412       0.23529412       0.23529412 </v>
   <v>       0.29411765       0.23529412       0.23529412 </v>
   <v>       0.35294118       0.23529412       0.23529412 </v>
   <v>       0.41176471       0.23529412       0.23529412 </v>
   <v>       0.47058824       0.23529412       0.23529412 </v>
   <v>      -0.47058824       0.23529412       0.23529412 </v>
   <v>      -0.41176471       0.23529412       0.23529412 </v>
   <v>      -0.35294118       0.23529412       0.23529412 </v>
   <v>      -0.29411765       0.23529412       0.23529412 </v>
   <v>      -0.23529412       0.23529412       0.23529412 </v>
   <v>      -0.17647059       0.23529412       0.23529412 </v>
   <v>      -0.11764706       0.23529412       0.23529412 </v>
   <v>      -0.05882353       0.23529412       0.23529412 </v>
   <v>       0.00000000       0.29411765       0.23529412 </v>
   <v>       0.05882353       0.29411765       0.23529412 </v>
   <v>       0.11764706       0.29411765       0.23529412 </v>
   <v>       0.17647059       0.29411765       0.23529412 </v>
   <v>       0.23529412       0.29411765       0.23529412 </v>
   <v>       0.29411765       0.29411765       0.23529412 </v>
   <v>       0.35294118       0.29411765       0.23529412 </v>
   <v>       0.41176471       0.29411765       0.23529412 </v>
   <v>       0.47058824       0.29411765       0.23529412 </v>
   <v>      -0.47058824       0.29411765       0.23529412 </v>
   <v>      -0.41176471       0.29411765       0.23529412 </v>
   <v>      -0.35294118       0.29411765       0.23529412 </v>
   <v>      -0.29411765       0.29411765       0.23529412 </v>
   <v>      -0.23529412       0.29411765       0.23529412 </v>
   <v>      -0.17647059       0.29411765       0.23529412 </v>
   <v>      -0.11764706       0.29411765       0.23529412 </v>
   <v>      -0.05882353       0.29411765       0.23529412 </v>
   <v>      -0.00000000       0.35294118       0.23529412 </v>
   <v>       0.05882353       0.35294118       0.23529412 </v>
   <v>       0.11764706       0.35294118       0.23529412 </v>
   <v>       0.17647059       0.35294118       0.23529412 </v>
   <v>       0.23529412       0.35294118       0.23529412 </v>
   <v>       0.29411765       0.35294118       0.23529412 </v>
   <v>       0.35294118       0.35294118       0.23529412 </v>
   <v>       0.41176471       0.35294118       0.23529412 </v>
   <v>       0.47058824       0.35294118       0.23529412 </v>
   <v>      -0.47058824       0.35294118       0.23529412 </v>
   <v>      -0.41176471       0.35294118       0.23529412 </v>
   <v>      -0.35294118       0.35294118       0.23529412 </v>
   <v>      -0.29411765       0.35294118       0.23529412 </v>
   <v>      -0.23529412       0.35294118       0.23529412 </v>
   <v>      -0.17647059       0.35294118       0.23529412 </v>
   <v>      -0.11764706       0.35294118       0.23529412 </v>
   <v>      -0.05882353       0.35294118       0.23529412 </v>
   <v>      -0.00000000       0.41176471       0.23529412 </v>
   <v>       0.05882353       0.41176471       0.23529412 </v>
   <v>       0.11764706       0.41176471       0.23529412 </v>
   <v>       0.17647059       0.41176471       0.23529412 </v>
   <v>       0.23529412       0.41176471       0.23529412 </v>
   <v>       0.29411765       0.41176471       0.23529412 </v>
   <v>       0.35294118       0.41176471       0.23529412 </v>
   <v>       0.41176471       0.41176471       0.23529412 </v>
   <v>       0.47058824       0.41176471       0.23529412 </v>
   <v>      -0.47058824       0.41176471       0.23529412 </v>
   <v>      -0.41176471       0.41176471       0.23529412 </v>
   <v>      -0.35294118       0.41176471       0.23529412 </v>
   <v>      -0.29411765       0.41176471       0.23529412 </v>
   <v>      -0.23529412       0.41176471       0.23529412 </v>
   <v>      -0.17647059       0.41176471       0.23529412 </v>
   <v>      -0.11764706       0.41176471       0.23529412 </v>
   <v>      -0.05882353       0.41176471       0.23529412 </v>
   <v>       0.00000000       0.47058824       0.23529412 </v>
   <v>       0.05882353       0.47058824       0.23529412 </v>
   <v>       0.11764706       0.47058824       0.23529412 </v>
   <v>       0.17647059       0.47058824       0.23529412 </v>
   <v>       0.23529412       0.47058824       0.23529412 </v>
   <v>       0.29411765       0.47058824       0.23529412 </v>
   <v>       0.35294118       0.47058824       0.23529412 </v>
   <v>       0.41176471       0.47058824       0.23529412 </v>
   <v>       0.47058824       0.47058824       0.23529412 </v>
   <v>      -0.47058824       0.47058824       0.23529412 </v>
   <v>      -0.41176471       0.47058824       0.23529412 </v>
   <v>      -0.35294118       0.47058824       0.23529412 </v>
   <v>      -0.29411765       0.47058824       0.23529412 </v>
   <v>      -0.23529412       0.47058824       0.23529412 </v>
   <v>      -0.17647059       0.47058824       0.23529412 </v>
   <v>      -0.11764706       0.47058824       0.23529412 </v>
   <v>      -0.05882353       0.47058824       0.23529412 </v>
   <v>       0.00000000       0.00000000       0.29411765 </v>
   <v>       0.05882353      -0.00000000       0.29411765 </v>
   <v>       0.11764706       0.00000000       0.29411765 </v>
   <v>       0.17647059      -0.00000000       0.29411765 </v>
   <v>       0.23529412       0.00000000       0.29411765 </v>
   <v>       0.29411765       0.00000000       0.29411765 </v>
   <v>       0.35294118      -0.00000000       0.29411765 </v>
   <v>       0.41176471      -0.00000000       0.29411765 </v>
   <v>       0.47058824       0.00000000       0.29411765 </v>
   <v>      -0.00000000       0.05882353       0.29411765 </v>
   <v>       0.05882353       0.05882353       0.29411765 </v>
   <v>       0.11764706       0.05882353       0.29411765 </v>
   <v>       0.17647059       0.05882353       0.29411765 </v>
   <v>       0.23529412       0.05882353       0.29411765 </v>
   <v>       0.29411765       0.05882353       0.29411765 </v>
   <v>       0.35294118       0.05882353       0.29411765 </v>
   <v>       0.41176471       0.05882353       0.29411765 </v>
   <v>       0.47058824       0.05882353       0.29411765 </v>
   <v>      -0.47058824       0.05882353       0.29411765 </v>
   <v>      -0.41176471       0.05882353       0.29411765 </v>
   <v>      -0.35294118       0.05882353       0.29411765 </v>
   <v>      -0.29411765       0.05882353       0.29411765 </v>
   <v>      -0.23529412       0.05882353       0.29411765 </v>
   <v>      -0.17647059       0.05882353       0.29411765 </v>
   <v>      -0.11764706       0.05882353       0.29411765 </v>
   <v>      -0.05882353       0.05882353       0.29411765 </v>
   <v>       0.00000000       0.11764706       0.29411765 </v>
   <v>       0.05882353       0.11764706       0.29411765 </v>
   <v>       0.11764706       0.11764706       0.29411765 </v>
   <v>       0.17647059       0.11764706       0.29411765 </v>
   <v>       0.23529412       0.11764706       0.29411765 </v>
   <v>       0.29411765       0.11764706       0.29411765 </v>
   <v>       0.35294118       0.11764706       0.29411765 </v>
   <v>       0.41176471       0.11764706       0.29411765 </v>
   <v>       0.47058824       0.11764706       0.29411765 </v>
   <v>      -0.47058824       0.11764706       0.29411765 </v>
   <v>      -0.41176471       0.11764706       0.29411765 </v>
   <v>      -0.35294118       0.11764706       0.29411765 </v>
   <v>      -0.29411765       0.11764706       0.29411765 </v>
   <v>      -0.23529412       0.11764706       0.29411765 </v>
   <v>      -0.17647059       0.11764706       0.29411765 </v>
   <v>      -0.11764706       0.11764706       0.29411765 </v>
   <v>      -0.05882353       0.11764706       0.29411765 </v>
   <v>      -0.00000000       0.17647059       0.29411765 </v>
   <v>       0.05882353       0.17647059       0.29411765 </v>
   <v>       0.11764706       0.17647059       0.29411765 </v>
   <v>       0.17647059       0.17647059       0.29411765 </v>
   <v>       0.23529412       0.17647059       0.29411765 </v>
   <v>       0.29411765       0.17647059       0.29411765 </v>
   <v>       0.35294118       0.17647059       0.29411765 </v>
   <v>       0.41176471       0.17647059       0.29411765 </v>
   <v>       0.47058824       0.17647059       0.29411765 </v>
   <v>      -0.47058824       0.17647059       0.29411765 </v>
   <v>      -0.41176471       0.17647059       0.29411765 </v>
   <v>      -0.35294118       0.17647059       0.29411765 </v>
   <v>      -0.29411765       0.17647059       0.29411765 </v>
   <v>      -0.23529412       0.17647059       0.29411765 </v>
   <v>      -0.17647059       0.17647059       0.29411765 </v>
   <v>      -0.11764706       0.17647059       0.29411765 </v>
   <v>      -0.05882353       0.17647059       0.29411765 </v>
   <v>       0.00000000       0.23529412       0.29411765 </v>
   <v>       0.05882353       0.23529412       0.29411765 </v>
   <v>       0.11764706       0.23529412       0.29411765 </v>
   <v>       0.17647059       0.23529412       0.29411765 </v>
   <v>       0.23529412       0.23529412       0.29411765 </v>
   <v>       0.29411765       0.23529412       0.29411765 </v>
   <v>       0.35294118       0.23529412       0.29411765 </v>
   <v>       0.41176471       0.23529412       0.29411765 </v>
   <v>       0.47058824       0.23529412       0.29411765 </v>
   <v>      -0.47058824       0.23529412       0.29411765 </v>
   <v>      -0.41176471       0.23529412       0.29411765 </v>
   <v>      -0.35294118       0.23529412       0.29411765 </v>
   <v>      -0.29411765       0.23529412       0.29411765 </v>
   <v>      -0.23529412       0.23529412       0.29411765 </v>
   <v>      -0.17647059       0.23529412       0.29411765 </v>
   <v>      -0.11764706       0.23529412       0.29411765 </v>
   <v>      -0.05882353       0.23529412       0.29411765 </v>
   <v>       0.00000000       0.29411765       0.29411765 </v>
   <v>       0.05882353       0.29411765       0.29411765 </v>
   <v>       0.11764706       0.29411765       0.29411765 </v>
   <v>       0.17647059       0.29411765       0.29411765 </v>
   <v>       0.23529412       0.29411765       0.29411765 </v>
   <v>       0.29411765       0.29411765       0.29411765 </v>
   <v>       0.35294118       0.29411765       0.29411765 </v>
   <v>       0.41176471       0.29411765       0.29411765 </v>
   <v>       0.47058824       0.29411765       0.29411765 </v>
   <v>      -0.47058824       0.29411765       0.29411765 </v>
   <v>      -0.41176471       0.29411765       0.29411765 </v>
   <v>      -0.35294118       0.29411765       0.29411765 </v>
   <v>      -0.29411765       0.29411765       0.29411765 </v>
   <v>      -0.23529412       0.29411765       0.29411765 </v>
   <v>      -0.17647059       0.29411765       0.29411765 </v>
   <v>      -0.11764706       0.29411765       0.29411765 </v>
   <v>      -0.05882353       0.29411765       0.29411765 </v>
   <v>      -0.00000000       0.35294118       0.29411765 </v>
   <v>       0.05882353       0.35294118       0.29411765 </v>
   <v>       0.11764706       0.35294118       0.29411765 </v>
   <v>       0.17647059       0.35294118       0.29411765 </v>
   <v>       0.23529412       0.35294118       0.29411765 </v>
   <v>       0.29411765       0.35294118       0.29411765 </v>
   <v>       0.35294118       0.35294118       0.29411765 </v>
   <v>       0.41176471       0.35294118       0.29411765 </v>
   <v>       0.47058824       0.35294118       0.29411765 </v>
   <v>      -0.47058824       0.35294118       0.29411765 </v>
   <v>      -0.41176471       0.35294118       0.29411765 </v>
   <v>      -0.35294118       0.35294118       0.29411765 </v>
   <v>      -0.29411765       0.35294118       0.29411765 </v>
   <v>      -0.23529412       0.35294118       0.29411765 </v>
   <v>      -0.17647059       0.35294118       0.29411765 </v>
   <v>      -0.11764706       0.35294118       0.29411765 </v>
   <v>      -0.05882353       0.35294118       0.29411765 </v>
   <v>      -0.00000000       0.41176471       0.29411765 </v>
   <v>       0.05882353       0.41176471       0.29411765 </v>
   <v>       0.11764706       0.41176471       0.29411765 </v>
   <v>       0.17647059       0.41176471       0.29411765 </v>
   <v>       0.23529412       0.41176471       0.29411765 </v>
   <v>       0.29411765       0.41176471       0.29411765 </v>
   <v>       0.35294118       0.41176471       0.29411765 </v>
   <v>       0.41176471       0.41176471       0.29411765 </v>
   <v>       0.47058824       0.41176471       0.29411765 </v>
   <v>      -0.47058824       0.41176471       0.29411765 </v>
   <v>      -0.41176471       0.41176471       0.29411765 </v>
   <v>      -0.35294118       0.41176471       0.29411765 </v>
   <v>      -0.29411765       0.41176471       0.29411765 </v>
   <v>      -0.23529412       0.41176471       0.29411765 </v>
   <v>      -0.17647059       0.41176471       0.29411765 </v>
   <v>      -0.11764706       0.41176471       0.29411765 </v>
   <v>      -0.05882353       0.41176471       0.29411765 </v>
   <v>       0.00000000       0.47058824       0.29411765 </v>
   <v>       0.05882353       0.47058824       0.29411765 </v>
   <v>       0.11764706       0.47058824       0.29411765 </v>
   <v>       0.17647059       0.47058824       0.29411765 </v>
   <v>       0.23529412       0.47058824       0.29411765 </v>
   <v>       0.29411765       0.47058824       0.29411765 </v>
   <v>       0.35294118       0.47058824       0.29411765 </v>
   <v>       0.41176471       0.47058824       0.29411765 </v>
   <v>       0.47058824       0.47058824       0.29411765 </v>
   <v>      -0.47058824       0.47058824       0.29411765 </v>
   <v>      -0.41176471       0.47058824       0.29411765 </v>
   <v>      -0.35294118       0.47058824       0.29411765 </v>
   <v>      -0.29411765       0.47058824       0.29411765 </v>
   <v>      -0.23529412       0.47058824       0.29411765 </v>
   <v>      -0.17647059       0.47058824       0.29411765 </v>
   <v>      -0.11764706       0.47058824       0.29411765 </v>
   <v>      -0.05882353       0.47058824       0.29411765 </v>
   <v>       0.00000000       0.00000000       0.35294118 </v>
   <v>       0.05882353      -0.00000000       0.35294118 </v>
   <v>       0.11764706       0.00000000       0.35294118 </v>
   <v>       0.17647059      -0.00000000       0.35294118 </v>
   <v>       0.23529412       0.00000000       0.35294118 </v>
   <v>       0.29411765       0.00000000       0.35294118 </v>
   <v>       0.35294118      -0.00000000       0.35294118 </v>
   <v>       0.41176471      -0.00000000       0.35294118 </v>
   <v>       0.47058824       0.00000000       0.35294118 </v>
   <v>      -0.00000000       0.05882353       0.35294118 </v>
   <v>       0.05882353       0.05882353       0.35294118 </v>
   <v>       0.11764706       0.05882353       0.35294118 </v>
   <v>       0.17647059       0.05882353       0.35294118 </v>
   <v>       0.23529412       0.05882353       0.35294118 </v>
   <v>       0.29411765       0.05882353       0.35294118 </v>
   <v>       0.35294118       0.05882353       0.35294118 </v>
   <v>       0.41176471       0.05882353       0.35294118 </v>
   <v>       0.47058824       0.05882353       0.35294118 </v>
   <v>      -0.47058824       0.05882353       0.35294118 </v>
   <v>      -0.41176471       0.05882353       0.35294118 </v>
   <v>      -0.35294118       0.05882353       0.35294118 </v>
   <v>      -0.29411765       0.05882353       0.35294118 </v>
   <v>      -0.23529412       0.05882353       0.35294118 </v>
   <v>      -0.17647059       0.05882353       0.35294118 </v>
   <v>      -0.11764706       0.05882353       0.35294118 </v>
   <v>      -0.05882353       0.05882353       0.35294118 </v>
   <v>       0.00000000       0.11764706       0.35294118 </v>
   <v>       0.05882353       0.11764706       0.35294118 </v>
   <v>       0.11764706       0.11764706       0.35294118 </v>
   <v>       0.17647059       0.11764706       0.35294118 </v>
   <v>       0.23529412       0.11764706       0.35294118 </v>
   <v>       0.29411765       0.11764706       0.35294118 </v>
   <v>       0.35294118       0.11764706       0.35294118 </v>
   <v>       0.41176471       0.11764706       0.35294118 </v>
   <v>       0.47058824       0.11764706       0.35294118 </v>
   <v>      -0.47058824       0.11764706       0.35294118 </v>
   <v>      -0.41176471       0.11764706       0.35294118 </v>
   <v>      -0.35294118       0.11764706       0.35294118 </v>
   <v>      -0.29411765       0.11764706       0.35294118 </v>
   <v>      -0.23529412       0.11764706       0.35294118 </v>
   <v>      -0.17647059       0.11764706       0.35294118 </v>
   <v>      -0.11764706       0.11764706       0.35294118 </v>
   <v>      -0.05882353       0.11764706       0.35294118 </v>
   <v>      -0.00000000       0.17647059       0.35294118 </v>
   <v>       0.05882353       0.17647059       0.35294118 </v>
   <v>       0.11764706       0.17647059       0.35294118 </v>
   <v>       0.17647059       0.17647059       0.35294118 </v>
   <v>       0.23529412       0.17647059       0.35294118 </v>
   <v>       0.29411765       0.17647059       0.35294118 </v>
   <v>       0.35294118       0.17647059       0.35294118 </v>
   <v>       0.41176471       0.17647059       0.35294118 </v>
   <v>       0.47058824       0.17647059       0.35294118 </v>
   <v>      -0.47058824       0.17647059       0.35294118 </v>
   <v>      -0.41176471       0.17647059       0.35294118 </v>
   <v>      -0.35294118       0.17647059       0.35294118 </v>
   <v>      -0.29411765       0.17647059       0.35294118 </v>
   <v>      -0.23529412       0.17647059       0.35294118 </v>
   <v>      -0.17647059       0.17647059       0.35294118 </v>
   <v>      -0.11764706       0.17647059       0.35294118 </v>
   <v>      -0.05882353       0.17647059       0.35294118 </v>
   <v>       0.00000000       0.23529412       0.35294118 </v>
   <v>       0.05882353       0.23529412       0.35294118 </v>
   <v>       0.11764706       0.23529412       0.35294118 </v>
   <v>       0.17647059       0.23529412       0.35294118 </v>
   <v>       0.23529412       0.23529412       0.35294118 </v>
   <v>       0.29411765       0.23529412       0.35294118 </v>
   <v>       0.35294118       0.23529412       0.35294118 </v>
   <v>       0.41176471       0.23529412       0.35294118 </v>
   <v>       0.47058824       0.23529412       0.35294118 </v>
   <v>      -0.47058824       0.23529412       0.35294118 </v>
   <v>      -0.41176471       0.23529412       0.35294118 </v>
   <v>      -0.35294118       0.23529412       0.35294118 </v>
   <v>      -0.29411765       0.23529412       0.35294118 </v>
   <v>      -0.23529412       0.23529412       0.35294118 </v>
   <v>      -0.17647059       0.23529412       0.35294118 </v>
   <v>      -0.11764706       0.23529412       0.35294118 </v>
   <v>      -0.05882353       0.23529412       0.35294118 </v>
   <v>       0.00000000       0.29411765       0.35294118 </v>
   <v>       0.05882353       0.29411765       0.35294118 </v>
   <v>       0.11764706       0.29411765       0.35294118 </v>
   <v>       0.17647059       0.29411765       0.35294118 </v>
   <v>       0.23529412       0.29411765       0.35294118 </v>
   <v>       0.29411765       0.29411765       0.35294118 </v>
   <v>       0.35294118       0.29411765       0.35294118 </v>
   <v>       0.41176471       0.29411765       0.35294118 </v>
   <v>       0.47058824       0.29411765       0.35294118 </v>
   <v>      -0.47058824       0.29411765       0.35294118 </v>
   <v>      -0.41176471       0.29411765       0.35294118 </v>
   <v>      -0.35294118       0.29411765       0.35294118 </v>
   <v>      -0.29411765       0.29411765       0.35294118 </v>
   <v>      -0.23529412       0.29411765       0.35294118 </v>
   <v>      -0.17647059       0.29411765       0.35294118 </v>
   <v>      -0.11764706       0.29411765       0.35294118 </v>
   <v>      -0.05882353       0.29411765       0.35294118 </v>
   <v>      -0.00000000       0.35294118       0.35294118 </v>
   <v>       0.05882353       0.35294118       0.35294118 </v>
   <v>       0.11764706       0.35294118       0.35294118 </v>
   <v>       0.17647059       0.35294118       0.35294118 </v>
   <v>       0.23529412       0.35294118       0.35294118 </v>
   <v>       0.29411765       0.35294118       0.35294118 </v>
   <v>       0.35294118       0.35294118       0.35294118 </v>
   <v>       0.41176471       0.35294118       0.35294118 </v>
   <v>       0.47058824       0.35294118       0.35294118 </v>
   <v>      -0.47058824       0.35294118       0.35294118 </v>
   <v>      -0.41176471       0.35294118       0.35294118 </v>
   <v>      -0.35294118       0.35294118       0.35294118 </v>
   <v>      -0.29411765       0.35294118       0.35294118 </v>
   <v>      -0.23529412       0.35294118       0.35294118 </v>
   <v>      -0.17647059       0.35294118       0.35294118 </v>
   <v>      -0.11764706       0.35294118       0.35294118 </v>
   <v>      -0.05882353       0.35294118       0.35294118 </v>
   <v>      -0.00000000       0.41176471       0.35294118 </v>
   <v>       0.05882353       0.41176471       0.35294118 </v>
   <v>       0.11764706       0.41176471       0.35294118 </v>
   <v>       0.17647059       0.41176471       0.35294118 </v>
   <v>       0.23529412       0.41176471       0.35294118 </v>
   <v>       0.29411765       0.41176471       0.35294118 </v>
   <v>       0.35294118       0.41176471       0.35294118 </v>
   <v>       0.41176471       0.41176471       0.35294118 </v>
   <v>       0.47058824       0.41176471       0.35294118 </v>
   <v>      -0.47058824       0.41176471       0.35294118 </v>
   <v>      -0.41176471       0.41176471       0.35294118 </v>
   <v>      -0.35294118       0.41176471       0.35294118 </v>
   <v>      -0.29411765       0.41176471       0.35294118 </v>
   <v>      -0.23529412       0.41176471       0.35294118 </v>
   <v>      -0.17647059       0.41176471       0.35294118 </v>
   <v>      -0.11764706       0.41176471       0.35294118 </v>
   <v>      -0.05882353       0.41176471       0.35294118 </v>
   <v>       0.00000000       0.47058824       0.35294118 </v>
   <v>       0.05882353       0.47058824       0.35294118 </v>
   <v>       0.11764706       0.47058824       0.35294118 </v>
   <v>       0.17647059       0.47058824       0.35294118 </v>
   <v>       0.23529412       0.47058824       0.35294118 </v>
   <v>       0.29411765       0.47058824       0.35294118 </v>
   <v>       0.35294118       0.47058824       0.35294118 </v>
   <v>       0.41176471       0.47058824       0.35294118 </v>
   <v>       0.47058824       0.47058824       0.35294118 </v>
   <v>      -0.47058824       0.47058824       0.35294118 </v>
   <v>      -0.41176471       0.47058824       0.35294118 </v>
   <v>      -0.35294118       0.47058824       0.35294118 </v>
   <v>      -0.29411765       0.47058824       0.35294118 </v>
   <v>      -0.23529412       0.47058824       0.35294118 </v>
   <v>      -0.17647059       0.47058824       0.35294118 </v>
   <v>      -0.11764706       0.47058824       0.35294118 </v>
   <v>      -0.05882353       0.47058824       0.35294118 </v>
   <v>       0.00000000       0.00000000       0.41176471 </v>
   <v>       0.05882353      -0.00000000       0.41176471 </v>
   <v>       0.11764706       0.00000000       0.41176471 </v>
   <v>       0.17647059      -0.00000000       0.41176471 </v>
   <v>       0.23529412       0.00000000       0.41176471 </v>
   <v>       0.29411765       0.00000000       0.41176471 </v>
   <v>       0.35294118      -0.00000000       0.41176471 </v>
   <v>       0.41176471      -0.00000000       0.41176471 </v>
   <v>       0.47058824       0.00000000       0.41176471 </v>
   <v>      -0.00000000       0.05882353       0.41176471 </v>
   <v>       0.05882353       0.05882353       0.41176471 </v>
   <v>       0.11764706       0.05882353       0.41176471 </v>
   <v>       0.17647059       0.05882353       0.41176471 </v>
   <v>       0.23529412       0.05882353       0.41176471 </v>
   <v>       0.29411765       0.05882353       0.41176471 </v>
   <v>       0.35294118       0.05882353       0.41176471 </v>
   <v>       0.41176471       0.05882353       0.41176471 </v>
   <v>       0.47058824       0.05882353       0.41176471 </v>
   <v>      -0.47058824       0.05882353       0.41176471 </v>
   <v>      -0.41176471       0.05882353       0.41176471 </v>
   <v>      -0.35294118       0.05882353       0.41176471 </v>
   <v>      -0.29411765       0.05882353       0.41176471 </v>
   <v>      -0.23529412       0.05882353       0.41176471 </v>
   <v>      -0.17647059       0.05882353       0.41176471 </v>
   <v>      -0.11764706       0.05882353       0.41176471 </v>
   <v>      -0.05882353       0.05882353       0.41176471 </v>
   <v>       0.00000000       0.11764706       0.41176471 </v>
   <v>       0.05882353       0.11764706       0.41176471 </v>
   <v>       0.11764706       0.11764706       0.41176471 </v>
   <v>       0.17647059       0.11764706       0.41176471 </v>
   <v>       0.23529412       0.11764706       0.41176471 </v>
   <v>       0.29411765       0.11764706       0.41176471 </v>
   <v>       0.35294118       0.11764706       0.41176471 </v>
   <v>       0.41176471       0.11764706       0.41176471 </v>
   <v>       0.47058824       0.11764706       0.41176471 </v>
   <v>      -0.47058824       0.11764706       0.41176471 </v>
   <v>      -0.41176471       0.11764706       0.41176471 </v>
   <v>      -0.35294118       0.11764706       0.41176471 </v>
   <v>      -0.29411765       0.11764706       0.41176471 </v>
   <v>      -0.23529412       0.11764706       0.41176471 </v>
   <v>      -0.17647059       0.11764706       0.41176471 </v>
   <v>      -0.11764706       0.11764706       0.41176471 </v>
   <v>      -0.05882353       0.11764706       0.41176471 </v>
   <v>      -0.00000000       0.17647059       0.41176471 </v>
   <v>       0.05882353       0.17647059       0.41176471 </v>
   <v>       0.11764706       0.17647059       0.41176471 </v>
   <v>       0.17647059       0.17647059       0.41176471 </v>
   <v>       0.23529412       0.17647059       0.41176471 </v>
   <v>       0.29411765       0.17647059       0.41176471 </v>
   <v>       0.35294118       0.17647059       0.41176471 </v>
   <v>       0.41176471       0.17647059       0.41176471 </v>
   <v>       0.47058824       0.17647059       0.41176471 </v>
   <v>      -0.47058824       0.17647059       0.41176471 </v>
   <v>      -0.41176471       0.17647059       0.41176471 </v>
   <v>      -0.35294118       0.17647059       0.41176471 </v>
   <v>      -0.29411765       0.17647059       0.41176471 </v>
   <v>      -0.23529412       0.17647059       0.41176471 </v>
   <v>      -0.17647059       0.17647059       0.41176471 </v>
   <v>      -0.11764706       0.17647059       0.41176471 </v>
   <v>      -0.05882353       0.17647059       0.41176471 </v>
   <v>       0.00000000       0.23529412       0.41176471 </v>
   <v>       0.05882353       0.23529412       0.41176471 </v>
   <v>       0.11764706       0.23529412       0.41176471 </v>
   <v>       0.17647059       0.23529412       0.41176471 </v>
   <v>       0.23529412       0.23529412       0.41176471 </v>
   <v>       0.29411765       0.23529412       0.41176471 </v>
   <v>       0.35294118       0.23529412       0.41176471 </v>
   <v>       0.41176471       0.23529412       0.41176471 </v>
   <v>       0.47058824       0.23529412       0.41176471 </v>
   <v>      -0.47058824       0.23529412       0.41176471 </v>
   <v>      -0.41176471       0.23529412       0.41176471 </v>
   <v>      -0.35294118       0.23529412       0.41176471 </v>
   <v>      -0.29411765       0.23529412       0.41176471 </v>
   <v>      -0.23529412       0.23529412       0.41176471 </v>
   <v>      -0.17647059       0.23529412       0.41176471 </v>
   <v>      -0.11764706       0.23529412       0.41176471 </v>
   <v>      -0.05882353       0.23529412       0.41176471 </v>
   <v>       0.00000000       0.29411765       0.41176471 </v>
   <v>       0.05882353       0.29411765       0.41176471 </v>
   <v>       0.11764706       0.29411765       0.41176471 </v>
   <v>       0.17647059       0.29411765       0.41176471 </v>
   <v>       0.23529412       0.29411765       0.41176471 </v>
   <v>       0.29411765       0.29411765       0.41176471 </v>
   <v>       0.35294118       0.29411765       0.41176471 </v>
   <v>       0.41176471       0.29411765       0.41176471 </v>
   <v>       0.47058824       0.29411765       0.41176471 </v>
   <v>      -0.47058824       0.29411765       0.41176471 </v>
   <v>      -0.41176471       0.29411765       0.41176471 </v>
   <v>      -0.35294118       0.29411765       0.41176471 </v>
   <v>      -0.29411765       0.29411765       0.41176471 </v>
   <v>      -0.23529412       0.29411765       0.41176471 </v>
   <v>      -0.17647059       0.29411765       0.41176471 </v>
   <v>      -0.11764706       0.29411765       0.41176471 </v>
   <v>      -0.05882353       0.29411765       0.41176471 </v>
   <v>      -0.00000000       0.35294118       0.41176471 </v>
   <v>       0.05882353       0.35294118       0.41176471 </v>
   <v>       0.11764706       0.35294118       0.41176471 </v>
   <v>       0.17647059       0.35294118       0.41176471 </v>
   <v>       0.23529412       0.35294118       0.41176471 </v>
   <v>       0.29411765       0.35294118       0.41176471 </v>
   <v>       0.35294118       0.35294118       0.41176471 </v>
   <v>       0.41176471       0.35294118       0.41176471 </v>
   <v>       0.47058824       0.35294118       0.41176471 </v>
   <v>      -0.47058824       0.35294118       0.41176471 </v>
   <v>      -0.41176471       0.35294118       0.41176471 </v>
   <v>      -0.35294118       0.35294118       0.41176471 </v>
   <v>      -0.29411765       0.35294118       0.41176471 </v>
   <v>      -0.23529412       0.35294118       0.41176471 </v>
   <v>      -0.17647059       0.35294118       0.41176471 </v>
   <v>      -0.11764706       0.35294118       0.41176471 </v>
   <v>      -0.05882353       0.35294118       0.41176471 </v>
   <v>      -0.00000000       0.41176471       0.41176471 </v>
   <v>       0.05882353       0.41176471       0.41176471 </v>
   <v>       0.11764706       0.41176471       0.41176471 </v>
   <v>       0.17647059       0.41176471       0.41176471 </v>
   <v>       0.23529412       0.41176471       0.41176471 </v>
   <v>       0.29411765       0.41176471       0.41176471 </v>
   <v>       0.35294118       0.41176471       0.41176471 </v>
   <v>       0.41176471       0.41176471       0.41176471 </v>
   <v>       0.47058824       0.41176471       0.41176471 </v>
   <v>      -0.47058824       0.41176471       0.41176471 </v>
   <v>      -0.41176471       0.41176471       0.41176471 </v>
   <v>      -0.35294118       0.41176471       0.41176471 </v>
   <v>      -0.29411765       0.41176471       0.41176471 </v>
   <v>      -0.23529412       0.41176471       0.41176471 </v>
   <v>      -0.17647059       0.41176471       0.41176471 </v>
   <v>      -0.11764706       0.41176471       0.41176471 </v>
   <v>      -0.05882353       0.41176471       0.41176471 </v>
   <v>       0.00000000       0.47058824       0.41176471 </v>
   <v>       0.05882353       0.47058824       0.41176471 </v>
   <v>       0.11764706       0.47058824       0.41176471 </v>
   <v>       0.17647059       0.47058824       0.41176471 </v>
   <v>       0.23529412       0.47058824       0.41176471 </v>
   <v>       0.29411765       0.47058824       0.41176471 </v>
   <v>       0.35294118       0.47058824       0.41176471 </v>
   <v>       0.41176471       0.47058824       0.41176471 </v>
   <v>       0.47058824       0.47058824       0.41176471 </v>
   <v>      -0.47058824       0.47058824       0.41176471 </v>
   <v>      -0.41176471       0.47058824       0.41176471 </v>
   <v>      -0.35294118       0.47058824       0.41176471 </v>
   <v>      -0.29411765       0.47058824       0.41176471 </v>
   <v>      -0.23529412       0.47058824       0.41176471 </v>
   <v>      -0.17647059       0.47058824       0.41176471 </v>
   <v>      -0.11764706       0.47058824       0.41176471 </v>
   <v>      -0.05882353       0.47058824       0.41176471 </v>
   <v>       0.00000000       0.00000000       0.47058824 </v>
   <v>       0.05882353      -0.00000000       0.47058824 </v>
   <v>       0.11764706       0.00000000       0.47058824 </v>
   <v>       0.17647059      -0.00000000       0.47058824 </v>
   <v>       0.23529412       0.00000000       0.47058824 </v>
   <v>       0.29411765       0.00000000       0.47058824 </v>
   <v>       0.35294118      -0.00000000       0.47058824 </v>
   <v>       0.41176471      -0.00000000       0.47058824 </v>
   <v>       0.47058824       0.00000000       0.47058824 </v>
   <v>      -0.00000000       0.05882353       0.47058824 </v>
   <v>       0.05882353       0.05882353       0.47058824 </v>
   <v>       0.11764706       0.05882353       0.47058824 </v>
   <v>       0.17647059       0.05882353       0.47058824 </v>
   <v>       0.23529412       0.05882353       0.47058824 </v>
   <v>       0.29411765       0.05882353       0.47058824 </v>
   <v>       0.35294118       0.05882353       0.47058824 </v>
   <v>       0.41176471       0.05882353       0.47058824 </v>
   <v>       0.47058824       0.05882353       0.47058824 </v>
   <v>      -0.47058824       0.05882353       0.47058824 </v>
   <v>      -0.41176471       0.05882353       0.47058824 </v>
   <v>      -0.35294118       0.05882353       0.47058824 </v>
   <v>      -0.29411765       0.05882353       0.47058824 </v>
   <v>      -0.23529412       0.05882353       0.47058824 </v>
   <v>      -0.17647059       0.05882353       0.47058824 </v>
   <v>      -0.11764706       0.05882353       0.47058824 </v>
   <v>      -0.05882353       0.05882353       0.47058824 </v>
   <v>       0.00000000       0.11764706       0.47058824 </v>
   <v>       0.05882353       0.11764706       0.47058824 </v>
   <v>       0.11764706       0.11764706       0.47058824 </v>
   <v>       0.17647059       0.11764706       0.47058824 </v>
   <v>       0.23529412       0.11764706       0.47058824 </v>
   <v>       0.29411765       0.11764706       0.47058824 </v>
   <v>       0.35294118       0.11764706       0.47058824 </v>
   <v>       0.41176471       0.11764706       0.47058824 </v>
   <v>       0.47058824       0.11764706       0.47058824 </v>
   <v>      -0.47058824       0.11764706       0.47058824 </v>
   <v>      -0.41176471       0.11764706       0.47058824 </v>
   <v>      -0.35294118       0.11764706       0.47058824 </v>
   <v>      -0.29411765       0.11764706       0.47058824 </v>
   <v>      -0.23529412       0.11764706       0.47058824 </v>
   <v>      -0.17647059       0.11764706       0.47058824 </v>
   <v>      -0.11764706       0.11764706       0.47058824 </v>
   <v>      -0.05882353       0.11764706       0.47058824 </v>
   <v>      -0.00000000       0.17647059       0.47058824 </v>
   <v>       0.05882353       0.17647059       0.47058824 </v>
   <v>       0.11764706       0.17647059       0.47058824 </v>
   <v>       0.17647059       0.17647059       0.47058824 </v>
   <v>       0.23529412       0.17647059       0.47058824 </v>
   <v>       0.29411765       0.17647059       0.47058824 </v>
   <v>       0.35294118       0.17647059       0.47058824 </v>
   <v>       0.41176471       0.17647059       0.47058824 </v>
   <v>       0.47058824       0.17647059       0.47058824 </v>
   <v>      -0.47058824       0.17647059       0.47058824 </v>
   <v>      -0.41176471       0.17647059       0.47058824 </v>
   <v>      -0.35294118       0.17647059       0.47058824 </v>
   <v>      -0.29411765       0.17647059       0.47058824 </v>
   <v>      -0.23529412       0.17647059       0.47058824 </v>
   <v>      -0.17647059       0.17647059       0.47058824 </v>
   <v>      -0.11764706       0.17647059       0.47058824 </v>
   <v>      -0.05882353       0.17647059       0.47058824 </v>
   <v>       0.00000000       0.23529412       0.47058824 </v>
   <v>       0.05882353       0.23529412       0.47058824 </v>
   <v>       0.11764706       0.23529412       0.47058824 </v>
   <v>       0.17647059       0.23529412       0.47058824 </v>
   <v>       0.23529412       0.23529412       0.47058824 </v>
   <v>       0.29411765       0.23529412       0.47058824 </v>
   <v>       0.35294118       0.23529412       0.47058824 </v>
   <v>       0.41176471       0.23529412       0.47058824 </v>
[...]
       <r>   -6.7683    1.0000 </r>
       <r>   -6.3050    1.0000 </r>
       <r>   -1.9219    1.0000 </r>
       <r>   -1.5774    1.0000 </r>
       <r>   -1.4784    1.0000 </r>
       <r>   -1.1165    1.0000 </r>
       <r>    4.8134    1.0000 </r>
       <r>    5.1445    1.0000 </r>
       <r>    5.2928    1.0000 </r>
       <r>    5.6447    1.0000 </r>
       <r>    6.4963    1.0000 </r>
       <r>    6.6664    1.0000 </r>
       <r>    6.7683    1.0000 </r>
       <r>    7.0784    1.0000 </r>
       <r>   17.6322    0.0000 </r>
       <r>   17.9081    0.0000 </r>
       <r>   17.9794    0.0000 </r>
       <r>   18.1027    0.0000 </r>
       <r>   18.8367    0.0000 </r>
       <r>   19.0913    0.0000 </r>
       <r>   19.1152    0.0000 </r>
       <r>   19.5038    0.0000 </r>
      </set>
      <set comment="kpoint 1303">
       <r>   -7.5293    1.0000 </r>
       <r>   -7.0387    1.0000 </r>
       <r>   -6.9721    1.0000 </r>
       <r>   -6.4920    1.0000 </r>
       <r>   -1.1871    1.0000 </r>
       <r>   -0.8491    1.0000 </r>
       <r>   -0.7335    1.0000 </r>
       <r>   -0.3800    1.0000 </r>
       <r>    3.9931    1.0000 </r>
       <r>    4.3655    1.0000 </r>
       <r>    4.5185    1.0000 </r>
       <r>    4.9044    1.0000 </r>
       <r>    6.4369    1.0000 </r>
       <r>    6.6366    1.0000 </r>
       <r>    6.7147    1.0000 </r>
       <r>    7.0613    1.0000 </r>
       <r>   17.5059    0.0000 </r>
       <r>   17.8220    0.0000 </r>
       <r>   17.8774    0.0000 </r>
       <r>   18.0146    0.0000 </r>
       <r>   19.0761    0.0000 </r>
       <r>   19.3740    0.0000 </r>
       <r>   19.3959    0.0000 </r>
       <r>   19.8579    0.0000 </r>
      </set>
      <set comment="kpoint 1304">
       <r>   -7.6662    1.0000 </r>
       <r>   -7.1682    1.0000 </r>
       <r>   -7.1245    1.0000 </r>
       <r>   -6.6356    1.0000 </r>
       <r>   -0.4107    1.0000 </r>
       <r>   -0.0819    1.0000 </r>
       <r>    0.0442    1.0000 </r>
       <r>    0.3900    1.0000 </r>
       <r>    3.1479    1.0000 </r>
       <r>    3.5500    1.0000 </r>
       <r>    3.7017    1.0000 </r>
       <r>    4.1123    1.0000 </r>
       <r>    6.3945    1.0000 </r>
       <r>    6.6161    1.0000 </r>
       <r>    6.6686    1.0000 </r>
       <r>    7.0406    1.0000 </r>
       <r>   17.4103    0.0000 </r>
       <r>   17.7532    0.0000 </r>
       <r>   17.7911    0.0000 </r>
       <r>   17.9366    0.0000 </r>
       <r>   19.2989    0.0000 </r>
       <r>   19.6336    0.0000 </r>
       <r>   19.6494    0.0000 </r>
       <r>   20.1703    0.0000 </r>
      </set>
      <set comment="kpoint 1305">
       <r>   -7.7456    1.0000 </r>
       <r>   -7.2434    1.0000 </r>
       <r>   -7.2217    1.0000 </r>
       <r>   -6.7287    1.0000 </r>
       <r>    0.3524    1.0000 </r>
       <r>    0.6832    1.0000 </r>
       <r>    0.8039    1.0000 </r>
       <r>    1.1547    1.0000 </r>
       <r>    2.3424    1.0000 </r>
       <r>    2.7636    1.0000 </r>
       <r>    2.8976    1.0000 </r>
       <r>    3.3247    1.0000 </r>
       <r>    6.3727    1.0000 </r>
       <r>    6.6085    1.0000 </r>
       <r>    6.6343    1.0000 </r>
       <r>    7.0203    1.0000 </r>
       <r>   17.3535    0.0000 </r>
       <r>   17.7121    0.0000 </r>
       <r>   17.7321    0.0000 </r>
       <r>   17.8816    0.0000 </r>
       <r>   19.4576    0.0000 </r>
       <r>   19.8111    0.0000 </r>
       <r>   19.8156    0.0000 </r>
       <r>   20.3904    0.0000 </r>
      </set>
     </set>
    </set>
   </array>
  </eigenvalues>
  <separator name="orbital magnetization" >
   <v name="MAGDIPOLOUT">      0.00000000      0.00000000      0.00000000</v>
  </separator>
  <dos>
   <i name="efermi">     10.06954251 </i>
   <total>
    <array>
     <dimension dim="1">gridpoints</dimension>
     <dimension dim="2">spin</dimension>
     <field>energy</field>
     <field>total</field>
     <field>integrated</field>
     <set>
      <set comment="spin 1">
       <r>   -13.7374     0.0000     0.0000 </r>
       <r>   -13.6115     0.0000     0.0000 </r>
       <r>   -13.4856     0.0000     0.0000 </r>
       <r>   -13.3597     0.0000     0.0000 </r>
       <r>   -13.2337     0.0000     0.0000 </r>
       <r>   -13.1078     0.0000     0.0000 </r>
       <r>   -12.9819     0.0000     0.0000 </r>
       <r>   -12.8560     0.0000     0.0000 </r>
       <r>   -12.7301     0.0000     0.0000 </r>
       <r>   -12.6041     0.0000     0.0000 </r>
       <r>   -12.4782     0.0000     0.0000 </r>
       <r>   -12.3523     0.0000     0.0000 </r>
       <r>   -12.2264     0.0000     0.0000 </r>
       <r>   -12.1005     0.0000     0.0000 </r>
       <r>   -11.9745     0.0000     0.0000 </r>
       <r>   -11.8486     0.0000     0.0000 </r>
       <r>   -11.7227     0.0107     0.0001 </r>
       <r>   -11.5968     0.1844     0.0130 </r>
       <r>   -11.4709     0.2286     0.0370 </r>
       <r>   -11.3449     0.2711     0.0684 </r>
       <r>   -11.2190     0.3199     0.1054 </r>
       <r>   -11.0931     0.3515     0.1477 </r>
       <r>   -10.9672     0.3895     0.1943 </r>
       <r>   -10.8412     0.4200     0.2455 </r>
       <r>   -10.7153     0.4485     0.3001 </r>
       <r>   -10.5894     0.4805     0.3585 </r>
       <r>   -10.4635     0.5046     0.4206 </r>
       <r>   -10.3376     0.5294     0.4857 </r>
       <r>   -10.2116     0.5565     0.5540 </r>
       <r>   -10.0857     0.5799     0.6257 </r>
       <r>    -9.9598     0.6014     0.7000 </r>
       <r>    -9.8339     0.6243     0.7772 </r>
       <r>    -9.7080     0.6741     0.8574 </r>
       <r>    -9.5820     0.7742     0.9503 </r>
       <r>    -9.4561     0.7119     1.0414 </r>
       <r>    -9.3302     0.6661     1.1280 </r>
       <r>    -9.2043     0.6354     1.2099 </r>
       <r>    -9.0783     0.7914     1.2976 </r>
       <r>    -8.9524     0.7853     1.3935 </r>
       <r>    -8.8265     0.7876     1.4918 </r>
       <r>    -8.7006     0.8124     1.5923 </r>
       <r>    -8.5747     0.8304     1.6958 </r>
       <r>    -8.4487     0.8489     1.8014 </r>
       <r>    -8.3228     0.8671     1.9095 </r>
       <r>    -8.1969     0.8872     2.0200 </r>
       <r>    -8.0710     0.9068     2.1329 </r>
       <r>    -7.9451     0.9264     2.2483 </r>
       <r>    -7.8191     0.9476     2.3663 </r>
       <r>    -7.6932     1.0160     2.4888 </r>
       <r>    -7.5673     1.0028     2.6142 </r>
       <r>    -7.4414     1.0289     2.7415 </r>
       <r>    -7.3155     1.0440     2.8725 </r>
       <r>    -7.1895     1.1491     3.0067 </r>
       <r>    -7.0636     1.0824     3.1443 </r>
       <r>    -6.9377     1.0493     3.2776 </r>
       <r>    -6.8118     1.0484     3.4092 </r>
       <r>    -6.6858     1.1721     3.5486 </r>
       <r>    -6.5599     1.1969     3.6969 </r>
       <r>    -6.4340     1.1889     3.8464 </r>
       <r>    -6.3081     1.2308     3.9982 </r>
       <r>    -6.1822     1.2952     4.1572 </r>
       <r>    -6.0562     1.3629     4.3249 </r>
       <r>    -5.9303     1.5296     4.5088 </r>
       <r>    -5.8044     1.5237     4.6967 </r>
       <r>    -5.6785     1.5093     4.8900 </r>
       <r>    -5.5526     1.4704     5.0742 </r>
       <r>    -5.4266     1.4193     5.2583 </r>
       <r>    -5.3007     1.3857     5.4335 </r>
       <r>    -5.1748     1.3678     5.6057 </r>
       <r>    -5.0489     1.3007     5.7738 </r>
       <r>    -4.9229     1.2654     5.9354 </r>
       <r>    -4.7970     1.2399     6.0919 </r>
       <r>    -4.6711     1.1914     6.2456 </r>
       <r>    -4.5452     1.2043     6.3963 </r>
       <r>    -4.4193     1.1298     6.5417 </r>
       <r>    -4.2933     1.0774     6.6804 </r>
       <r>    -4.1674     1.0394     6.8138 </r>
       <r>    -4.0415     1.0033     6.9421 </r>
       <r>    -3.9156     0.9878     7.0670 </r>
       <r>    -3.7897     0.9532     7.1899 </r>
       <r>    -3.6637     0.9022     7.3065 </r>
       <r>    -3.5378     0.9709     7.4206 </r>
       <r>    -3.4119     1.0236     7.5457 </r>
       <r>    -3.2860     1.1181     7.6826 </r>
       <r>    -3.1601     1.0932     7.8218 </r>
       <r>    -3.0341     1.1219     7.9613 </r>
       <r>    -2.9082     1.0444     8.1000 </r>
       <r>    -2.7823     1.0106     8.2283 </r>
       <r>    -2.6564     0.9880     8.3522 </r>
       <r>    -2.5304     0.9814     8.4763 </r>
       <r>    -2.4045     1.0439     8.6023 </r>
       <r>    -2.2786     1.1784     8.7405 </r>
       <r>    -2.1527     1.3288     8.8974 </r>
       <r>    -2.0268     1.5768     9.0773 </r>
       <r>    -1.9008     1.9525     9.2969 </r>
       <r>    -1.7749     2.4154     9.5718 </r>
       <r>    -1.6490     2.6904     9.8963 </r>
       <r>    -1.5231     2.4089    10.2175 </r>
       <r>    -1.3972     2.0374    10.4955 </r>
       <r>    -1.2712     1.8257    10.7369 </r>
       <r>    -1.1453     1.7030    10.9586 </r>
       <r>    -1.0194     1.6494    11.1686 </r>
       <r>    -0.8935     1.5157    11.3673 </r>
       <r>    -0.7675     1.4034    11.5508 </r>
       <r>    -0.6416     1.3353    11.7225 </r>
       <r>    -0.5157     1.2905    11.8877 </r>
       <r>    -0.3898     1.2451    12.0474 </r>
       <r>    -0.2639     1.1909    12.2007 </r>
       <r>    -0.1379     1.1538    12.3481 </r>
       <r>    -0.0120     1.1181    12.4918 </r>
       <r>     0.1139     1.0788    12.6295 </r>
       <r>     0.2398     1.0533    12.7635 </r>
       <r>     0.3657     1.0954    12.8993 </r>
       <r>     0.4917     1.1570    13.0399 </r>
       <r>     0.6176     1.4986    13.2017 </r>
       <r>     0.7435     1.6921    13.4058 </r>
       <r>     0.8694     1.7110    13.6191 </r>
       <r>     0.9953     1.8590    13.8424 </r>
       <r>     1.1213     2.1122    14.0939 </r>
       <r>     1.2472     2.1835    14.3610 </r>
       <r>     1.3731     2.1535    14.6348 </r>
       <r>     1.4990     2.2455    14.9097 </r>
       <r>     1.6250     2.2717    15.2001 </r>
       <r>     1.7509     1.9124    15.4667 </r>
       <r>     1.8768     1.4593    15.6761 </r>
       <r>     2.0027     1.5913    15.8623 </r>
       <r>     2.1286     2.0787    16.0882 </r>
       <r>     2.2546     2.3158    16.3663 </r>
       <r>     2.3805     2.2546    16.6559 </r>
       <r>     2.5064     2.2199    16.9362 </r>
       <r>     2.6323     2.3015    17.2210 </r>
       <r>     2.7582     2.3139    17.5122 </r>
       <r>     2.8842     2.3525    17.8031 </r>
       <r>     3.0101     2.4928    18.1058 </r>
       <r>     3.1360     2.6983    18.4325 </r>
       <r>     3.2619     2.7953    18.7808 </r>
       <r>     3.3878     2.7201    19.1248 </r>
       <r>     3.5138     2.9610    19.4801 </r>
       <r>     3.6397     2.9156    19.8454 </r>
       <r>     3.7656     3.0790    20.2200 </r>
       <r>     3.8915     3.2610    20.6188 </r>
       <r>     4.0175     3.1587    21.0252 </r>
       <r>     4.1434     3.1114    21.4144 </r>
       <r>     4.2693     3.0750    21.8067 </r>
       <r>     4.3952     2.9179    22.1817 </r>
       <r>     4.5211     3.1375    22.5567 </r>
       <r>     4.6471     2.9411    22.9433 </r>
       <r>     4.7730     2.7196    23.2954 </r>
       <r>     4.8989     2.7124    23.6385 </r>
       <r>     5.0248     2.8134    23.9809 </r>
       <r>     5.1507     3.0101    24.3472 </r>
       <r>     5.2767     2.9479    24.7225 </r>
       <r>     5.4026     2.9295    25.0917 </r>
       <r>     5.5285     2.8310    25.4512 </r>
       <r>     5.6544     2.6468    25.7949 </r>
       <r>     5.7804     2.6375    26.1285 </r>
       <r>     5.9063     2.5808    26.4537 </r>
       <r>     6.0322     2.6477    26.7844 </r>
       <r>     6.1581     2.6535    27.1166 </r>
       <r>     6.2840     2.7141    27.4556 </r>
       <r>     6.4100     2.6690    27.7946 </r>
       <r>     6.5359     2.5697    28.1211 </r>
       <r>     6.6618     2.7046    28.4498 </r>
       <r>     6.7877     2.5222    28.7781 </r>
       <r>     6.9136     2.4624    29.0783 </r>
       <r>     7.0396     2.0301    29.3567 </r>
       <r>     7.1655     1.6925    29.5675 </r>
       <r>     7.2914     2.2687    29.8176 </r>
       <r>     7.4173     1.9144    30.0634 </r>
       <r>     7.5432     1.7215    30.2901 </r>
       <r>     7.6692     1.3700    30.4738 </r>
       <r>     7.7951     1.2643    30.6396 </r>
       <r>     7.9210     1.1752    30.7933 </r>
       <r>     8.0469     1.0890    30.9356 </r>
       <r>     8.1729     1.0080    31.0679 </r>
       <r>     8.2988     0.9283    31.1897 </r>
       <r>     8.4247     0.8575    31.3021 </r>
       <r>     8.5506     0.7884    31.4056 </r>
       <r>     8.6765     0.7246    31.5012 </r>
       <r>     8.8025     0.6607    31.5885 </r>
       <r>     8.9284     0.5995    31.6675 </r>
       <r>     9.0543     0.5301    31.7386 </r>
       <r>     9.1802     0.4770    31.8023 </r>
       <r>     9.3061     0.4156    31.8587 </r>
       <r>     9.4321     0.3490    31.9067 </r>
       <r>     9.5580     0.2816    31.9457 </r>
       <r>     9.6839     0.1946    31.9756 </r>
       <r>     9.8098     0.0841    31.9929 </r>
       <r>     9.9358     0.0218    31.9994 </r>
       <r>    10.0617     0.0000    32.0000 </r>
       <r>    10.1876     0.0000    32.0000 </r>
       <r>    10.3135     0.0000    32.0000 </r>
       <r>    10.4394     0.0000    32.0000 </r>
       <r>    10.5654     0.0000    32.0000 </r>
       <r>    10.6913     0.0000    32.0000 </r>
       <r>    10.8172     0.0000    32.0000 </r>
       <r>    10.9431     0.0000    32.0000 </r>
       <r>    11.0690     0.0000    32.0000 </r>
       <r>    11.1950     0.0000    32.0000 </r>
       <r>    11.3209     0.0000    32.0000 </r>
       <r>    11.4468     0.0000    32.0000 </r>
       <r>    11.5727     0.0000    32.0000 </r>
       <r>    11.6986     0.0000    32.0000 </r>
       <r>    11.8246     0.0000    32.0000 </r>
       <r>    11.9505     0.0000    32.0000 </r>
       <r>    12.0764     0.0000    32.0000 </r>
       <r>    12.2023     0.0000    32.0000 </r>
       <r>    12.3283     0.0000    32.0000 </r>
       <r>    12.4542     0.0000    32.0000 </r>
       <r>    12.5801     0.0000    32.0000 </r>
       <r>    12.7060     0.0000    32.0000 </r>
       <r>    12.8319     0.0000    32.0000 </r>
       <r>    12.9579     0.0000    32.0000 </r>
       <r>    13.0838     0.0000    32.0000 </r>
       <r>    13.2097     0.0000    32.0000 </r>
       <r>    13.3356     0.0000    32.0000 </r>
       <r>    13.4615     0.0000    32.0000 </r>
       <r>    13.5875     0.0000    32.0000 </r>
       <r>    13.7134     0.0000    32.0000 </r>
       <r>    13.8393     0.0133    32.0002 </r>
       <r>    13.9652     0.0938    32.0068 </r>
       <r>    14.0912     0.1232    32.0207 </r>
       <r>    14.2171     0.2193    32.0403 </r>
       <r>    14.3430     0.4506    32.0827 </r>
       <r>    14.4689     0.5509    32.1473 </r>
       <r>    14.5948     0.6661    32.2233 </r>
       <r>    14.7208     0.7929    32.3146 </r>
       <r>    14.8467     0.9115    32.4201 </r>
       <r>    14.9726     1.0546    32.5438 </r>
       <r>    15.0985     1.1461    32.6817 </r>
       <r>    15.2244     1.3309    32.8365 </r>
       <r>    15.3504     1.5100    33.0168 </r>
       <r>    15.4763     1.5703    33.2092 </r>
       <r>    15.6022     1.6211    33.4093 </r>
       <r>    15.7281     1.6793    33.6168 </r>
       <r>    15.8540     1.8000    33.8368 </r>
       <r>    15.9800     1.8931    34.0699 </r>
       <r>    16.1059     2.0123    34.3164 </r>
       <r>    16.2318     2.0070    34.5699 </r>
       <r>    16.3577     2.0270    34.8215 </r>
       <r>    16.4837     2.1691    35.0855 </r>
       <r>    16.6096     2.2476    35.3645 </r>
       <r>    16.7355     2.3167    35.6513 </r>
       <r>    16.8614     2.4116    35.9504 </r>
       <r>    16.9873     2.5158    36.2582 </r>
       <r>    17.1133     2.6189    36.5809 </r>
       <r>    17.2392     2.8008    36.9279 </r>
       <r>    17.3651     2.7913    37.2747 </r>
       <r>    17.4910     2.9591    37.6330 </r>
       <r>    17.6169     3.1448    38.0142 </r>
       <r>    17.7429     3.4441    38.4219 </r>
       <r>    17.8688     3.8041    38.8789 </r>
       <r>    17.9947     4.1504    39.3661 </r>
       <r>    18.1206     4.9491    39.9283 </r>
       <r>    18.2465     3.9150    40.4895 </r>
       <r>    18.3725     3.2210    40.9022 </r>
       <r>    18.4984     3.4923    41.3172 </r>
       <r>    18.6243     3.6018    41.7473 </r>
       <r>    18.7502     3.6909    42.1971 </r>
       <r>    18.8762     3.5244    42.6445 </r>
       <r>    19.0021     3.5632    43.0864 </r>
       <r>    19.1280     3.3209    43.5200 </r>
       <r>    19.2539     3.1726    43.9266 </r>
       <r>    19.3798     2.9811    44.3126 </r>
       <r>    19.5058     2.8581    44.6810 </r>
       <r>    19.6317     2.7727    45.0325 </r>
       <r>    19.7576     2.6792    45.3718 </r>
       <r>    19.8835     2.7349    45.7145 </r>
       <r>    20.0094     2.6377    46.0483 </r>
       <r>    20.1354     2.6253    46.3807 </r>
       <r>    20.2613     2.2745    46.6907 </r>
       <r>    20.3872     2.0062    46.9553 </r>
       <r>    20.5131     1.9045    47.1992 </r>
       <r>    20.6391     1.6078    47.4177 </r>
       <r>    20.7650     1.2778    47.5991 </r>
       <r>    20.8909     0.9637    47.7454 </r>
       <r>    21.0168     0.6845    47.8435 </r>
       <r>    21.1427     0.4076    47.9149 </r>
       <r>    21.2687     0.2062    47.9510 </r>
       <r>    21.3946     0.1343    47.9715 </r>
       <r>    21.5205     0.0896    47.9855 </r>
       <r>    21.6464     0.0435    47.9938 </r>
       <r>    21.7723     0.0210    47.9977 </r>
       <r>    21.8983     0.0085    47.9996 </r>
       <r>    22.0242     0.0001    48.0000 </r>
       <r>    22.1501     0.0000    48.0000 </r>
       <r>    22.2760     0.0000    48.0000 </r>
       <r>    22.4019     0.0000    48.0000 </r>
       <r>    22.5279     0.0000    48.0000 </r>
       <r>    22.6538     0.0000    48.0000 </r>
       <r>    22.7797     0.0000    48.0000 </r>
       <r>    22.9056     0.0000    48.0000 </r>
       <r>    23.0316     0.0000    48.0000 </r>
       <r>    23.1575     0.0000    48.0000 </r>
       <r>    23.2834     0.0000    48.0000 </r>
       <r>    23.4093     0.0000    48.0000 </r>
       <r>    23.5352     0.0000    48.0000 </r>
       <r>    23.6612     0.0000    48.0000 </r>
       <r>    23.7871     0.0000    48.0000 </r>
       <r>    23.9130     0.0000    48.0000 </r>
       <r>    24.0389     0.0000    48.0000 </r>
      </set>
     </set>
    </array>
   </total>
  </dos>
 </calculation>
 <structure name="finalpos" >
  <crystal>
   <varray name="basis" >
    <v>       3.51898101      -0.02679400       0.00000000 </v>
    <v>      -0.02679400       3.57257001       0.00000000 </v>
    <v>       0.00000000       0.00000000       3.57257001 </v>
   </varray>
   <i name="volume">     44.91109240 </i>
   <varray name="rec_basis" >
    <v>       0.28418940       0.00213140       0.00000000 </v>
    <v>       0.00213140       0.27992653       0.00000000 </v>
    <v>       0.00000000       0.00000000       0.27991054 </v>
   </varray>
  </crystal>
  <varray name="positions" >
   <v>       0.00000000       0.00000000       0.50000000 </v>
   <v>       0.25000000       0.25000000       0.75000000 </v>
   <v>       0.00000000       0.50000000       0.00000000 </v>
   <v>       0.25000000       0.75000000       0.25000000 </v>
   <v>       0.50000000       0.00000000       0.00000000 </v>
   <v>       0.75000000       0.25000000       0.25000000 </v>
   <v>       0.50000000       0.50000000       0.50000000 </v>
   <v>       0.75000000       0.75000000       0.75000000 </v>
  </varray>
 </structure>
</modeling>
