C8                                      
           1
     3.518981   -0.026794    0.000000
    -0.026794    3.572570    0.000000
     0.000000    0.000000    3.572570
   C 
     8
Direct configuration=     1
   0.00000000  0.00000000  0.50000000
   0.25000000  0.25000000  0.75000000
   0.00000000  0.50000000  0.00000000
   0.25000000  0.75000000  0.25000000
   0.50000000  0.00000000  0.00000000
   0.75000000  0.25000000  0.25000000
   0.50000000  0.50000000  0.50000000
   0.75000000  0.75000000  0.75000000
