 vasp.6.4.3 19Mar24 (build Oct 21 2024 22:36:34) complex                        
  
 executed on             LinuxIFC date 2024.11.01  22:55:34
 running   96 mpi-ranks, on    1 nodes
 distrk:  each k-point on   24 cores,    4 groups
 distr:  one band on NCORE=  12 cores,    2 groups


--------------------------------------------------------------------------------------------------------


 INCAR:
   SYSTEM = Si64
   ISTART = 0
   ICHARG = 2
   LREAL = Auto
   PREC = Accurate
   LWAVE = .False.
   LCHARG = .False.
   ADDGRID = .True.
   ENCUT = 400
   GGA = PS
   GGA_COMPAT = .FALSE.
   ISMEAR = 1
   SIGMA = 0.2
   NELM = 60
   NELMIN = 8
   EDIFF = 1e-06
   EDIFFG = -0.01
   NSW = 60
   IBRION = 2
   ISIF = 2
   KPAR = 4
   NPAR = 2
   ALGO = Fast

 POTCAR:    PAW_PBE Si 05Jan2001                  
 POTCAR:    PAW_PBE Si 05Jan2001                  
   VRHFIN =Si: s2p2                                                                                 
   LEXCH  = PE                                                                                      
   EATOM  =   103.0669 eV,    7.5752 Ry                                                             
                                                                                                    
   TITEL  = PAW_PBE Si 05Jan2001                                                                    
   LULTRA =        F    use ultrasoft PP ?                                                          
   IUNSCR =        1    unscreen: 0-lin 1-nonlin 2-no                                               
   RPACOR =    1.500    partial core radius                                                         
   POMASS =   28.085; ZVAL   =    4.000    mass and valenz                                          
   RCORE  =    1.900    outmost cutoff radius                                                       
   RWIGS  =    2.480; RWIGS  =    1.312    wigner-seitz radius (au A)                               
   ENMAX  =  245.345; ENMIN  =  184.009 eV                                                          
   ICORE  =        2    local potential                                                             
   LCOR   =        T    correct aug charges                                                         
   LPAW   =        T    paw PP                                                                      
   EAUG   =  322.069                                                                                
   DEXC   =    0.000                                                                                
   RMAX   =    1.950    core radius for proj-oper                                                   
   RAUG   =    1.300    factor for augmentation sphere                                              
   RDEP   =    1.993    radius for radial grids                                                     
   RDEPT  =    1.837    core radius for aug-charge                                                  
                                                                                                    
   Atomic configuration                                                                             
    6 entries                                                                                       
     n  l   j            E        occ.                                                              
     1  0  0.50     -1785.8828   2.0000                                                             
     2  0  0.50      -139.4969   2.0000                                                             
     2  1  1.50       -95.5546   6.0000                                                             
     3  0  0.50       -10.8127   2.0000                                                             
     3  1  0.50        -4.0811   2.0000                                                             
     3  2  1.50        -4.0817   0.0000                                                             
   Description                                                                                      
     l       E           TYP  RCUT    TYP  RCUT                                                     
     0    -10.8127223     23  1.900                                                                 
     0     -7.6451159     23  1.900                                                                 
     1     -4.0811372     23  1.900                                                                 
     1      2.4879257     23  1.900                                                                 
     2     -4.0817478      7  1.900                                                                 
  local pseudopotential read in
  partial core-charges read in
  partial kinetic energy density read in
  atomic valenz-charges read in
  non local Contribution for L=           0  read in
    real space projection operators read in
  non local Contribution for L=           0  read in
    real space projection operators read in
  non local Contribution for L=           1  read in
    real space projection operators read in
  non local Contribution for L=           1  read in
    real space projection operators read in
    PAW grid and wavefunctions read in
 
   number of l-projection  operators is LMAX  =           4
   number of lm-projection operators is LMMAX =           8
 
 Optimization of the real space projectors (new method)

 maximal supplied QI-value         = 19.84
 optimisation between [QCUT,QGAM] = [ 10.12, 20.44] = [ 28.68,116.96] Ry 
 Optimized for a Real-space Cutoff    1.38 Angstroem

   l    n(q)    QCUT    max X(q) W(low)/X(q) W(high)/X(q)  e(spline) 
   0      8    10.119   159.560    0.58E-04    0.11E-03    0.54E-07
   0      8    10.119   115.863    0.56E-04    0.11E-03    0.54E-07
   1      8    10.119    88.339    0.22E-03    0.17E-03    0.19E-06
   1      8    10.119    48.592    0.22E-03    0.17E-03    0.18E-06
 -----------------------------------------------------------------------------
|                                                                             |
|               ----> ADVICE to this user running VASP <----                  |
|                                                                             |
|     You enforced a specific xc type in the INCAR file but a different       |
|     type was found in the POTCAR file.                                      |
|     I HOPE YOU KNOW WHAT YOU ARE DOING!                                     |
|                                                                             |
 -----------------------------------------------------------------------------

  PAW_PBE Si 05Jan2001                  :
 energy of atom  1       EATOM= -103.0669
 kinetic energy error for atom=    0.0012 (will be added to EATOM!!)
 
 
 POSCAR: Si8
  positions in direct lattice
  velocities in cartesian coordinates


 exchange-correlation table for PS
   RHO(1)=    0.500       N(1)  =     2000
   RHO(2)=  100.500       N(2)  =     4000
 


--------------------------------------------------------------------------------------------------------


 ion  position               nearest neighbor table
   1  0.000  0.000  0.000-  30 2.30  44 2.30  15 2.33  57 2.33
   2  0.000  0.000  0.500-  29 2.30  43 2.30  16 2.33  58 2.33
   3  0.000  0.500  0.000-  32 2.30  42 2.30  13 2.33  59 2.33
   4  0.000  0.500  0.500-  31 2.30  41 2.30  14 2.33  60 2.33
   5  0.500  0.000  0.000-  26 2.30  48 2.30  11 2.33  61 2.33
   6  0.500  0.000  0.500-  25 2.30  47 2.30  12 2.33  62 2.33
   7  0.500  0.500  0.000-  28 2.30  46 2.30   9 2.33  63 2.33
   8  0.500  0.500  0.500-  27 2.30  45 2.30  10 2.33  64 2.33
   9  0.375  0.375  0.125-  21 2.30  35 2.30   7 2.33  49 2.33
  10  0.375  0.375  0.625-  22 2.30  36 2.30   8 2.33  50 2.33
  11  0.375  0.875  0.125-  23 2.30  33 2.30   5 2.33  51 2.33
  12  0.375  0.875  0.625-  24 2.30  34 2.30   6 2.33  52 2.33
  13  0.875  0.375  0.125-  17 2.30  39 2.30   3 2.33  53 2.33
  14  0.875  0.375  0.625-  18 2.30  40 2.30   4 2.33  54 2.33
  15  0.875  0.875  0.125-  19 2.30  37 2.30   1 2.33  55 2.33
  16  0.875  0.875  0.625-  20 2.30  38 2.30   2 2.33  56 2.33
  17  0.000  0.250  0.250-  13 2.30  57 2.30  41 2.33  29 2.33
  18  0.000  0.250  0.750-  14 2.30  58 2.30  42 2.33  30 2.33
  19  0.000  0.750  0.250-  15 2.30  59 2.30  43 2.33  31 2.33
  20  0.000  0.750  0.750-  16 2.30  60 2.30  44 2.33  32 2.33
  21  0.500  0.250  0.250-   9 2.30  61 2.30  45 2.33  25 2.33
  22  0.500  0.250  0.750-  10 2.30  62 2.30  46 2.33  26 2.33
  23  0.500  0.750  0.250-  11 2.30  63 2.30  47 2.33  27 2.33
  24  0.500  0.750  0.750-  12 2.30  64 2.30  48 2.33  28 2.33
  25  0.375  0.125  0.375-   6 2.30  50 2.30  33 2.33  21 2.33
  26  0.375  0.125  0.875-   5 2.30  49 2.30  34 2.33  22 2.33
  27  0.375  0.625  0.375-   8 2.30  52 2.30  35 2.33  23 2.33
  28  0.375  0.625  0.875-   7 2.30  51 2.30  36 2.33  24 2.33
  29  0.875  0.125  0.375-   2 2.30  54 2.30  37 2.33  17 2.33
  30  0.875  0.125  0.875-   1 2.30  53 2.30  38 2.33  18 2.33
  31  0.875  0.625  0.375-   4 2.30  56 2.30  39 2.33  19 2.33
  32  0.875  0.625  0.875-   3 2.30  55 2.30  40 2.33  20 2.33
  33  0.250  0.000  0.250-  11 2.30  57 2.30  43 2.33  25 2.33
  34  0.250  0.000  0.750-  12 2.30  58 2.30  44 2.33  26 2.33
  35  0.250  0.500  0.250-   9 2.30  59 2.30  41 2.33  27 2.33
  36  0.250  0.500  0.750-  10 2.30  60 2.30  42 2.33  28 2.33
  37  0.750  0.000  0.250-  15 2.30  61 2.30  47 2.33  29 2.33
  38  0.750  0.000  0.750-  16 2.30  62 2.30  48 2.33  30 2.33
  39  0.750  0.500  0.250-  13 2.30  63 2.30  45 2.33  31 2.33
  40  0.750  0.500  0.750-  14 2.30  64 2.30  46 2.33  32 2.33
  41  0.125  0.375  0.375-   4 2.30  50 2.30  35 2.33  17 2.33
  42  0.125  0.375  0.875-   3 2.30  49 2.30  36 2.33  18 2.33
  43  0.125  0.875  0.375-   2 2.30  52 2.30  33 2.33  19 2.33
  44  0.125  0.875  0.875-   1 2.30  51 2.30  34 2.33  20 2.33
  45  0.625  0.375  0.375-   8 2.30  54 2.30  39 2.33  21 2.33
  46  0.625  0.375  0.875-   7 2.30  53 2.30  40 2.33  22 2.33
  47  0.625  0.875  0.375-   6 2.30  56 2.30  37 2.33  23 2.33
  48  0.625  0.875  0.875-   5 2.30  55 2.30  38 2.33  24 2.33
  49  0.250  0.250  0.000-  26 2.30  42 2.30   9 2.33  57 2.33
  50  0.250  0.250  0.500-  25 2.30  41 2.30  10 2.33  58 2.33
  51  0.250  0.750  0.000-  28 2.30  44 2.30  11 2.33  59 2.33
  52  0.250  0.750  0.500-  27 2.30  43 2.30  12 2.33  60 2.33
  53  0.750  0.250  0.000-  30 2.30  46 2.30  13 2.33  61 2.33
  54  0.750  0.250  0.500-  29 2.30  45 2.30  14 2.33  62 2.33
  55  0.750  0.750  0.000-  32 2.30  48 2.30  15 2.33  63 2.33
  56  0.750  0.750  0.500-  31 2.30  47 2.30  16 2.33  64 2.33
  57  0.125  0.125  0.125-  17 2.30  33 2.30   1 2.33  49 2.33
  58  0.125  0.125  0.625-  18 2.30  34 2.30   2 2.33  50 2.33
  59  0.125  0.625  0.125-  19 2.30  35 2.30   3 2.33  51 2.33
  60  0.125  0.625  0.625-  20 2.30  36 2.30   4 2.33  52 2.33
  61  0.625  0.125  0.125-  21 2.30  37 2.30   5 2.33  53 2.33
  62  0.625  0.125  0.625-  22 2.30  38 2.30   6 2.33  54 2.33
  63  0.625  0.625  0.125-  23 2.30  39 2.30   7 2.33  55 2.33
  64  0.625  0.625  0.625-  24 2.30  40 2.30   8 2.33  56 2.33
 
  LATTYP: Found a simple monoclinic cell.
 ALAT       =    10.6391747887
 B/A-ratio  =     0.9999718759
 C/A-ratio  =     1.0149991522
 COS(beta)  =    -0.0148884205
  
  Lattice vectors:
  
 A1 = (   0.0797920118,  10.6388755712,   0.0000000000)
 A2 = (   0.0000000000,   0.0000000000, -10.6388755712)
 A3 = ( -10.7984585947,  -0.0797920118,   0.0000000000)


Analysis of symmetry for initial positions (statically):
=====================================================================
 Subroutine PRICEL returns following result:
 
  LATTYP: Found a base centered monoclinic cell.
 ALAT       =     5.3195873943
 B/A-ratio  =     0.9999718759
 C/A-ratio  =     0.7071067477
 COS(beta)  =    -0.6964212045
  
  Lattice vectors:
  
 A1 = (   0.0199480029,   2.6597188928,  -2.6597188928)
 A2 = (   0.0199480029,   2.6597188928,   2.6597188928)
 A3 = (   2.6796666457,  -2.6397708898,   0.0000000000)
 
  32 primitive cells build up your supercell.
 

 Routine SETGRP: Setting up the symmetry group for a 
 simple monoclinic supercell.


 Subroutine GETGRP returns: Found  4 space group operations
 (whereof  2 operations were pure point group operations)
 out of a pool of  4 trial point group operations.


The static configuration has the point symmetry C_2 .
 The point group associated with its full space group is C_2h.


Analysis of symmetry for dynamics (positions and initial velocities):
=====================================================================
 Subroutine PRICEL returns following result:
 
  LATTYP: Found a base centered monoclinic cell.
 ALAT       =     5.3195873943
 B/A-ratio  =     0.9999718759
 C/A-ratio  =     0.7071067477
 COS(beta)  =    -0.6964212045
  
  Lattice vectors:
  
 A1 = (   0.0199480029,   2.6597188928,  -2.6597188928)
 A2 = (   0.0199480029,   2.6597188928,   2.6597188928)
 A3 = (   2.6796666457,  -2.6397708898,   0.0000000000)
 
  32 primitive cells build up your supercell.
 

 Routine SETGRP: Setting up the symmetry group for a 
 simple monoclinic supercell.


 Subroutine GETGRP returns: Found  4 space group operations
 (whereof  2 operations were pure point group operations)
 out of a pool of  4 trial point group operations.


The dynamic configuration has the point symmetry C_2 .
 The point group associated with its full space group is C_2h.


 Subroutine INISYM returns: Found  4 space group operations
 (whereof  2 operations are pure point group operations),
 and found    32 'primitive' translations


----------------------------------------------------------------------------------------

                                     Primitive cell                                     

  volume of cell :      38.1926

  direct lattice vectors                    reciprocal lattice vectors
     0.019948003  2.659718893 -2.659718893     0.183832712  0.186611038 -0.187989791
     0.019948003  2.659718893  2.659718893     0.183832712  0.186611038  0.187989791
     2.679666646 -2.639770890  0.000000000     0.370443768 -0.002778344 -0.000000000

  length of vectors
     3.761463425  3.761463425  3.761516142     0.322425662  0.322425662  0.370454187

  position of ions in fractional coordinates (direct lattice)
     0.000000000  0.000000000  0.000000000
     0.250000000  0.750000000  0.500000000

  ion indices of the primitive-cell ions
   primitive index   ion index
                 1           1
                 2          15

----------------------------------------------------------------------------------------

 
 
 KPOINTS: Automatic mesh                          

Automatic generation of k-mesh.
 Grid dimensions read from file:
 generate k-points for:    2    2    2

 Generating k-lattice:

  Cartesian coordinates                     Fractional coordinates (reciprocal lattice)
     0.046305471 -0.000347293  0.000000000     0.500000000  0.000000000  0.000000000
    -0.000347293  0.047000053  0.000000000     0.000000000  0.500000000  0.000000000
     0.000000000  0.000000000  0.046997448     0.000000000  0.000000000  0.500000000

  Length of vectors
     0.046306773  0.047001336  0.046997448

  Shift w.r.t. Gamma in fractional coordinates (k-lattice)
     0.000000000  0.000000000  0.000000000

 
 Subroutine IBZKPT returns following result:
 ===========================================
 
 Found      8 irreducible k-points:
 
 Following reciprocal coordinates:
            Coordinates               Weight
  0.000000  0.000000  0.000000      1.000000
  0.500000 -0.000000  0.000000      1.000000
  0.000000  0.500000  0.000000      1.000000
  0.500000  0.500000  0.000000      1.000000
  0.000000  0.000000  0.500000      1.000000
  0.500000 -0.000000  0.500000      1.000000
  0.000000  0.500000  0.500000      1.000000
  0.500000  0.500000  0.500000      1.000000
 
 Following cartesian coordinates:
            Coordinates               Weight
  0.000000  0.000000  0.000000      1.000000
  0.046305 -0.000347  0.000000      1.000000
 -0.000347  0.047000  0.000000      1.000000
  0.045958  0.046653  0.000000      1.000000
  0.000000  0.000000  0.046997      1.000000
  0.046305 -0.000347  0.046997      1.000000
 -0.000347  0.047000  0.046997      1.000000
  0.045958  0.046653  0.046997      1.000000
 


--------------------------------------------------------------------------------------------------------




 Dimension of arrays:
   k-points           NKPTS =      8   k-points in BZ     NKDIM =      8   number of bands    NBANDS=    162
   number of dos      NEDOS =    301   number of ions     NIONS =     64
   non local maximal  LDIM  =      4   non local SUM 2l+1 LMDIM =      8
   total plane-waves  NPLWV = 343000
   max r-space proj   IRMAX =   3143   max aug-charges    IRDMAX=  75259
   dimension x,y,z NGX =    70 NGY =   70 NGZ =   70
   dimension x,y,z NGXF=   140 NGYF=  140 NGZF=  140
   support grid    NGXF=   280 NGYF=  280 NGZF=  280
   ions per type =              64
   NGX,Y,Z   is equivalent  to a cutoff of  10.78, 10.94, 10.94 a.u.
   NGXF,Y,Z  is equivalent  to a cutoff of  21.55, 21.88, 21.88 a.u.

 SYSTEM =  Si64                                    
 POSCAR =  Si8                                     

 Startparameter for this run:
   NWRITE =      2    write-flag & timer
   PREC   = accura    normal or accurate (medium, high low for compatibility)
   ISTART =      0    job   : 0-new  1-cont  2-samecut
   ICHARG =      2    charge: 1-file 2-atom 10-const
   ISPIN  =      1    spin polarized calculation?
   LNONCOLLINEAR =      F non collinear calculations
   LSORBIT =      F    spin-orbit coupling
   INIWAV =      1    electr: 0-lowe 1-rand  2-diag
   LASPH  =      F    aspherical Exc in radial PAW
 Electronic Relaxation 1
   ENCUT  =  400.0 eV  29.40 Ry    5.42 a.u.  17.61 17.35 17.35*2*pi/ulx,y,z
   ENINI  =  400.0     initial cutoff
   ENAUG  =  322.1 eV  augmentation charge cutoff
   NELM   =     60;   NELMIN=  8; NELMDL= -5     # of ELM steps 
   EDIFF  = 0.1E-05   stopping-criterion for ELM
   LREAL  =      T    real-space projection
   NLSPLINE    = F    spline interpolate recip. space projectors
   LCOMPAT=      F    compatible to vasp.4.4
   GGA_COMPAT  = F    GGA compatible to vasp.4.4-vasp.4.6
   LMAXPAW     = -100 max onsite density
   LMAXMIX     =    2 max onsite mixed and CHGCAR
   VOSKOWN=      0    Vosko Wilk Nusair interpolation
   ROPT   =   -0.00025
 Ionic relaxation
   EDIFFG = -.1E-01   stopping-criterion for IOM
   NSW    =     60    number of steps for IOM
   NBLOCK =      1;   KBLOCK =     60    inner block; outer block 
   IBRION =      2    ionic relax: 0-MD 1-quasi-New 2-CG
   NFREE  =      1    steps in history (QN), initial steepest desc. (CG)
   ISIF   =      2    stress and relaxation
   IWAVPR =     11    prediction:  0-non 1-charg 2-wave 3-comb
   ISYM   =      2    0-nonsym 1-usesym 2-fastsym
   LCORR  =      T    Harris-Foulkes like correction to forces

   POTIM  = 0.5000    time-step for ionic-motion
   TEIN   =    0.0    initial temperature
   TEBEG  =    0.0;   TEEND  =   0.0 temperature during run
   SMASS  =  -3.00    Nose mass-parameter (am)
   estimated Nose-frequenzy (Omega)   =  0.10E-29 period in steps = 0.13E+47 mass=  -0.266E-26a.u.
   SCALEE = 1.0000    scale energy and forces
   NPACO  =    256;   APACO  = 10.0  distance and # of slots for P.C.
   PSTRESS=    0.0 pullay stress

  Mass of Ions in am
   POMASS =  28.09
  Ionic Valenz
   ZVAL   =   4.00
  Atomic Wigner-Seitz radii
   RWIGS  =  -1.00
  virtual crystal weights 
   VCA    =   1.00
   NELECT =     256.0000    total number of electrons
   NUPDOWN=      -1.0000    fix difference up-down

 DOS related values:
   EMIN   =  10.00;   EMAX   =-10.00  energy-range for DOS
   EFERMI =   0.00;   METHOD = LEGACY      
   ISMEAR =     1;   SIGMA  =   0.20  broadening in eV -4-tet -1-fermi 0-gaus

 Electronic relaxation 2 (details)
   IALGO  =     68    algorithm
   LDIAG  =      T    sub-space diagonalisation (order eigenvalues)
   LSUBROT=      F    optimize rotation matrix (better conditioning)
   TURBO    =      0    0=normal 1=particle mesh
   IRESTART =      0    0=no restart 2=restart with 2 vectors
   NREBOOT  =      0    no. of reboots
   NMIN     =      0    reboot dimension
   EREF     =   0.00    reference energy to select bands
   IMIX   =      4    mixing-type and parameters
     AMIX     =   0.40;   BMIX     =  1.00
     AMIX_MAG =   1.60;   BMIX_MAG =  1.00
     AMIN     =   0.10
     WC   =   100.;   INIMIX=   1;  MIXPRE=   1;  MAXMIX= -45

 Intra band minimization:
   WEIMIN = 0.0010     energy-eigenvalue tresh-hold
   EBREAK =  0.15E-08  absolut break condition
   DEPER  =   0.30     relativ break condition  

   TIME   =   0.40     timestep for ELM

  volume/ion in A,a.u.               =      19.10       128.87
  Fermi-wavevector in a.u.,A,eV,Ry     =   0.972251  1.837288 12.861209  0.945272
  Thomas-Fermi vector in A             =   2.102534
 
 Write flags
   LWAVE        =      F    write WAVECAR
   LDOWNSAMPLE  =      F    k-point downsampling of WAVECAR
   LCHARG       =      F    write CHGCAR
   LVTOT        =      F    write LOCPOT, total local potential
   LVHAR        =      F    write LOCPOT, Hartree potential only
   WRT_POTENTIAL= false  ! write potential to hdf5 file
   LELF         =      F    write electronic localiz. function (ELF)
   LORBIT       =      0    0 simple, 1 ext, 2 COOP (PROOUT), +10 PAW based schemes


 Dipole corrections
   LMONO      =      F    monopole corrections only (constant potential shift)
   LDIPOL     =      F    correct potential (dipole corrections)
   IDIPOL     =      0    1-x, 2-y, 3-z, 4-all directions 
   EPSILON    =  1.0000000 bulk dielectric constant
   LVACPOTAV  =      F  vacuum potentials using an averaging scheme for the charge density
   VACPOTFLAT =  0.1000000 required flatness to determine vacuum potential
 Exchange correlation treatment:
   GGA     = PS    functional components
   XC_C    = 1    coefficients multiplying the functional components
   LIBXC   =     F    Libxc                    
   VOSKOWN =     0    Vosko Wilk Nusair interpolation
   LHFCALC =     F    Hartree Fock is set to
   LHFONE  =     F    Hartree Fock one center treatment
   AEXX    =    0.0000 exact exchange contribution

 Parameters of functionals:
   PS:
     No parameter
 
 Van der Waals corrections
   IVDW    =     0    specifies the selected vdW correction

 Linear response parameters
   LEPSILON=     F    determine dielectric tensor
   LRPA    =     F    only Hartree local field effects (RPA)
   LNABLA  =     F    use nabla operator in PAW spheres
   LVEL    =     F    velocity operator in full k-point grid
   CSHIFT  =0.1000    complex shift for real part using Kramers Kronig
   OMEGAMAX=  -1.0    maximum frequency
   DEG_THRESHOLD= 0.2000000E-02 threshold for treating states as degnerate
   RTIME   =   -0.100 relaxation time in fs
  (WPLASMAI=    0.000 imaginary part of plasma frequency in eV, 0.658/RTIME)
   DFIELD  = 0.0000000 0.0000000 0.0000000 field for delta impulse in time
 
  Optional k-point grid parameters
   LKPOINTS_OPT  =     F    use optional k-point grid
   KPOINTS_OPT_MODE=     1    mode for optional k-point grid
 
 Orbital magnetization related:
   ORBITALMAG=     F  switch on orbital magnetization
   LCHIMAG   =     F  perturbation theory with respect to B field
   DQ        =  0.001000  dq finite difference perturbation B field
   LLRAUG    =     F  two centre corrections for induced B field
   LBONE     =     F  B-component reconstruction in AE one-centre
   LVGVCALC  =     T  calculate vGv susceptibility
   LVGVAPPL  =     F  apply vGv susceptibility instead of pGv for G=0

 Random number generation:
   RANDOM_GENERATOR = DEFAULT
   PCG_SEED         = not used


--------------------------------------------------------------------------------------------------------


 conjugate gradient relaxation of ions
 charge density and potential will be updated during run
 non-spin polarized calculation
 RMM-DIIS sequential band-by-band and
  variant of blocked Davidson during initial phase
 perform sub-space diagonalisation
    before iterative eigenvector-optimisation
 modified Broyden-mixing scheme, WC =      100.0
 initial mixing is a Kerker type mixing with AMIX =  0.4000 and BMIX =      1.0000
 Hartree-type preconditioning will be used
 using additional bands           34
 real space projection scheme for non local part
 use partial core corrections
 calculate Harris-corrections to forces 
   (improved forces if not selfconsistent)
 use gradient corrections 
 use of overlap-Matrix (Vanderbilt PP)
 Methfessel and Paxton  Order N= 1 SIGMA  =   0.20


--------------------------------------------------------------------------------------------------------


  energy-cutoff  :      400.00
  volume of cell :     1222.16
      direct lattice vectors                 reciprocal lattice vectors
    10.798458595  0.079792012  0.000000000     0.092610942 -0.000694586  0.000000000
     0.079792012 10.638875571  0.000000000    -0.000694586  0.094000105  0.000000000
     0.000000000  0.000000000 10.638875571     0.000000000  0.000000000  0.093994896

  length of vectors
    10.798753390 10.639174789 10.638875571     0.092613547  0.094002671  0.093994896


 
 k-points in units of 2pi/SCALE and weight: Automatic mesh                          
   0.00000000  0.00000000  0.00000000       0.125
   0.04630548 -0.00034729  0.00000000       0.125
  -0.00034729  0.04700006  0.00000000       0.125
   0.04595818  0.04665277  0.00000000       0.125
   0.00000000  0.00000000  0.04699745       0.125
   0.04630548 -0.00034729  0.04699745       0.125
  -0.00034729  0.04700006  0.04699745       0.125
   0.04595818  0.04665277  0.04699745       0.125
 
 k-points in reciprocal lattice and weights: Automatic mesh                          
   0.00000000  0.00000000  0.00000000       0.125
   0.50000000 -0.00000000  0.00000000       0.125
   0.00000000  0.50000000  0.00000000       0.125
   0.50000000  0.50000000  0.00000000       0.125
   0.00000000  0.00000000  0.50000000       0.125
   0.50000000 -0.00000000  0.50000000       0.125
   0.00000000  0.50000000  0.50000000       0.125
   0.50000000  0.50000000  0.50000000       0.125
 
 position of ions in fractional coordinates (direct lattice) 
   0.00000000  0.00000000  0.00000000
   0.00000000  0.00000000  0.50000000
   0.00000000  0.50000000  0.00000000
   0.00000000  0.50000000  0.50000000
   0.50000000  0.00000000  0.00000000
   0.50000000  0.00000000  0.50000000
   0.50000000  0.50000000  0.00000000
   0.50000000  0.50000000  0.50000000
   0.37500000  0.37500000  0.12500000
   0.37500000  0.37500000  0.62500000
   0.37500000  0.87500000  0.12500000
   0.37500000  0.87500000  0.62500000
   0.87500000  0.37500000  0.12500000
   0.87500000  0.37500000  0.62500000
   0.87500000  0.87500000  0.12500000
   0.87500000  0.87500000  0.62500000
   0.00000000  0.25000000  0.25000000
   0.00000000  0.25000000  0.75000000
   0.00000000  0.75000000  0.25000000
   0.00000000  0.75000000  0.75000000
   0.50000000  0.25000000  0.25000000
   0.50000000  0.25000000  0.75000000
   0.50000000  0.75000000  0.25000000
   0.50000000  0.75000000  0.75000000
   0.37500000  0.12500000  0.37500000
   0.37500000  0.12500000  0.87500000
   0.37500000  0.62500000  0.37500000
   0.37500000  0.62500000  0.87500000
   0.87500000  0.12500000  0.37500000
   0.87500000  0.12500000  0.87500000
   0.87500000  0.62500000  0.37500000
   0.87500000  0.62500000  0.87500000
   0.25000000  0.00000000  0.25000000
   0.25000000  0.00000000  0.75000000
   0.25000000  0.50000000  0.25000000
   0.25000000  0.50000000  0.75000000
   0.75000000  0.00000000  0.25000000
   0.75000000  0.00000000  0.75000000
   0.75000000  0.50000000  0.25000000
   0.75000000  0.50000000  0.75000000
   0.12500000  0.37500000  0.37500000
   0.12500000  0.37500000  0.87500000
   0.12500000  0.87500000  0.37500000
   0.12500000  0.87500000  0.87500000
   0.62500000  0.37500000  0.37500000
   0.62500000  0.37500000  0.87500000
   0.62500000  0.87500000  0.37500000
   0.62500000  0.87500000  0.87500000
   0.25000000  0.25000000  0.00000000
   0.25000000  0.25000000  0.50000000
   0.25000000  0.75000000  0.00000000
   0.25000000  0.75000000  0.50000000
   0.75000000  0.25000000  0.00000000
   0.75000000  0.25000000  0.50000000
   0.75000000  0.75000000  0.00000000
   0.75000000  0.75000000  0.50000000
   0.12500000  0.12500000  0.12500000
   0.12500000  0.12500000  0.62500000
   0.12500000  0.62500000  0.12500000
   0.12500000  0.62500000  0.62500000
   0.62500000  0.12500000  0.12500000
   0.62500000  0.12500000  0.62500000
   0.62500000  0.62500000  0.12500000
   0.62500000  0.62500000  0.62500000
 
 position of ions in cartesian coordinates  (Angst):
   0.00000000  0.00000000  0.00000000
   0.00000000  0.00000000  5.31943779
   0.03989601  5.31943779  0.00000000
   0.03989601  5.31943779  5.31943779
   5.39922930  0.03989601  0.00000000
   5.39922930  0.03989601  5.31943779
   5.43912530  5.35933379  0.00000000
   5.43912530  5.35933379  5.31943779
   4.07934398  4.01950034  1.32985945
   4.07934398  4.01950034  6.64929723
   4.11923998  9.33893813  1.32985945
   4.11923998  9.33893813  6.64929723
   9.47857327  4.05939635  1.32985945
   9.47857327  4.05939635  6.64929723
   9.51846928  9.37883414  1.32985945
   9.51846928  9.37883414  6.64929723
   0.01994800  2.65971889  2.65971889
   0.01994800  2.65971889  7.97915668
   0.05984401  7.97915668  2.65971889
   0.05984401  7.97915668  7.97915668
   5.41917730  2.69961490  2.65971889
   5.41917730  2.69961490  7.97915668
   5.45907331  8.01905268  2.65971889
   5.45907331  8.01905268  7.97915668
   4.05939597  1.35978145  3.98957834
   4.05939597  1.35978145  9.30901612
   4.09929198  6.67921924  3.98957834
   4.09929198  6.67921924  9.30901612
   9.45862527  1.39967746  3.98957834
   9.45862527  1.39967746  9.30901612
   9.49852128  6.71911524  3.98957834
   9.49852128  6.71911524  9.30901612
   2.69961465  0.01994800  2.65971889
   2.69961465  0.01994800  7.97915668
   2.73951065  5.33938579  2.65971889
   2.73951065  5.33938579  7.97915668
   8.09884395  0.05984401  2.65971889
   8.09884395  0.05984401  7.97915668
   8.13873995  5.37928179  2.65971889
   8.13873995  5.37928179  7.97915668
   1.37972933  3.99955234  3.98957834
   1.37972933  3.99955234  9.30901612
   1.41962533  9.31899013  3.98957834
   1.41962533  9.31899013  9.30901612
   6.77895863  4.03944835  3.98957834
   6.77895863  4.03944835  9.30901612
   6.81885463  9.35888613  3.98957834
   6.81885463  9.35888613  9.30901612
   2.71956265  2.67966690  0.00000000
   2.71956265  2.67966690  5.31943779
   2.75945866  7.99910468  0.00000000
   2.75945866  7.99910468  5.31943779
   8.11879195  2.71956290  0.00000000
   8.11879195  2.71956290  5.31943779
   8.15868795  8.03900069  0.00000000
   8.15868795  8.03900069  5.31943779
   1.35978133  1.33983345  1.32985945
   1.35978133  1.33983345  6.64929723
   1.39967733  6.65927123  1.32985945
   1.39967733  6.65927123  6.64929723
   6.75901062  1.37972945  1.32985945
   6.75901062  1.37972945  6.64929723
   6.79890663  6.69916724  1.32985945
   6.79890663  6.69916724  6.64929723
 


--------------------------------------------------------------------------------------------------------


 k-point     1 :   0.0000 0.0000 0.0000  plane waves:   22253
 k-point     2 :   0.5000-0.0000 0.0000  plane waves:   22218
 k-point     3 :   0.0000 0.5000 0.0000  plane waves:   22182
 k-point     4 :   0.5000 0.5000 0.0000  plane waves:   22184
 k-point     5 :   0.0000 0.0000 0.5000  plane waves:   22214
 k-point     6 :   0.5000-0.0000 0.5000  plane waves:   22184
 k-point     7 :   0.0000 0.5000 0.5000  plane waves:   22196
 k-point     8 :   0.5000 0.5000 0.5000  plane waves:   22212

 maximum and minimum number of plane-waves per node :      1894     1810

 maximum number of plane-waves:     22253
 maximum index in each direction: 
   IXMAX=   17   IYMAX=   17   IZMAX=   17
   IXMIN=  -18   IYMIN=  -17   IZMIN=  -17


 real space projection operators:
  total allocation   :      12014.50 KBytes
  max/ min on nodes  :       1042.75        865.75


 parallel 3D FFT for wavefunctions:
    minimum data exchange during FFTs selected (reduces bandwidth)
 parallel 3D FFT for charge:
    minimum data exchange during FFTs selected (reduces bandwidth)


 total amount of memory used by VASP MPI-rank0    79303. kBytes
=======================================================================

   base      :      30000. kBytes
   nonlr-proj:       4631. kBytes
   fftplans  :      17991. kBytes
   grid      :       6881. kBytes
   one-center:         18. kBytes
   wavefun   :      19782. kBytes
 
     INWAV:  cpu time      0.0000: real time      0.0000
 Broyden mixing: mesh for mixing (old mesh)
   NGX = 35   NGY = 35   NGZ = 35
  (NGX  =140   NGY  =140   NGZ  =140)
  gives a total of  42875 points

 initial charge density was supplied:
 charge density of overlapping atoms calculated
 number of electron     256.0000000 magnetization 
 keeping initial charge density in first step


--------------------------------------------------------------------------------------------------------


 Maximum index for non-local projection operator          276
 Maximum index for augmentation-charges         3698 (set IRDMAX)


--------------------------------------------------------------------------------------------------------


 First call to EWALD:  gamma=   0.166
 Maximum number of real-space cells 3x 3x 3
 Maximum number of reciprocal cells 3x 3x 3

    FEWALD:  cpu time      0.0044: real time      0.0046


--------------------------------------- Ionic step        1  -------------------------------------------




--------------------------------------- Iteration      1(   1)  ---------------------------------------


    POTLOK:  cpu time      0.0825: real time      0.0854
    SETDIJ:  cpu time      0.0807: real time      0.0809
     EDDAV:  cpu time      1.2422: real time      1.3009
       DOS:  cpu time      0.0045: real time      0.0045
    --------------------------------------------
      LOOP:  cpu time      1.4100: real time      1.4717

 eigenvalue-minimisations  :  2592
 total energy-change (2. order) : 0.5669580E+03  (-0.8465586E+04)
 number of electron     256.0000000 magnetization 
 augmentation part      256.0000000 magnetization 

 Free energy of the ion-electron system (eV)
  ---------------------------------------------------
  alpha Z        PSCENC =       112.81979209
  Ewald energy   TEWEN  =     -7429.17179274
  -Hartree energ DENC   =      -329.91530572
  -exchange      EXHF   =         0.00000000
  -V(xc)+E(xc)   XCENC  =      -553.00324889
  PAW double counting   =      5598.62625415    -4492.17844134
  entropy T*S    EENTRO =        -0.00192180
  eigenvalues    EBANDS =      1094.98677683
  atomic energy  EATOM  =      6564.79586099
  Solvation  Ediel_sol  =         0.00000000
  ---------------------------------------------------
  free energy    TOTEN  =       566.95797357 eV

  energy without entropy =      566.95989537  energy(sigma->0) =      566.95861417


--------------------------------------------------------------------------------------------------------




--------------------------------------- Iteration      1(   2)  ---------------------------------------


     EDDAV:  cpu time      1.3163: real time      1.3294
       DOS:  cpu time      0.0014: real time      0.0014
    --------------------------------------------
      LOOP:  cpu time      1.3177: real time      1.3308

 eigenvalue-minimisations  :  3080
 total energy-change (2. order) :-0.8763926E+03  (-0.8298863E+03)
 number of electron     256.0000000 magnetization 
 augmentation part      256.0000000 magnetization 

 Free energy of the ion-electron system (eV)
  ---------------------------------------------------
  alpha Z        PSCENC =       112.81979209
  Ewald energy   TEWEN  =     -7429.17179274
  -Hartree energ DENC   =      -329.91530572
  -exchange      EXHF   =         0.00000000
  -V(xc)+E(xc)   XCENC  =      -553.00324889
  PAW double counting   =      5598.62625415    -4492.17844134
  entropy T*S    EENTRO =         0.02554122
  eigenvalues    EBANDS =       218.56667418
  atomic energy  EATOM  =      6564.79586099
  Solvation  Ediel_sol  =         0.00000000
  ---------------------------------------------------
  free energy    TOTEN  =      -309.43466607 eV

  energy without entropy =     -309.46020728  energy(sigma->0) =     -309.44317981


--------------------------------------------------------------------------------------------------------




--------------------------------------- Iteration      1(   3)  ---------------------------------------


     EDDAV:  cpu time      1.3550: real time      1.3708
       DOS:  cpu time      0.0017: real time      0.0017
    --------------------------------------------
      LOOP:  cpu time      1.3567: real time      1.3725

 eigenvalue-minimisations  :  3152
 total energy-change (2. order) :-0.6357421E+02  (-0.6237949E+02)
 number of electron     256.0000000 magnetization 
 augmentation part      256.0000000 magnetization 

 Free energy of the ion-electron system (eV)
  ---------------------------------------------------
  alpha Z        PSCENC =       112.81979209
  Ewald energy   TEWEN  =     -7429.17179274
  -Hartree energ DENC   =      -329.91530572
  -exchange      EXHF   =         0.00000000
  -V(xc)+E(xc)   XCENC  =      -553.00324889
  PAW double counting   =      5598.62625415    -4492.17844134
  entropy T*S    EENTRO =         0.00782123
  eigenvalues    EBANDS =       155.01018207
  atomic energy  EATOM  =      6564.79586099
  Solvation  Ediel_sol  =         0.00000000
  ---------------------------------------------------
  free energy    TOTEN  =      -373.00887816 eV

  energy without entropy =     -373.01669939  energy(sigma->0) =     -373.01148524


--------------------------------------------------------------------------------------------------------




--------------------------------------- Iteration      1(   4)  ---------------------------------------


     EDDAV:  cpu time      1.3177: real time      1.3584
       DOS:  cpu time      0.0016: real time      0.0016
    --------------------------------------------
      LOOP:  cpu time      1.3193: real time      1.3600

 eigenvalue-minimisations  :  3104
 total energy-change (2. order) :-0.1616472E+01  (-0.1605039E+01)
 number of electron     256.0000000 magnetization 
 augmentation part      256.0000000 magnetization 

 Free energy of the ion-electron system (eV)
  ---------------------------------------------------
  alpha Z        PSCENC =       112.81979209
  Ewald energy   TEWEN  =     -7429.17179274
  -Hartree energ DENC   =      -329.91530572
  -exchange      EXHF   =         0.00000000
  -V(xc)+E(xc)   XCENC  =      -553.00324889
  PAW double counting   =      5598.62625415    -4492.17844134
  entropy T*S    EENTRO =         0.00778381
  eigenvalues    EBANDS =       153.39374746
  atomic energy  EATOM  =      6564.79586099
  Solvation  Ediel_sol  =         0.00000000
  ---------------------------------------------------
  free energy    TOTEN  =      -374.62535019 eV

  energy without entropy =     -374.63313400  energy(sigma->0) =     -374.62794479


--------------------------------------------------------------------------------------------------------




--------------------------------------- Iteration      1(   5)  ---------------------------------------


     EDDAV:  cpu time      1.3364: real time      1.3544
       DOS:  cpu time      0.0013: real time      0.0013
    CHARGE:  cpu time      0.2445: real time      0.2465
    MIXING:  cpu time      0.0054: real time      0.0055
    --------------------------------------------
      LOOP:  cpu time      1.5875: real time      1.6077

 eigenvalue-minimisations  :  3124
 total energy-change (2. order) :-0.5463664E-01  (-0.5452502E-01)
 number of electron     256.0000000 magnetization 
 augmentation part      -15.0745960 magnetization 

 Broyden mixing:
  rms(total) = 0.29908E+01    rms(broyden)= 0.29908E+01
  rms(prec ) = 0.32906E+01
  weight for this iteration     100.00

 Free energy of the ion-electron system (eV)
  ---------------------------------------------------
  alpha Z        PSCENC =       112.81979209
  Ewald energy   TEWEN  =     -7429.17179274
  -Hartree energ DENC   =      -329.91530572
  -exchange      EXHF   =         0.00000000
  -V(xc)+E(xc)   XCENC  =      -553.00324889
  PAW double counting   =      5598.62625415    -4492.17844134
  entropy T*S    EENTRO =         0.00784425
  eigenvalues    EBANDS =       153.33905039
  atomic energy  EATOM  =      6564.79586099
  Solvation  Ediel_sol  =         0.00000000
  ---------------------------------------------------
  free energy    TOTEN  =      -374.67998682 eV

  energy without entropy =     -374.68783107  energy(sigma->0) =     -374.68260157


--------------------------------------------------------------------------------------------------------




--------------------------------------- Iteration      1(   6)  ---------------------------------------


    POTLOK:  cpu time      0.0741: real time      0.0883
    SETDIJ:  cpu time      0.0726: real time      0.0729
    EDDIAG:  cpu time      0.1339: real time      0.1345
  RMM-DIIS:  cpu time      0.7027: real time      0.7065
    ORTHCH:  cpu time      0.0204: real time      0.0205
       DOS:  cpu time      0.0022: real time      0.0022
    CHARGE:  cpu time      0.2364: real time      0.2375
    MIXING:  cpu time      0.0048: real time      0.0052
    --------------------------------------------
      LOOP:  cpu time      1.2471: real time      1.2677

 eigenvalue-minimisations  :  2592
 total energy-change (2. order) : 0.5728979E+01  (-0.2969817E+00)
 number of electron     256.0000000 magnetization 
 augmentation part      -14.8960778 magnetization 

 Broyden mixing:
  rms(total) = 0.18029E+01    rms(broyden)= 0.18029E+01
  rms(prec ) = 0.19719E+01
  weight for this iteration     100.00

 eigenvalues of (default mixing * dielectric matrix)
  average eigenvalue GAMMA=   2.5116
  2.5116

 Free energy of the ion-electron system (eV)
  ---------------------------------------------------
  alpha Z        PSCENC =       112.81979209
  Ewald energy   TEWEN  =     -7429.17179274
  -Hartree energ DENC   =      -378.52839556
  -exchange      EXHF   =         0.00000000
  -V(xc)+E(xc)   XCENC  =      -545.31027014
  PAW double counting   =     13005.26570854   -11902.59824147
  entropy T*S    EENTRO =         0.02015386
  eigenvalues    EBANDS =       203.75617635
  atomic energy  EATOM  =      6564.79586099
  Solvation  Ediel_sol  =         0.00000000
  ---------------------------------------------------
  free energy    TOTEN  =      -368.95100808 eV

  energy without entropy =     -368.97116194  energy(sigma->0) =     -368.95772603


--------------------------------------------------------------------------------------------------------




--------------------------------------- Iteration      1(   7)  ---------------------------------------


    POTLOK:  cpu time      0.0735: real time      0.0883
    SETDIJ:  cpu time      0.0708: real time      0.0712
    EDDIAG:  cpu time      0.1340: real time      0.1344
  RMM-DIIS:  cpu time      0.7129: real time      0.7167
    ORTHCH:  cpu time      0.0206: real time      0.0206
       DOS:  cpu time      0.0019: real time      0.0019
    CHARGE:  cpu time      0.2350: real time      0.2361
    MIXING:  cpu time      0.0051: real time      0.0051
    --------------------------------------------
      LOOP:  cpu time      1.2538: real time      1.2744

 eigenvalue-minimisations  :  2656
 total energy-change (2. order) : 0.2520042E+01  (-0.7556406E+00)
 number of electron     256.0000000 magnetization 
 augmentation part      -14.6442461 magnetization 

 Broyden mixing:
  rms(total) = 0.11051E+00    rms(broyden)= 0.11051E+00
  rms(prec ) = 0.13869E+00
  weight for this iteration     100.00

 eigenvalues of (default mixing * dielectric matrix)
  average eigenvalue GAMMA=   2.2821
  2.2821  2.2821

 Free energy of the ion-electron system (eV)
  ---------------------------------------------------
  alpha Z        PSCENC =       112.81979209
  Ewald energy   TEWEN  =     -7429.17179274
  -Hartree energ DENC   =      -458.62484984
  -exchange      EXHF   =         0.00000000
  -V(xc)+E(xc)   XCENC  =      -532.05303723
  PAW double counting   =     31150.68632018   -30053.29995182
  entropy T*S    EENTRO =         0.02512175
  eigenvalues    EBANDS =       278.39157081
  atomic energy  EATOM  =      6564.79586099
  Solvation  Ediel_sol  =         0.00000000
  ---------------------------------------------------
  free energy    TOTEN  =      -366.43096582 eV

  energy without entropy =     -366.45608756  energy(sigma->0) =     -366.43933973


--------------------------------------------------------------------------------------------------------




--------------------------------------- Iteration      1(   8)  ---------------------------------------


    POTLOK:  cpu time      0.0743: real time      0.0883
    SETDIJ:  cpu time      0.0729: real time      0.0731
    EDDIAG:  cpu time      0.1354: real time      0.1360
  RMM-DIIS:  cpu time      0.7113: real time      0.7149
    ORTHCH:  cpu time      0.0207: real time      0.0208
       DOS:  cpu time      0.0017: real time      0.0017
    CHARGE:  cpu time      0.2379: real time      0.2389
    MIXING:  cpu time      0.0044: real time      0.0044
    --------------------------------------------
      LOOP:  cpu time      1.2585: real time      1.2783

 eigenvalue-minimisations  :  2614
 total energy-change (2. order) :-0.3517362E-01  (-0.6896112E-01)
 number of electron     256.0000000 magnetization 
 augmentation part      -14.7007414 magnetization 

 Broyden mixing:
  rms(total) = 0.52339E-01    rms(broyden)= 0.52338E-01
  rms(prec ) = 0.56038E-01
  weight for this iteration     100.00

 eigenvalues of (default mixing * dielectric matrix)
  average eigenvalue GAMMA=   2.0876
  2.5509  1.8559  1.8559

 Free energy of the ion-electron system (eV)
  ---------------------------------------------------
  alpha Z        PSCENC =       112.81979209
  Ewald energy   TEWEN  =     -7429.17179274
  -Hartree energ DENC   =      -450.03697208
  -exchange      EXHF   =         0.00000000
  -V(xc)+E(xc)   XCENC  =      -532.76841188
  PAW double counting   =     30875.85212925   -29777.44598180
  entropy T*S    EENTRO =         0.02846540
  eigenvalues    EBANDS =       269.46077134
  atomic energy  EATOM  =      6564.79586099
  Solvation  Ediel_sol  =         0.00000000
  ---------------------------------------------------
  free energy    TOTEN  =      -366.46613944 eV

  energy without entropy =     -366.49460484  energy(sigma->0) =     -366.47562791


--------------------------------------------------------------------------------------------------------




--------------------------------------- Iteration      1(   9)  ---------------------------------------


    POTLOK:  cpu time      0.0743: real time      0.0896
    SETDIJ:  cpu time      0.0758: real time      0.0760
    EDDIAG:  cpu time      0.1330: real time      0.1334
  RMM-DIIS:  cpu time      0.7218: real time      0.7238
    ORTHCH:  cpu time      0.0204: real time      0.0204
       DOS:  cpu time      0.0023: real time      0.0023
    CHARGE:  cpu time      0.2365: real time      0.2371
    MIXING:  cpu time      0.0042: real time      0.0042
    --------------------------------------------
      LOOP:  cpu time      1.2682: real time      1.2868

 eigenvalue-minimisations  :  2671
 total energy-change (2. order) :-0.2191264E-01  (-0.2080100E-01)
 number of electron     256.0000000 magnetization 
 augmentation part      -14.6870725 magnetization 

 Broyden mixing:
  rms(total) = 0.59860E-01    rms(broyden)= 0.59859E-01
  rms(prec ) = 0.67790E-01
  weight for this iteration     100.00

 eigenvalues of (default mixing * dielectric matrix)
  average eigenvalue GAMMA=   1.9040
  2.5404  2.3313  2.3313  0.4130

 Free energy of the ion-electron system (eV)
  ---------------------------------------------------
  alpha Z        PSCENC =       112.81979209
  Ewald energy   TEWEN  =     -7429.17179274
  -Hartree energ DENC   =      -453.30204873
  -exchange      EXHF   =         0.00000000
  -V(xc)+E(xc)   XCENC  =      -532.33013100
  PAW double counting   =     31281.52527366   -30183.39519390
  entropy T*S    EENTRO =         0.02779982
  eigenvalues    EBANDS =       272.54238773
  atomic energy  EATOM  =      6564.79586099
  Solvation  Ediel_sol  =         0.00000000
  ---------------------------------------------------
  free energy    TOTEN  =      -366.48805208 eV

  energy without entropy =     -366.51585189  energy(sigma->0) =     -366.49731868


--------------------------------------------------------------------------------------------------------




--------------------------------------- Iteration      1(  10)  ---------------------------------------


    POTLOK:  cpu time      0.0782: real time      0.0968
    SETDIJ:  cpu time      0.0690: real time      0.0691
    EDDIAG:  cpu time      0.1314: real time      0.1317
  RMM-DIIS:  cpu time      0.7339: real time      0.7359
    ORTHCH:  cpu time      0.0204: real time      0.0204
       DOS:  cpu time      0.0017: real time      0.0017
    CHARGE:  cpu time      0.2356: real time      0.2362
    MIXING:  cpu time      0.0043: real time      0.0043
    --------------------------------------------
      LOOP:  cpu time      1.2743: real time      1.2962

 eigenvalue-minimisations  :  2735
 total energy-change (2. order) :-0.3926903E-02  (-0.3666876E-02)
 number of electron     256.0000000 magnetization 
 augmentation part      -14.6935144 magnetization 

 Broyden mixing:
  rms(total) = 0.78208E-01    rms(broyden)= 0.78208E-01
  rms(prec ) = 0.85275E-01
  weight for this iteration     100.00

 eigenvalues of (default mixing * dielectric matrix)
  average eigenvalue GAMMA=   1.5417
  2.6472  2.1114  1.9208  0.5800  0.4488

 Free energy of the ion-electron system (eV)
  ---------------------------------------------------
  alpha Z        PSCENC =       112.81979209
  Ewald energy   TEWEN  =     -7429.17179274
  -Hartree energ DENC   =      -453.39433679
  -exchange      EXHF   =         0.00000000
  -V(xc)+E(xc)   XCENC  =      -532.31972873
  PAW double counting   =     31305.17852254   -30207.05220129
  entropy T*S    EENTRO =         0.02776510
  eigenvalues    EBANDS =       272.62413986
  atomic energy  EATOM  =      6564.79586099
  Solvation  Ediel_sol  =         0.00000000
  ---------------------------------------------------
  free energy    TOTEN  =      -366.49197898 eV

  energy without entropy =     -366.51974408  energy(sigma->0) =     -366.50123401


--------------------------------------------------------------------------------------------------------




--------------------------------------- Iteration      1(  11)  ---------------------------------------


    POTLOK:  cpu time      0.0843: real time      0.0935
    SETDIJ:  cpu time      0.0683: real time      0.0684
    EDDIAG:  cpu time      0.1310: real time      0.1315
  RMM-DIIS:  cpu time      0.7004: real time      0.7023
    ORTHCH:  cpu time      0.0203: real time      0.0204
       DOS:  cpu time      0.0019: real time      0.0019
    CHARGE:  cpu time      0.2348: real time      0.2354
    MIXING:  cpu time      0.0043: real time      0.0043
    --------------------------------------------
      LOOP:  cpu time      1.2452: real time      1.2576

 eigenvalue-minimisations  :  2592
 total energy-change (2. order) : 0.3772774E-02  (-0.1275263E-02)
 number of electron     256.0000000 magnetization 
 augmentation part      -14.7077629 magnetization 

 Broyden mixing:
  rms(total) = 0.67933E-01    rms(broyden)= 0.67933E-01
  rms(prec ) = 0.68561E-01
  weight for this iteration     100.00

 eigenvalues of (default mixing * dielectric matrix)
  average eigenvalue GAMMA=   1.4133
  2.5619  2.5619  1.0977  1.0977  0.8881  0.2725

 Free energy of the ion-electron system (eV)
  ---------------------------------------------------
  alpha Z        PSCENC =       112.81979209
  Ewald energy   TEWEN  =     -7429.17179274
  -Hartree energ DENC   =      -450.83725916
  -exchange      EXHF   =         0.00000000
  -V(xc)+E(xc)   XCENC  =      -532.50603927
  PAW double counting   =     31253.70224104   -30155.31292522
  entropy T*S    EENTRO =         0.02858202
  eigenvalues    EBANDS =       269.99333405
  atomic energy  EATOM  =      6564.79586099
  Solvation  Ediel_sol  =         0.00000000
  ---------------------------------------------------
  free energy    TOTEN  =      -366.48820621 eV

  energy without entropy =     -366.51678823  energy(sigma->0) =     -366.49773355


--------------------------------------------------------------------------------------------------------




--------------------------------------- Iteration      1(  12)  ---------------------------------------


    POTLOK:  cpu time      0.0777: real time      0.0949
    SETDIJ:  cpu time      0.0680: real time      0.0681
    EDDIAG:  cpu time      0.1316: real time      0.1321
  RMM-DIIS:  cpu time      0.6818: real time      0.6835
    ORTHCH:  cpu time      0.0202: real time      0.0202
       DOS:  cpu time      0.0019: real time      0.0019
    CHARGE:  cpu time      0.2365: real time      0.2371
    MIXING:  cpu time      0.0047: real time      0.0048
    --------------------------------------------
      LOOP:  cpu time      1.2225: real time      1.2427

 eigenvalue-minimisations  :  2610
 total energy-change (2. order) :-0.1399763E-03  (-0.1869056E-03)
 number of electron     256.0000000 magnetization 
 augmentation part      -14.7111219 magnetization 

 Broyden mixing:
  rms(total) = 0.68413E-01    rms(broyden)= 0.68413E-01
  rms(prec ) = 0.68845E-01
  weight for this iteration     100.00

 eigenvalues of (default mixing * dielectric matrix)
  average eigenvalue GAMMA=   1.3712
  2.5666  2.5666  1.3960  1.0699  0.8986  0.7760  0.3245

 Free energy of the ion-electron system (eV)
  ---------------------------------------------------
  alpha Z        PSCENC =       112.81979209
  Ewald energy   TEWEN  =     -7429.17179274
  -Hartree energ DENC   =      -450.65170822
  -exchange      EXHF   =         0.00000000
  -V(xc)+E(xc)   XCENC  =      -532.53639507
  PAW double counting   =     31173.67039710   -30075.28921639
  entropy T*S    EENTRO =         0.02860378
  eigenvalues    EBANDS =       269.84611229
  atomic energy  EATOM  =      6564.79586099
  Solvation  Ediel_sol  =         0.00000000
  ---------------------------------------------------
  free energy    TOTEN  =      -366.48834618 eV

  energy without entropy =     -366.51694996  energy(sigma->0) =     -366.49788078


--------------------------------------------------------------------------------------------------------




--------------------------------------- Iteration      1(  13)  ---------------------------------------


    POTLOK:  cpu time      0.0776: real time      0.0939
    SETDIJ:  cpu time      0.0678: real time      0.0679
    EDDIAG:  cpu time      0.1324: real time      0.1329
  RMM-DIIS:  cpu time      0.7238: real time      0.7255
    ORTHCH:  cpu time      0.0201: real time      0.0202
       DOS:  cpu time      0.0017: real time      0.0017
    CHARGE:  cpu time      0.2357: real time      0.2363
    MIXING:  cpu time      0.0048: real time      0.0048
    --------------------------------------------
      LOOP:  cpu time      1.2639: real time      1.2833

 eigenvalue-minimisations  :  2754
 total energy-change (2. order) :-0.7148626E-04  (-0.3634072E-04)
 number of electron     256.0000000 magnetization 
 augmentation part      -14.7115975 magnetization 

 Broyden mixing:
  rms(total) = 0.76855E-01    rms(broyden)= 0.76855E-01
  rms(prec ) = 0.77253E-01
  weight for this iteration     100.00

 eigenvalues of (default mixing * dielectric matrix)
  average eigenvalue GAMMA=   1.6439
  2.8132  2.8132  2.4775  2.0076  1.0050  0.8478  0.8478  0.3392

 Free energy of the ion-electron system (eV)
  ---------------------------------------------------
  alpha Z        PSCENC =       112.81979209
  Ewald energy   TEWEN  =     -7429.17179274
  -Hartree energ DENC   =      -450.70328984
  -exchange      EXHF   =         0.00000000
  -V(xc)+E(xc)   XCENC  =      -532.52457806
  PAW double counting   =     31239.15173252   -30140.76987080
  entropy T*S    EENTRO =         0.02860435
  eigenvalues    EBANDS =       269.88512382
  atomic energy  EATOM  =      6564.79586099
  Solvation  Ediel_sol  =         0.00000000
  ---------------------------------------------------
  free energy    TOTEN  =      -366.48841767 eV

  energy without entropy =     -366.51702202  energy(sigma->0) =     -366.49795245


--------------------------------------------------------------------------------------------------------




--------------------------------------- Iteration      1(  14)  ---------------------------------------


    POTLOK:  cpu time      0.0832: real time      0.0974
    SETDIJ:  cpu time      0.0687: real time      0.0689
    EDDIAG:  cpu time      0.1339: real time      0.1345
  RMM-DIIS:  cpu time      0.7003: real time      0.7020
    ORTHCH:  cpu time      0.0205: real time      0.0205
       DOS:  cpu time      0.0015: real time      0.0015
    CHARGE:  cpu time      0.2349: real time      0.2355
    MIXING:  cpu time      0.0046: real time      0.0047
    --------------------------------------------
      LOOP:  cpu time      1.2477: real time      1.2650

 eigenvalue-minimisations  :  2604
 total energy-change (2. order) : 0.2221893E-04  (-0.1020187E-04)
 number of electron     256.0000000 magnetization 
 augmentation part      -14.7120535 magnetization 

 Broyden mixing:
  rms(total) = 0.39783E-01    rms(broyden)= 0.39783E-01
  rms(prec ) = 0.40244E-01
  weight for this iteration     100.00

 eigenvalues of (default mixing * dielectric matrix)
  average eigenvalue GAMMA=   1.4557
  2.5390  2.5102  2.5102  1.7985  0.9426  0.9408  0.9408  0.3439  0.5750

 Free energy of the ion-electron system (eV)
  ---------------------------------------------------
  alpha Z        PSCENC =       112.81979209
  Ewald energy   TEWEN  =     -7429.17179274
  -Hartree energ DENC   =      -450.45758490
  -exchange      EXHF   =         0.00000000
  -V(xc)+E(xc)   XCENC  =      -532.57087505
  PAW double counting   =     30918.19266666   -29819.84055560
  entropy T*S    EENTRO =         0.02861893
  eigenvalues    EBANDS =       269.71547418
  atomic energy  EATOM  =      6564.79586099
  Solvation  Ediel_sol  =         0.00000000
  ---------------------------------------------------
  free energy    TOTEN  =      -366.48839545 eV

  energy without entropy =     -366.51701438  energy(sigma->0) =     -366.49793509


--------------------------------------------------------------------------------------------------------




--------------------------------------- Iteration      1(  15)  ---------------------------------------


    POTLOK:  cpu time      0.0723: real time      0.0890
    SETDIJ:  cpu time      0.0730: real time      0.0731
    EDDIAG:  cpu time      0.1334: real time      0.1340
  RMM-DIIS:  cpu time      0.7112: real time      0.7129
    ORTHCH:  cpu time      0.0200: real time      0.0201
       DOS:  cpu time      0.0022: real time      0.0022
    CHARGE:  cpu time      0.2357: real time      0.2362
    MIXING:  cpu time      0.0045: real time      0.0045
    --------------------------------------------
      LOOP:  cpu time      1.2523: real time      1.2721

 eigenvalue-minimisations  :  2633
 total energy-change (2. order) :-0.1008346E-03  (-0.4220008E-05)
 number of electron     256.0000000 magnetization 
 augmentation part      -14.7123282 magnetization 

 Broyden mixing:
  rms(total) = 0.36364E-01    rms(broyden)= 0.36364E-01
  rms(prec ) = 0.36699E-01
  weight for this iteration     100.00

 eigenvalues of (default mixing * dielectric matrix)
  average eigenvalue GAMMA=   1.4380
  2.6280  2.6280  2.3722  1.5196  1.0449  1.0449  0.9620  0.9620  0.8776  0.3406

 Free energy of the ion-electron system (eV)
  ---------------------------------------------------
  alpha Z        PSCENC =       112.81979209
  Ewald energy   TEWEN  =     -7429.17179274
  -Hartree energ DENC   =      -450.45834559
  -exchange      EXHF   =         0.00000000
  -V(xc)+E(xc)   XCENC  =      -532.56393414
  PAW double counting   =     30932.88827253   -29834.53145400
  entropy T*S    EENTRO =         0.02864624
  eigenvalues    EBANDS =       269.70445834
  atomic energy  EATOM  =      6564.79586099
  Solvation  Ediel_sol  =         0.00000000
  ---------------------------------------------------
  free energy    TOTEN  =      -366.48849628 eV

  energy without entropy =     -366.51714253  energy(sigma->0) =     -366.49804503


--------------------------------------------------------------------------------------------------------




--------------------------------------- Iteration      1(  16)  ---------------------------------------


    POTLOK:  cpu time      0.0726: real time      0.0883
    SETDIJ:  cpu time      0.0704: real time      0.0705
    EDDIAG:  cpu time      0.1620: real time      0.1626
  RMM-DIIS:  cpu time      0.7124: real time      0.7141
    ORTHCH:  cpu time      0.0209: real time      0.0209
       DOS:  cpu time      0.0020: real time      0.0020
    CHARGE:  cpu time      0.2380: real time      0.2386
    MIXING:  cpu time      0.0059: real time      0.0059
    --------------------------------------------
      LOOP:  cpu time      1.2842: real time      1.3030

 eigenvalue-minimisations  :  2592
 total energy-change (2. order) :-0.8856626E-04  (-0.4304029E-05)
 number of electron     256.0000000 magnetization 
 augmentation part      -14.7117474 magnetization 

 Broyden mixing:
  rms(total) = 0.25593E-01    rms(broyden)= 0.25593E-01
  rms(prec ) = 0.25746E-01
  weight for this iteration     100.00

 eigenvalues of (default mixing * dielectric matrix)
  average eigenvalue GAMMA=   1.4235
  2.6582  2.6582  2.3246  1.8857  1.1719  1.1719  0.9502  0.9502  0.3412  0.8496
  0.6968

 Free energy of the ion-electron system (eV)
  ---------------------------------------------------
  alpha Z        PSCENC =       112.81979209
  Ewald energy   TEWEN  =     -7429.17179274
  -Hartree energ DENC   =      -450.63841668
  -exchange      EXHF   =         0.00000000
  -V(xc)+E(xc)   XCENC  =      -532.54643363
  PAW double counting   =     30921.03317861   -29822.67987510
  entropy T*S    EENTRO =         0.02865312
  eigenvalues    EBANDS =       269.87044851
  atomic energy  EATOM  =      6564.79586099
  Solvation  Ediel_sol  =         0.00000000
  ---------------------------------------------------
  free energy    TOTEN  =      -366.48858485 eV

  energy without entropy =     -366.51723797  energy(sigma->0) =     -366.49813589


--------------------------------------------------------------------------------------------------------




--------------------------------------- Iteration      1(  17)  ---------------------------------------


    POTLOK:  cpu time      0.0780: real time      0.0926
    SETDIJ:  cpu time      0.0702: real time      0.0703
    EDDIAG:  cpu time      0.1366: real time      0.1369
  RMM-DIIS:  cpu time      0.6878: real time      0.6894
    ORTHCH:  cpu time      0.0207: real time      0.0208
       DOS:  cpu time      0.0032: real time      0.0032
    CHARGE:  cpu time      0.2398: real time      0.2404
    MIXING:  cpu time      0.0046: real time      0.0046
    --------------------------------------------
      LOOP:  cpu time      1.2407: real time      1.2582

 eigenvalue-minimisations  :  2592
 total energy-change (2. order) :-0.1479017E-04  (-0.1066980E-05)
 number of electron     256.0000000 magnetization 
 augmentation part      -14.7115392 magnetization 

 Broyden mixing:
  rms(total) = 0.12254E-01    rms(broyden)= 0.12254E-01
  rms(prec ) = 0.12365E-01
  weight for this iteration     100.00

 eigenvalues of (default mixing * dielectric matrix)
  average eigenvalue GAMMA=   1.5223
  1.8311  1.8311  2.6489  2.6489  2.4461  1.8946  0.9830  0.9830  0.8958  0.8818
  0.8818  0.3410

 Free energy of the ion-electron system (eV)
  ---------------------------------------------------
  alpha Z        PSCENC =       112.81979209
  Ewald energy   TEWEN  =     -7429.17179274
  -Hartree energ DENC   =      -450.63700435
  -exchange      EXHF   =         0.00000000
  -V(xc)+E(xc)   XCENC  =      -532.55514001
  PAW double counting   =     30831.77501194   -29733.42367952
  entropy T*S    EENTRO =         0.02866134
  eigenvalues    EBANDS =       269.87969062
  atomic energy  EATOM  =      6564.79586099
  Solvation  Ediel_sol  =         0.00000000
  ---------------------------------------------------
  free energy    TOTEN  =      -366.48859964 eV

  energy without entropy =     -366.51726098  energy(sigma->0) =     -366.49815342


--------------------------------------------------------------------------------------------------------




--------------------------------------- Iteration      1(  18)  ---------------------------------------


    POTLOK:  cpu time      0.0804: real time      0.0980
    SETDIJ:  cpu time      0.0673: real time      0.0678
    EDDIAG:  cpu time      0.1321: real time      0.1325
  RMM-DIIS:  cpu time      0.5680: real time      0.5694
    ORTHCH:  cpu time      0.0202: real time      0.0203
       DOS:  cpu time      0.0023: real time      0.0023
    CHARGE:  cpu time      0.2123: real time      0.2579
    MIXING:  cpu time      0.0045: real time      0.0055
    --------------------------------------------
      LOOP:  cpu time      1.0870: real time      1.1536

 eigenvalue-minimisations  :  2073
 total energy-change (2. order) :-0.9515202E-05  (-0.4086106E-06)
 number of electron     256.0000000 magnetization 
 augmentation part      -14.7113377 magnetization 

 Broyden mixing:
  rms(total) = 0.50861E-02    rms(broyden)= 0.50861E-02
  rms(prec ) = 0.51638E-02
  weight for this iteration     100.00

 eigenvalues of (default mixing * dielectric matrix)
  average eigenvalue GAMMA=   1.7219
  3.5829  3.5829  2.3067  2.0208  2.0208  1.7460  1.7460  1.4700  0.3410  0.8823
  0.8823  0.9453  0.8580

 Free energy of the ion-electron system (eV)
  ---------------------------------------------------
  alpha Z        PSCENC =       112.81979209
  Ewald energy   TEWEN  =     -7429.17179274
  -Hartree energ DENC   =      -450.65947717
  -exchange      EXHF   =         0.00000000
  -V(xc)+E(xc)   XCENC  =      -532.55639756
  PAW double counting   =     30793.53072543   -29695.18021693
  entropy T*S    EENTRO =         0.02866538
  eigenvalues    EBANDS =       269.90423136
  atomic energy  EATOM  =      6564.79586099
  Solvation  Ediel_sol  =         0.00000000
  ---------------------------------------------------
  free energy    TOTEN  =      -366.48860916 eV

  energy without entropy =     -366.51727454  energy(sigma->0) =     -366.49816428


--------------------------------------------------------------------------------------------------------




--------------------------------------- Iteration      1(  19)  ---------------------------------------


    POTLOK:  cpu time      0.0722: real time      0.0945
    SETDIJ:  cpu time      0.0687: real time      0.0693
    EDDIAG:  cpu time      0.1313: real time      0.1323
  RMM-DIIS:  cpu time      0.5324: real time      0.5370
    ORTHCH:  cpu time      0.0201: real time      0.0203
       DOS:  cpu time      0.0023: real time      0.0023
    CHARGE:  cpu time      0.2349: real time      0.2371
    MIXING:  cpu time      0.0048: real time      0.0049
    --------------------------------------------
      LOOP:  cpu time      1.0668: real time      1.0976

 eigenvalue-minimisations  :  1930
 total energy-change (2. order) :-0.4557861E-05  (-0.3390789E-06)
 number of electron     256.0000000 magnetization 
 augmentation part      -14.7111900 magnetization 

 Broyden mixing:
  rms(total) = 0.65110E-03    rms(broyden)= 0.65100E-03
  rms(prec ) = 0.67638E-03
  weight for this iteration     100.00

 eigenvalues of (default mixing * dielectric matrix)
  average eigenvalue GAMMA=   2.0322
  9.2042  2.6170  2.5471  2.5471  1.7162  1.7162  2.0433  0.3410  1.0660  1.0660
  0.8919  0.8919  0.9567  0.8467

 Free energy of the ion-electron system (eV)
  ---------------------------------------------------
  alpha Z        PSCENC =       112.81979209
  Ewald energy   TEWEN  =     -7429.17179274
  -Hartree energ DENC   =      -450.69326171
  -exchange      EXHF   =         0.00000000
  -V(xc)+E(xc)   XCENC  =      -532.55475215
  PAW double counting   =     30778.88733292   -29680.53642659
  entropy T*S    EENTRO =         0.02866947
  eigenvalues    EBANDS =       269.93596402
  atomic energy  EATOM  =      6564.79586099
  Solvation  Ediel_sol  =         0.00000000
  ---------------------------------------------------
  free energy    TOTEN  =      -366.48861371 eV

  energy without entropy =     -366.51728318  energy(sigma->0) =     -366.49817020


--------------------------------------------------------------------------------------------------------




--------------------------------------- Iteration      1(  20)  ---------------------------------------


    POTLOK:  cpu time      0.0821: real time      0.0926
    SETDIJ:  cpu time      0.0674: real time      0.0676
    EDDIAG:  cpu time      0.1312: real time      0.1316
  RMM-DIIS:  cpu time      0.4472: real time      0.4485
    ORTHCH:  cpu time      0.0203: real time      0.0203
       DOS:  cpu time      0.0023: real time      0.0023
    --------------------------------------------
      LOOP:  cpu time      0.7506: real time      0.7629

 eigenvalue-minimisations  :  1558
 total energy-change (2. order) :-0.3756486E-06  (-0.8490066E-07)
 number of electron     256.0000000 magnetization 
 augmentation part      -14.7111900 magnetization 

 Free energy of the ion-electron system (eV)
  ---------------------------------------------------
  alpha Z        PSCENC =       112.81979209
  Ewald energy   TEWEN  =     -7429.17179274
  -Hartree energ DENC   =      -450.70747486
  -exchange      EXHF   =         0.00000000
  -V(xc)+E(xc)   XCENC  =      -532.55322905
  PAW double counting   =     30782.51909532   -29684.16786105
  entropy T*S    EENTRO =         0.02867033
  eigenvalues    EBANDS =       269.94832489
  atomic energy  EATOM  =      6564.79586099
  Solvation  Ediel_sol  =         0.00000000
  ---------------------------------------------------
  free energy    TOTEN  =      -366.48861409 eV

  energy without entropy =     -366.51728442  energy(sigma->0) =     -366.49817087


--------------------------------------------------------------------------------------------------------




 average (electrostatic) potential at core
  the test charge radii are     0.9892
  (the norm of the test charge is              1.0000)
       1 -82.4947       2 -82.4947       3 -82.4947       4 -82.4947       5 -82.4947
       6 -82.4947       7 -82.4947       8 -82.4947       9 -82.4947      10 -82.4947
      11 -82.4947      12 -82.4947      13 -82.4947      14 -82.4947      15 -82.4947
      16 -82.4947      17 -82.4947      18 -82.4947      19 -82.4947      20 -82.4947
      21 -82.4947      22 -82.4947      23 -82.4947      24 -82.4947      25 -82.4947
      26 -82.4947      27 -82.4947      28 -82.4947      29 -82.4947      30 -82.4947
      31 -82.4947      32 -82.4947      33 -82.4947      34 -82.4947      35 -82.4947
      36 -82.4947      37 -82.4947      38 -82.4947      39 -82.4947      40 -82.4947
      41 -82.4947      42 -82.4947      43 -82.4947      44 -82.4947      45 -82.4947
      46 -82.4947      47 -82.4947      48 -82.4947      49 -82.4947      50 -82.4947
      51 -82.4947      52 -82.4947      53 -82.4947      54 -82.4947      55 -82.4947
      56 -82.4947      57 -82.4947      58 -82.4947      59 -82.4947      60 -82.4947
      61 -82.4947      62 -82.4947      63 -82.4947      64 -82.4947
 
 
 
 E-fermi :   6.5038     XC(G=0):  -9.7350     alpha+bet :-12.5598

 val. band max:        6.3233671407   @ k =   0.0000   0.0000   0.0000
 cond. band min:       6.6458588054   @ k =   0.0000   0.0000   0.0000
 fundamental gap:      0.3224916647
 Fermi energy:         6.5037820109

 k-point     1 :       0.0000    0.0000    0.0000
  band No.  band energies     occupation 
      1      -6.0426      2.00000
      2      -4.9306      2.00000
      3      -4.9306      2.00000
      4      -4.9021      2.00000
      5      -4.9021      2.00000
      6      -4.9017      2.00000
      7      -4.9017      2.00000
      8      -3.9476      2.00000
      9      -3.9476      2.00000
     10      -3.9035      2.00000
     11      -3.9035      2.00000
     12      -3.9035      2.00000
     13      -3.9035      2.00000
     14      -3.8829      2.00000
     15      -3.8829      2.00000
     16      -3.8829      2.00000
     17      -3.8829      2.00000
     18      -3.8582      2.00000
     19      -3.8582      2.00000
     20      -3.6203      2.00000
     21      -3.6203      2.00000
     22      -3.5172      2.00000
     23      -3.5172      2.00000
     24      -1.7689      2.00000
     25      -1.7689      2.00000
     26      -1.7368      2.00000
     27      -1.6740      2.00000
     28      -1.6740      2.00000
     29      -1.6132      2.00000
     30      -1.5940      2.00000
     31      -1.5940      2.00000
     32      -1.5600      2.00000
     33      -1.5600      2.00000
     34      -1.5239      2.00000
     35      -1.5239      2.00000
     36      -1.5239      2.00000
     37      -1.5239      2.00000
     38      -1.4538      2.00000
     39      -1.4538      2.00000
     40      -1.4211      2.00000
     41      -1.4211      2.00000
     42      -0.9757      2.00000
     43      -0.9757      2.00000
     44      -0.9550      2.00000
     45      -0.9550      2.00000
     46       0.6602      2.00000
     47       0.6602      2.00000
     48       0.6602      2.00000
     49       0.6602      2.00000
     50       0.6876      2.00000
     51       0.6876      2.00000
     52       0.7167      2.00000
     53       0.7167      2.00000
     54       0.7167      2.00000
     55       0.7167      2.00000
     56       0.7440      2.00000
     57       0.7440      2.00000
     58       2.1642      2.00000
     59       2.1642      2.00000
     60       2.1659      2.00000
     61       2.1659      2.00000
     62       2.1659      2.00000
     63       2.1659      2.00000
     64       2.1661      2.00000
     65       2.1661      2.00000
     66       2.1712      2.00000
     67       2.1712      2.00000
     68       2.1742      2.00000
     69       2.1742      2.00000
     70       2.2341      2.00000
     71       2.2341      2.00000
     72       2.2341      2.00000
     73       2.2341      2.00000
     74       2.3018      2.00000
     75       2.3018      2.00000
     76       2.3201      2.00000
     77       2.3201      2.00000
     78       2.3201      2.00000
     79       2.3201      2.00000
     80       2.3372      2.00000
     81       2.3372      2.00000
     82       2.6935      2.00000
     83       2.6935      2.00000
     84       2.8041      2.00000
     85       2.8041      2.00000
     86       2.8076      2.00000
     87       2.8076      2.00000
     88       3.1589      2.00000
     89       3.2423      2.00000
     90       3.2423      2.00000
     91       3.3267      2.00000
     92       3.3614      2.00000
     93       3.3614      2.00000
     94       4.1786      2.00000
     95       4.1786      2.00000
     96       4.2355      2.00000
     97       4.2355      2.00000
     98       4.2693      2.00000
     99       4.2693      2.00000
    100       4.3288      2.00000
    101       4.3289      2.00000
    102       4.3451      2.00000
    103       4.3451      2.00000
    104       4.3451      2.00000
    105       4.3451      2.00000
    106       4.8105      2.00000
    107       4.8105      2.00000
    108       4.8491      2.00000
    109       4.8492      2.00000
    110       4.8492      2.00000
    111       4.8492      2.00000
    112       4.8899      2.00000
    113       4.8899      2.00000
    114       4.9252      2.00000
    115       4.9252      2.00000
    116       4.9751      2.00000
    117       4.9751      2.00000
    118       4.9751      2.00000
    119       4.9751      2.00000
    120       5.0004      2.00000
    121       5.0004      2.00000
    122       5.0744      2.00000
    123       5.0744      2.00000
    124       5.1512      2.00000
    125       5.1512      2.00000
    126       6.2075      2.05694
    127       6.3172      2.03338
    128       6.3234      2.02351
    129       6.6459      0.07311
    130       6.7330     -0.06880
    131       6.7330     -0.06880
    132       6.8224     -0.04677
    133       6.8550     -0.03233
    134       6.8550     -0.03233
    135       7.2299     -0.00000
    136       7.2299     -0.00000
    137       7.2300     -0.00000
    138       7.2300     -0.00000
    139       7.3501     -0.00000
    140       7.3501     -0.00000
    141       7.8273     -0.00000
    142       7.8274     -0.00000
    143       7.9808     -0.00000
    144       7.9808     -0.00000
    145       8.5695     -0.00000
    146       8.5697     -0.00000
    147       8.6182     -0.00000
    148       8.6183     -0.00000
    149       8.6187     -0.00000
    150       8.6193     -0.00000
    151       8.6718     -0.00000
    152       8.6726     -0.00000
    153       8.7057     -0.00000
    154       8.7615     -0.00000
    155       8.7616     -0.00000
    156       8.7622     -0.00000
    157       8.7646     -0.00000
    158       8.7842     -0.00000
    159       8.9582     -0.00000
    160       9.2912     -0.00000
    161       9.3167     -0.00000
    162       9.3720     -0.00000

 k-point     2 :       0.5000   -0.0000    0.0000
  band No.  band energies     occupation 
      1      -5.7623      2.00000
      2      -5.7623      2.00000
      3      -4.6678      2.00000
      4      -4.6678      2.00000
      5      -4.6458      2.00000
      6      -4.6458      2.00000
      7      -4.6458      2.00000
      8      -4.6458      2.00000
      9      -4.6230      2.00000
     10      -4.6230      2.00000
     11      -3.7738      2.00000
     12      -3.7738      2.00000
     13      -3.7738      2.00000
     14      -3.7738      2.00000
     15      -3.7116      2.00000
     16      -3.7116      2.00000
     17      -3.7116      2.00000
     18      -3.7116      2.00000
     19      -3.5783      2.00000
     20      -3.5783      2.00000
     21      -2.8434      2.00000
     22      -2.8434      2.00000
     23      -2.7794      2.00000
     24      -2.7794      2.00000
     25      -2.7794      2.00000
     26      -2.7794      2.00000
     27      -2.7142      2.00000
     28      -2.7142      2.00000
     29      -1.6546      2.00000
     30      -1.6546      2.00000
     31      -1.6308      2.00000
     32      -1.6308      2.00000
     33      -1.5434      2.00000
     34      -1.5434      2.00000
     35      -1.5214      2.00000
     36      -1.5214      2.00000
     37      -0.4495      2.00000
     38      -0.4495      2.00000
     39      -0.3976      2.00000
     40      -0.3976      2.00000
     41      -0.3976      2.00000
     42      -0.3976      2.00000
[...]
 -0.000  -0.000   4.171   0.000  -0.000   7.770   0.000  -0.000
  0.001   0.001   0.000   4.171   0.000   0.000   7.770   0.000
 -0.000  -0.000  -0.000   0.000   4.171  -0.000   0.000   7.770
 -0.000  -0.000   7.770   0.000  -0.000  14.486   0.000   0.000
  0.002   0.002   0.000   7.770   0.000   0.000  14.486   0.000
 -0.000  -0.000  -0.000   0.000   7.770   0.000   0.000  14.486
 total augmentation occupancy for first ion, spin component:           1
  6.331  -2.503  -0.000  -0.040  -0.000   0.000   0.015  -0.000
 -2.503   1.098   0.000   0.021  -0.000   0.000  -0.007   0.000
 -0.000   0.000   3.103   0.000  -0.005  -0.705  -0.000  -0.001
 -0.040   0.021   0.000   3.104   0.000  -0.000  -0.705   0.000
 -0.000  -0.000  -0.005   0.000   3.133  -0.001   0.000  -0.717
  0.000   0.000  -0.705  -0.000  -0.001   0.170   0.000   0.000
  0.015  -0.007  -0.000  -0.705   0.000   0.000   0.170   0.000
 -0.000   0.000  -0.001   0.000  -0.717   0.000   0.000   0.173


------------------------ aborting loop because EDIFF is reached ----------------------------------------


    CHARGE:  cpu time      0.2428: real time      0.2437
    FORLOC:  cpu time      0.0212: real time      0.0213
    FORNL :  cpu time      0.6723: real time      0.6742
    STRESS:  cpu time      2.1085: real time      2.1177
    FORCOR:  cpu time      0.0853: real time      0.0855
    FORHAR:  cpu time      0.0342: real time      0.0343
    MIXING:  cpu time      0.0186: real time      0.0187
    OFIELD:  cpu time      0.0001: real time      0.0001

  FORCE on cell =-STRESS in cart. coord.  units (eV):
  Direction    XX          YY          ZZ          XY          YZ          ZX
  --------------------------------------------------------------------------------------
  Alpha Z   112.81979   112.81979   112.81979
  Ewald   -2442.80450 -2493.47902 -2493.35727    -8.77186    -0.00000    -0.00000
  Hartree   155.53690   147.49777   147.37144    -6.16385    -0.00000    -0.00000
  E(xc)    -827.33098  -826.84782  -826.87336     0.06562    -0.00000    -0.00000
  Local    -949.90404  -888.89619  -889.21650    16.49606     0.00000    -0.00000
  n-local  2519.79627  2511.67230  2512.12147    -0.46552    -0.00000     0.00000
  augment  -369.25666  -369.26970  -369.29396     0.53243     0.00000     0.00000
  Kinetic  1833.94111  1850.03522  1849.54170    -9.97432    -0.00001    -0.00000
  Fock        0.00000     0.00000     0.00000     0.00000     0.00000     0.00000
  -------------------------------------------------------------------------------------
  Total      32.79789    43.53235    43.11331    -8.28145     0.00000     0.00000
  in kB      42.99592    57.06812    56.51878   -10.85644     0.00000     0.00000
  external pressure =       52.19 kB  Pullay stress =        0.00 kB


 VOLUME and BASIS-vectors are now :
 -----------------------------------------------------------------------------
  energy-cutoff  :      400.00
  volume of cell :     1222.16
      direct lattice vectors                 reciprocal lattice vectors
    10.798458595  0.079792012  0.000000000     0.092610942 -0.000694586  0.000000000
     0.079792012 10.638875571  0.000000000    -0.000694586  0.094000105  0.000000000
     0.000000000  0.000000000 10.638875571     0.000000000  0.000000000  0.093994896

  length of vectors
    10.798753390 10.639174789 10.638875571     0.092613547  0.094002671  0.093994896


 FORCES acting on ions
    electron-ion (+dipol)            ewald-force                    non-local-force                 convergence-correction
 -----------------------------------------------------------------------------------------------
   0.102E-08 0.212E-08 -.126E+01   0.142E-13 -.422E-14 0.895E+00   0.132E-20 0.868E-21 0.364E+00   -.105E-12 -.758E-13 0.179E-04
   0.102E-08 0.212E-08 -.126E+01   0.169E-13 -.444E-14 0.895E+00   -.810E-20 0.485E-21 0.364E+00   0.883E-13 -.197E-13 0.179E-04
   0.102E-08 0.212E-08 -.126E+01   0.799E-14 0.133E-14 0.895E+00   -.833E-20 -.149E-20 0.364E+00   -.637E-13 0.928E-13 0.179E-04
   0.102E-08 0.212E-08 -.126E+01   0.444E-14 0.120E-13 0.895E+00   0.208E-20 0.150E-21 0.364E+00   0.588E-13 0.193E-13 0.179E-04
   0.102E-08 0.212E-08 -.126E+01   0.488E-14 -.178E-14 0.895E+00   -.605E-20 -.197E-20 0.364E+00   0.111E-12 -.594E-13 0.179E-04
   0.102E-08 0.212E-08 -.126E+01   -.155E-13 -.533E-14 0.895E+00   0.455E-21 -.561E-21 0.364E+00   -.110E-12 0.801E-14 0.179E-04
   0.102E-08 0.212E-08 -.126E+01   -.444E-14 0.711E-14 0.895E+00   -.438E-21 0.258E-21 0.364E+00   0.757E-13 0.681E-13 0.179E-04
   0.102E-08 0.212E-08 -.126E+01   -.107E-13 0.107E-13 0.895E+00   -.732E-20 0.673E-21 0.364E+00   -.883E-13 -.577E-14 0.179E-04
   0.736E-10 -.511E-09 0.126E+01   -.111E-13 0.124E-13 -.895E+00   -.239E-20 0.909E-21 -.364E+00   0.985E-13 0.111E-12 -.179E-04
   0.736E-10 -.511E-09 0.126E+01   -.888E-14 0.533E-14 -.895E+00   0.265E-20 0.126E-20 -.364E+00   -.842E-13 -.630E-13 -.179E-04
   0.736E-10 -.512E-09 0.126E+01   -.311E-14 0.444E-14 -.895E+00   0.130E-19 0.112E-20 -.364E+00   0.343E-13 -.116E-12 -.179E-04
   0.736E-10 -.512E-09 0.126E+01   -.888E-14 0.888E-14 -.895E+00   0.195E-20 -.778E-21 -.364E+00   -.249E-13 0.631E-13 -.179E-04
   0.735E-10 -.510E-09 0.126E+01   0.622E-14 0.266E-14 -.895E+00   0.118E-19 0.710E-21 -.364E+00   -.964E-13 -.662E-14 -.179E-04
   0.736E-10 -.512E-09 0.126E+01   -.533E-14 0.533E-14 -.895E+00   0.502E-20 -.407E-21 -.364E+00   0.757E-13 0.871E-13 -.179E-04
   0.735E-10 -.512E-09 0.126E+01   0.213E-13 0.533E-14 -.895E+00   -.488E-20 0.377E-21 -.364E+00   -.279E-13 -.171E-14 -.179E-04
   0.736E-10 -.511E-09 0.126E+01   0.195E-13 0.888E-14 -.895E+00   0.532E-20 0.118E-20 -.364E+00   0.139E-13 -.863E-13 -.179E-04
   0.102E-08 0.212E-08 -.126E+01   -.422E-14 -.124E-13 0.895E+00   -.625E-20 -.296E-20 0.364E+00   -.751E-13 0.162E-13 0.179E-04
   0.102E-08 0.212E-08 -.126E+01   -.102E-13 -.888E-14 0.895E+00   -.184E-20 0.791E-21 0.364E+00   0.788E-13 0.480E-14 0.179E-04
   0.102E-08 0.212E-08 -.126E+01   -.711E-14 -.215E-13 0.895E+00   -.109E-20 -.218E-20 0.364E+00   0.568E-14 -.203E-13 0.179E-04
   0.102E-08 0.212E-08 -.126E+01   -.711E-14 -.147E-13 0.895E+00   -.128E-19 0.999E-21 0.364E+00   -.182E-13 -.733E-14 0.179E-04
   0.102E-08 0.212E-08 -.126E+01   -.377E-14 -.160E-13 0.895E+00   0.154E-20 -.851E-21 0.364E+00   0.672E-13 0.114E-12 0.179E-04
   0.102E-08 0.212E-08 -.126E+01   -.120E-13 -.160E-13 0.895E+00   -.120E-19 0.141E-20 0.364E+00   -.871E-13 -.106E-12 0.179E-04
   0.102E-08 0.212E-08 -.126E+01   -.133E-13 -.107E-13 0.895E+00   -.850E-20 -.245E-20 0.364E+00   -.117E-13 -.112E-12 0.179E-04
   0.102E-08 0.212E-08 -.126E+01   -.142E-13 -.107E-13 0.895E+00   0.171E-20 0.467E-21 0.364E+00   0.743E-14 0.106E-12 0.179E-04
   0.735E-10 -.511E-09 0.126E+01   -.222E-14 -.326E-14 -.895E+00   0.131E-20 0.324E-20 -.364E+00   -.941E-13 0.460E-13 -.179E-04
   0.736E-10 -.511E-09 0.126E+01   -.933E-14 0.264E-15 -.895E+00   0.495E-20 -.208E-21 -.364E+00   0.117E-12 -.812E-13 -.179E-04
   0.736E-10 -.511E-09 0.126E+01   -.711E-14 -.492E-14 -.895E+00   0.810E-20 -.480E-21 -.364E+00   -.800E-13 -.369E-13 -.179E-04
   0.735E-10 -.511E-09 0.126E+01   0.000E+00 -.781E-14 -.895E+00   -.470E-20 -.214E-20 -.364E+00   0.797E-13 0.762E-13 -.179E-04
   0.736E-10 -.511E-09 0.126E+01   -.666E-14 -.150E-14 -.895E+00   0.648E-20 -.230E-21 -.364E+00   0.805E-13 0.523E-13 -.179E-04
   0.736E-10 -.513E-09 0.126E+01   -.209E-13 -.150E-14 -.895E+00   -.380E-20 -.194E-20 -.364E+00   -.109E-12 -.113E-12 -.179E-04
   0.736E-10 -.511E-09 0.126E+01   -.178E-13 0.409E-15 -.895E+00   0.396E-21 0.227E-20 -.364E+00   0.818E-13 -.506E-13 -.179E-04
   0.736E-10 -.511E-09 0.126E+01   -.249E-13 0.485E-14 -.895E+00   0.689E-20 -.153E-21 -.364E+00   -.864E-13 0.117E-12 -.179E-04
   0.102E-08 0.212E-08 -.126E+01   0.977E-14 0.129E-13 0.895E+00   0.736E-20 0.158E-20 0.364E+00   -.101E-12 0.215E-13 0.179E-04
   0.102E-08 0.212E-08 -.126E+01   -.133E-14 -.488E-14 0.895E+00   0.739E-20 -.164E-20 0.364E+00   0.141E-12 -.882E-13 0.179E-04
   0.102E-08 0.212E-08 -.126E+01   -.577E-14 0.200E-13 0.895E+00   -.509E-20 0.265E-20 0.364E+00   -.448E-14 -.183E-13 0.179E-04
   0.102E-08 0.212E-08 -.126E+01   -.444E-14 0.844E-14 0.895E+00   0.616E-20 0.268E-21 0.364E+00   0.259E-13 0.942E-13 0.179E-04
   0.102E-08 0.212E-08 -.126E+01   0.200E-13 0.115E-13 0.895E+00   -.974E-20 0.275E-20 0.364E+00   0.106E-12 0.106E-12 0.179E-04
   0.102E-08 0.212E-08 -.126E+01   0.138E-13 0.444E-14 0.895E+00   0.775E-20 -.658E-21 0.364E+00   -.125E-12 -.187E-12 0.179E-04
   0.102E-08 0.212E-08 -.126E+01   0.204E-13 0.444E-14 0.895E+00   0.840E-20 0.142E-20 0.364E+00   0.167E-13 -.965E-13 0.179E-04
   0.102E-08 0.212E-08 -.126E+01   0.142E-13 0.000E+00 0.895E+00   0.484E-20 -.944E-21 0.364E+00   -.197E-13 0.191E-12 0.179E-04
   0.735E-10 -.511E-09 0.126E+01   0.175E-13 0.577E-14 -.895E+00   0.247E-20 -.208E-20 -.364E+00   -.302E-13 -.359E-13 -.179E-04
   0.736E-10 -.511E-09 0.126E+01   -.117E-14 0.200E-13 -.895E+00   -.854E-20 0.516E-21 -.364E+00   0.619E-13 0.113E-12 -.179E-04
   0.736E-10 -.511E-09 0.126E+01   0.228E-13 0.138E-13 -.895E+00   -.718E-20 -.215E-20 -.364E+00   -.214E-13 0.316E-13 -.179E-04
   0.736E-10 -.511E-09 0.126E+01   0.228E-13 0.102E-13 -.895E+00   0.332E-20 0.156E-20 -.364E+00   0.280E-13 -.113E-12 -.179E-04
   0.736E-10 -.512E-09 0.126E+01   0.619E-14 0.711E-14 -.895E+00   -.794E-20 -.152E-20 -.364E+00   0.330E-13 -.324E-13 -.179E-04
   0.736E-10 -.510E-09 0.126E+01   -.694E-15 0.142E-13 -.895E+00   0.205E-20 0.122E-20 -.364E+00   -.681E-13 0.837E-13 -.179E-04
   0.736E-10 -.511E-09 0.126E+01   -.713E-14 0.124E-13 -.895E+00   0.746E-22 -.346E-20 -.364E+00   0.224E-13 0.232E-13 -.179E-04
   0.736E-10 -.512E-09 0.126E+01   -.102E-13 0.195E-13 -.895E+00   -.776E-20 0.944E-21 -.364E+00   -.308E-13 -.820E-13 -.179E-04
   0.102E-08 0.212E-08 -.126E+01   -.178E-13 -.400E-14 0.895E+00   0.853E-20 0.203E-20 0.364E+00   0.793E-13 0.752E-13 0.179E-04
   0.102E-08 0.212E-08 -.126E+01   0.755E-14 -.111E-13 0.895E+00   -.247E-20 0.209E-20 0.364E+00   -.202E-13 -.575E-13 0.179E-04
   0.102E-08 0.212E-08 -.126E+01   -.488E-14 -.129E-13 0.895E+00   -.332E-20 0.134E-21 0.364E+00   0.601E-13 -.770E-13 0.179E-04
   0.102E-08 0.212E-08 -.126E+01   -.115E-13 -.133E-14 0.895E+00   0.718E-20 -.209E-20 0.364E+00   -.472E-13 0.596E-13 0.179E-04
   0.102E-08 0.212E-08 -.126E+01   -.666E-14 -.133E-13 0.895E+00   -.290E-20 0.491E-22 0.364E+00   -.880E-13 0.315E-13 0.179E-04
   0.102E-08 0.212E-08 -.126E+01   0.933E-14 -.266E-14 0.895E+00   0.709E-20 -.272E-20 0.364E+00   0.451E-13 -.288E-13 0.179E-04
   0.102E-08 0.212E-08 -.126E+01   0.164E-13 -.488E-14 0.895E+00   0.522E-20 0.243E-20 0.364E+00   -.673E-13 -.445E-13 0.179E-04
   0.102E-08 0.212E-08 -.126E+01   0.178E-13 0.000E+00 0.895E+00   0.775E-21 0.177E-20 0.364E+00   0.706E-13 0.364E-13 0.179E-04
   0.735E-10 -.511E-09 0.126E+01   0.978E-17 0.367E-14 -.895E+00   -.573E-20 -.111E-20 -.364E+00   -.117E-12 0.333E-13 -.179E-04
   0.736E-10 -.511E-09 0.126E+01   -.417E-15 0.724E-14 -.895E+00   0.444E-20 0.729E-21 -.364E+00   0.151E-12 -.771E-13 -.179E-04
   0.736E-10 -.511E-09 0.126E+01   -.220E-14 0.130E-13 -.895E+00   -.336E-20 -.176E-20 -.364E+00   -.320E-14 -.269E-13 -.179E-04
   0.736E-10 -.511E-09 0.126E+01   -.262E-14 0.860E-14 -.895E+00   -.779E-20 0.112E-21 -.364E+00   0.101E-14 0.761E-13 -.179E-04
   0.736E-10 -.511E-09 0.126E+01   0.659E-14 0.599E-14 -.895E+00   -.390E-21 -.118E-20 -.364E+00   0.109E-12 0.101E-12 -.179E-04
   0.736E-10 -.511E-09 0.126E+01   0.485E-14 0.245E-14 -.895E+00   -.438E-20 -.143E-21 -.364E+00   -.144E-12 -.136E-12 -.179E-04
   0.736E-10 -.511E-09 0.126E+01   0.488E-14 -.194E-14 -.895E+00   -.839E-20 -.232E-20 -.364E+00   -.549E-14 -.929E-13 -.179E-04
   0.735E-10 -.511E-09 0.126E+01   -.106E-13 0.308E-15 -.895E+00   0.190E-20 0.106E-20 -.364E+00   0.916E-15 0.140E-12 -.179E-04
 -----------------------------------------------------------------------------------------------
   0.349E-07 0.515E-07 0.319E-04   -.581E-14 0.934E-13 -.124E-13   -.135E-19 -.212E-20 0.128E-14   -.280E-13 0.437E-13 0.340E-09
 
 
 POSITION                                       TOTAL-FORCE (eV/Angst)
 -----------------------------------------------------------------------------------
      0.00000      0.00000      0.00629         0.000000     -0.000000     -0.000026
      0.00000      0.00000      5.32573        -0.000000      0.000000     -0.000026
      0.03990      5.31944      0.00629         0.000000     -0.000000     -0.000026
      0.03990      5.31944      5.32573         0.000000      0.000000     -0.000026
      5.39923      0.03990      0.00629        -0.000000      0.000000     -0.000026
      5.39923      0.03990      5.32573        -0.000000      0.000000     -0.000026
      5.43913      5.35933      0.00629         0.000000     -0.000000     -0.000026
      5.43913      5.35933      5.32573         0.000000      0.000000     -0.000026
      4.07934      4.01950      1.32357        -0.000000     -0.000000      0.000026
      4.07934      4.01950      6.64300        -0.000000     -0.000000      0.000026
      4.11924      9.33894      1.32357        -0.000000     -0.000000      0.000026
      4.11924      9.33894      6.64300        -0.000000     -0.000000      0.000026
      9.47857      4.05940      1.32357         0.000000      0.000000      0.000026
      9.47857      4.05940      6.64300         0.000000      0.000000      0.000026
      9.51847      9.37883      1.32357         0.000000      0.000000      0.000026
      9.51847      9.37883      6.64300        -0.000000     -0.000000      0.000026
      0.01995      2.65972      2.66601        -0.000000     -0.000000     -0.000026
      0.01995      2.65972      7.98545         0.000000      0.000000     -0.000026
      0.05984      7.97916      2.66601         0.000000     -0.000000     -0.000026
      0.05984      7.97916      7.98545         0.000000      0.000000     -0.000026
      5.41918      2.69961      2.66601         0.000000      0.000000     -0.000026
      5.41918      2.69961      7.98545        -0.000000      0.000000     -0.000026
      5.45907      8.01905      2.66601        -0.000000      0.000000     -0.000026
      5.45907      8.01905      7.98545        -0.000000      0.000000     -0.000026
      4.05940      1.35978      3.98328        -0.000000     -0.000000      0.000026
      4.05940      1.35978      9.30272        -0.000000     -0.000000      0.000026
      4.09929      6.67922      3.98328        -0.000000     -0.000000      0.000026
      4.09929      6.67922      9.30272        -0.000000      0.000000      0.000026
      9.45863      1.39968      3.98328         0.000000      0.000000      0.000026
      9.45863      1.39968      9.30272         0.000000      0.000000      0.000026
      9.49852      6.71912      3.98328         0.000000     -0.000000      0.000026
      9.49852      6.71912      9.30272        -0.000000      0.000000      0.000026
      2.69961      0.01995      2.66601        -0.000000      0.000000     -0.000026
      2.69961      0.01995      7.98545        -0.000000     -0.000000     -0.000026
      2.73951      5.33939      2.66601         0.000000      0.000000     -0.000026
      2.73951      5.33939      7.98545        -0.000000     -0.000000     -0.000026
      8.09884      0.05984      2.66601         0.000000      0.000000     -0.000026
      8.09884      0.05984      7.98545         0.000000      0.000000     -0.000026
      8.13874      5.37928      2.66601        -0.000000     -0.000000     -0.000026
      8.13874      5.37928      7.98545        -0.000000     -0.000000     -0.000026
      1.37973      3.99955      3.98328         0.000000      0.000000      0.000026
      1.37973      3.99955      9.30272        -0.000000      0.000000      0.000026
      1.41963      9.31899      3.98328         0.000000      0.000000      0.000026
      1.41963      9.31899      9.30272         0.000000      0.000000      0.000026
      6.77896      4.03945      3.98328        -0.000000     -0.000000      0.000026
      6.77896      4.03945      9.30272        -0.000000     -0.000000      0.000026
      6.81885      9.35889      3.98328         0.000000     -0.000000      0.000026
      6.81885      9.35889      9.30272        -0.000000      0.000000      0.000026
      2.71956      2.67967      0.00629         0.000000     -0.000000     -0.000026
      2.71956      2.67967      5.32573         0.000000     -0.000000     -0.000026
      2.75946      7.99910      0.00629        -0.000000     -0.000000     -0.000026
      2.75946      7.99910      5.32573        -0.000000      0.000000     -0.000026
      8.11879      2.71956      0.00629        -0.000000     -0.000000     -0.000026
      8.11879      2.71956      5.32573         0.000000      0.000000     -0.000026
      8.15869      8.03900      0.00629         0.000000     -0.000000     -0.000026
      8.15869      8.03900      5.32573        -0.000000      0.000000     -0.000026
      1.35978      1.33983      1.32357         0.000000      0.000000      0.000026
      1.35978      1.33983      6.64300         0.000000      0.000000      0.000026
      1.39968      6.65927      1.32357         0.000000      0.000000      0.000026
      1.39968      6.65927      6.64300         0.000000      0.000000      0.000026
      6.75901      1.37973      1.32357        -0.000000     -0.000000      0.000026
      6.75901      1.37973      6.64300        -0.000000     -0.000000      0.000026
      6.79891      6.69917      1.32357         0.000000      0.000000      0.000026
      6.79891      6.69917      6.64300         0.000000     -0.000000      0.000026
 -----------------------------------------------------------------------------------
    total drift:                                0.000000      0.000000      0.000032


--------------------------------------------------------------------------------------------------------



  FREE ENERGIE OF THE ION-ELECTRON SYSTEM (eV)
  ---------------------------------------------------
  free  energy   TOTEN  =      -366.52533427 eV

  energy  without entropy=     -366.54889235  energy(sigma->0) =     -366.53318696
 
 d Force = 0.5861871E-02[ 0.427E-05, 0.117E-01]  d Energy = 0.5874862E-02-0.130E-04
 d Force =-0.1347270E+00[-0.145E+00,-0.125E+00]  d Ewald  =-0.1347267E+00-0.344E-06


--------------------------------------------------------------------------------------------------------


    POTLOK:  cpu time      0.1421: real time      0.1425


--------------------------------------------------------------------------------------------------------




--------------------------------------------------------------------------------------------------------


  
 reached required accuracy - stopping structural energy minimisation
     LOOP+:  cpu time     12.9487: real time     13.1026
    4ORBIT:  cpu time      0.0000: real time      0.0000

 total amount of memory used by VASP MPI-rank0    79303. kBytes
=======================================================================

   base      :      30000. kBytes
   nonlr-proj:       4631. kBytes
   fftplans  :      17991. kBytes
   grid      :       6881. kBytes
   one-center:         18. kBytes
   wavefun   :      19782. kBytes
 
  
  
 General timing and accounting informations for this job:
 ========================================================
  
                  Total CPU time used (sec):       60.086
                            User time (sec):       57.199
                          System time (sec):        2.887
                         Elapsed time (sec):       64.051
  
                   Maximum memory used (kb):      410432.
                   Average memory used (kb):          N/A
  
                          Minor page faults:        93524
                          Major page faults:            0
                 Voluntary context switches:         8754
