Si64                                    
           1
    10.798459    0.079792    0.000000
     0.079792   10.638876    0.000000
     0.000000    0.000000   10.638876
   Si
    64
Direct configuration=     1
   0.00000000  0.00000000  0.00000000
   0.00000000  0.00000000  0.50000000
   0.00000000  0.50000000  0.00000000
   0.00000000  0.50000000  0.50000000
   0.50000000  0.00000000  0.00000000
   0.50000000  0.00000000  0.50000000
   0.50000000  0.50000000  0.00000000
   0.50000000  0.50000000  0.50000000
   0.37500000  0.37500000  0.12500000
   0.37500000  0.37500000  0.62500000
   0.37500000  0.87500000  0.12500000
   0.37500000  0.87500000  0.62500000
   0.87500000  0.37500000  0.12500000
   0.87500000  0.37500000  0.62500000
   0.87500000  0.87500000  0.12500000
   0.87500000  0.87500000  0.62500000
   0.00000000  0.25000000  0.25000000
   0.00000000  0.25000000  0.75000000
   0.00000000  0.75000000  0.25000000
   0.00000000  0.75000000  0.75000000
   0.50000000  0.25000000  0.25000000
   0.50000000  0.25000000  0.75000000
   0.50000000  0.75000000  0.25000000
   0.50000000  0.75000000  0.75000000
   0.37500000  0.12500000  0.37500000
   0.37500000  0.12500000  0.87500000
   0.37500000  0.62500000  0.37500000
   0.37500000  0.62500000  0.87500000
   0.87500000  0.12500000  0.37500000
   0.87500000  0.12500000  0.87500000
   0.87500000  0.62500000  0.37500000
   0.87500000  0.62500000  0.87500000
   0.25000000  0.00000000  0.25000000
   0.25000000  0.00000000  0.75000000
   0.25000000  0.50000000  0.25000000
   0.25000000  0.50000000  0.75000000
   0.75000000  0.00000000  0.25000000
   0.75000000  0.00000000  0.75000000
   0.75000000  0.50000000  0.25000000
   0.75000000  0.50000000  0.75000000
   0.12500000  0.37500000  0.37500000
   0.12500000  0.37500000  0.87500000
   0.12500000  0.87500000  0.37500000
   0.12500000  0.87500000  0.87500000
   0.62500000  0.37500000  0.37500000
   0.62500000  0.37500000  0.87500000
   0.62500000  0.87500000  0.37500000
   0.62500000  0.87500000  0.87500000
   0.25000000  0.25000000  0.00000000
   0.25000000  0.25000000  0.50000000
   0.25000000  0.75000000  0.00000000
   0.25000000  0.75000000  0.50000000
   0.75000000  0.25000000  0.00000000
   0.75000000  0.25000000  0.50000000
   0.75000000  0.75000000  0.00000000
   0.75000000  0.75000000  0.50000000
   0.12500000  0.12500000  0.12500000
   0.12500000  0.12500000  0.62500000
   0.12500000  0.62500000  0.12500000
   0.12500000  0.62500000  0.62500000
   0.62500000  0.12500000  0.12500000
   0.62500000  0.12500000  0.62500000
   0.62500000  0.62500000  0.12500000
   0.62500000  0.62500000  0.62500000
Direct configuration=     2
   0.00000000  1.00000000  0.00082925
   0.00000000  1.00000000  0.50082925
   1.00000000  0.50000000  0.00082925
   1.00000000  0.50000000  0.50082925
   0.50000000  0.00000000  0.00082925
   0.50000000  0.00000000  0.50082925
   0.50000000  0.50000000  0.00082925
   0.50000000  0.50000000  0.50082925
   0.37500000  0.37500000  0.12417075
   0.37500000  0.37500000  0.62417075
   0.37500000  0.87500000  0.12417075
   0.37500000  0.87500000  0.62417075
   0.87500000  0.37500000  0.12417075
   0.87500000  0.37500000  0.62417075
   0.87500000  0.87500000  0.12417075
   0.87500000  0.87500000  0.62417075
   1.00000000  0.25000000  0.25082925
   0.00000000  0.25000000  0.75082925
   0.00000000  0.75000000  0.25082925
   0.00000000  0.75000000  0.75082925
   0.50000000  0.25000000  0.25082925
   0.50000000  0.25000000  0.75082925
   0.50000000  0.75000000  0.25082925
   0.50000000  0.75000000  0.75082925
   0.37500000  0.12500000  0.37417075
   0.37500000  0.12500000  0.87417075
   0.37500000  0.62500000  0.37417075
   0.37500000  0.62500000  0.87417075
   0.87500000  0.12500000  0.37417075
   0.87500000  0.12500000  0.87417075
   0.87500000  0.62500000  0.37417075
   0.87500000  0.62500000  0.87417075
   0.25000000  1.00000000  0.25082925
   0.25000000  1.00000000  0.75082925
   0.25000000  0.50000000  0.25082925
   0.25000000  0.50000000  0.75082925
   0.75000000  1.00000000  0.25082925
   0.75000000  0.00000000  0.75082925
   0.75000000  0.50000000  0.25082925
   0.75000000  0.50000000  0.75082925
   0.12500000  0.37500000  0.37417075
   0.12500000  0.37500000  0.87417075
   0.12500000  0.87500000  0.37417075
   0.12500000  0.87500000  0.87417075
   0.62500000  0.37500000  0.37417075
   0.62500000  0.37500000  0.87417075
   0.62500000  0.87500000  0.37417075
   0.62500000  0.87500000  0.87417075
   0.25000000  0.25000000  0.00082925
   0.25000000  0.25000000  0.50082925
   0.25000000  0.75000000  0.00082925
   0.25000000  0.75000000  0.50082925
   0.75000000  0.25000000  0.00082925
   0.75000000  0.25000000  0.50082925
   0.75000000  0.75000000  0.00082925
   0.75000000  0.75000000  0.50082925
   0.12500000  0.12500000  0.12417075
   0.12500000  0.12500000  0.62417075
   0.12500000  0.62500000  0.12417075
   0.12500000  0.62500000  0.62417075
   0.62500000  0.12500000  0.12417075
   0.62500000  0.12500000  0.62417075
   0.62500000  0.62500000  0.12417075
   0.62500000  0.62500000  0.62417075
Direct configuration=     3
   0.00000000  0.00000000  0.00059163
   0.00000000  0.00000000  0.50059163
   0.00000000  0.50000000  0.00059163
   0.00000000  0.50000000  0.50059163
   0.50000000  0.00000000  0.00059163
   0.50000000  0.00000000  0.50059163
   0.50000000  0.50000000  0.00059163
   0.50000000  0.50000000  0.50059163
   0.37500000  0.37500000  0.12440837
   0.37500000  0.37500000  0.62440837
   0.37500000  0.87500000  0.12440837
   0.37500000  0.87500000  0.62440837
   0.87500000  0.37500000  0.12440837
   0.87500000  0.37500000  0.62440837
   0.87500000  0.87500000  0.12440837
   0.87500000  0.87500000  0.62440837
   0.00000000  0.25000000  0.25059163
   0.00000000  0.25000000  0.75059163
   0.00000000  0.75000000  0.25059163
   0.00000000  0.75000000  0.75059163
   0.50000000  0.25000000  0.25059163
   0.50000000  0.25000000  0.75059163
   0.50000000  0.75000000  0.25059163
   0.50000000  0.75000000  0.75059163
   0.37500000  0.12500000  0.37440837
   0.37500000  0.12500000  0.87440837
   0.37500000  0.62500000  0.37440837
   0.37500000  0.62500000  0.87440837
   0.87500000  0.12500000  0.37440837
   0.87500000  0.12500000  0.87440837
   0.87500000  0.62500000  0.37440837
   0.87500000  0.62500000  0.87440837
   0.25000000  0.00000000  0.25059163
   0.25000000  0.00000000  0.75059163
   0.25000000  0.50000000  0.25059163
   0.25000000  0.50000000  0.75059163
   0.75000000  0.00000000  0.25059163
   0.75000000  0.00000000  0.75059163
   0.75000000  0.50000000  0.25059163
   0.75000000  0.50000000  0.75059163
   0.12500000  0.37500000  0.37440837
   0.12500000  0.37500000  0.87440837
   0.12500000  0.87500000  0.37440837
   0.12500000  0.87500000  0.87440837
   0.62500000  0.37500000  0.37440837
   0.62500000  0.37500000  0.87440837
   0.62500000  0.87500000  0.37440837
   0.62500000  0.87500000  0.87440837
   0.25000000  0.25000000  0.00059163
   0.25000000  0.25000000  0.50059163
   0.25000000  0.75000000  0.00059163
   0.25000000  0.75000000  0.50059163
   0.75000000  0.25000000  0.00059163
   0.75000000  0.25000000  0.50059163
   0.75000000  0.75000000  0.00059163
   0.75000000  0.75000000  0.50059163
   0.12500000  0.12500000  0.12440837
   0.12500000  0.12500000  0.62440837
   0.12500000  0.62500000  0.12440837
   0.12500000  0.62500000  0.62440837
   0.62500000  0.12500000  0.12440837
   0.62500000  0.12500000  0.62440837
   0.62500000  0.62500000  0.12440837
   0.62500000  0.62500000  0.62440837
