  64  64   0   0
  0.1856930E+02  0.1055706E-08  0.1061011E-08  0.1061007E-08  0.5000000E-15
  1.000000000000000E-004
  CAR 
 Si64                                    
     12.09080255     -7.94623637  301      6.79207450      1.00000000
     -7.946  0.0000E+00  0.0000E+00
     -7.879  0.0000E+00  0.0000E+00
     -7.813  0.0000E+00  0.0000E+00
     -7.746  0.0000E+00  0.0000E+00
     -7.679  0.0000E+00  0.0000E+00
     -7.612 -0.1069E-30 -0.7142E-32
     -7.545 -0.2384E-28 -0.1599E-29
     -7.479 -0.4259E-26 -0.2861E-27
     -7.412 -0.6074E-24 -0.4086E-25
     -7.345 -0.6914E-22 -0.4659E-23
     -7.278 -0.6280E-20 -0.4241E-21
     -7.212 -0.4549E-18 -0.3081E-19
     -7.145 -0.2627E-16 -0.1786E-17
     -7.078 -0.1171E-14 -0.8000E-16
     -7.011 -0.4277E-13 -0.2937E-14
     -6.944 -0.1241E-11 -0.8584E-13
     -6.878 -0.2861E-10 -0.1996E-11
     -6.811 -0.5226E-09 -0.3690E-10
     -6.744 -0.7554E-08 -0.5414E-09
     -6.677 -0.8613E-07 -0.6294E-08
     -6.610 -0.7716E-06 -0.5783E-07
     -6.544 -0.5399E-05 -0.4184E-06
     -6.477 -0.2924E-04 -0.2371E-05
     -6.410 -0.1207E-03 -0.1043E-04
     -6.343 -0.3692E-03 -0.3509E-04
     -6.276 -0.7856E-03 -0.8756E-04
     -6.210 -0.9437E-03 -0.1506E-03
     -6.143  0.2440E-03 -0.1343E-03
     -6.076  0.3624E-02  0.1077E-03
     -6.009  0.8027E-02  0.6438E-03
     -5.943  0.1110E-01  0.1385E-02
     -5.876  0.1477E-01  0.2372E-02
     -5.809  0.2754E-01  0.4212E-02
     -5.742  0.5390E-01  0.7812E-02
     -5.675  0.8197E-01  0.1329E-01
     -5.609  0.9520E-01  0.1964E-01
     -5.542  0.1003E+00  0.2634E-01
     -5.475  0.1237E+00  0.3461E-01
     -5.408  0.1683E+00  0.4585E-01
     -5.341  0.1976E+00  0.5905E-01
     -5.275  0.1838E+00  0.7133E-01
     -5.208  0.1489E+00  0.8127E-01
     -5.141  0.1302E+00  0.8997E-01
     -5.074  0.1269E+00  0.9844E-01
     -5.007  0.1132E+00  0.1060E+00
     -4.941  0.8622E-01  0.1118E+00
     -4.874  0.6816E-01  0.1163E+00
     -4.807  0.6985E-01  0.1210E+00
     -4.740  0.8994E-01  0.1270E+00
     -4.674  0.1431E+00  0.1365E+00
     -4.607  0.2441E+00  0.1528E+00
     -4.540  0.3577E+00  0.1767E+00
     -4.473  0.4205E+00  0.2048E+00
     -4.406  0.4259E+00  0.2333E+00
     -4.340  0.4258E+00  0.2617E+00
     -4.273  0.4300E+00  0.2904E+00
     -4.206  0.3807E+00  0.3159E+00
     -4.139  0.2505E+00  0.3326E+00
     -4.072  0.9633E-01  0.3390E+00
     -4.006 -0.6104E-02  0.3386E+00
     -3.939 -0.2779E-01  0.3368E+00
     -3.872  0.2367E-01  0.3383E+00
     -3.805  0.1339E+00  0.3473E+00
     -3.738  0.2812E+00  0.3661E+00
     -3.672  0.4235E+00  0.3944E+00
     -3.605  0.5036E+00  0.4280E+00
     -3.538  0.4832E+00  0.4603E+00
     -3.471  0.3811E+00  0.4857E+00
     -3.405  0.2666E+00  0.5035E+00
     -3.338  0.2112E+00  0.5176E+00
     -3.271  0.2525E+00  0.5345E+00
     -3.204  0.3791E+00  0.5598E+00
     -3.137  0.5296E+00  0.5952E+00
     -3.071  0.6284E+00  0.6371E+00
     -3.004  0.6441E+00  0.6802E+00
     -2.937  0.6035E+00  0.7205E+00
     -2.870  0.5454E+00  0.7569E+00
     -2.803  0.4823E+00  0.7891E+00
     -2.737  0.4238E+00  0.8174E+00
     -2.670  0.4002E+00  0.8442E+00
     -2.603  0.4141E+00  0.8718E+00
     -2.536  0.4028E+00  0.8987E+00
     -2.469  0.3087E+00  0.9193E+00
     -2.403  0.1607E+00  0.9301E+00
     -2.336  0.3748E-01  0.9326E+00
     -2.269 -0.2164E-01  0.9311E+00
     -2.202 -0.3218E-01  0.9290E+00
     -2.135 -0.1677E-01  0.9279E+00
     -2.069  0.2489E-01  0.9295E+00
     -2.002  0.9671E-01  0.9360E+00
     -1.935  0.1724E+00  0.9475E+00
     -1.868  0.2008E+00  0.9609E+00
     -1.802  0.1555E+00  0.9713E+00
     -1.735  0.7036E-01  0.9760E+00
     -1.668  0.1631E-01  0.9771E+00
     -1.601  0.5376E-01  0.9807E+00
     -1.534  0.1992E+00  0.9940E+00
     -1.468  0.4061E+00  0.1021E+01
     -1.401  0.5722E+00  0.1059E+01
     -1.334  0.5999E+00  0.1099E+01
     -1.267  0.4728E+00  0.1131E+01
     -1.200  0.2682E+00  0.1149E+01
     -1.134  0.9457E-01  0.1155E+01
     -1.067  0.2249E-01  0.1157E+01
     -1.000  0.5911E-01  0.1161E+01
     -0.933  0.1539E+00  0.1171E+01
     -0.866  0.2269E+00  0.1186E+01
     -0.800  0.2279E+00  0.1201E+01
     -0.733  0.1893E+00  0.1214E+01
     -0.666  0.1967E+00  0.1227E+01
     -0.599  0.2817E+00  0.1246E+01
     -0.533  0.3640E+00  0.1270E+01
     -0.466  0.3397E+00  0.1293E+01
     -0.399  0.2273E+00  0.1308E+01
     -0.332  0.1830E+00  0.1320E+01
     -0.265  0.3491E+00  0.1344E+01
     -0.199  0.6918E+00  0.1390E+01
     -0.132  0.1001E+01  0.1457E+01
     -0.065  0.1063E+01  0.1528E+01
      0.002  0.8387E+00  0.1584E+01
      0.069  0.4725E+00  0.1615E+01
      0.135  0.1531E+00  0.1626E+01
      0.202 -0.1958E-01  0.1624E+01
      0.269 -0.4193E-01  0.1621E+01
      0.336  0.5400E-01  0.1625E+01
      0.403  0.2198E+00  0.1640E+01
      0.469  0.3697E+00  0.1664E+01
      0.536  0.4124E+00  0.1692E+01
      0.603  0.3324E+00  0.1714E+01
      0.670  0.2046E+00  0.1728E+01
      0.736  0.1162E+00  0.1736E+01
      0.803  0.1111E+00  0.1743E+01
      0.870  0.1980E+00  0.1756E+01
      0.937  0.3527E+00  0.1780E+01
      1.004  0.4997E+00  0.1813E+01
      1.070  0.5398E+00  0.1849E+01
      1.137  0.4340E+00  0.1878E+01
      1.204  0.2451E+00  0.1895E+01
      1.271  0.7886E-01  0.1900E+01
      1.338 -0.7515E-02  0.1899E+01
      1.404 -0.2834E-01  0.1897E+01
      1.471 -0.2536E-01  0.1896E+01
      1.538 -0.2527E-01  0.1894E+01
      1.605 -0.2695E-01  0.1892E+01
      1.672 -0.2721E-02  0.1892E+01
      1.738  0.8768E-01  0.1898E+01
      1.805  0.2564E+00  0.1915E+01
      1.872  0.4444E+00  0.1945E+01
      1.939  0.5463E+00  0.1981E+01
      2.005  0.5149E+00  0.2016E+01
      2.072  0.4257E+00  0.2044E+01
      2.139  0.3956E+00  0.2070E+01
      2.206  0.4484E+00  0.2100E+01
      2.273  0.5121E+00  0.2135E+01
      2.339  0.5285E+00  0.2170E+01
      2.406  0.4964E+00  0.2203E+01
      2.473  0.4236E+00  0.2231E+01
      2.540  0.3213E+00  0.2253E+01
      2.607  0.2643E+00  0.2270E+01
      2.673  0.3817E+00  0.2296E+01
      2.740  0.7272E+00  0.2345E+01
      2.807  0.1164E+01  0.2422E+01
      2.874  0.1425E+01  0.2517E+01
      2.941  0.1324E+01  0.2606E+01
      3.007  0.9241E+00  0.2668E+01
      3.074  0.4644E+00  0.2699E+01
      3.141  0.1384E+00  0.2708E+01
      3.208 -0.2164E-01  0.2706E+01
      3.275 -0.7267E-01  0.2702E+01
      3.341 -0.4245E-01  0.2699E+01
      3.408  0.9997E-01  0.2705E+01
      3.475  0.3758E+00  0.2731E+01
      3.542  0.7170E+00  0.2778E+01
      3.608  0.9881E+00  0.2844E+01
      3.675  0.1106E+01  0.2918E+01
      3.742  0.1101E+01  0.2992E+01
      3.809  0.1051E+01  0.3062E+01
      3.876  0.9827E+00  0.3128E+01
      3.942  0.8793E+00  0.3186E+01
      4.009  0.7504E+00  0.3236E+01
      4.076  0.6734E+00  0.3281E+01
      4.143  0.7094E+00  0.3329E+01
      4.210  0.7818E+00  0.3381E+01
      4.276  0.7302E+00  0.3430E+01
      4.343  0.5172E+00  0.3464E+01
      4.410  0.2931E+00  0.3484E+01
      4.477  0.2249E+00  0.3499E+01
      4.544  0.3283E+00  0.3521E+01
      4.610  0.4919E+00  0.3554E+01
      4.677  0.6101E+00  0.3594E+01
      4.744  0.6592E+00  0.3639E+01
      4.811  0.6656E+00  0.3683E+01
      4.877  0.6498E+00  0.3726E+01
      4.944  0.6286E+00  0.3768E+01
      5.011  0.6348E+00  0.3811E+01
      5.078  0.6941E+00  0.3857E+01
      5.145  0.7860E+00  0.3910E+01
      5.211  0.8432E+00  0.3966E+01
      5.278  0.7884E+00  0.4019E+01
      5.345  0.5963E+00  0.4058E+01
      5.412  0.3327E+00  0.4081E+01
      5.479  0.1203E+00  0.4089E+01
      5.545  0.5411E-01  0.4092E+01
      5.612  0.1438E+00  0.4102E+01
      5.679  0.3094E+00  0.4123E+01
      5.746  0.4271E+00  0.4151E+01
      5.813  0.4115E+00  0.4179E+01
      5.879  0.2783E+00  0.4197E+01
      5.946  0.1178E+00  0.4205E+01
      6.013  0.1201E-01  0.4206E+01
      6.080 -0.1069E-01  0.4205E+01
      6.146  0.3723E-01  0.4208E+01
      6.213  0.1209E+00  0.4216E+01
      6.280  0.1882E+00  0.4228E+01
      6.347  0.1957E+00  0.4241E+01
      6.414  0.1464E+00  0.4251E+01
      6.480  0.8540E-01  0.4257E+01
      6.547  0.4887E-01  0.4260E+01
      6.614  0.3443E-01  0.4262E+01
      6.681  0.2411E-01  0.4264E+01
      6.748  0.1892E-01  0.4265E+01
      6.814  0.3957E-01  0.4268E+01
      6.881  0.9617E-01  0.4274E+01
      6.948  0.1633E+00  0.4285E+01
      7.015  0.1940E+00  0.4298E+01
      7.082  0.1629E+00  0.4309E+01
      7.148  0.9059E-01  0.4315E+01
      7.215  0.2052E-01  0.4316E+01
      7.282 -0.1381E-01  0.4316E+01
      7.349  0.5496E-02  0.4316E+01
      7.415  0.8336E-01  0.4321E+01
      7.482  0.1933E+00  0.4334E+01
      7.549  0.2705E+00  0.4352E+01
      7.616  0.2652E+00  0.4370E+01
      7.683  0.2132E+00  0.4384E+01
      7.749  0.2155E+00  0.4399E+01
      7.816  0.3204E+00  0.4420E+01
      7.883  0.4481E+00  0.4450E+01
      7.950  0.4656E+00  0.4481E+01
      8.017  0.3311E+00  0.4503E+01
      8.083  0.1370E+00  0.4512E+01
      8.150  0.2713E-01  0.4514E+01
      8.217  0.1010E+00  0.4521E+01
      8.284  0.3605E+00  0.4545E+01
      8.351  0.6848E+00  0.4591E+01
      8.417  0.8743E+00  0.4649E+01
      8.484  0.8002E+00  0.4703E+01
      8.551  0.5312E+00  0.4738E+01
      8.618  0.2811E+00  0.4757E+01
      8.685  0.2223E+00  0.4772E+01
      8.751  0.3697E+00  0.4796E+01
      8.818  0.6378E+00  0.4839E+01
      8.885  0.9550E+00  0.4903E+01
      8.952  0.1258E+01  0.4987E+01
      9.018  0.1416E+01  0.5082E+01
      9.085  0.1288E+01  0.5168E+01
      9.152  0.9046E+00  0.5228E+01
      9.219  0.4833E+00  0.5260E+01
      9.286  0.2265E+00  0.5275E+01
      9.352  0.1669E+00  0.5287E+01
      9.419  0.2222E+00  0.5301E+01
      9.486  0.3097E+00  0.5322E+01
      9.553  0.3681E+00  0.5347E+01
      9.620  0.3468E+00  0.5370E+01
      9.686  0.2412E+00  0.5386E+01
      9.753  0.1093E+00  0.5393E+01
      9.820  0.1726E-01  0.5394E+01
      9.887 -0.1479E-01  0.5393E+01
      9.954 -0.6829E-02  0.5393E+01
     10.020  0.1424E-01  0.5394E+01
     10.087  0.3016E-01  0.5396E+01
     10.154  0.3240E-01  0.5398E+01
     10.221  0.2262E-01  0.5400E+01
     10.287  0.9643E-02  0.5400E+01
     10.354  0.1083E-02  0.5400E+01
     10.421 -0.1734E-02  0.5400E+01
     10.488 -0.1497E-02  0.5400E+01
     10.555 -0.6988E-03  0.5400E+01
     10.621 -0.2257E-03  0.5400E+01
     10.688 -0.5399E-04  0.5400E+01
     10.755 -0.9850E-05  0.5400E+01
     10.822 -0.1391E-05  0.5400E+01
     10.889 -0.1536E-06  0.5400E+01
     10.955 -0.1332E-07  0.5400E+01
     11.022 -0.9120E-09  0.5400E+01
     11.089 -0.4940E-10  0.5400E+01
     11.156 -0.2122E-11  0.5400E+01
     11.223 -0.7241E-13  0.5400E+01
     11.289 -0.1953E-14  0.5400E+01
     11.356 -0.4156E-16  0.5400E+01
     11.423  0.0000E+00  0.5400E+01
     11.490  0.0000E+00  0.5400E+01
     11.556  0.0000E+00  0.5400E+01
     11.623  0.0000E+00  0.5400E+01
     11.690  0.0000E+00  0.5400E+01
     11.757  0.0000E+00  0.5400E+01
     11.824  0.0000E+00  0.5400E+01
     11.890  0.0000E+00  0.5400E+01
     11.957  0.0000E+00  0.5400E+01
     12.024  0.0000E+00  0.5400E+01
     12.091  0.0000E+00  0.5400E+01
