       N       E                     dE             d eps       ncg     rms          rms(c)
DAV:   1     0.571007437144E+03    0.57101E+03   -0.85172E+04  2592   0.107E+03
DAV:   2    -0.310602097843E+03   -0.88161E+03   -0.83619E+03  3104   0.175E+02
DAV:   3    -0.372400788847E+03   -0.61799E+02   -0.60667E+02  3144   0.411E+01
DAV:   4    -0.373912655358E+03   -0.15119E+01   -0.15005E+01  3104   0.780E+00
DAV:   5    -0.373963462850E+03   -0.50807E-01   -0.50683E-01  3078   0.131E+00    0.310E+01
RMM:   6    -0.367787722424E+03    0.61757E+01   -0.32609E+00  2592   0.284E+00    0.187E+01
RMM:   7    -0.365105659518E+03    0.26821E+01   -0.82218E+00  2653   0.450E+00    0.121E+00
RMM:   8    -0.365138436688E+03   -0.32777E-01   -0.75198E-01  2611   0.171E+00    0.548E-01
RMM:   9    -0.365162565133E+03   -0.24128E-01   -0.23346E-01  2676   0.836E-01    0.618E-01
RMM:  10    -0.365167001976E+03   -0.44368E-02   -0.40325E-02  2727   0.393E-01    0.822E-01
RMM:  11    -0.365162086876E+03    0.49151E-02   -0.14208E-02  2592   0.238E-01    0.669E-01
RMM:  12    -0.365162246417E+03   -0.15954E-03   -0.19514E-03  2611   0.104E-01    0.667E-01
RMM:  13    -0.365162312008E+03   -0.65590E-04   -0.37159E-04  2752   0.423E-02    0.732E-01
RMM:  14    -0.365162271192E+03    0.40815E-04   -0.10890E-04  2605   0.259E-02    0.313E-01
RMM:  15    -0.365162389939E+03   -0.11875E-03   -0.51349E-05  2622   0.148E-02    0.301E-01
RMM:  16    -0.365162459375E+03   -0.69435E-04   -0.29398E-05  2592   0.125E-02    0.253E-01
RMM:  17    -0.365162477961E+03   -0.18587E-04   -0.11206E-05  2592   0.871E-03    0.780E-02
RMM:  18    -0.365162484775E+03   -0.68134E-05   -0.53827E-06  2289   0.571E-03    0.993E-03
RMM:  19    -0.365162485851E+03   -0.10764E-05   -0.11824E-06  1576   0.258E-03    0.135E-02
RMM:  20    -0.365162486395E+03   -0.54400E-06   -0.25318E-07  1504   0.102E-03
   1 F= -.36516249E+03 E0= -.36517329E+03  d E =-.365162E+03
       N       E                     dE             d eps       ncg     rms          rms(c)
DAV:   1    -0.365165052503E+03   -0.25667E-02   -0.19460E-01  2984   0.850E-01    0.206E-01
RMM:   2    -0.365165987359E+03   -0.93486E-03   -0.96894E-03  2594   0.210E-01    0.829E-02
RMM:   3    -0.365166097929E+03   -0.11057E-03   -0.14791E-03  2640   0.923E-02    0.343E-02
RMM:   4    -0.365166092200E+03    0.57288E-05   -0.19689E-04  2622   0.381E-02    0.124E-02
RMM:   5    -0.365166094102E+03   -0.19016E-05   -0.38050E-05  2685   0.151E-02    0.286E-03
RMM:   6    -0.365166094911E+03   -0.80894E-06   -0.79423E-06  2159   0.652E-03    0.658E-04
RMM:   7    -0.365166095021E+03   -0.10992E-06   -0.12216E-06  1609   0.249E-03    0.439E-04
RMM:   8    -0.365166095038E+03   -0.17460E-07   -0.25972E-07  1340   0.113E-03
   2 F= -.36516610E+03 E0= -.36517628E+03  d E =-.360864E-02
       N       E                     dE             d eps       ncg     rms          rms(c)
DAV:   1    -0.365167187293E+03   -0.10923E-02   -0.21551E-02  2950   0.283E-01    0.683E-02
RMM:   2    -0.365167288274E+03   -0.10098E-03   -0.10427E-03  2592   0.695E-02    0.277E-02
RMM:   3    -0.365167300131E+03   -0.11856E-04   -0.15720E-04  2638   0.305E-02    0.113E-02
RMM:   4    -0.365167299648E+03    0.48255E-06   -0.20895E-05  2618   0.125E-02    0.414E-03
RMM:   5    -0.365167299827E+03   -0.17858E-06   -0.39857E-06  1881   0.497E-03    0.905E-04
RMM:   6    -0.365167299892E+03   -0.64976E-07   -0.78542E-07  1532   0.212E-03    0.195E-04
RMM:   7    -0.365167299912E+03   -0.20398E-07   -0.18672E-07  1201   0.995E-04    0.215E-04
RMM:   8    -0.365167299919E+03   -0.71541E-08   -0.41097E-08   763   0.593E-04
   3 F= -.36516730E+03 E0= -.36517777E+03  d E =-.481352E-02
