 vasp.6.4.3 19Mar24 (build Oct 21 2024 22:36:34) complex                        
  
 executed on             LinuxIFC date 2024.11.01  22:56:33
 running   96 mpi-ranks, on    1 nodes
 distrk:  each k-point on   24 cores,    4 groups
 distr:  one band on NCORE=  12 cores,    2 groups


--------------------------------------------------------------------------------------------------------


 INCAR:
   SYSTEM = Si64
   ISTART = 0
   ICHARG = 2
   LREAL = Auto
   PREC = Accurate
   LWAVE = .False.
   LCHARG = .False.
   ADDGRID = .True.
   ENCUT = 400
   GGA = PS
   GGA_COMPAT = .FALSE.
   ISMEAR = 1
   SIGMA = 0.2
   NELM = 60
   NELMIN = 8
   EDIFF = 1e-06
   EDIFFG = -0.01
   NSW = 60
   IBRION = 2
   ISIF = 2
   KPAR = 4
   NPAR = 2
   ALGO = Fast

 POTCAR:    PAW_PBE Si 05Jan2001                  
 POTCAR:    PAW_PBE Si 05Jan2001                  
   VRHFIN =Si: s2p2                                                                                 
   LEXCH  = PE                                                                                      
   EATOM  =   103.0669 eV,    7.5752 Ry                                                             
                                                                                                    
   TITEL  = PAW_PBE Si 05Jan2001                                                                    
   LULTRA =        F    use ultrasoft PP ?                                                          
   IUNSCR =        1    unscreen: 0-lin 1-nonlin 2-no                                               
   RPACOR =    1.500    partial core radius                                                         
   POMASS =   28.085; ZVAL   =    4.000    mass and valenz                                          
   RCORE  =    1.900    outmost cutoff radius                                                       
   RWIGS  =    2.480; RWIGS  =    1.312    wigner-seitz radius (au A)                               
   ENMAX  =  245.345; ENMIN  =  184.009 eV                                                          
   ICORE  =        2    local potential                                                             
   LCOR   =        T    correct aug charges                                                         
   LPAW   =        T    paw PP                                                                      
   EAUG   =  322.069                                                                                
   DEXC   =    0.000                                                                                
   RMAX   =    1.950    core radius for proj-oper                                                   
   RAUG   =    1.300    factor for augmentation sphere                                              
   RDEP   =    1.993    radius for radial grids                                                     
   RDEPT  =    1.837    core radius for aug-charge                                                  
                                                                                                    
   Atomic configuration                                                                             
    6 entries                                                                                       
     n  l   j            E        occ.                                                              
     1  0  0.50     -1785.8828   2.0000                                                             
     2  0  0.50      -139.4969   2.0000                                                             
     2  1  1.50       -95.5546   6.0000                                                             
     3  0  0.50       -10.8127   2.0000                                                             
     3  1  0.50        -4.0811   2.0000                                                             
     3  2  1.50        -4.0817   0.0000                                                             
   Description                                                                                      
     l       E           TYP  RCUT    TYP  RCUT                                                     
     0    -10.8127223     23  1.900                                                                 
     0     -7.6451159     23  1.900                                                                 
     1     -4.0811372     23  1.900                                                                 
     1      2.4879257     23  1.900                                                                 
     2     -4.0817478      7  1.900                                                                 
  local pseudopotential read in
  partial core-charges read in
  partial kinetic energy density read in
  atomic valenz-charges read in
  non local Contribution for L=           0  read in
    real space projection operators read in
  non local Contribution for L=           0  read in
    real space projection operators read in
  non local Contribution for L=           1  read in
    real space projection operators read in
  non local Contribution for L=           1  read in
    real space projection operators read in
    PAW grid and wavefunctions read in
 
   number of l-projection  operators is LMAX  =           4
   number of lm-projection operators is LMMAX =           8
 
 Optimization of the real space projectors (new method)

 maximal supplied QI-value         = 19.84
 optimisation between [QCUT,QGAM] = [ 10.12, 20.44] = [ 28.68,116.96] Ry 
 Optimized for a Real-space Cutoff    1.38 Angstroem

   l    n(q)    QCUT    max X(q) W(low)/X(q) W(high)/X(q)  e(spline) 
   0      8    10.119   159.560    0.58E-04    0.11E-03    0.54E-07
   0      8    10.119   115.863    0.56E-04    0.11E-03    0.54E-07
   1      8    10.119    88.339    0.22E-03    0.17E-03    0.19E-06
   1      8    10.119    48.592    0.22E-03    0.17E-03    0.18E-06
 -----------------------------------------------------------------------------
|                                                                             |
|               ----> ADVICE to this user running VASP <----                  |
|                                                                             |
|     You enforced a specific xc type in the INCAR file but a different       |
|     type was found in the POTCAR file.                                      |
|     I HOPE YOU KNOW WHAT YOU ARE DOING!                                     |
|                                                                             |
 -----------------------------------------------------------------------------

  PAW_PBE Si 05Jan2001                  :
 energy of atom  1       EATOM= -103.0669
 kinetic energy error for atom=    0.0012 (will be added to EATOM!!)
 
 
 POSCAR: Si8
  positions in direct lattice
  velocities in cartesian coordinates


 exchange-correlation table for PS
   RHO(1)=    0.500       N(1)  =     2000
   RHO(2)=  100.500       N(2)  =     4000
 


--------------------------------------------------------------------------------------------------------


 ion  position               nearest neighbor table
   1  0.000  0.000  0.000-  15 2.29  57 2.29  44 2.30  30 2.30
   2  0.000  0.000  0.500-  16 2.29  58 2.29  43 2.30  29 2.30
   3  0.000  0.500  0.000-  13 2.29  59 2.29  42 2.30  32 2.30
   4  0.000  0.500  0.500-  14 2.29  60 2.29  41 2.30  31 2.30
   5  0.500  0.000  0.000-  11 2.29  61 2.29  48 2.30  26 2.30
   6  0.500  0.000  0.500-  12 2.29  62 2.29  47 2.30  25 2.30
   7  0.500  0.500  0.000-   9 2.29  63 2.29  46 2.30  28 2.30
   8  0.500  0.500  0.500-  10 2.29  64 2.29  45 2.30  27 2.30
   9  0.375  0.375  0.125-   7 2.29  49 2.29  35 2.30  21 2.30
  10  0.375  0.375  0.625-   8 2.29  50 2.29  36 2.30  22 2.30
  11  0.375  0.875  0.125-   5 2.29  51 2.29  33 2.30  23 2.30
  12  0.375  0.875  0.625-   6 2.29  52 2.29  34 2.30  24 2.30
  13  0.875  0.375  0.125-   3 2.29  53 2.29  39 2.30  17 2.30
  14  0.875  0.375  0.625-   4 2.29  54 2.29  40 2.30  18 2.30
  15  0.875  0.875  0.125-   1 2.29  55 2.29  37 2.30  19 2.30
  16  0.875  0.875  0.625-   2 2.29  56 2.29  38 2.30  20 2.30
  17  0.000  0.250  0.250-  29 2.29  41 2.29  13 2.30  57 2.30
  18  0.000  0.250  0.750-  30 2.29  42 2.29  14 2.30  58 2.30
  19  0.000  0.750  0.250-  31 2.29  43 2.29  15 2.30  59 2.30
  20  0.000  0.750  0.750-  32 2.29  44 2.29  16 2.30  60 2.30
  21  0.500  0.250  0.250-  25 2.29  45 2.29   9 2.30  61 2.30
  22  0.500  0.250  0.750-  26 2.29  46 2.29  10 2.30  62 2.30
  23  0.500  0.750  0.250-  27 2.29  47 2.29  11 2.30  63 2.30
  24  0.500  0.750  0.750-  28 2.29  48 2.29  12 2.30  64 2.30
  25  0.375  0.125  0.375-  21 2.29  33 2.29   6 2.30  50 2.30
  26  0.375  0.125  0.875-  22 2.29  34 2.29   5 2.30  49 2.30
  27  0.375  0.625  0.375-  23 2.29  35 2.29   8 2.30  52 2.30
  28  0.375  0.625  0.875-  24 2.29  36 2.29   7 2.30  51 2.30
  29  0.875  0.125  0.375-  17 2.29  37 2.29   2 2.30  54 2.30
  30  0.875  0.125  0.875-  18 2.29  38 2.29   1 2.30  53 2.30
  31  0.875  0.625  0.375-  19 2.29  39 2.29   4 2.30  56 2.30
  32  0.875  0.625  0.875-  20 2.29  40 2.29   3 2.30  55 2.30
  33  0.250  0.000  0.250-  25 2.29  43 2.29  11 2.30  57 2.30
  34  0.250  0.000  0.750-  26 2.29  44 2.29  12 2.30  58 2.30
  35  0.250  0.500  0.250-  27 2.29  41 2.29   9 2.30  59 2.30
  36  0.250  0.500  0.750-  28 2.29  42 2.29  10 2.30  60 2.30
  37  0.750  0.000  0.250-  29 2.29  47 2.29  15 2.30  61 2.30
  38  0.750  0.000  0.750-  30 2.29  48 2.29  16 2.30  62 2.30
  39  0.750  0.500  0.250-  31 2.29  45 2.29  13 2.30  63 2.30
  40  0.750  0.500  0.750-  32 2.29  46 2.29  14 2.30  64 2.30
  41  0.125  0.375  0.375-  17 2.29  35 2.29   4 2.30  50 2.30
  42  0.125  0.375  0.875-  18 2.29  36 2.29   3 2.30  49 2.30
  43  0.125  0.875  0.375-  19 2.29  33 2.29   2 2.30  52 2.30
  44  0.125  0.875  0.875-  20 2.29  34 2.29   1 2.30  51 2.30
  45  0.625  0.375  0.375-  21 2.29  39 2.29   8 2.30  54 2.30
  46  0.625  0.375  0.875-  22 2.29  40 2.29   7 2.30  53 2.30
  47  0.625  0.875  0.375-  23 2.29  37 2.29   6 2.30  56 2.30
  48  0.625  0.875  0.875-  24 2.29  38 2.29   5 2.30  55 2.30
  49  0.250  0.250  0.000-   9 2.29  57 2.29  42 2.30  26 2.30
  50  0.250  0.250  0.500-  10 2.29  58 2.29  41 2.30  25 2.30
  51  0.250  0.750  0.000-  11 2.29  59 2.29  44 2.30  28 2.30
  52  0.250  0.750  0.500-  12 2.29  60 2.29  43 2.30  27 2.30
  53  0.750  0.250  0.000-  13 2.29  61 2.29  46 2.30  30 2.30
  54  0.750  0.250  0.500-  14 2.29  62 2.29  45 2.30  29 2.30
  55  0.750  0.750  0.000-  15 2.29  63 2.29  48 2.30  32 2.30
  56  0.750  0.750  0.500-  16 2.29  64 2.29  47 2.30  31 2.30
  57  0.125  0.125  0.125-   1 2.29  49 2.29  33 2.30  17 2.30
  58  0.125  0.125  0.625-   2 2.29  50 2.29  34 2.30  18 2.30
  59  0.125  0.625  0.125-   3 2.29  51 2.29  35 2.30  19 2.30
  60  0.125  0.625  0.625-   4 2.29  52 2.29  36 2.30  20 2.30
  61  0.625  0.125  0.125-   5 2.29  53 2.29  37 2.30  21 2.30
  62  0.625  0.125  0.625-   6 2.29  54 2.29  38 2.30  22 2.30
  63  0.625  0.625  0.125-   7 2.29  55 2.29  39 2.30  23 2.30
  64  0.625  0.625  0.625-   8 2.29  56 2.29  40 2.30  24 2.30
 
  LATTYP: Found a simple monoclinic cell.
 ALAT       =    10.5570568817
 B/A-ratio  =     1.0050219191
 C/A-ratio  =     1.0050250597
 COS(beta)  =    -0.0050124972
  
  Lattice vectors:
  
 A1 = (  10.5570235591,  -0.0265250039,   0.0000000000)
 A2 = (   0.0000000000,   0.0000000000, -10.6100735669)
 A3 = (  -0.0265250039,  10.6100735669,   0.0000000000)


Analysis of symmetry for initial positions (statically):
=====================================================================
 Subroutine PRICEL returns following result:
 
  LATTYP: Found a base centered monoclinic cell.
 ALAT       =     5.2785284408
 B/A-ratio  =     1.0050219191
 C/A-ratio  =     0.7071067812
 COS(beta)  =    -0.7035445997
  
  Lattice vectors:
  
 A1 = (  -2.6392558898,   0.0066312510,  -2.6525183917)
 A2 = (  -2.6392558898,   0.0066312510,   2.6525183917)
 A3 = (   2.6326246388,   2.6458871407,   0.0000000000)
 
  32 primitive cells build up your supercell.
 

 Routine SETGRP: Setting up the symmetry group for a 
 simple monoclinic supercell.


 Subroutine GETGRP returns: Found  4 space group operations
 (whereof  2 operations were pure point group operations)
 out of a pool of  4 trial point group operations.


The static configuration has the point symmetry C_2 .
 The point group associated with its full space group is C_2h.


Analysis of symmetry for dynamics (positions and initial velocities):
=====================================================================
 Subroutine PRICEL returns following result:
 
  LATTYP: Found a base centered monoclinic cell.
 ALAT       =     5.2785284408
 B/A-ratio  =     1.0050219191
 C/A-ratio  =     0.7071067812
 COS(beta)  =    -0.7035445997
  
  Lattice vectors:
  
 A1 = (  -2.6392558898,   0.0066312510,  -2.6525183917)
 A2 = (  -2.6392558898,   0.0066312510,   2.6525183917)
 A3 = (   2.6326246388,   2.6458871407,   0.0000000000)
 
  32 primitive cells build up your supercell.
 

 Routine SETGRP: Setting up the symmetry group for a 
 simple monoclinic supercell.


 Subroutine GETGRP returns: Found  4 space group operations
 (whereof  2 operations were pure point group operations)
 out of a pool of  4 trial point group operations.


The dynamic configuration has the point symmetry C_2 .
 The point group associated with its full space group is C_2h.


 Subroutine INISYM returns: Found  4 space group operations
 (whereof  2 operations are pure point group operations),
 and found    32 'primitive' translations


----------------------------------------------------------------------------------------

                                     Primitive cell                                     

  volume of cell :      37.1386

  direct lattice vectors                    reciprocal lattice vectors
    -2.639255890  0.006631251 -2.652518392    -0.188974909  0.188027673 -0.188500107
    -2.639255890  0.006631251  2.652518392    -0.188974909  0.188027673  0.188500107
     2.632624639  2.645887141  0.000000000     0.000947236  0.377002582 -0.000000000

  length of vectors
     3.741867107  3.741867107  3.732483255     0.326493816  0.326493816  0.377003772

  position of ions in fractional coordinates (direct lattice)
     0.000000000  0.000000000  0.000000000
     0.750000000  0.250000000  0.500000000

  ion indices of the primitive-cell ions
   primitive index   ion index
                 1           1
                 2          15

----------------------------------------------------------------------------------------

 
 
 KPOINTS: Automatic mesh                          

Automatic generation of k-mesh.
 Grid dimensions read from file:
 generate k-points for:    2    2    2

 Generating k-lattice:

  Cartesian coordinates                     Fractional coordinates (reciprocal lattice)
     0.047362132  0.000118405  0.000000000     0.500000000  0.000000000  0.000000000
     0.000118405  0.047125323  0.000000000    -0.000000000  0.500000000  0.000000000
     0.000000000  0.000000000  0.047125027     0.000000000  0.000000000  0.500000000

  Length of vectors
     0.047362280  0.047125471  0.047125027

  Shift w.r.t. Gamma in fractional coordinates (k-lattice)
     0.000000000  0.000000000  0.000000000

 
 Subroutine IBZKPT returns following result:
 ===========================================
 
 Found      8 irreducible k-points:
 
 Following reciprocal coordinates:
            Coordinates               Weight
  0.000000  0.000000  0.000000      1.000000
  0.500000 -0.000000  0.000000      1.000000
 -0.000000  0.500000  0.000000      1.000000
  0.500000  0.500000  0.000000      1.000000
  0.000000  0.000000  0.500000      1.000000
  0.500000 -0.000000  0.500000      1.000000
 -0.000000  0.500000  0.500000      1.000000
  0.500000  0.500000  0.500000      1.000000
 
 Following cartesian coordinates:
            Coordinates               Weight
  0.000000  0.000000  0.000000      1.000000
  0.047362  0.000118  0.000000      1.000000
  0.000118  0.047125  0.000000      1.000000
  0.047481  0.047244  0.000000      1.000000
  0.000000  0.000000  0.047125      1.000000
  0.047362  0.000118  0.047125      1.000000
  0.000118  0.047125  0.047125      1.000000
  0.047481  0.047244  0.047125      1.000000
 


--------------------------------------------------------------------------------------------------------




 Dimension of arrays:
   k-points           NKPTS =      8   k-points in BZ     NKDIM =      8   number of bands    NBANDS=    162
   number of dos      NEDOS =    301   number of ions     NIONS =     64
   non local maximal  LDIM  =      4   non local SUM 2l+1 LMDIM =      8
   total plane-waves  NPLWV = 343000
   max r-space proj   IRMAX =   3230   max aug-charges    IRDMAX=  77389
   dimension x,y,z NGX =    70 NGY =   70 NGZ =   70
   dimension x,y,z NGXF=   140 NGYF=  140 NGZF=  140
   support grid    NGXF=   280 NGYF=  280 NGZF=  280
   ions per type =              64
   NGX,Y,Z   is equivalent  to a cutoff of  11.02, 10.97, 10.97 a.u.
   NGXF,Y,Z  is equivalent  to a cutoff of  22.05, 21.94, 21.94 a.u.

 SYSTEM =  Si64                                    
 POSCAR =  Si8                                     

 Startparameter for this run:
   NWRITE =      2    write-flag & timer
   PREC   = accura    normal or accurate (medium, high low for compatibility)
   ISTART =      0    job   : 0-new  1-cont  2-samecut
   ICHARG =      2    charge: 1-file 2-atom 10-const
   ISPIN  =      1    spin polarized calculation?
   LNONCOLLINEAR =      F non collinear calculations
   LSORBIT =      F    spin-orbit coupling
   INIWAV =      1    electr: 0-lowe 1-rand  2-diag
   LASPH  =      F    aspherical Exc in radial PAW
 Electronic Relaxation 1
   ENCUT  =  400.0 eV  29.40 Ry    5.42 a.u.  17.22 17.30 17.30*2*pi/ulx,y,z
   ENINI  =  400.0     initial cutoff
   ENAUG  =  322.1 eV  augmentation charge cutoff
   NELM   =     60;   NELMIN=  8; NELMDL= -5     # of ELM steps 
   EDIFF  = 0.1E-05   stopping-criterion for ELM
   LREAL  =      T    real-space projection
   NLSPLINE    = F    spline interpolate recip. space projectors
   LCOMPAT=      F    compatible to vasp.4.4
   GGA_COMPAT  = F    GGA compatible to vasp.4.4-vasp.4.6
   LMAXPAW     = -100 max onsite density
   LMAXMIX     =    2 max onsite mixed and CHGCAR
   VOSKOWN=      0    Vosko Wilk Nusair interpolation
   ROPT   =   -0.00025
 Ionic relaxation
   EDIFFG = -.1E-01   stopping-criterion for IOM
   NSW    =     60    number of steps for IOM
   NBLOCK =      1;   KBLOCK =     60    inner block; outer block 
   IBRION =      2    ionic relax: 0-MD 1-quasi-New 2-CG
   NFREE  =      1    steps in history (QN), initial steepest desc. (CG)
   ISIF   =      2    stress and relaxation
   IWAVPR =     11    prediction:  0-non 1-charg 2-wave 3-comb
   ISYM   =      2    0-nonsym 1-usesym 2-fastsym
   LCORR  =      T    Harris-Foulkes like correction to forces

   POTIM  = 0.5000    time-step for ionic-motion
   TEIN   =    0.0    initial temperature
   TEBEG  =    0.0;   TEEND  =   0.0 temperature during run
   SMASS  =  -3.00    Nose mass-parameter (am)
   estimated Nose-frequenzy (Omega)   =  0.10E-29 period in steps = 0.13E+47 mass=  -0.255E-26a.u.
   SCALEE = 1.0000    scale energy and forces
   NPACO  =    256;   APACO  = 10.0  distance and # of slots for P.C.
   PSTRESS=    0.0 pullay stress

  Mass of Ions in am
   POMASS =  28.09
  Ionic Valenz
   ZVAL   =   4.00
  Atomic Wigner-Seitz radii
   RWIGS  =  -1.00
  virtual crystal weights 
   VCA    =   1.00
   NELECT =     256.0000    total number of electrons
   NUPDOWN=      -1.0000    fix difference up-down

 DOS related values:
   EMIN   =  10.00;   EMAX   =-10.00  energy-range for DOS
   EFERMI =   0.00;   METHOD = LEGACY      
   ISMEAR =     1;   SIGMA  =   0.20  broadening in eV -4-tet -1-fermi 0-gaus

 Electronic relaxation 2 (details)
   IALGO  =     68    algorithm
   LDIAG  =      T    sub-space diagonalisation (order eigenvalues)
   LSUBROT=      F    optimize rotation matrix (better conditioning)
   TURBO    =      0    0=normal 1=particle mesh
   IRESTART =      0    0=no restart 2=restart with 2 vectors
   NREBOOT  =      0    no. of reboots
   NMIN     =      0    reboot dimension
   EREF     =   0.00    reference energy to select bands
   IMIX   =      4    mixing-type and parameters
     AMIX     =   0.40;   BMIX     =  1.00
     AMIX_MAG =   1.60;   BMIX_MAG =  1.00
     AMIN     =   0.10
     WC   =   100.;   INIMIX=   1;  MIXPRE=   1;  MAXMIX= -45

 Intra band minimization:
   WEIMIN = 0.0010     energy-eigenvalue tresh-hold
   EBREAK =  0.15E-08  absolut break condition
   DEPER  =   0.30     relativ break condition  

   TIME   =   0.40     timestep for ELM

  volume/ion in A,a.u.               =      18.57       125.31
  Fermi-wavevector in a.u.,A,eV,Ry     =   0.981363  1.854507 13.103406  0.963073
  Thomas-Fermi vector in A             =   2.112364
 
 Write flags
   LWAVE        =      F    write WAVECAR
   LDOWNSAMPLE  =      F    k-point downsampling of WAVECAR
   LCHARG       =      F    write CHGCAR
   LVTOT        =      F    write LOCPOT, total local potential
   LVHAR        =      F    write LOCPOT, Hartree potential only
   WRT_POTENTIAL= false  ! write potential to hdf5 file
   LELF         =      F    write electronic localiz. function (ELF)
   LORBIT       =      0    0 simple, 1 ext, 2 COOP (PROOUT), +10 PAW based schemes


 Dipole corrections
   LMONO      =      F    monopole corrections only (constant potential shift)
   LDIPOL     =      F    correct potential (dipole corrections)
   IDIPOL     =      0    1-x, 2-y, 3-z, 4-all directions 
   EPSILON    =  1.0000000 bulk dielectric constant
   LVACPOTAV  =      F  vacuum potentials using an averaging scheme for the charge density
   VACPOTFLAT =  0.1000000 required flatness to determine vacuum potential
 Exchange correlation treatment:
   GGA     = PS    functional components
   XC_C    = 1    coefficients multiplying the functional components
   LIBXC   =     F    Libxc                    
   VOSKOWN =     0    Vosko Wilk Nusair interpolation
   LHFCALC =     F    Hartree Fock is set to
   LHFONE  =     F    Hartree Fock one center treatment
   AEXX    =    0.0000 exact exchange contribution

 Parameters of functionals:
   PS:
     No parameter
 
 Van der Waals corrections
   IVDW    =     0    specifies the selected vdW correction

 Linear response parameters
   LEPSILON=     F    determine dielectric tensor
   LRPA    =     F    only Hartree local field effects (RPA)
   LNABLA  =     F    use nabla operator in PAW spheres
   LVEL    =     F    velocity operator in full k-point grid
   CSHIFT  =0.1000    complex shift for real part using Kramers Kronig
   OMEGAMAX=  -1.0    maximum frequency
   DEG_THRESHOLD= 0.2000000E-02 threshold for treating states as degnerate
   RTIME   =   -0.100 relaxation time in fs
  (WPLASMAI=    0.000 imaginary part of plasma frequency in eV, 0.658/RTIME)
   DFIELD  = 0.0000000 0.0000000 0.0000000 field for delta impulse in time
 
  Optional k-point grid parameters
   LKPOINTS_OPT  =     F    use optional k-point grid
   KPOINTS_OPT_MODE=     1    mode for optional k-point grid
 
 Orbital magnetization related:
   ORBITALMAG=     F  switch on orbital magnetization
   LCHIMAG   =     F  perturbation theory with respect to B field
   DQ        =  0.001000  dq finite difference perturbation B field
   LLRAUG    =     F  two centre corrections for induced B field
   LBONE     =     F  B-component reconstruction in AE one-centre
   LVGVCALC  =     T  calculate vGv susceptibility
   LVGVAPPL  =     F  apply vGv susceptibility instead of pGv for G=0

 Random number generation:
   RANDOM_GENERATOR = DEFAULT
   PCG_SEED         = not used


--------------------------------------------------------------------------------------------------------


 conjugate gradient relaxation of ions
 charge density and potential will be updated during run
 non-spin polarized calculation
 RMM-DIIS sequential band-by-band and
  variant of blocked Davidson during initial phase
 perform sub-space diagonalisation
    before iterative eigenvector-optimisation
 modified Broyden-mixing scheme, WC =      100.0
 initial mixing is a Kerker type mixing with AMIX =  0.4000 and BMIX =      1.0000
 Hartree-type preconditioning will be used
 using additional bands           34
 real space projection scheme for non local part
 use partial core corrections
 calculate Harris-corrections to forces 
   (improved forces if not selfconsistent)
 use gradient corrections 
 use of overlap-Matrix (Vanderbilt PP)
 Methfessel and Paxton  Order N= 1 SIGMA  =   0.20


--------------------------------------------------------------------------------------------------------


  energy-cutoff  :      400.00
  volume of cell :     1188.44
      direct lattice vectors                 reciprocal lattice vectors
    10.557023559 -0.026525004  0.000000000     0.094724263  0.000236809  0.000000000
    -0.026525004 10.610073567  0.000000000     0.000236809  0.094250645  0.000000000
     0.000000000  0.000000000 10.610073567     0.000000000  0.000000000  0.094250053

  length of vectors
    10.557056882 10.610106723 10.610073567     0.094724560  0.094250943  0.094250053


 
 k-points in units of 2pi/SCALE and weight: Automatic mesh                          
   0.00000000  0.00000000  0.00000000       0.125
   0.04736214  0.00011840  0.00000000       0.125
   0.00011840  0.04712533  0.00000000       0.125
   0.04748054  0.04724373  0.00000000       0.125
   0.00000000  0.00000000  0.04712503       0.125
   0.04736214  0.00011840  0.04712503       0.125
   0.00011840  0.04712533  0.04712503       0.125
   0.04748054  0.04724373  0.04712503       0.125
 
 k-points in reciprocal lattice and weights: Automatic mesh                          
   0.00000000  0.00000000  0.00000000       0.125
   0.50000000 -0.00000000  0.00000000       0.125
  -0.00000000  0.50000000  0.00000000       0.125
   0.50000000  0.50000000  0.00000000       0.125
   0.00000000  0.00000000  0.50000000       0.125
   0.50000000 -0.00000000  0.50000000       0.125
  -0.00000000  0.50000000  0.50000000       0.125
   0.50000000  0.50000000  0.50000000       0.125
 
 position of ions in fractional coordinates (direct lattice) 
   0.00000000  0.00000000  0.00000000
   0.00000000  0.00000000  0.50000000
   0.00000000  0.50000000  0.00000000
   0.00000000  0.50000000  0.50000000
   0.50000000  0.00000000  0.00000000
   0.50000000  0.00000000  0.50000000
   0.50000000  0.50000000  0.00000000
   0.50000000  0.50000000  0.50000000
   0.37500000  0.37500000  0.12500000
   0.37500000  0.37500000  0.62500000
   0.37500000  0.87500000  0.12500000
   0.37500000  0.87500000  0.62500000
   0.87500000  0.37500000  0.12500000
   0.87500000  0.37500000  0.62500000
   0.87500000  0.87500000  0.12500000
   0.87500000  0.87500000  0.62500000
   0.00000000  0.25000000  0.25000000
   0.00000000  0.25000000  0.75000000
   0.00000000  0.75000000  0.25000000
   0.00000000  0.75000000  0.75000000
   0.50000000  0.25000000  0.25000000
   0.50000000  0.25000000  0.75000000
   0.50000000  0.75000000  0.25000000
   0.50000000  0.75000000  0.75000000
   0.37500000  0.12500000  0.37500000
   0.37500000  0.12500000  0.87500000
   0.37500000  0.62500000  0.37500000
   0.37500000  0.62500000  0.87500000
   0.87500000  0.12500000  0.37500000
   0.87500000  0.12500000  0.87500000
   0.87500000  0.62500000  0.37500000
   0.87500000  0.62500000  0.87500000
   0.25000000  0.00000000  0.25000000
   0.25000000  0.00000000  0.75000000
   0.25000000  0.50000000  0.25000000
   0.25000000  0.50000000  0.75000000
   0.75000000  0.00000000  0.25000000
   0.75000000  0.00000000  0.75000000
   0.75000000  0.50000000  0.25000000
   0.75000000  0.50000000  0.75000000
   0.12500000  0.37500000  0.37500000
   0.12500000  0.37500000  0.87500000
   0.12500000  0.87500000  0.37500000
   0.12500000  0.87500000  0.87500000
   0.62500000  0.37500000  0.37500000
   0.62500000  0.37500000  0.87500000
   0.62500000  0.87500000  0.37500000
   0.62500000  0.87500000  0.87500000
   0.25000000  0.25000000  0.00000000
   0.25000000  0.25000000  0.50000000
   0.25000000  0.75000000  0.00000000
   0.25000000  0.75000000  0.50000000
   0.75000000  0.25000000  0.00000000
   0.75000000  0.25000000  0.50000000
   0.75000000  0.75000000  0.00000000
   0.75000000  0.75000000  0.50000000
   0.12500000  0.12500000  0.12500000
   0.12500000  0.12500000  0.62500000
   0.12500000  0.62500000  0.12500000
   0.12500000  0.62500000  0.62500000
   0.62500000  0.12500000  0.12500000
   0.62500000  0.12500000  0.62500000
   0.62500000  0.62500000  0.12500000
   0.62500000  0.62500000  0.62500000
 
 position of ions in cartesian coordinates  (Angst):
   0.00000000  0.00000000  0.00000000
   0.00000000  0.00000000  5.30503678
  -0.01326250  5.30503678  0.00000000
  -0.01326250  5.30503678  5.30503678
   5.27851178 -0.01326250  0.00000000
   5.27851178 -0.01326250  5.30503678
   5.26524928  5.29177428  0.00000000
   5.26524928  5.29177428  5.30503678
   3.94893696  3.96883071  1.32625920
   3.94893696  3.96883071  6.63129598
   3.93567446  9.27386749  1.32625920
   3.93567446  9.27386749  6.63129598
   9.22744874  3.95556821  1.32625920
   9.22744874  3.95556821  6.63129598
   9.21418624  9.26060499  1.32625920
   9.21418624  9.26060499  6.63129598
  -0.00663125  2.65251839  2.65251839
  -0.00663125  2.65251839  7.95755518
  -0.01989375  7.95755518  2.65251839
  -0.01989375  7.95755518  7.95755518
   5.27188053  2.63925589  2.65251839
   5.27188053  2.63925589  7.95755518
   5.25861803  7.94429267  2.65251839
   5.25861803  7.94429267  7.95755518
   3.95556821  1.31631232  3.97877759
   3.95556821  1.31631232  9.28381437
   3.94230571  6.62134910  3.97877759
   3.94230571  6.62134910  9.28381437
   9.23407999  1.30304982  3.97877759
   9.23407999  1.30304982  9.28381437
   9.22081749  6.60808660  3.97877759
   9.22081749  6.60808660  9.28381437
   2.63925589 -0.00663125  2.65251839
   2.63925589 -0.00663125  7.95755518
   2.62599339  5.29840553  2.65251839
   2.62599339  5.29840553  7.95755518
   7.91776767 -0.01989375  2.65251839
   7.91776767 -0.01989375  7.95755518
   7.90450517  5.28514303  2.65251839
   7.90450517  5.28514303  7.95755518
   1.30968107  3.97546196  3.97877759
   1.30968107  3.97546196  9.28381437
   1.29641857  9.28049875  3.97877759
   1.29641857  9.28049875  9.28381437
   6.58819285  3.96219946  3.97877759
   6.58819285  3.96219946  9.28381437
   6.57493035  9.26723624  3.97877759
   6.57493035  9.26723624  9.28381437
   2.63262464  2.64588714  0.00000000
   2.63262464  2.64588714  5.30503678
   2.61936214  7.95092392  0.00000000
   2.61936214  7.95092392  5.30503678
   7.91113642  2.63262464  0.00000000
   7.91113642  2.63262464  5.30503678
   7.89787392  7.93766142  0.00000000
   7.89787392  7.93766142  5.30503678
   1.31631232  1.32294357  1.32625920
   1.31631232  1.32294357  6.63129598
   1.30304982  6.62798035  1.32625920
   1.30304982  6.62798035  6.63129598
   6.59482410  1.30968107  1.32625920
   6.59482410  1.30968107  6.63129598
   6.58156160  6.61471785  1.32625920
   6.58156160  6.61471785  6.63129598
 


--------------------------------------------------------------------------------------------------------


 k-point     1 :   0.0000 0.0000 0.0000  plane waves:   21641
 k-point     2 :   0.5000-0.0000 0.0000  plane waves:   21594
 k-point     3 :  -0.0000 0.5000 0.0000  plane waves:   21608
 k-point     4 :   0.5000 0.5000 0.0000  plane waves:   21582
 k-point     5 :   0.0000 0.0000 0.5000  plane waves:   21590
 k-point     6 :   0.5000-0.0000 0.5000  plane waves:   21588
 k-point     7 :  -0.0000 0.5000 0.5000  plane waves:   21548
 k-point     8 :   0.5000 0.5000 0.5000  plane waves:   21656

 maximum and minimum number of plane-waves per node :      1830     1776

 maximum number of plane-waves:     21656
 maximum index in each direction: 
   IXMAX=   17   IYMAX=   17   IZMAX=   17
   IXMIN=  -17   IYMIN=  -17   IZMIN=  -17


 real space projection operators:
  total allocation   :      12362.50 KBytes
  max/ min on nodes  :       1072.00        895.75


 parallel 3D FFT for wavefunctions:
    minimum data exchange during FFTs selected (reduces bandwidth)
 parallel 3D FFT for charge:
    minimum data exchange during FFTs selected (reduces bandwidth)


 total amount of memory used by VASP MPI-rank0    78994. kBytes
=======================================================================

   base      :      30000. kBytes
   nonlr-proj:       4779. kBytes
   fftplans  :      17991. kBytes
   grid      :       6881. kBytes
   one-center:         18. kBytes
   wavefun   :      19325. kBytes
 
     INWAV:  cpu time      0.0000: real time      0.0000
 Broyden mixing: mesh for mixing (old mesh)
   NGX = 35   NGY = 35   NGZ = 35
  (NGX  =140   NGY  =140   NGZ  =140)
  gives a total of  42875 points

 initial charge density was supplied:
 charge density of overlapping atoms calculated
 number of electron     256.0000000 magnetization 
 keeping initial charge density in first step


--------------------------------------------------------------------------------------------------------


 Maximum index for non-local projection operator          290
 Maximum index for augmentation-charges         3845 (set IRDMAX)


--------------------------------------------------------------------------------------------------------


 First call to EWALD:  gamma=   0.167
 Maximum number of real-space cells 3x 3x 3
 Maximum number of reciprocal cells 3x 3x 3

    FEWALD:  cpu time      0.0040: real time      0.0040


--------------------------------------- Ionic step        1  -------------------------------------------




--------------------------------------- Iteration      1(   1)  ---------------------------------------


    POTLOK:  cpu time      0.0926: real time      0.0985
    SETDIJ:  cpu time      0.0881: real time      0.0900
     EDDAV:  cpu time      1.2563: real time      1.2989
       DOS:  cpu time      0.0111: real time      0.0139
    --------------------------------------------
      LOOP:  cpu time      1.4482: real time      1.5014

 eigenvalue-minimisations  :  2592
 total energy-change (2. order) : 0.5710074E+03  (-0.8517204E+04)
 number of electron     256.0000000 magnetization 
 augmentation part      256.0000000 magnetization 

 Free energy of the ion-electron system (eV)
  ---------------------------------------------------
  alpha Z        PSCENC =       116.02161311
  Ewald energy   TEWEN  =     -7498.84831535
  -Hartree energ DENC   =      -317.01469517
  -exchange      EXHF   =         0.00000000
  -V(xc)+E(xc)   XCENC  =      -549.61116999
  PAW double counting   =      5598.62625415    -4492.17844134
  entropy T*S    EENTRO =        -0.00571518
  eigenvalues    EBANDS =      1149.22204592
  atomic energy  EATOM  =      6564.79586099
  Solvation  Ediel_sol  =         0.00000000
  ---------------------------------------------------
  free energy    TOTEN  =       571.00743714 eV

  energy without entropy =      571.01315233  energy(sigma->0) =      571.00934221


--------------------------------------------------------------------------------------------------------




--------------------------------------- Iteration      1(   2)  ---------------------------------------


     EDDAV:  cpu time      1.3123: real time      1.3280
       DOS:  cpu time      0.0012: real time      0.0012
    --------------------------------------------
      LOOP:  cpu time      1.3134: real time      1.3292

 eigenvalue-minimisations  :  3104
 total energy-change (2. order) :-0.8816095E+03  (-0.8361929E+03)
 number of electron     256.0000000 magnetization 
 augmentation part      256.0000000 magnetization 

 Free energy of the ion-electron system (eV)
  ---------------------------------------------------
  alpha Z        PSCENC =       116.02161311
  Ewald energy   TEWEN  =     -7498.84831535
  -Hartree energ DENC   =      -317.01469517
  -exchange      EXHF   =         0.00000000
  -V(xc)+E(xc)   XCENC  =      -549.61116999
  PAW double counting   =      5598.62625415    -4492.17844134
  entropy T*S    EENTRO =         0.02206805
  eigenvalues    EBANDS =       267.58472770
  atomic energy  EATOM  =      6564.79586099
  Solvation  Ediel_sol  =         0.00000000
  ---------------------------------------------------
  free energy    TOTEN  =      -310.60209784 eV

  energy without entropy =     -310.62416589  energy(sigma->0) =     -310.60945386


--------------------------------------------------------------------------------------------------------




--------------------------------------- Iteration      1(   3)  ---------------------------------------


     EDDAV:  cpu time      1.3770: real time      1.3935
       DOS:  cpu time      0.0015: real time      0.0015
    --------------------------------------------
      LOOP:  cpu time      1.3785: real time      1.3950

 eigenvalue-minimisations  :  3144
 total energy-change (2. order) :-0.6179869E+02  (-0.6066708E+02)
 number of electron     256.0000000 magnetization 
 augmentation part      256.0000000 magnetization 

 Free energy of the ion-electron system (eV)
  ---------------------------------------------------
  alpha Z        PSCENC =       116.02161311
  Ewald energy   TEWEN  =     -7498.84831535
  -Hartree energ DENC   =      -317.01469517
  -exchange      EXHF   =         0.00000000
  -V(xc)+E(xc)   XCENC  =      -549.61116999
  PAW double counting   =      5598.62625415    -4492.17844134
  entropy T*S    EENTRO =         0.00728574
  eigenvalues    EBANDS =       205.80081900
  atomic energy  EATOM  =      6564.79586099
  Solvation  Ediel_sol  =         0.00000000
  ---------------------------------------------------
  free energy    TOTEN  =      -372.40078885 eV

  energy without entropy =     -372.40807459  energy(sigma->0) =     -372.40321743


--------------------------------------------------------------------------------------------------------




--------------------------------------- Iteration      1(   4)  ---------------------------------------


     EDDAV:  cpu time      1.3348: real time      1.3472
       DOS:  cpu time      0.0015: real time      0.0015
    --------------------------------------------
      LOOP:  cpu time      1.3363: real time      1.3487

 eigenvalue-minimisations  :  3104
 total energy-change (2. order) :-0.1511867E+01  (-0.1500492E+01)
 number of electron     256.0000000 magnetization 
 augmentation part      256.0000000 magnetization 

 Free energy of the ion-electron system (eV)
  ---------------------------------------------------
  alpha Z        PSCENC =       116.02161311
  Ewald energy   TEWEN  =     -7498.84831535
  -Hartree energ DENC   =      -317.01469517
  -exchange      EXHF   =         0.00000000
  -V(xc)+E(xc)   XCENC  =      -549.61116999
  PAW double counting   =      5598.62625415    -4492.17844134
  entropy T*S    EENTRO =         0.00801961
  eigenvalues    EBANDS =       204.28821863
  atomic energy  EATOM  =      6564.79586099
  Solvation  Ediel_sol  =         0.00000000
  ---------------------------------------------------
  free energy    TOTEN  =      -373.91265536 eV

  energy without entropy =     -373.92067497  energy(sigma->0) =     -373.91532856


--------------------------------------------------------------------------------------------------------




--------------------------------------- Iteration      1(   5)  ---------------------------------------


     EDDAV:  cpu time      1.2937: real time      1.3107
       DOS:  cpu time      0.0013: real time      0.0013
    CHARGE:  cpu time      0.2492: real time      0.2519
    MIXING:  cpu time      0.0104: real time      0.0140
    --------------------------------------------
      LOOP:  cpu time      1.5547: real time      1.5779

 eigenvalue-minimisations  :  3078
 total energy-change (2. order) :-0.5080749E-01  (-0.5068256E-01)
 number of electron     255.9999997 magnetization 
 augmentation part      -15.1469371 magnetization 

 Broyden mixing:
  rms(total) = 0.31007E+01    rms(broyden)= 0.31007E+01
  rms(prec ) = 0.34136E+01
  weight for this iteration     100.00

 Free energy of the ion-electron system (eV)
  ---------------------------------------------------
  alpha Z        PSCENC =       116.02161311
  Ewald energy   TEWEN  =     -7498.84831535
  -Hartree energ DENC   =      -317.01469517
  -exchange      EXHF   =         0.00000000
  -V(xc)+E(xc)   XCENC  =      -549.61116999
  PAW double counting   =      5598.62625415    -4492.17844134
  entropy T*S    EENTRO =         0.00800899
  eigenvalues    EBANDS =       204.23742175
  atomic energy  EATOM  =      6564.79586099
  Solvation  Ediel_sol  =         0.00000000
  ---------------------------------------------------
  free energy    TOTEN  =      -373.96346285 eV

  energy without entropy =     -373.97147184  energy(sigma->0) =     -373.96613251


--------------------------------------------------------------------------------------------------------




--------------------------------------- Iteration      1(   6)  ---------------------------------------


    POTLOK:  cpu time      0.0750: real time      0.0887
    SETDIJ:  cpu time      0.0728: real time      0.0730
    EDDIAG:  cpu time      0.1367: real time      0.1401
  RMM-DIIS:  cpu time      0.7029: real time      0.7078
    ORTHCH:  cpu time      0.0200: real time      0.0201
       DOS:  cpu time      0.0012: real time      0.0012
    CHARGE:  cpu time      0.2353: real time      0.2358
    MIXING:  cpu time      0.0056: real time      0.0090
    --------------------------------------------
      LOOP:  cpu time      1.2495: real time      1.2757

 eigenvalue-minimisations  :  2592
 total energy-change (2. order) : 0.6175740E+01  (-0.3260925E+00)
 number of electron     255.9999997 magnetization 
 augmentation part      -14.9560753 magnetization 

 Broyden mixing:
  rms(total) = 0.18724E+01    rms(broyden)= 0.18724E+01
  rms(prec ) = 0.20471E+01
  weight for this iteration     100.00

 eigenvalues of (default mixing * dielectric matrix)
  average eigenvalue GAMMA=   2.5177
  2.5177

 Free energy of the ion-electron system (eV)
  ---------------------------------------------------
  alpha Z        PSCENC =       116.02161311
  Ewald energy   TEWEN  =     -7498.84831535
  -Hartree energ DENC   =      -366.98771652
  -exchange      EXHF   =         0.00000000
  -V(xc)+E(xc)   XCENC  =      -541.68463432
  PAW double counting   =     13439.29769620   -12336.96297917
  entropy T*S    EENTRO =         0.01582520
  eigenvalues    EBANDS =       256.56492744
  atomic energy  EATOM  =      6564.79586099
  Solvation  Ediel_sol  =         0.00000000
  ---------------------------------------------------
  free energy    TOTEN  =      -367.78772242 eV

  energy without entropy =     -367.80354763  energy(sigma->0) =     -367.79299749


--------------------------------------------------------------------------------------------------------




--------------------------------------- Iteration      1(   7)  ---------------------------------------


    POTLOK:  cpu time      0.0740: real time      0.0874
    SETDIJ:  cpu time      0.0727: real time      0.0729
    EDDIAG:  cpu time      0.1323: real time      0.1326
  RMM-DIIS:  cpu time      0.7095: real time      0.7116
    ORTHCH:  cpu time      0.0211: real time      0.0212
       DOS:  cpu time      0.0012: real time      0.0012
    CHARGE:  cpu time      0.2344: real time      0.2349
    MIXING:  cpu time      0.0047: real time      0.0061
    --------------------------------------------
      LOOP:  cpu time      1.2498: real time      1.2679

 eigenvalue-minimisations  :  2653
 total energy-change (2. order) : 0.2682063E+01  (-0.8221752E+00)
 number of electron     255.9999997 magnetization 
 augmentation part      -14.6865637 magnetization 

 Broyden mixing:
  rms(total) = 0.12054E+00    rms(broyden)= 0.12054E+00
  rms(prec ) = 0.15104E+00
  weight for this iteration     100.00

 eigenvalues of (default mixing * dielectric matrix)
  average eigenvalue GAMMA=   2.3055
  2.3055  2.3055

 Free energy of the ion-electron system (eV)
  ---------------------------------------------------
  alpha Z        PSCENC =       116.02161311
  Ewald energy   TEWEN  =     -7498.84831535
  -Hartree energ DENC   =      -449.24251034
  -exchange      EXHF   =         0.00000000
  -V(xc)+E(xc)   XCENC  =      -528.04847315
  PAW double counting   =     32980.20380305   -31883.66376935
  entropy T*S    EENTRO =         0.02758114
  eigenvalues    EBANDS =       333.64855038
  atomic energy  EATOM  =      6564.79586099
  Solvation  Ediel_sol  =         0.00000000
  ---------------------------------------------------
  free energy    TOTEN  =      -365.10565952 eV

  energy without entropy =     -365.13324066  energy(sigma->0) =     -365.11485323


--------------------------------------------------------------------------------------------------------




--------------------------------------- Iteration      1(   8)  ---------------------------------------


    POTLOK:  cpu time      0.0743: real time      0.0872
    SETDIJ:  cpu time      0.0725: real time      0.0727
    EDDIAG:  cpu time      0.1337: real time      0.1344
  RMM-DIIS:  cpu time      0.6961: real time      0.6980
    ORTHCH:  cpu time      0.0204: real time      0.0205
       DOS:  cpu time      0.0017: real time      0.0017
    CHARGE:  cpu time      0.2348: real time      0.2354
    MIXING:  cpu time      0.0057: real time      0.0062
    --------------------------------------------
      LOOP:  cpu time      1.2393: real time      1.2560

 eigenvalue-minimisations  :  2611
 total energy-change (2. order) :-0.3277717E-01  (-0.7519810E-01)
 number of electron     255.9999997 magnetization 
 augmentation part      -14.7465905 magnetization 

 Broyden mixing:
  rms(total) = 0.54781E-01    rms(broyden)= 0.54781E-01
  rms(prec ) = 0.58770E-01
  weight for this iteration     100.00

 eigenvalues of (default mixing * dielectric matrix)
  average eigenvalue GAMMA=   2.1006
  2.5608  1.8705  1.8705

 Free energy of the ion-electron system (eV)
  ---------------------------------------------------
  alpha Z        PSCENC =       116.02161311
  Ewald energy   TEWEN  =     -7498.84831535
  -Hartree energ DENC   =      -439.73584677
  -exchange      EXHF   =         0.00000000
  -V(xc)+E(xc)   XCENC  =      -528.85128997
  PAW double counting   =     32781.90143026   -31684.23806942
  entropy T*S    EENTRO =         0.03224601
  eigenvalues    EBANDS =       323.78393444
  atomic energy  EATOM  =      6564.79586099
  Solvation  Ediel_sol  =         0.00000000
  ---------------------------------------------------
  free energy    TOTEN  =      -365.13843669 eV

  energy without entropy =     -365.17068269  energy(sigma->0) =     -365.14918536


--------------------------------------------------------------------------------------------------------




--------------------------------------- Iteration      1(   9)  ---------------------------------------


    POTLOK:  cpu time      0.0793: real time      0.0888
    SETDIJ:  cpu time      0.0728: real time      0.0730
    EDDIAG:  cpu time      0.1325: real time      0.1328
  RMM-DIIS:  cpu time      0.7083: real time      0.7106
    ORTHCH:  cpu time      0.0202: real time      0.0202
       DOS:  cpu time      0.0012: real time      0.0012
    CHARGE:  cpu time      0.2346: real time      0.2351
    MIXING:  cpu time      0.0064: real time      0.0064
    --------------------------------------------
      LOOP:  cpu time      1.2553: real time      1.2682

 eigenvalue-minimisations  :  2676
 total energy-change (2. order) :-0.2412844E-01  (-0.2334563E-01)
 number of electron     255.9999997 magnetization 
 augmentation part      -14.7304864 magnetization 

 Broyden mixing:
  rms(total) = 0.61845E-01    rms(broyden)= 0.61845E-01
  rms(prec ) = 0.70818E-01
  weight for this iteration     100.00

 eigenvalues of (default mixing * dielectric matrix)
  average eigenvalue GAMMA=   2.0051
  2.4990  2.4990  2.5484  0.4738

 Free energy of the ion-electron system (eV)
  ---------------------------------------------------
  alpha Z        PSCENC =       116.02161311
  Ewald energy   TEWEN  =     -7498.84831535
  -Hartree energ DENC   =      -443.38879461
  -exchange      EXHF   =         0.00000000
  -V(xc)+E(xc)   XCENC  =      -528.36758562
  PAW double counting   =     33236.41065393   -32139.07205152
  entropy T*S    EENTRO =         0.03130353
  eigenvalues    EBANDS =       327.25475039
  atomic energy  EATOM  =      6564.79586099
  Solvation  Ediel_sol  =         0.00000000
  ---------------------------------------------------
  free energy    TOTEN  =      -365.16256513 eV

  energy without entropy =     -365.19386867  energy(sigma->0) =     -365.17299964


--------------------------------------------------------------------------------------------------------




--------------------------------------- Iteration      1(  10)  ---------------------------------------


    POTLOK:  cpu time      0.0742: real time      0.0872
    SETDIJ:  cpu time      0.0725: real time      0.0727
    EDDIAG:  cpu time      0.1323: real time      0.1326
  RMM-DIIS:  cpu time      0.7213: real time      0.7233
    ORTHCH:  cpu time      0.0205: real time      0.0206
       DOS:  cpu time      0.0016: real time      0.0016
    CHARGE:  cpu time      0.2341: real time      0.2346
    MIXING:  cpu time      0.0061: real time      0.0061
    --------------------------------------------
      LOOP:  cpu time      1.2627: real time      1.2788

 eigenvalue-minimisations  :  2727
 total energy-change (2. order) :-0.4436843E-02  (-0.4032517E-02)
 number of electron     255.9999997 magnetization 
 augmentation part      -14.7367157 magnetization 

 Broyden mixing:
  rms(total) = 0.82216E-01    rms(broyden)= 0.82216E-01
  rms(prec ) = 0.90260E-01
  weight for this iteration     100.00

 eigenvalues of (default mixing * dielectric matrix)
  average eigenvalue GAMMA=   1.5759
  2.6370  2.0810  2.0810  0.5403  0.5403

 Free energy of the ion-electron system (eV)
  ---------------------------------------------------
  alpha Z        PSCENC =       116.02161311
  Ewald energy   TEWEN  =     -7498.84831535
  -Hartree energ DENC   =      -443.51623174
  -exchange      EXHF   =         0.00000000
  -V(xc)+E(xc)   XCENC  =      -528.35387670
  PAW double counting   =     33266.54569713   -32169.21262661
  entropy T*S    EENTRO =         0.03124459
  eigenvalues    EBANDS =       327.36963260
  atomic energy  EATOM  =      6564.79586099
  Solvation  Ediel_sol  =         0.00000000
  ---------------------------------------------------
  free energy    TOTEN  =      -365.16700198 eV

  energy without entropy =     -365.19824657  energy(sigma->0) =     -365.17741684


--------------------------------------------------------------------------------------------------------




--------------------------------------- Iteration      1(  11)  ---------------------------------------


    POTLOK:  cpu time      0.0726: real time      0.0888
    SETDIJ:  cpu time      0.0729: real time      0.0731
    EDDIAG:  cpu time      0.1317: real time      0.1320
  RMM-DIIS:  cpu time      0.6896: real time      0.6918
    ORTHCH:  cpu time      0.0207: real time      0.0207
       DOS:  cpu time      0.0013: real time      0.0013
    CHARGE:  cpu time      0.2343: real time      0.2348
    MIXING:  cpu time      0.0063: real time      0.0063
    --------------------------------------------
      LOOP:  cpu time      1.2293: real time      1.2487

 eigenvalue-minimisations  :  2592
 total energy-change (2. order) : 0.4915099E-02  (-0.1420777E-02)
 number of electron     255.9999997 magnetization 
 augmentation part      -14.7518851 magnetization 

 Broyden mixing:
  rms(total) = 0.66943E-01    rms(broyden)= 0.66943E-01
  rms(prec ) = 0.67595E-01
  weight for this iteration     100.00

 eigenvalues of (default mixing * dielectric matrix)
  average eigenvalue GAMMA=   1.4114
  2.5037  2.5037  1.6237  0.7843  0.7843  0.2688

 Free energy of the ion-electron system (eV)
  ---------------------------------------------------
  alpha Z        PSCENC =       116.02161311
  Ewald energy   TEWEN  =     -7498.84831535
  -Hartree energ DENC   =      -440.69829659
  -exchange      EXHF   =         0.00000000
  -V(xc)+E(xc)   XCENC  =      -528.57154463
  PAW double counting   =     33208.88670577   -32111.27234730
  entropy T*S    EENTRO =         0.03231133
  eigenvalues    EBANDS =       324.49192579
  atomic energy  EATOM  =      6564.79586099
  Solvation  Ediel_sol  =         0.00000000
  ---------------------------------------------------
  free energy    TOTEN  =      -365.16208688 eV

  energy without entropy =     -365.19439821  energy(sigma->0) =     -365.17285732


--------------------------------------------------------------------------------------------------------




--------------------------------------- Iteration      1(  12)  ---------------------------------------


    POTLOK:  cpu time      0.0734: real time      0.0888
    SETDIJ:  cpu time      0.0728: real time      0.0729
    EDDIAG:  cpu time      0.1315: real time      0.1318
  RMM-DIIS:  cpu time      0.6884: real time      0.6901
    ORTHCH:  cpu time      0.0203: real time      0.0203
       DOS:  cpu time      0.0014: real time      0.0014
    CHARGE:  cpu time      0.2340: real time      0.2346
    MIXING:  cpu time      0.0056: real time      0.0056
    --------------------------------------------
      LOOP:  cpu time      1.2274: real time      1.2455

 eigenvalue-minimisations  :  2611
 total energy-change (2. order) :-0.1595411E-03  (-0.1951420E-03)
 number of electron     255.9999997 magnetization 
 augmentation part      -14.7550702 magnetization 

 Broyden mixing:
  rms(total) = 0.66717E-01    rms(broyden)= 0.66717E-01
  rms(prec ) = 0.67163E-01
  weight for this iteration     100.00

 eigenvalues of (default mixing * dielectric matrix)
  average eigenvalue GAMMA=   1.3109
  2.5145  2.5145  1.6615  0.8677  0.8677  0.3393  0.4113

 Free energy of the ion-electron system (eV)
  ---------------------------------------------------
  alpha Z        PSCENC =       116.02161311
  Ewald energy   TEWEN  =     -7498.84831535
  -Hartree energ DENC   =      -440.54017753
  -exchange      EXHF   =         0.00000000
  -V(xc)+E(xc)   XCENC  =      -528.59846935
  PAW double counting   =     33128.75401158   -32031.14795818
  entropy T*S    EENTRO =         0.03233820
  eigenvalues    EBANDS =       324.36885011
  atomic energy  EATOM  =      6564.79586099
  Solvation  Ediel_sol  =         0.00000000
  ---------------------------------------------------
  free energy    TOTEN  =      -365.16224642 eV

  energy without entropy =     -365.19458462  energy(sigma->0) =     -365.17302582


--------------------------------------------------------------------------------------------------------




--------------------------------------- Iteration      1(  13)  ---------------------------------------


    POTLOK:  cpu time      0.0734: real time      0.0887
    SETDIJ:  cpu time      0.0719: real time      0.0720
    EDDIAG:  cpu time      0.1310: real time      0.1313
  RMM-DIIS:  cpu time      0.7316: real time      0.7337
    ORTHCH:  cpu time      0.0204: real time      0.0205
       DOS:  cpu time      0.0015: real time      0.0015
    CHARGE:  cpu time      0.2343: real time      0.2349
    MIXING:  cpu time      0.0062: real time      0.0062
    --------------------------------------------
      LOOP:  cpu time      1.2703: real time      1.2888

 eigenvalue-minimisations  :  2752
 total energy-change (2. order) :-0.6559043E-04  (-0.3715916E-04)
 number of electron     255.9999997 magnetization 
 augmentation part      -14.7556370 magnetization 

 Broyden mixing:
  rms(total) = 0.73222E-01    rms(broyden)= 0.73222E-01
  rms(prec ) = 0.73629E-01
  weight for this iteration     100.00

 eigenvalues of (default mixing * dielectric matrix)
  average eigenvalue GAMMA=   1.7291
  3.1281  3.1281  2.4391  2.0609  0.9703  0.8657  0.8657  0.3753

 Free energy of the ion-electron system (eV)
  ---------------------------------------------------
  alpha Z        PSCENC =       116.02161311
  Ewald energy   TEWEN  =     -7498.84831535
  -Hartree energ DENC   =      -440.56787553
  -exchange      EXHF   =         0.00000000
  -V(xc)+E(xc)   XCENC  =      -528.59029964
  PAW double counting   =     33177.53998183   -32079.93505782
  entropy T*S    EENTRO =         0.03233888
  eigenvalues    EBANDS =       324.38944151
  atomic energy  EATOM  =      6564.79586099
  Solvation  Ediel_sol  =         0.00000000
  ---------------------------------------------------
  free energy    TOTEN  =      -365.16231201 eV

  energy without entropy =     -365.19465088  energy(sigma->0) =     -365.17309163


--------------------------------------------------------------------------------------------------------




--------------------------------------- Iteration      1(  14)  ---------------------------------------


    POTLOK:  cpu time      0.0740: real time      0.0892
    SETDIJ:  cpu time      0.0730: real time      0.0731
    EDDIAG:  cpu time      0.1301: real time      0.1306
  RMM-DIIS:  cpu time      0.6959: real time      0.6979
    ORTHCH:  cpu time      0.0199: real time      0.0200
       DOS:  cpu time      0.0012: real time      0.0012
    CHARGE:  cpu time      0.2346: real time      0.2352
    MIXING:  cpu time      0.0060: real time      0.0060
    --------------------------------------------
      LOOP:  cpu time      1.2348: real time      1.2533

 eigenvalue-minimisations  :  2605
 total energy-change (2. order) : 0.4081537E-04  (-0.1088951E-04)
 number of electron     255.9999997 magnetization 
 augmentation part      -14.7560348 magnetization 

 Broyden mixing:
  rms(total) = 0.31319E-01    rms(broyden)= 0.31319E-01
  rms(prec ) = 0.31803E-01
  weight for this iteration     100.00

 eigenvalues of (default mixing * dielectric matrix)
  average eigenvalue GAMMA=   1.4899
  2.5727  2.5727  2.5339  1.8714  0.9796  0.9796  0.3817  0.8410  0.6766

 Free energy of the ion-electron system (eV)
  ---------------------------------------------------
  alpha Z        PSCENC =       116.02161311
  Ewald energy   TEWEN  =     -7498.84831535
  -Hartree energ DENC   =      -440.29297788
  -exchange      EXHF   =         0.00000000
  -V(xc)+E(xc)   XCENC  =      -528.64673837
  PAW double counting   =     32794.99660500   -31697.42214497
  entropy T*S    EENTRO =         0.03237002
  eigenvalues    EBANDS =       324.20145625
  atomic energy  EATOM  =      6564.79586099
  Solvation  Ediel_sol  =         0.00000000
  ---------------------------------------------------
  free energy    TOTEN  =      -365.16227119 eV

  energy without entropy =     -365.19464121  energy(sigma->0) =     -365.17306120


--------------------------------------------------------------------------------------------------------




--------------------------------------- Iteration      1(  15)  ---------------------------------------


    POTLOK:  cpu time      0.0724: real time      0.0888
    SETDIJ:  cpu time      0.0727: real time      0.0729
    EDDIAG:  cpu time      0.1314: real time      0.1319
  RMM-DIIS:  cpu time      0.6932: real time      0.7254
    ORTHCH:  cpu time      0.0197: real time      0.0201
       DOS:  cpu time      0.0012: real time      0.0013
    CHARGE:  cpu time      0.2341: real time      0.2372
    MIXING:  cpu time      0.0059: real time      0.0061
    --------------------------------------------
      LOOP:  cpu time      1.2307: real time      1.2836

 eigenvalue-minimisations  :  2622
 total energy-change (2. order) :-0.1187471E-03  (-0.5134922E-05)
 number of electron     255.9999997 magnetization 
 augmentation part      -14.7564039 magnetization 

 Broyden mixing:
  rms(total) = 0.30130E-01    rms(broyden)= 0.30130E-01
  rms(prec ) = 0.30434E-01
  weight for this iteration     100.00

 eigenvalues of (default mixing * dielectric matrix)
  average eigenvalue GAMMA=   1.4146
  2.6493  2.6493  2.3809  1.7414  0.7747  0.7747  0.9749  0.9749  0.8498  0.3760

 Free energy of the ion-electron system (eV)
  ---------------------------------------------------
  alpha Z        PSCENC =       116.02161311
  Ewald energy   TEWEN  =     -7498.84831535
  -Hartree energ DENC   =      -440.30418144
  -exchange      EXHF   =         0.00000000
  -V(xc)+E(xc)   XCENC  =      -528.63279554
  PAW double counting   =     32851.19847644   -31753.61684311
  entropy T*S    EENTRO =         0.03240218
  eigenvalues    EBANDS =       324.19139277
  atomic energy  EATOM  =      6564.79586099
  Solvation  Ediel_sol  =         0.00000000
  ---------------------------------------------------
  free energy    TOTEN  =      -365.16238994 eV

  energy without entropy =     -365.19479212  energy(sigma->0) =     -365.17319067


--------------------------------------------------------------------------------------------------------




--------------------------------------- Iteration      1(  16)  ---------------------------------------


    POTLOK:  cpu time      0.0717: real time      0.0895
    SETDIJ:  cpu time      0.0718: real time      0.0732
    EDDIAG:  cpu time      0.1346: real time      0.1370
  RMM-DIIS:  cpu time      0.6967: real time      0.7048
    ORTHCH:  cpu time      0.0204: real time      0.0205
       DOS:  cpu time      0.0021: real time      0.0021
    CHARGE:  cpu time      0.2390: real time      0.2396
    MIXING:  cpu time      0.0067: real time      0.0067
    --------------------------------------------
      LOOP:  cpu time      1.2431: real time      1.2734

 eigenvalue-minimisations  :  2592
 total energy-change (2. order) :-0.6943524E-04  (-0.2939805E-05)
 number of electron     255.9999997 magnetization 
 augmentation part      -14.7559130 magnetization 

 Broyden mixing:
  rms(total) = 0.25257E-01    rms(broyden)= 0.25257E-01
  rms(prec ) = 0.25407E-01
  weight for this iteration     100.00

 eigenvalues of (default mixing * dielectric matrix)
  average eigenvalue GAMMA=   1.4996
  2.7187  2.7187  2.2695  2.2695  1.2558  1.2558  0.9583  0.9583  0.8565  0.8565
  0.3778

 Free energy of the ion-electron system (eV)
  ---------------------------------------------------
  alpha Z        PSCENC =       116.02161311
  Ewald energy   TEWEN  =     -7498.84831535
  -Hartree energ DENC   =      -440.47587278
  -exchange      EXHF   =         0.00000000
  -V(xc)+E(xc)   XCENC  =      -528.61339095
  PAW double counting   =     32877.15262866   -31779.57263757
  entropy T*S    EENTRO =         0.03239420
  eigenvalues    EBANDS =       324.34526031
  atomic energy  EATOM  =      6564.79586099
  Solvation  Ediel_sol  =         0.00000000
  ---------------------------------------------------
  free energy    TOTEN  =      -365.16245937 eV

  energy without entropy =     -365.19485357  energy(sigma->0) =     -365.17325744


--------------------------------------------------------------------------------------------------------




--------------------------------------- Iteration      1(  17)  ---------------------------------------


    POTLOK:  cpu time      0.0788: real time      0.0907
    SETDIJ:  cpu time      0.0725: real time      0.0727
    EDDIAG:  cpu time      0.1326: real time      0.1331
  RMM-DIIS:  cpu time      0.6902: real time      0.6919
    ORTHCH:  cpu time      0.0200: real time      0.0200
       DOS:  cpu time      0.0017: real time      0.0017
    CHARGE:  cpu time      0.2347: real time      0.2353
    MIXING:  cpu time      0.0065: real time      0.0065
    --------------------------------------------
      LOOP:  cpu time      1.2371: real time      1.2519

 eigenvalue-minimisations  :  2592
 total energy-change (2. order) :-0.1858665E-04  (-0.1120607E-05)
 number of electron     255.9999997 magnetization 
 augmentation part      -14.7557529 magnetization 

 Broyden mixing:
  rms(total) = 0.77991E-02    rms(broyden)= 0.77991E-02
  rms(prec ) = 0.78814E-02
  weight for this iteration     100.00

 eigenvalues of (default mixing * dielectric matrix)
  average eigenvalue GAMMA=   1.6766
  3.0558  3.0558  2.0181  2.0181  2.5003  2.2133  0.3776  0.9588  0.9588  1.0387
  1.0387  0.8856

 Free energy of the ion-electron system (eV)
  ---------------------------------------------------
  alpha Z        PSCENC =       116.02161311
  Ewald energy   TEWEN  =     -7498.84831535
  -Hartree energ DENC   =      -440.47967047
  -exchange      EXHF   =         0.00000000
  -V(xc)+E(xc)   XCENC  =      -528.62350601
  PAW double counting   =     32762.80665703   -31665.22768325
  entropy T*S    EENTRO =         0.03240603
  eigenvalues    EBANDS =       324.36015995
  atomic energy  EATOM  =      6564.79586099
  Solvation  Ediel_sol  =         0.00000000
  ---------------------------------------------------
  free energy    TOTEN  =      -365.16247796 eV

  energy without entropy =     -365.19488399  energy(sigma->0) =     -365.17327997


--------------------------------------------------------------------------------------------------------




--------------------------------------- Iteration      1(  18)  ---------------------------------------


    POTLOK:  cpu time      0.0736: real time      0.0878
    SETDIJ:  cpu time      0.0745: real time      0.0747
    EDDIAG:  cpu time      0.1310: real time      0.1316
  RMM-DIIS:  cpu time      0.6266: real time      0.6281
    ORTHCH:  cpu time      0.0202: real time      0.0202
       DOS:  cpu time      0.0018: real time      0.0018
    CHARGE:  cpu time      0.2351: real time      0.2357
    MIXING:  cpu time      0.0068: real time      0.0068
    --------------------------------------------
      LOOP:  cpu time      1.1696: real time      1.1866

 eigenvalue-minimisations  :  2289
 total energy-change (2. order) :-0.6813375E-05  (-0.5382693E-06)
 number of electron     255.9999997 magnetization 
 augmentation part      -14.7555577 magnetization 

 Broyden mixing:
  rms(total) = 0.99345E-03    rms(broyden)= 0.99338E-03
  rms(prec ) = 0.10260E-02
  weight for this iteration     100.00

 eigenvalues of (default mixing * dielectric matrix)
  average eigenvalue GAMMA=   1.6102
  3.0994  3.0994  2.1337  2.1337  2.4971  2.1706  1.0811  1.0811  0.9594  0.9594
  0.8820  0.3776  0.4578

 Free energy of the ion-electron system (eV)
  ---------------------------------------------------
  alpha Z        PSCENC =       116.02161311
  Ewald energy   TEWEN  =     -7498.84831535
  -Hartree energ DENC   =      -440.50351040
  -exchange      EXHF   =         0.00000000
  -V(xc)+E(xc)   XCENC  =      -528.62394488
  PAW double counting   =     32727.56076672   -31629.98208189
  entropy T*S    EENTRO =         0.03241187
  eigenvalues    EBANDS =       324.38471504
  atomic energy  EATOM  =      6564.79586099
  Solvation  Ediel_sol  =         0.00000000
  ---------------------------------------------------
  free energy    TOTEN  =      -365.16248477 eV

  energy without entropy =     -365.19489664  energy(sigma->0) =     -365.17328873


--------------------------------------------------------------------------------------------------------




--------------------------------------- Iteration      1(  19)  ---------------------------------------


    POTLOK:  cpu time      0.0754: real time      0.0895
    SETDIJ:  cpu time      0.0732: real time      0.0733
    EDDIAG:  cpu time      0.1299: real time      0.1304
  RMM-DIIS:  cpu time      0.4425: real time      0.4615
    ORTHCH:  cpu time      0.0196: real time      0.0198
       DOS:  cpu time      0.0016: real time      0.0016
    CHARGE:  cpu time      0.2326: real time      0.2350
    MIXING:  cpu time      0.0072: real time      0.0072
    --------------------------------------------
      LOOP:  cpu time      0.9819: real time      1.0183

 eigenvalue-minimisations  :  1576
 total energy-change (2. order) :-0.1076383E-05  (-0.1182352E-06)
 number of electron     255.9999997 magnetization 
 augmentation part      -14.7554560 magnetization 

 Broyden mixing:
  rms(total) = 0.13489E-02    rms(broyden)= 0.13489E-02
  rms(prec ) = 0.13494E-02
  weight for this iteration     100.00

 eigenvalues of (default mixing * dielectric matrix)
  average eigenvalue GAMMA=   1.8222
  5.1866  3.2670  2.4539  2.4539  2.3793  1.6364  1.6364  0.3776  1.1742  1.1742
  1.0374  0.9258  0.9258  0.8823

 Free energy of the ion-electron system (eV)
  ---------------------------------------------------
  alpha Z        PSCENC =       116.02161311
  Ewald energy   TEWEN  =     -7498.84831535
  -Hartree energ DENC   =      -440.51699731
  -exchange      EXHF   =         0.00000000
  -V(xc)+E(xc)   XCENC  =      -528.62288801
  PAW double counting   =     32725.13489809   -31627.55650325
  entropy T*S    EENTRO =         0.03241264
  eigenvalues    EBANDS =       324.39743323
  atomic energy  EATOM  =      6564.79586099
  Solvation  Ediel_sol  =         0.00000000
  ---------------------------------------------------
  free energy    TOTEN  =      -365.16248585 eV

  energy without entropy =     -365.19489849  energy(sigma->0) =     -365.17329007


--------------------------------------------------------------------------------------------------------




--------------------------------------- Iteration      1(  20)  ---------------------------------------


    POTLOK:  cpu time      0.0737: real time      0.0883
    SETDIJ:  cpu time      0.0732: real time      0.0734
    EDDIAG:  cpu time      0.1317: real time      0.1320
  RMM-DIIS:  cpu time      0.4458: real time      0.4473
    ORTHCH:  cpu time      0.0200: real time      0.0201
       DOS:  cpu time      0.0014: real time      0.0014
    --------------------------------------------
      LOOP:  cpu time      0.7458: real time      0.7624

 eigenvalue-minimisations  :  1504
 total energy-change (2. order) :-0.5439970E-06  (-0.2531807E-07)
 number of electron     255.9999997 magnetization 
 augmentation part      -14.7554560 magnetization 

 Free energy of the ion-electron system (eV)
  ---------------------------------------------------
  alpha Z        PSCENC =       116.02161311
  Ewald energy   TEWEN  =     -7498.84831535
  -Hartree energ DENC   =      -440.52407503
  -exchange      EXHF   =         0.00000000
  -V(xc)+E(xc)   XCENC  =      -528.62157519
  PAW double counting   =     32734.51726097   -31636.93901547
  entropy T*S    EENTRO =         0.03241213
  eigenvalues    EBANDS =       324.40334744
  atomic energy  EATOM  =      6564.79586099
  Solvation  Ediel_sol  =         0.00000000
  ---------------------------------------------------
  free energy    TOTEN  =      -365.16248640 eV

  energy without entropy =     -365.19489853  energy(sigma->0) =     -365.17329044


--------------------------------------------------------------------------------------------------------




 average (electrostatic) potential at core
  the test charge radii are     0.9892
  (the norm of the test charge is              1.0000)
       1 -82.1687       2 -82.1687       3 -82.1687       4 -82.1687       5 -82.1687
       6 -82.1687       7 -82.1687       8 -82.1687       9 -82.1687      10 -82.1687
      11 -82.1687      12 -82.1687      13 -82.1687      14 -82.1687      15 -82.1687
      16 -82.1687      17 -82.1687      18 -82.1687      19 -82.1687      20 -82.1687
      21 -82.1687      22 -82.1687      23 -82.1687      24 -82.1687      25 -82.1687
      26 -82.1687      27 -82.1687      28 -82.1687      29 -82.1687      30 -82.1687
      31 -82.1687      32 -82.1687      33 -82.1687      34 -82.1687      35 -82.1687
      36 -82.1687      37 -82.1687      38 -82.1687      39 -82.1687      40 -82.1687
      41 -82.1687      42 -82.1687      43 -82.1687      44 -82.1687      45 -82.1687
      46 -82.1687      47 -82.1687      48 -82.1687      49 -82.1687      50 -82.1687
      51 -82.1687      52 -82.1687      53 -82.1687      54 -82.1687      55 -82.1687
      56 -82.1687      57 -82.1687      58 -82.1687      59 -82.1687      60 -82.1687
      61 -82.1687      62 -82.1687      63 -82.1687      64 -82.1687
 
 
 
 E-fermi :   6.7918     XC(G=0):  -9.8437     alpha+bet :-12.9162

 val. band max:        6.6086632475   @ k =   0.0000   0.0000   0.0000
 cond. band min:       6.9226706396   @ k =   0.5000  -0.0000   0.0000
 fundamental gap:      0.3140073921
 Fermi energy:         6.7917969349

 k-point     1 :       0.0000    0.0000    0.0000
  band No.  band energies     occupation 
      1      -5.9463      2.00000
      2      -4.7915      2.00000
      3      -4.7915      2.00000
      4      -4.7915      2.00000
      5      -4.7915      2.00000
      6      -4.7814      2.00000
      7      -4.7814      2.00000
      8      -3.7576      2.00000
      9      -3.7576      2.00000
     10      -3.7496      2.00000
     11      -3.7496      2.00000
     12      -3.7496      2.00000
     13      -3.7496      2.00000
     14      -3.7423      2.00000
     15      -3.7423      2.00000
     16      -3.7423      2.00000
     17      -3.7423      2.00000
     18      -3.7268      2.00000
     19      -3.7268      2.00000
     20      -3.4155      2.00000
     21      -3.4155      2.00000
     22      -3.3798      2.00000
     23      -3.3798      2.00000
     24      -1.5355      2.00000
     25      -1.5152      2.00000
     26      -1.5152      2.00000
     27      -1.4950      2.00000
     28      -1.4820      2.00000
     29      -1.4820      2.00000
     30      -1.3271      2.00000
     31      -1.3271      2.00000
     32      -1.3160      2.00000
     33      -1.3160      2.00000
     34      -1.2923      2.00000
     35      -1.2923      2.00000
     36      -1.2923      2.00000
     37      -1.2923      2.00000
     38      -1.2796      2.00000
     39      -1.2796      2.00000
     40      -1.2686      2.00000
     41      -1.2686      2.00000
     42      -0.8125      2.00000
     43      -0.8125      2.00000
     44      -0.8067      2.00000
     45      -0.8067      2.00000
     46       0.9239      2.00000
     47       0.9239      2.00000
     48       0.9327      2.00000
     49       0.9327      2.00000
     50       0.9327      2.00000
     51       0.9327      2.00000
     52       0.9412      2.00000
     53       0.9412      2.00000
     54       0.9528      2.00000
     55       0.9528      2.00000
     56       0.9528      2.00000
     57       0.9528      2.00000
     58       2.3370      2.00000
     59       2.3370      2.00000
     60       2.3382      2.00000
     61       2.3382      2.00000
     62       2.3404      2.00000
     63       2.3405      2.00000
     64       2.3412      2.00000
     65       2.3412      2.00000
     66       2.3412      2.00000
     67       2.3412      2.00000
     68       2.3418      2.00000
     69       2.3418      2.00000
     70       2.4609      2.00000
     71       2.4609      2.00000
     72       2.4672      2.00000
     73       2.4672      2.00000
     74       2.4672      2.00000
     75       2.4672      2.00000
     76       2.4733      2.00000
     77       2.4733      2.00000
     78       2.4971      2.00000
     79       2.4971      2.00000
     80       2.4972      2.00000
     81       2.4972      2.00000
     82       3.0571      2.00000
     83       3.0572      2.00000
     84       3.0575      2.00000
     85       3.0575      2.00000
     86       3.0965      2.00000
     87       3.0965      2.00000
     88       3.4763      2.00000
     89       3.4763      2.00000
     90       3.4879      2.00000
     91       3.5176      2.00000
     92       3.5176      2.00000
     93       3.5474      2.00000
     94       4.5066      2.00000
     95       4.5066      2.00000
     96       4.5066      2.00000
     97       4.5066      2.00000
     98       4.5119      2.00000
     99       4.5120      2.00000
    100       4.5330      2.00000
    101       4.5330      2.00000
    102       4.5442      2.00000
    103       4.5442      2.00000
    104       4.5655      2.00000
    105       4.5655      2.00000
    106       5.1297      2.00000
    107       5.1297      2.00000
    108       5.1297      2.00000
    109       5.1297      2.00000
    110       5.1582      2.00000
    111       5.1582      2.00000
    112       5.1726      2.00000
    113       5.1726      2.00000
    114       5.1726      2.00000
    115       5.1726      2.00000
    116       5.1872      2.00000
    117       5.1872      2.00000
    118       5.2733      2.00000
    119       5.2733      2.00000
    120       5.3001      2.00000
    121       5.3001      2.00000
    122       5.3252      2.00000
    123       5.3252      2.00000
    124       5.3511      2.00000
    125       5.3511      2.00000
    126       6.5688      2.06663
    127       6.5703      2.06596
    128       6.6087      2.02804
    129       6.9830     -0.03992
    130       6.9830     -0.03992
    131       6.9940     -0.05246
    132       7.0248     -0.06973
    133       7.0248     -0.06973
    134       7.0559     -0.06844
    135       7.5109     -0.00000
    136       7.5109     -0.00000
    137       7.5518     -0.00000
    138       7.5518     -0.00000
    139       7.5519     -0.00000
    140       7.5519     -0.00000
    141       8.2884     -0.00000
    142       8.2884     -0.00000
    143       8.3375     -0.00000
    144       8.3375     -0.00000
    145       8.9398     -0.00000
    146       8.9399     -0.00000
    147       8.9403     -0.00000
    148       8.9412     -0.00000
    149       8.9716     -0.00000
    150       8.9736     -0.00000
    151       8.9887     -0.00000
    152       8.9888     -0.00000
    153       8.9892     -0.00000
    154       8.9933     -0.00000
    155       9.0075     -0.00000
    156       9.0102     -0.00000
    157       9.0851     -0.00000
    158       9.1333     -0.00000
    159       9.1674     -0.00000
    160       9.5651     -0.00000
    161       9.6206     -0.00000
    162       9.7312     -0.00000

 k-point     2 :       0.5000   -0.0000    0.0000
  band No.  band energies     occupation 
      1      -5.6525      2.00000
      2      -5.6525      2.00000
      3      -4.5297      2.00000
      4      -4.5297      2.00000
      5      -4.5220      2.00000
      6      -4.5220      2.00000
      7      -4.5220      2.00000
      8      -4.5220      2.00000
      9      -4.5142      2.00000
     10      -4.5142      2.00000
     11      -3.6047      2.00000
     12      -3.6047      2.00000
     13      -3.6047      2.00000
     14      -3.6047      2.00000
     15      -3.5835      2.00000
     16      -3.5835      2.00000
     17      -3.5835      2.00000
     18      -3.5835      2.00000
     19      -3.3672      2.00000
     20      -3.3672      2.00000
     21      -2.5917      2.00000
     22      -2.5917      2.00000
     23      -2.5694      2.00000
     24      -2.5694      2.00000
     25      -2.5694      2.00000
     26      -2.5694      2.00000
     27      -2.5471      2.00000
     28      -2.5471      2.00000
     29      -1.4380      2.00000
     30      -1.4380      2.00000
     31      -1.4308      2.00000
     32      -1.4308      2.00000
     33      -1.4007      2.00000
     34      -1.4007      2.00000
     35      -1.3937      2.00000
     36      -1.3937      2.00000
     37      -0.2008      2.00000
     38      -0.2008      2.00000
     39      -0.1845      2.00000
     40      -0.1845      2.00000
     41      -0.1845      2.00000
     42      -0.1845      2.00000
[...]
  0.000   0.000   4.168   0.000  -0.000   7.764   0.000  -0.000
 -0.000  -0.000   0.000   4.168   0.000   0.000   7.764   0.000
  0.000   0.000  -0.000   0.000   4.168  -0.000   0.000   7.764
  0.000   0.000   7.764   0.000  -0.000  14.473   0.000  -0.000
 -0.001  -0.001   0.000   7.764   0.000   0.000  14.473   0.000
  0.000   0.000  -0.000   0.000   7.764  -0.000   0.000  14.473
 total augmentation occupancy for first ion, spin component:           1
  6.592  -2.649   0.000   0.013   0.000  -0.000  -0.005   0.000
 -2.649   1.172  -0.000  -0.007   0.000   0.000   0.002   0.000
  0.000  -0.000   3.229   0.000   0.001  -0.744   0.000   0.001
  0.013  -0.007   0.000   3.229  -0.000   0.000  -0.744   0.000
  0.000   0.000   0.001  -0.000   3.218   0.001   0.000  -0.740
 -0.000   0.000  -0.744   0.000   0.001   0.181   0.000  -0.000
 -0.005   0.002   0.000  -0.744   0.000   0.000   0.181  -0.000
  0.000   0.000   0.001   0.000  -0.740  -0.000  -0.000   0.180


------------------------ aborting loop because EDIFF is reached ----------------------------------------


    CHARGE:  cpu time      0.2365: real time      0.2370
    FORLOC:  cpu time      0.0212: real time      0.0213
    FORNL :  cpu time      0.6826: real time      0.6842
    STRESS:  cpu time      2.1117: real time      2.1173
    FORCOR:  cpu time      0.0859: real time      0.0861
    FORHAR:  cpu time      0.0348: real time      0.0349
    MIXING:  cpu time      0.0316: real time      0.0316
    OFIELD:  cpu time      0.0000: real time      0.0000

  FORCE on cell =-STRESS in cart. coord.  units (eV):
  Direction    XX          YY          ZZ          XY          YZ          ZX
  --------------------------------------------------------------------------------------
  Alpha Z   116.02161   116.02161   116.02161
  Ewald   -2511.14196 -2493.90556 -2493.89660     2.45399    -0.00000     0.00000
  Hartree   145.06196   147.71536   147.70070     2.07326    -0.00000    -0.00000
  E(xc)    -832.69678  -832.85613  -832.85910    -0.00698    -0.00000    -0.00000
  Local    -884.62594  -904.96812  -904.99798    -5.05393     0.00000     0.00000
  n-local  2533.26853  2535.83840  2535.90877    -0.08301     0.00000    -0.00000
  augment  -370.05055  -370.03824  -370.04119    -0.17118     0.00000     0.00000
  Kinetic  1870.36077  1865.35483  1865.30125     3.59472    -0.00001    -0.00000
  Fock        0.00000     0.00000     0.00000     0.00000     0.00000     0.00000
  -------------------------------------------------------------------------------------
  Total      66.19765    63.16216    63.13747     2.80687     0.00000     0.00000
  in kB      89.24371    85.15144    85.11815     3.78405     0.00000     0.00000
  external pressure =       86.50 kB  Pullay stress =        0.00 kB


 VOLUME and BASIS-vectors are now :
 -----------------------------------------------------------------------------
  energy-cutoff  :      400.00
  volume of cell :     1188.44
      direct lattice vectors                 reciprocal lattice vectors
    10.557023559 -0.026525004  0.000000000     0.094724263  0.000236809  0.000000000
    -0.026525004 10.610073567  0.000000000     0.000236809  0.094250645  0.000000000
     0.000000000  0.000000000 10.610073567     0.000000000  0.000000000  0.094250053

  length of vectors
    10.557056882 10.610106723 10.610073567     0.094724560  0.094250943  0.094250053


 FORCES acting on ions
    electron-ion (+dipol)            ewald-force                    non-local-force                 convergence-correction
 -----------------------------------------------------------------------------------------------
   -.221E-08 -.236E-08 0.423E+00   -.178E-13 -.291E-13 -.299E+00   -.967E-21 0.285E-19 -.125E+00   -.549E-13 -.473E-13 -.753E-05
   -.221E-08 -.236E-08 0.423E+00   -.204E-13 -.351E-13 -.299E+00   -.195E-20 -.239E-19 -.125E+00   0.874E-13 -.686E-13 -.753E-05
   -.221E-08 -.236E-08 0.423E+00   0.178E-14 -.329E-13 -.299E+00   0.232E-20 -.128E-19 -.125E+00   -.681E-13 0.679E-13 -.753E-05
   -.221E-08 -.236E-08 0.423E+00   -.711E-14 -.275E-13 -.299E+00   -.216E-20 0.841E-20 -.125E+00   0.109E-12 0.733E-13 -.753E-05
   -.221E-08 -.236E-08 0.423E+00   -.131E-13 -.298E-13 -.299E+00   0.293E-20 -.756E-20 -.125E+00   0.656E-13 -.425E-13 -.753E-05
   -.221E-08 -.236E-08 0.423E+00   -.182E-13 -.266E-13 -.299E+00   -.174E-20 0.197E-19 -.125E+00   -.963E-13 -.498E-13 -.753E-05
   -.221E-08 -.236E-08 0.423E+00   -.124E-13 -.338E-13 -.299E+00   -.110E-20 0.195E-19 -.125E+00   0.888E-13 0.589E-13 -.753E-05
   -.221E-08 -.236E-08 0.423E+00   -.107E-13 -.249E-13 -.299E+00   -.195E-20 -.134E-19 -.125E+00   -.117E-12 0.523E-13 -.753E-05
   0.382E-08 0.389E-08 -.423E+00   -.444E-15 -.147E-13 0.299E+00   0.189E-21 -.201E-19 0.125E+00   0.137E-12 0.822E-13 0.753E-05
   0.382E-08 0.389E-08 -.423E+00   -.178E-14 -.142E-13 0.299E+00   0.198E-20 0.692E-20 0.125E+00   -.114E-12 -.481E-13 0.753E-05
   0.382E-08 0.389E-08 -.423E+00   0.311E-14 -.622E-14 0.299E+00   0.270E-20 0.297E-19 0.125E+00   0.666E-13 -.810E-13 0.753E-05
   0.382E-08 0.389E-08 -.423E+00   -.711E-14 -.888E-14 0.299E+00   0.212E-20 -.841E-20 0.125E+00   -.672E-13 0.337E-13 0.753E-05
   0.382E-08 0.389E-08 -.423E+00   0.187E-13 -.191E-13 0.299E+00   0.220E-20 0.245E-19 0.125E+00   -.146E-12 -.250E-13 0.753E-05
   0.382E-08 0.389E-08 -.423E+00   0.533E-14 -.195E-13 0.299E+00   0.258E-20 -.103E-20 0.125E+00   0.115E-12 0.681E-13 0.753E-05
   0.382E-08 0.389E-08 -.423E+00   -.755E-14 -.133E-13 0.299E+00   0.110E-20 -.195E-19 0.125E+00   -.707E-13 0.203E-13 0.753E-05
   0.382E-08 0.389E-08 -.423E+00   -.178E-14 -.142E-13 0.299E+00   0.249E-21 0.101E-19 0.125E+00   0.670E-13 -.747E-13 0.753E-05
   -.221E-08 -.236E-08 0.423E+00   -.311E-14 -.135E-13 -.299E+00   -.468E-20 -.202E-19 -.125E+00   -.908E-13 -.141E-13 -.753E-05
   -.221E-08 -.236E-08 0.423E+00   0.355E-14 -.138E-13 -.299E+00   0.450E-20 0.232E-19 -.125E+00   0.133E-12 -.588E-13 -.753E-05
   -.221E-08 -.236E-08 0.423E+00   -.311E-14 -.844E-14 -.299E+00   -.809E-21 0.438E-20 -.125E+00   -.274E-14 0.151E-13 -.753E-05
   -.221E-08 -.236E-08 0.423E+00   -.355E-14 -.933E-14 -.299E+00   0.456E-20 -.124E-19 -.125E+00   0.341E-13 0.653E-13 -.753E-05
   -.221E-08 -.236E-08 0.423E+00   -.215E-13 -.187E-13 -.299E+00   -.148E-20 0.283E-21 -.125E+00   0.964E-13 0.677E-13 -.753E-05
   -.221E-08 -.236E-08 0.423E+00   -.226E-13 -.151E-13 -.299E+00   0.288E-20 -.117E-19 -.125E+00   -.132E-12 -.107E-12 -.753E-05
   -.221E-08 -.236E-08 0.423E+00   -.266E-14 -.977E-14 -.299E+00   -.482E-20 -.709E-20 -.125E+00   0.965E-14 -.640E-13 -.753E-05
   -.221E-08 -.236E-08 0.423E+00   -.107E-13 -.107E-13 -.299E+00   0.446E-20 0.340E-19 -.125E+00   -.323E-13 0.112E-12 -.753E-05
   0.382E-08 0.389E-08 -.423E+00   0.133E-14 -.112E-13 0.299E+00   0.118E-20 -.241E-19 0.125E+00   -.322E-13 -.908E-14 0.753E-05
   0.382E-08 0.389E-08 -.423E+00   0.133E-14 -.765E-14 0.299E+00   -.300E-20 -.605E-20 0.125E+00   0.446E-13 -.927E-13 0.753E-05
   0.382E-08 0.389E-08 -.423E+00   0.000E+00 -.163E-14 0.299E+00   0.141E-20 0.234E-19 0.125E+00   -.529E-13 0.140E-13 0.753E-05
   0.382E-08 0.389E-08 -.423E+00   0.000E+00 0.192E-14 0.299E+00   -.449E-20 0.663E-20 0.125E+00   0.715E-13 0.934E-13 0.753E-05
   0.382E-08 0.389E-08 -.423E+00   0.488E-14 -.899E-14 0.299E+00   0.131E-20 0.244E-19 0.125E+00   0.145E-13 -.290E-13 0.753E-05
   0.382E-08 0.389E-08 -.423E+00   -.222E-14 0.167E-14 0.299E+00   -.424E-20 -.130E-19 0.125E+00   -.305E-13 -.113E-12 0.753E-05
   0.382E-08 0.389E-08 -.423E+00   0.107E-13 0.146E-15 0.299E+00   0.880E-21 -.315E-19 0.125E+00   0.432E-13 0.260E-13 0.753E-05
   0.382E-08 0.389E-08 -.423E+00   -.355E-14 -.296E-14 0.299E+00   -.277E-20 0.963E-20 0.125E+00   -.686E-13 0.122E-12 0.753E-05
   -.221E-08 -.236E-08 0.423E+00   -.102E-13 -.888E-15 -.299E+00   0.488E-20 0.291E-20 -.125E+00   -.249E-13 -.857E-14 -.753E-05
   -.221E-08 -.236E-08 0.423E+00   -.173E-13 -.888E-15 -.299E+00   -.404E-20 -.267E-19 -.125E+00   0.629E-13 -.868E-13 -.753E-05
   -.221E-08 -.236E-08 0.423E+00   0.178E-14 -.244E-14 -.299E+00   0.123E-20 0.724E-20 -.125E+00   0.515E-13 0.188E-13 -.753E-05
   -.221E-08 -.236E-08 0.423E+00   -.107E-13 -.222E-14 -.299E+00   -.322E-20 0.141E-19 -.125E+00   0.157E-13 0.967E-13 -.753E-05
   -.221E-08 -.236E-08 0.423E+00   0.666E-14 0.178E-14 -.299E+00   0.211E-20 0.354E-20 -.125E+00   0.235E-13 0.820E-13 -.753E-05
   -.221E-08 -.236E-08 0.423E+00   0.147E-13 0.178E-14 -.299E+00   -.373E-20 0.275E-19 -.125E+00   -.644E-13 -.187E-12 -.753E-05
   -.221E-08 -.236E-08 0.423E+00   0.977E-14 0.711E-14 -.299E+00   0.466E-20 -.495E-20 -.125E+00   -.613E-13 -.650E-13 -.753E-05
   -.221E-08 -.236E-08 0.423E+00   0.213E-13 0.000E+00 -.299E+00   -.280E-20 -.402E-19 -.125E+00   -.160E-13 0.195E-12 -.753E-05
   0.382E-08 0.389E-08 -.423E+00   0.978E-14 0.178E-13 0.299E+00   -.139E-20 0.275E-19 0.125E+00   0.239E-13 -.866E-14 0.753E-05
   0.382E-08 0.389E-08 -.423E+00   0.668E-14 0.213E-13 0.299E+00   0.113E-20 -.139E-19 0.125E+00   0.711E-13 0.376E-13 0.753E-05
   0.382E-08 0.389E-08 -.423E+00   0.116E-13 0.249E-13 0.299E+00   -.229E-20 -.183E-19 0.125E+00   0.938E-14 0.350E-14 0.753E-05
   0.382E-08 0.389E-08 -.423E+00   0.244E-13 0.249E-13 0.299E+00   0.254E-20 0.156E-19 0.125E+00   0.411E-13 -.464E-13 0.753E-05
   0.382E-08 0.389E-08 -.423E+00   -.110E-14 0.142E-13 0.299E+00   -.219E-20 -.289E-20 0.125E+00   -.900E-14 -.336E-13 0.753E-05
   0.382E-08 0.389E-08 -.423E+00   0.623E-14 0.142E-13 0.299E+00   0.342E-20 0.917E-20 0.125E+00   -.707E-13 0.706E-13 0.753E-05
   0.382E-08 0.389E-08 -.423E+00   0.379E-14 0.107E-13 0.299E+00   -.189E-20 0.309E-19 0.125E+00   0.828E-14 0.284E-13 0.753E-05
   0.382E-08 0.389E-08 -.423E+00   0.184E-13 0.142E-13 0.299E+00   0.810E-21 -.437E-20 0.125E+00   -.512E-13 -.780E-13 0.753E-05
   -.221E-08 -.236E-08 0.423E+00   -.888E-15 0.149E-13 -.299E+00   -.255E-20 -.147E-19 -.125E+00   0.791E-13 0.135E-13 -.753E-05
   -.221E-08 -.236E-08 0.423E+00   0.888E-15 0.933E-14 -.299E+00   -.385E-21 0.147E-19 -.125E+00   -.128E-13 -.672E-13 -.753E-05
   -.221E-08 -.236E-08 0.423E+00   -.178E-14 0.151E-13 -.299E+00   -.621E-22 0.272E-19 -.125E+00   0.725E-13 -.833E-14 -.753E-05
   -.221E-08 -.236E-08 0.423E+00   -.178E-14 0.142E-13 -.299E+00   0.480E-21 -.345E-20 -.125E+00   -.333E-13 0.741E-13 -.753E-05
   -.221E-08 -.236E-08 0.423E+00   0.333E-14 0.799E-14 -.299E+00   0.801E-21 0.286E-19 -.125E+00   -.935E-13 0.240E-13 -.753E-05
   -.221E-08 -.236E-08 0.423E+00   0.488E-14 0.115E-13 -.299E+00   0.377E-21 0.683E-20 -.125E+00   0.209E-13 -.829E-13 -.753E-05
   -.221E-08 -.236E-08 0.423E+00   -.120E-13 0.155E-13 -.299E+00   0.103E-20 -.128E-19 -.125E+00   -.876E-13 -.345E-13 -.753E-05
   -.221E-08 -.236E-08 0.423E+00   -.107E-13 0.142E-13 -.299E+00   0.172E-20 0.231E-19 -.125E+00   0.416E-13 0.101E-12 -.753E-05
   0.382E-08 0.389E-08 -.423E+00   -.372E-14 0.159E-13 0.299E+00   -.590E-20 0.214E-19 0.125E+00   -.727E-13 -.397E-16 0.753E-05
   0.382E-08 0.389E-08 -.423E+00   -.553E-14 0.143E-13 0.299E+00   -.220E-20 -.215E-19 0.125E+00   0.141E-12 -.132E-12 0.753E-05
   0.382E-08 0.389E-08 -.423E+00   0.225E-13 0.234E-13 0.299E+00   0.517E-21 -.119E-19 0.125E+00   0.310E-13 -.825E-15 0.753E-05
   0.382E-08 0.389E-08 -.423E+00   0.647E-14 0.279E-13 0.299E+00   -.381E-20 0.514E-20 0.125E+00   0.324E-13 0.137E-12 0.753E-05
   0.382E-08 0.389E-08 -.423E+00   0.186E-13 0.226E-13 0.299E+00   -.801E-21 -.218E-19 0.125E+00   0.828E-13 0.707E-13 0.753E-05
   0.382E-08 0.389E-08 -.423E+00   0.170E-13 0.227E-13 0.299E+00   -.257E-20 0.135E-19 0.125E+00   -.143E-12 -.175E-12 0.753E-05
   0.382E-08 0.389E-08 -.423E+00   0.197E-13 0.336E-13 0.299E+00   -.608E-20 0.111E-19 0.125E+00   -.224E-13 -.739E-13 0.753E-05
   0.382E-08 0.389E-08 -.423E+00   0.184E-13 0.386E-13 0.299E+00   -.173E-20 -.248E-19 0.125E+00   -.272E-13 0.187E-12 0.753E-05
 -----------------------------------------------------------------------------------------------
   0.514E-07 0.488E-07 -.318E-05   0.305E-13 -.295E-13 0.553E-13   -.186E-19 0.108E-18 0.638E-15   0.258E-13 0.956E-13 0.273E-10
 
 
 POSITION                                       TOTAL-FORCE (eV/Angst)
 -----------------------------------------------------------------------------------
      0.00000     -0.00000     10.60787        -0.000000     -0.000000      0.000048
     -0.00000      0.00000      5.30283        -0.000000     -0.000000      0.000048
     -0.01326      5.30504     10.60787         0.000000      0.000000      0.000048
     -0.01326      5.30504      5.30283         0.000000     -0.000000      0.000048
      5.27851     -0.01326     10.60787        -0.000000     -0.000000      0.000048
      5.27851     -0.01326      5.30283        -0.000000     -0.000000      0.000048
      5.26525      5.29177     10.60787         0.000000     -0.000000      0.000048
      5.26525      5.29177      5.30283         0.000000      0.000000      0.000048
      3.94894      3.96883      1.32846        -0.000000      0.000000     -0.000048
      3.94894      3.96883      6.63350        -0.000000     -0.000000     -0.000048
      3.93567      9.27387      1.32846         0.000000     -0.000000     -0.000048
      3.93567      9.27387      6.63350         0.000000      0.000000     -0.000048
      9.22745      3.95557      1.32846        -0.000000      0.000000     -0.000048
      9.22745      3.95557      6.63350        -0.000000      0.000000     -0.000048
      9.21419      9.26060      1.32846        -0.000000      0.000000     -0.000048
      9.21419      9.26060      6.63350         0.000000      0.000000     -0.000048
     -0.00663      2.65252      2.65031        -0.000000     -0.000000      0.000048
     -0.00663      2.65252      7.95535         0.000000      0.000000      0.000048
     -0.01989      7.95756      2.65031        -0.000000      0.000000      0.000048
     -0.01989      7.95756      7.95535        -0.000000      0.000000      0.000048
      5.27188      2.63926      2.65031         0.000000      0.000000      0.000048
      5.27188      2.63926      7.95535         0.000000     -0.000000      0.000048
      5.25862      7.94429      2.65031        -0.000000      0.000000      0.000048
      5.25862      7.94429      7.95535        -0.000000      0.000000      0.000048
      3.95557      1.31631      3.98098         0.000000     -0.000000     -0.000048
      3.95557      1.31631      9.28602         0.000000      0.000000     -0.000048
      3.94231      6.62135      3.98098        -0.000000     -0.000000     -0.000048
      3.94231      6.62135      9.28602        -0.000000     -0.000000     -0.000048
      9.23408      1.30305      3.98098        -0.000000     -0.000000     -0.000048
      9.23408      1.30305      9.28602         0.000000     -0.000000     -0.000048
      9.22082      6.60809      3.98098        -0.000000     -0.000000     -0.000048
      9.22082      6.60809      9.28602        -0.000000      0.000000     -0.000048
      2.63926     -0.00663      2.65031        -0.000000     -0.000000      0.000048
      2.63926     -0.00663      7.95535        -0.000000      0.000000      0.000048
      2.62599      5.29841      2.65031         0.000000      0.000000      0.000048
      2.62599      5.29841      7.95535         0.000000      0.000000      0.000048
      7.91777     -0.01989      2.65031        -0.000000     -0.000000      0.000048
      7.91777     -0.01989      7.95535        -0.000000     -0.000000      0.000048
      7.90451      5.28514      2.65031         0.000000      0.000000      0.000048
      7.90451      5.28514      7.95535         0.000000      0.000000      0.000048
      1.30968      3.97546      3.98098        -0.000000      0.000000     -0.000048
      1.30968      3.97546      9.28602        -0.000000      0.000000     -0.000048
      1.29642      9.28050      3.98098        -0.000000      0.000000     -0.000048
      1.29642      9.28050      9.28602        -0.000000      0.000000     -0.000048
      6.58819      3.96220      3.98098         0.000000      0.000000     -0.000048
      6.58819      3.96220      9.28602        -0.000000     -0.000000     -0.000048
      6.57493      9.26724      3.98098         0.000000     -0.000000     -0.000048
      6.57493      9.26724      9.28602        -0.000000     -0.000000     -0.000048
      2.63262      2.64589     10.60787        -0.000000      0.000000      0.000048
      2.63262      2.64589      5.30283         0.000000      0.000000      0.000048
      2.61936      7.95092     10.60787         0.000000      0.000000      0.000048
      2.61936      7.95092      5.30283         0.000000      0.000000      0.000048
      7.91114      2.63262     10.60787        -0.000000     -0.000000      0.000048
      7.91114      2.63262      5.30283         0.000000      0.000000      0.000048
      7.89787      7.93766     10.60787        -0.000000      0.000000      0.000048
      7.89787      7.93766      5.30283        -0.000000      0.000000      0.000048
      1.31631      1.32294      1.32846         0.000000     -0.000000     -0.000048
      1.31631      1.32294      6.63350         0.000000     -0.000000     -0.000048
      1.30305      6.62798      1.32846        -0.000000     -0.000000     -0.000048
      1.30305      6.62798      6.63350         0.000000     -0.000000     -0.000048
      6.59482      1.30968      1.32846         0.000000     -0.000000     -0.000048
      6.59482      1.30968      6.63350         0.000000     -0.000000     -0.000048
      6.58156      6.61472      1.32846        -0.000000     -0.000000     -0.000048
      6.58156      6.61472      6.63350        -0.000000     -0.000000     -0.000048
 -----------------------------------------------------------------------------------
    total drift:                                0.000000      0.000000     -0.000003


--------------------------------------------------------------------------------------------------------



  FREE ENERGIE OF THE ION-ELECTRON SYSTEM (eV)
  ---------------------------------------------------
  free  energy   TOTEN  =      -365.16729992 eV

  energy  without entropy=     -365.19871255  energy(sigma->0) =     -365.17777080
 
 d Force = 0.1203483E-02[ 0.339E-05, 0.240E-02]  d Energy = 0.1204881E-02-0.140E-05
 d Force =-0.1899678E-01[-0.210E-01,-0.170E-01]  d Ewald  =-0.1899676E-01-0.114E-07


--------------------------------------------------------------------------------------------------------


    POTLOK:  cpu time      0.1448: real time      0.1451


--------------------------------------------------------------------------------------------------------




--------------------------------------------------------------------------------------------------------


  
 reached required accuracy - stopping structural energy minimisation
     LOOP+:  cpu time     12.4601: real time     12.6434
    4ORBIT:  cpu time      0.0000: real time      0.0000

 total amount of memory used by VASP MPI-rank0    78994. kBytes
=======================================================================

   base      :      30000. kBytes
   nonlr-proj:       4779. kBytes
   fftplans  :      17991. kBytes
   grid      :       6881. kBytes
   one-center:         18. kBytes
   wavefun   :      19325. kBytes
 
  
  
 General timing and accounting informations for this job:
 ========================================================
  
                  Total CPU time used (sec):       59.786
                            User time (sec):       56.361
                          System time (sec):        3.424
                         Elapsed time (sec):       63.354
  
                   Maximum memory used (kb):      403268.
                   Average memory used (kb):          N/A
  
                          Minor page faults:        91947
                          Major page faults:            0
                 Voluntary context switches:         9814
