Si64                                    
           1
    10.557024   -0.026525    0.000000
    -0.026525   10.610074    0.000000
     0.000000    0.000000   10.610074
   Si
    64
Direct configuration=     1
   0.00000000  0.00000000  0.00000000
   0.00000000  0.00000000  0.50000000
   0.00000000  0.50000000  0.00000000
   0.00000000  0.50000000  0.50000000
   0.50000000  0.00000000  0.00000000
   0.50000000  0.00000000  0.50000000
   0.50000000  0.50000000  0.00000000
   0.50000000  0.50000000  0.50000000
   0.37500000  0.37500000  0.12500000
   0.37500000  0.37500000  0.62500000
   0.37500000  0.87500000  0.12500000
   0.37500000  0.87500000  0.62500000
   0.87500000  0.37500000  0.12500000
   0.87500000  0.37500000  0.62500000
   0.87500000  0.87500000  0.12500000
   0.87500000  0.87500000  0.62500000
   0.00000000  0.25000000  0.25000000
   0.00000000  0.25000000  0.75000000
   0.00000000  0.75000000  0.25000000
   0.00000000  0.75000000  0.75000000
   0.50000000  0.25000000  0.25000000
   0.50000000  0.25000000  0.75000000
   0.50000000  0.75000000  0.25000000
   0.50000000  0.75000000  0.75000000
   0.37500000  0.12500000  0.37500000
   0.37500000  0.12500000  0.87500000
   0.37500000  0.62500000  0.37500000
   0.37500000  0.62500000  0.87500000
   0.87500000  0.12500000  0.37500000
   0.87500000  0.12500000  0.87500000
   0.87500000  0.62500000  0.37500000
   0.87500000  0.62500000  0.87500000
   0.25000000  0.00000000  0.25000000
   0.25000000  0.00000000  0.75000000
   0.25000000  0.50000000  0.25000000
   0.25000000  0.50000000  0.75000000
   0.75000000  0.00000000  0.25000000
   0.75000000  0.00000000  0.75000000
   0.75000000  0.50000000  0.25000000
   0.75000000  0.50000000  0.75000000
   0.12500000  0.37500000  0.37500000
   0.12500000  0.37500000  0.87500000
   0.12500000  0.87500000  0.37500000
   0.12500000  0.87500000  0.87500000
   0.62500000  0.37500000  0.37500000
   0.62500000  0.37500000  0.87500000
   0.62500000  0.87500000  0.37500000
   0.62500000  0.87500000  0.87500000
   0.25000000  0.25000000  0.00000000
   0.25000000  0.25000000  0.50000000
   0.25000000  0.75000000  0.00000000
   0.25000000  0.75000000  0.50000000
   0.75000000  0.25000000  0.00000000
   0.75000000  0.25000000  0.50000000
   0.75000000  0.75000000  0.00000000
   0.75000000  0.75000000  0.50000000
   0.12500000  0.12500000  0.12500000
   0.12500000  0.12500000  0.62500000
   0.12500000  0.62500000  0.12500000
   0.12500000  0.62500000  0.62500000
   0.62500000  0.12500000  0.12500000
   0.62500000  0.12500000  0.62500000
   0.62500000  0.62500000  0.12500000
   0.62500000  0.62500000  0.62500000
Direct configuration=     2
   0.00000000  1.00000000  0.99968870
   1.00000000  0.00000000  0.49968870
   1.00000000  0.50000000  0.99968870
   1.00000000  0.50000000  0.49968870
   0.50000000  0.00000000  0.99968870
   0.50000000  1.00000000  0.49968870
   0.50000000  0.50000000  0.99968870
   0.50000000  0.50000000  0.49968870
   0.37500000  0.37500000  0.12531130
   0.37500000  0.37500000  0.62531130
   0.37500000  0.87500000  0.12531130
   0.37500000  0.87500000  0.62531130
   0.87500000  0.37500000  0.12531130
   0.87500000  0.37500000  0.62531130
   0.87500000  0.87500000  0.12531130
   0.87500000  0.87500000  0.62531130
   0.00000000  0.25000000  0.24968870
   0.00000000  0.25000000  0.74968870
   1.00000000  0.75000000  0.24968870
   0.00000000  0.75000000  0.74968870
   0.50000000  0.25000000  0.24968870
   0.50000000  0.25000000  0.74968870
   0.50000000  0.75000000  0.24968870
   0.50000000  0.75000000  0.74968870
   0.37500000  0.12500000  0.37531130
   0.37500000  0.12500000  0.87531130
   0.37500000  0.62500000  0.37531130
   0.37500000  0.62500000  0.87531130
   0.87500000  0.12500000  0.37531130
   0.87500000  0.12500000  0.87531130
   0.87500000  0.62500000  0.37531130
   0.87500000  0.62500000  0.87531130
   0.25000000  1.00000000  0.24968870
   0.25000000  1.00000000  0.74968870
   0.25000000  0.50000000  0.24968870
   0.25000000  0.50000000  0.74968870
   0.75000000  0.00000000  0.24968870
   0.75000000  1.00000000  0.74968870
   0.75000000  0.50000000  0.24968870
   0.75000000  0.50000000  0.74968870
   0.12500000  0.37500000  0.37531130
   0.12500000  0.37500000  0.87531130
   0.12500000  0.87500000  0.37531130
   0.12500000  0.87500000  0.87531130
   0.62500000  0.37500000  0.37531130
   0.62500000  0.37500000  0.87531130
   0.62500000  0.87500000  0.37531130
   0.62500000  0.87500000  0.87531130
   0.25000000  0.25000000  0.99968870
   0.25000000  0.25000000  0.49968870
   0.25000000  0.75000000  0.99968870
   0.25000000  0.75000000  0.49968870
   0.75000000  0.25000000  0.99968870
   0.75000000  0.25000000  0.49968870
   0.75000000  0.75000000  0.99968870
   0.75000000  0.75000000  0.49968870
   0.12500000  0.12500000  0.12531130
   0.12500000  0.12500000  0.62531130
   0.12500000  0.62500000  0.12531130
   0.12500000  0.62500000  0.62531130
   0.62500000  0.12500000  0.12531130
   0.62500000  0.12500000  0.62531130
   0.62500000  0.62500000  0.12531130
   0.62500000  0.62500000  0.62531130
Direct configuration=     3
   0.00000000  0.00000000  0.99979232
   0.00000000  0.00000000  0.49979232
   0.00000000  0.50000000  0.99979232
   0.00000000  0.50000000  0.49979232
   0.50000000  0.00000000  0.99979232
   0.50000000  0.00000000  0.49979232
   0.50000000  0.50000000  0.99979232
   0.50000000  0.50000000  0.49979232
   0.37500000  0.37500000  0.12520768
   0.37500000  0.37500000  0.62520768
   0.37500000  0.87500000  0.12520768
   0.37500000  0.87500000  0.62520768
   0.87500000  0.37500000  0.12520768
   0.87500000  0.37500000  0.62520768
   0.87500000  0.87500000  0.12520768
   0.87500000  0.87500000  0.62520768
   0.00000000  0.25000000  0.24979232
   0.00000000  0.25000000  0.74979232
   0.00000000  0.75000000  0.24979232
   0.00000000  0.75000000  0.74979232
   0.50000000  0.25000000  0.24979232
   0.50000000  0.25000000  0.74979232
   0.50000000  0.75000000  0.24979232
   0.50000000  0.75000000  0.74979232
   0.37500000  0.12500000  0.37520768
   0.37500000  0.12500000  0.87520768
   0.37500000  0.62500000  0.37520768
   0.37500000  0.62500000  0.87520768
   0.87500000  0.12500000  0.37520768
   0.87500000  0.12500000  0.87520768
   0.87500000  0.62500000  0.37520768
   0.87500000  0.62500000  0.87520768
   0.25000000  0.00000000  0.24979232
   0.25000000  0.00000000  0.74979232
   0.25000000  0.50000000  0.24979232
   0.25000000  0.50000000  0.74979232
   0.75000000  0.00000000  0.24979232
   0.75000000  0.00000000  0.74979232
   0.75000000  0.50000000  0.24979232
   0.75000000  0.50000000  0.74979232
   0.12500000  0.37500000  0.37520768
   0.12500000  0.37500000  0.87520768
   0.12500000  0.87500000  0.37520768
   0.12500000  0.87500000  0.87520768
   0.62500000  0.37500000  0.37520768
   0.62500000  0.37500000  0.87520768
   0.62500000  0.87500000  0.37520768
   0.62500000  0.87500000  0.87520768
   0.25000000  0.25000000  0.99979232
   0.25000000  0.25000000  0.49979232
   0.25000000  0.75000000  0.99979232
   0.25000000  0.75000000  0.49979232
   0.75000000  0.25000000  0.99979232
   0.75000000  0.25000000  0.49979232
   0.75000000  0.75000000  0.99979232
   0.75000000  0.75000000  0.49979232
   0.12500000  0.12500000  0.12520768
   0.12500000  0.12500000  0.62520768
   0.12500000  0.62500000  0.12520768
   0.12500000  0.62500000  0.62520768
   0.62500000  0.12500000  0.12520768
   0.62500000  0.12500000  0.62520768
   0.62500000  0.62500000  0.12520768
   0.62500000  0.62500000  0.62520768
