  64  64   0   0
  0.1892135E+02  0.1051717E-08  0.1073178E-08  0.1073125E-08  0.5000000E-15
  1.000000000000000E-004
  CAR 
 Si64                                    
     11.83862639     -8.01111334  301      6.58334301      1.00000000
     -8.011  0.0000E+00  0.0000E+00
     -7.945  0.0000E+00  0.0000E+00
     -7.879  0.0000E+00  0.0000E+00
     -7.813  0.0000E+00  0.0000E+00
     -7.746  0.0000E+00  0.0000E+00
     -7.680  0.0000E+00  0.0000E+00
     -7.614 -0.1795E-28 -0.1188E-29
     -7.548 -0.3082E-26 -0.2051E-27
     -7.482 -0.4263E-24 -0.2841E-25
     -7.416 -0.4725E-22 -0.3155E-23
     -7.349 -0.4197E-20 -0.2808E-21
     -7.283 -0.2986E-18 -0.2004E-19
     -7.217 -0.1701E-16 -0.1145E-17
     -7.151 -0.7507E-15 -0.5082E-16
     -7.085 -0.2729E-13 -0.1857E-14
     -7.019 -0.7914E-12 -0.5422E-13
     -6.952 -0.1830E-10 -0.1265E-11
     -6.886 -0.3372E-09 -0.2357E-10
     -6.820 -0.4936E-08 -0.3502E-09
     -6.754 -0.5730E-07 -0.4141E-08
     -6.688 -0.5252E-06 -0.3889E-07
     -6.622 -0.3783E-05 -0.2892E-06
     -6.555 -0.2123E-04 -0.1694E-05
     -6.489 -0.9163E-04 -0.7757E-05
     -6.423 -0.2970E-03 -0.2741E-04
     -6.357 -0.6881E-03 -0.7294E-04
     -6.291 -0.9882E-03 -0.1383E-03
     -6.225 -0.2783E-03 -0.1567E-03
     -6.158  0.2469E-02  0.6645E-05
     -6.092  0.6738E-02  0.4525E-03
     -6.026  0.1032E-01  0.1135E-02
     -5.960  0.1365E-01  0.2038E-02
     -5.894  0.2368E-01  0.3605E-02
     -5.828  0.4689E-01  0.6708E-02
     -5.761  0.7592E-01  0.1173E-01
     -5.695  0.9404E-01  0.1795E-01
     -5.629  0.1009E+00  0.2463E-01
     -5.563  0.1192E+00  0.3252E-01
     -5.497  0.1599E+00  0.4309E-01
     -5.431  0.1950E+00  0.5600E-01
     -5.364  0.1919E+00  0.6869E-01
     -5.298  0.1601E+00  0.7929E-01
     -5.232  0.1359E+00  0.8827E-01
     -5.166  0.1289E+00  0.9680E-01
     -5.100  0.1176E+00  0.1046E+00
     -5.034  0.9281E-01  0.1107E+00
     -4.967  0.7189E-01  0.1155E+00
     -4.901  0.6967E-01  0.1201E+00
     -4.835  0.8836E-01  0.1259E+00
     -4.769  0.1386E+00  0.1351E+00
     -4.703  0.2327E+00  0.1505E+00
     -4.637  0.3448E+00  0.1733E+00
     -4.570  0.4186E+00  0.2010E+00
     -4.504  0.4368E+00  0.2299E+00
     -4.438  0.4363E+00  0.2588E+00
     -4.372  0.4324E+00  0.2874E+00
     -4.306  0.3840E+00  0.3128E+00
     -4.240  0.2642E+00  0.3303E+00
     -4.173  0.1155E+00  0.3379E+00
     -4.107  0.8478E-02  0.3385E+00
     -4.041 -0.2001E-01  0.3372E+00
     -3.975  0.2967E-01  0.3391E+00
     -3.909  0.1419E+00  0.3485E+00
     -3.843  0.2887E+00  0.3676E+00
     -3.777  0.4239E+00  0.3957E+00
     -3.710  0.4947E+00  0.4284E+00
     -3.644  0.4728E+00  0.4597E+00
     -3.578  0.3789E+00  0.4847E+00
     -3.512  0.2748E+00  0.5029E+00
     -3.446  0.2277E+00  0.5180E+00
     -3.380  0.2729E+00  0.5360E+00
     -3.313  0.3955E+00  0.5622E+00
     -3.247  0.5370E+00  0.5977E+00
     -3.181  0.6328E+00  0.6396E+00
     -3.115  0.6551E+00  0.6830E+00
     -3.049  0.6188E+00  0.7239E+00
     -2.983  0.5530E+00  0.7605E+00
     -2.916  0.4817E+00  0.7924E+00
     -2.850  0.4289E+00  0.8207E+00
     -2.784  0.4131E+00  0.8481E+00
     -2.718  0.4154E+00  0.8756E+00
     -2.652  0.3817E+00  0.9008E+00
     -2.586  0.2813E+00  0.9194E+00
     -2.519  0.1472E+00  0.9292E+00
     -2.453  0.3867E-01  0.9317E+00
     -2.387 -0.1600E-01  0.9307E+00
     -2.321 -0.2555E-01  0.9290E+00
     -2.255 -0.3945E-02  0.9287E+00
     -2.189  0.4593E-01  0.9318E+00
     -2.122  0.1160E+00  0.9394E+00
     -2.056  0.1750E+00  0.9510E+00
     -1.990  0.1832E+00  0.9631E+00
     -1.924  0.1327E+00  0.9719E+00
     -1.858  0.6503E-01  0.9762E+00
     -1.792  0.4342E-01  0.9791E+00
     -1.725  0.1096E+00  0.9863E+00
     -1.659  0.2569E+00  0.1003E+01
     -1.593  0.4291E+00  0.1032E+01
     -1.527  0.5449E+00  0.1068E+01
     -1.461  0.5430E+00  0.1104E+01
     -1.395  0.4233E+00  0.1132E+01
     -1.328  0.2486E+00  0.1148E+01
     -1.262  0.1052E+00  0.1155E+01
     -1.196  0.4962E-01  0.1158E+01
     -1.130  0.8074E-01  0.1164E+01
     -1.064  0.1492E+00  0.1174E+01
     -0.998  0.1957E+00  0.1187E+01
     -0.931  0.1942E+00  0.1199E+01
     -0.865  0.1733E+00  0.1211E+01
     -0.799  0.1921E+00  0.1224E+01
     -0.733  0.2729E+00  0.1242E+01
     -0.667  0.3555E+00  0.1265E+01
     -0.601  0.3553E+00  0.1289E+01
     -0.534  0.2814E+00  0.1307E+01
     -0.468  0.2588E+00  0.1324E+01
     -0.402  0.4029E+00  0.1351E+01
     -0.336  0.6865E+00  0.1397E+01
     -0.270  0.9451E+00  0.1459E+01
     -0.204  0.1006E+01  0.1526E+01
     -0.137  0.8188E+00  0.1580E+01
     -0.071  0.4872E+00  0.1612E+01
     -0.005  0.1779E+00  0.1624E+01
      0.061  0.7588E-02  0.1624E+01
      0.127  0.9115E-03  0.1624E+01
      0.193  0.1167E+00  0.1632E+01
      0.260  0.2761E+00  0.1650E+01
      0.326  0.3849E+00  0.1676E+01
      0.392  0.3830E+00  0.1701E+01
      0.458  0.2863E+00  0.1720E+01
      0.524  0.1685E+00  0.1731E+01
      0.590  0.1030E+00  0.1738E+01
      0.657  0.1254E+00  0.1746E+01
      0.723  0.2276E+00  0.1761E+01
      0.789  0.3632E+00  0.1785E+01
      0.855  0.4648E+00  0.1816E+01
      0.921  0.4772E+00  0.1848E+01
      0.987  0.3911E+00  0.1874E+01
      1.054  0.2479E+00  0.1890E+01
      1.120  0.1103E+00  0.1897E+01
      1.186  0.2138E-01  0.1899E+01
      1.252 -0.1477E-01  0.1898E+01
      1.318 -0.2085E-01  0.1896E+01
      1.384 -0.2132E-01  0.1895E+01
      1.451 -0.2584E-01  0.1893E+01
      1.517 -0.2235E-01  0.1892E+01
      1.583  0.2168E-01  0.1893E+01
      1.649  0.1374E+00  0.1902E+01
      1.715  0.3143E+00  0.1923E+01
      1.781  0.4876E+00  0.1955E+01
      1.848  0.5892E+00  0.1994E+01
      1.914  0.6071E+00  0.2035E+01
      1.980  0.5741E+00  0.2073E+01
      2.046  0.5194E+00  0.2107E+01
      2.112  0.4619E+00  0.2137E+01
      2.178  0.4249E+00  0.2166E+01
      2.245  0.4117E+00  0.2193E+01
      2.311  0.3894E+00  0.2219E+01
      2.377  0.3380E+00  0.2241E+01
      2.443  0.3089E+00  0.2261E+01
      2.509  0.4001E+00  0.2288E+01
      2.575  0.6601E+00  0.2332E+01
      2.642  0.1011E+01  0.2398E+01
      2.708  0.1277E+01  0.2483E+01
      2.774  0.1302E+01  0.2569E+01
      2.840  0.1062E+01  0.2639E+01
      2.906  0.6731E+00  0.2684E+01
      2.972  0.3042E+00  0.2704E+01
      3.039  0.6099E-01  0.2708E+01
      3.105 -0.4657E-01  0.2705E+01
      3.171 -0.5062E-01  0.2702E+01
      3.237  0.4251E-01  0.2704E+01
      3.303  0.2561E+00  0.2721E+01
      3.369  0.5782E+00  0.2760E+01
      3.436  0.9143E+00  0.2820E+01
      3.502  0.1141E+01  0.2896E+01
      3.568  0.1207E+01  0.2975E+01
      3.634  0.1149E+01  0.3051E+01
      3.700  0.1024E+01  0.3119E+01
      3.766  0.8682E+00  0.3177E+01
      3.833  0.7262E+00  0.3225E+01
      3.899  0.6541E+00  0.3268E+01
      3.965  0.6665E+00  0.3312E+01
      4.031  0.7045E+00  0.3359E+01
      4.097  0.6862E+00  0.3404E+01
      4.163  0.5883E+00  0.3443E+01
      4.230  0.4669E+00  0.3474E+01
      4.296  0.3984E+00  0.3500E+01
      4.362  0.4101E+00  0.3527E+01
      4.428  0.4713E+00  0.3559E+01
      4.494  0.5367E+00  0.3594E+01
      4.560  0.5803E+00  0.3633E+01
      4.627  0.5982E+00  0.3672E+01
      4.693  0.6075E+00  0.3712E+01
      4.759  0.6429E+00  0.3755E+01
      4.825  0.7225E+00  0.3803E+01
      4.891  0.8143E+00  0.3857E+01
      4.957  0.8553E+00  0.3913E+01
      5.024  0.8067E+00  0.3967E+01
      5.090  0.6769E+00  0.4011E+01
      5.156  0.5038E+00  0.4045E+01
      5.222  0.3345E+00  0.4067E+01
      5.288  0.2177E+00  0.4081E+01
      5.354  0.1872E+00  0.4094E+01
      5.421  0.2328E+00  0.4109E+01
      5.487  0.2990E+00  0.4129E+01
      5.553  0.3257E+00  0.4150E+01
      5.619  0.2933E+00  0.4170E+01
      5.685  0.2242E+00  0.4185E+01
      5.751  0.1504E+00  0.4195E+01
      5.818  0.9485E-01  0.4201E+01
      5.884  0.7234E-01  0.4206E+01
      5.950  0.8766E-01  0.4211E+01
      6.016  0.1251E+00  0.4220E+01
      6.082  0.1551E+00  0.4230E+01
      6.148  0.1578E+00  0.4240E+01
      6.215  0.1346E+00  0.4249E+01
      6.281  0.9867E-01  0.4256E+01
      6.347  0.6165E-01  0.4260E+01
      6.413  0.3255E-01  0.4262E+01
      6.479  0.1915E-01  0.4263E+01
      6.545  0.2583E-01  0.4265E+01
      6.612  0.5112E-01  0.4268E+01
      6.678  0.8779E-01  0.4274E+01
      6.744  0.1236E+00  0.4282E+01
      6.810  0.1434E+00  0.4292E+01
      6.876  0.1359E+00  0.4301E+01
      6.942  0.1028E+00  0.4308E+01
      7.009  0.6189E-01  0.4312E+01
      7.075  0.3878E-01  0.4314E+01
      7.141  0.5092E-01  0.4318E+01
      7.207  0.9528E-01  0.4324E+01
      7.273  0.1488E+00  0.4334E+01
      7.339  0.1855E+00  0.4346E+01
      7.406  0.1993E+00  0.4359E+01
      7.472  0.2113E+00  0.4373E+01
      7.538  0.2498E+00  0.4390E+01
      7.604  0.3160E+00  0.4411E+01
      7.670  0.3727E+00  0.4435E+01
      7.736  0.3778E+00  0.4460E+01
      7.803  0.3302E+00  0.4482E+01
      7.869  0.2766E+00  0.4501E+01
      7.935  0.2710E+00  0.4518E+01
      8.001  0.3283E+00  0.4540E+01
      8.067  0.4152E+00  0.4568E+01
      8.133  0.4887E+00  0.4600E+01
      8.200  0.5316E+00  0.4635E+01
      8.266  0.5447E+00  0.4671E+01
      8.332  0.5300E+00  0.4706E+01
      8.398  0.5067E+00  0.4740E+01
      8.464  0.5200E+00  0.4774E+01
      8.530  0.6034E+00  0.4814E+01
      8.597  0.7428E+00  0.4863E+01
      8.663  0.8883E+00  0.4922E+01
      8.729  0.9941E+00  0.4988E+01
      8.795  0.1038E+01  0.5056E+01
      8.861  0.1014E+01  0.5124E+01
      8.927  0.9205E+00  0.5184E+01
      8.993  0.7606E+00  0.5235E+01
      9.060  0.5569E+00  0.5272E+01
      9.126  0.3707E+00  0.5296E+01
      9.192  0.2718E+00  0.5314E+01
      9.258  0.2725E+00  0.5332E+01
      9.324  0.3068E+00  0.5352E+01
      9.390  0.2930E+00  0.5372E+01
      9.457  0.2095E+00  0.5386E+01
      9.523  0.1010E+00  0.5392E+01
      9.589  0.2214E-01  0.5394E+01
      9.655 -0.6875E-02  0.5393E+01
      9.721  0.2369E-03  0.5393E+01
      9.787  0.1921E-01  0.5395E+01
      9.854  0.3129E-01  0.5397E+01
      9.920  0.2933E-01  0.5399E+01
      9.986  0.1780E-01  0.5400E+01
     10.052  0.6036E-02  0.5400E+01
     10.118 -0.3600E-03  0.5400E+01
     10.184 -0.1826E-02  0.5400E+01
     10.251 -0.1236E-02  0.5400E+01
     10.317 -0.5155E-03  0.5400E+01
     10.383 -0.1541E-03  0.5400E+01
     10.449 -0.3469E-04  0.5400E+01
     10.515 -0.6020E-05  0.5400E+01
     10.581 -0.8156E-06  0.5400E+01
     10.648 -0.8695E-07  0.5400E+01
     10.714 -0.7330E-08  0.5400E+01
     10.780 -0.4905E-09  0.5400E+01
     10.846 -0.2612E-10  0.5400E+01
     10.912 -0.1109E-11  0.5400E+01
     10.978 -0.3757E-13  0.5400E+01
     11.045 -0.1021E-14  0.5400E+01
     11.111 -0.1398E-16  0.5400E+01
     11.177  0.0000E+00  0.5400E+01
     11.243  0.0000E+00  0.5400E+01
     11.309  0.0000E+00  0.5400E+01
     11.375  0.0000E+00  0.5400E+01
     11.442  0.0000E+00  0.5400E+01
     11.508  0.0000E+00  0.5400E+01
     11.574  0.0000E+00  0.5400E+01
     11.640  0.0000E+00  0.5400E+01
     11.706  0.0000E+00  0.5400E+01
     11.772  0.0000E+00  0.5400E+01
     11.839  0.0000E+00  0.5400E+01
