 vasp.6.4.3 19Mar24 (build Oct 21 2024 22:36:34) complex                        
  
 executed on             LinuxIFC date 2024.11.01  22:50:53
 running   96 mpi-ranks, on    1 nodes
 distrk:  each k-point on   24 cores,    4 groups
 distr:  one band on NCORE=  12 cores,    2 groups


--------------------------------------------------------------------------------------------------------


 INCAR:
   SYSTEM = Si64
   ISTART = 0
   ICHARG = 2
   LREAL = Auto
   PREC = Accurate
   LWAVE = .False.
   LCHARG = .False.
   ADDGRID = .True.
   ENCUT = 400
   GGA = PS
   GGA_COMPAT = .FALSE.
   ISMEAR = 1
   SIGMA = 0.2
   NELM = 60
   NELMIN = 8
   EDIFF = 1e-06
   EDIFFG = -0.01
   NSW = 60
   IBRION = 2
   ISIF = 2
   KPAR = 4
   NPAR = 2
   ALGO = Fast

 POTCAR:    PAW_PBE Si 05Jan2001                  
 POTCAR:    PAW_PBE Si 05Jan2001                  
   VRHFIN =Si: s2p2                                                                                 
   LEXCH  = PE                                                                                      
   EATOM  =   103.0669 eV,    7.5752 Ry                                                             
                                                                                                    
   TITEL  = PAW_PBE Si 05Jan2001                                                                    
   LULTRA =        F    use ultrasoft PP ?                                                          
   IUNSCR =        1    unscreen: 0-lin 1-nonlin 2-no                                               
   RPACOR =    1.500    partial core radius                                                         
   POMASS =   28.085; ZVAL   =    4.000    mass and valenz                                          
   RCORE  =    1.900    outmost cutoff radius                                                       
   RWIGS  =    2.480; RWIGS  =    1.312    wigner-seitz radius (au A)                               
   ENMAX  =  245.345; ENMIN  =  184.009 eV                                                          
   ICORE  =        2    local potential                                                             
   LCOR   =        T    correct aug charges                                                         
   LPAW   =        T    paw PP                                                                      
   EAUG   =  322.069                                                                                
   DEXC   =    0.000                                                                                
   RMAX   =    1.950    core radius for proj-oper                                                   
   RAUG   =    1.300    factor for augmentation sphere                                              
   RDEP   =    1.993    radius for radial grids                                                     
   RDEPT  =    1.837    core radius for aug-charge                                                  
                                                                                                    
   Atomic configuration                                                                             
    6 entries                                                                                       
     n  l   j            E        occ.                                                              
     1  0  0.50     -1785.8828   2.0000                                                             
     2  0  0.50      -139.4969   2.0000                                                             
     2  1  1.50       -95.5546   6.0000                                                             
     3  0  0.50       -10.8127   2.0000                                                             
     3  1  0.50        -4.0811   2.0000                                                             
     3  2  1.50        -4.0817   0.0000                                                             
   Description                                                                                      
     l       E           TYP  RCUT    TYP  RCUT                                                     
     0    -10.8127223     23  1.900                                                                 
     0     -7.6451159     23  1.900                                                                 
     1     -4.0811372     23  1.900                                                                 
     1      2.4879257     23  1.900                                                                 
     2     -4.0817478      7  1.900                                                                 
  local pseudopotential read in
  partial core-charges read in
  partial kinetic energy density read in
  atomic valenz-charges read in
  non local Contribution for L=           0  read in
    real space projection operators read in
  non local Contribution for L=           0  read in
    real space projection operators read in
  non local Contribution for L=           1  read in
    real space projection operators read in
  non local Contribution for L=           1  read in
    real space projection operators read in
    PAW grid and wavefunctions read in
 
   number of l-projection  operators is LMAX  =           4
   number of lm-projection operators is LMMAX =           8
 
 Optimization of the real space projectors (new method)

 maximal supplied QI-value         = 19.84
 optimisation between [QCUT,QGAM] = [ 10.12, 20.44] = [ 28.68,116.96] Ry 
 Optimized for a Real-space Cutoff    1.38 Angstroem

   l    n(q)    QCUT    max X(q) W(low)/X(q) W(high)/X(q)  e(spline) 
   0      8    10.119   159.560    0.58E-04    0.11E-03    0.54E-07
   0      8    10.119   115.863    0.56E-04    0.11E-03    0.54E-07
   1      8    10.119    88.339    0.22E-03    0.17E-03    0.19E-06
   1      8    10.119    48.592    0.22E-03    0.17E-03    0.18E-06
 -----------------------------------------------------------------------------
|                                                                             |
|               ----> ADVICE to this user running VASP <----                  |
|                                                                             |
|     You enforced a specific xc type in the INCAR file but a different       |
|     type was found in the POTCAR file.                                      |
|     I HOPE YOU KNOW WHAT YOU ARE DOING!                                     |
|                                                                             |
 -----------------------------------------------------------------------------

  PAW_PBE Si 05Jan2001                  :
 energy of atom  1       EATOM= -103.0669
 kinetic energy error for atom=    0.0012 (will be added to EATOM!!)
 
 
 POSCAR: Si8
  positions in direct lattice
  velocities in cartesian coordinates


 exchange-correlation table for PS
   RHO(1)=    0.500       N(1)  =     2000
   RHO(2)=  100.500       N(2)  =     4000
 


--------------------------------------------------------------------------------------------------------


 ion  position               nearest neighbor table
   1  0.000  0.000  0.000-  15 2.29  57 2.29  44 2.32  30 2.32
   2  0.000  0.000  0.500-  16 2.29  58 2.29  43 2.32  29 2.32
   3  0.000  0.500  0.000-  13 2.29  59 2.29  42 2.32  32 2.32
   4  0.000  0.500  0.500-  14 2.29  60 2.29  41 2.32  31 2.32
   5  0.500  0.000  0.000-  11 2.29  61 2.29  48 2.32  26 2.32
   6  0.500  0.000  0.500-  12 2.29  62 2.29  47 2.32  25 2.32
   7  0.500  0.500  0.000-   9 2.29  63 2.29  46 2.32  28 2.32
   8  0.500  0.500  0.500-  10 2.29  64 2.29  45 2.32  27 2.32
   9  0.375  0.375  0.125-   7 2.29  49 2.29  35 2.32  21 2.32
  10  0.375  0.375  0.625-   8 2.29  50 2.29  36 2.32  22 2.32
  11  0.375  0.875  0.125-   5 2.29  51 2.29  33 2.32  23 2.32
  12  0.375  0.875  0.625-   6 2.29  52 2.29  34 2.32  24 2.32
  13  0.875  0.375  0.125-   3 2.29  53 2.29  39 2.32  17 2.32
  14  0.875  0.375  0.625-   4 2.29  54 2.29  40 2.32  18 2.32
  15  0.875  0.875  0.125-   1 2.29  55 2.29  37 2.32  19 2.32
  16  0.875  0.875  0.625-   2 2.29  56 2.29  38 2.32  20 2.32
  17  0.000  0.250  0.250-  29 2.29  41 2.29  13 2.32  57 2.32
  18  0.000  0.250  0.750-  30 2.29  42 2.29  14 2.32  58 2.32
  19  0.000  0.750  0.250-  31 2.29  43 2.29  15 2.32  59 2.32
  20  0.000  0.750  0.750-  32 2.29  44 2.29  16 2.32  60 2.32
  21  0.500  0.250  0.250-  25 2.29  45 2.29   9 2.32  61 2.32
  22  0.500  0.250  0.750-  26 2.29  46 2.29  10 2.32  62 2.32
  23  0.500  0.750  0.250-  27 2.29  47 2.29  11 2.32  63 2.32
  24  0.500  0.750  0.750-  28 2.29  48 2.29  12 2.32  64 2.32
  25  0.375  0.125  0.375-  21 2.29  33 2.29   6 2.32  50 2.32
  26  0.375  0.125  0.875-  22 2.29  34 2.29   5 2.32  49 2.32
  27  0.375  0.625  0.375-  23 2.29  35 2.29   8 2.32  52 2.32
  28  0.375  0.625  0.875-  24 2.29  36 2.29   7 2.32  51 2.32
  29  0.875  0.125  0.375-  17 2.29  37 2.29   2 2.32  54 2.32
  30  0.875  0.125  0.875-  18 2.29  38 2.29   1 2.32  53 2.32
  31  0.875  0.625  0.375-  19 2.29  39 2.29   4 2.32  56 2.32
  32  0.875  0.625  0.875-  20 2.29  40 2.29   3 2.32  55 2.32
  33  0.250  0.000  0.250-  25 2.29  43 2.29  11 2.32  57 2.32
  34  0.250  0.000  0.750-  26 2.29  44 2.29  12 2.32  58 2.32
  35  0.250  0.500  0.250-  27 2.29  41 2.29   9 2.32  59 2.32
  36  0.250  0.500  0.750-  28 2.29  42 2.29  10 2.32  60 2.32
  37  0.750  0.000  0.250-  29 2.29  47 2.29  15 2.32  61 2.32
  38  0.750  0.000  0.750-  30 2.29  48 2.29  16 2.32  62 2.32
  39  0.750  0.500  0.250-  31 2.29  45 2.29  13 2.32  63 2.32
  40  0.750  0.500  0.750-  32 2.29  46 2.29  14 2.32  64 2.32
  41  0.125  0.375  0.375-  17 2.29  35 2.29   4 2.32  50 2.32
  42  0.125  0.375  0.875-  18 2.29  36 2.29   3 2.32  49 2.32
  43  0.125  0.875  0.375-  19 2.29  33 2.29   2 2.32  52 2.32
  44  0.125  0.875  0.875-  20 2.29  34 2.29   1 2.32  51 2.32
  45  0.625  0.375  0.375-  21 2.29  39 2.29   8 2.32  54 2.32
  46  0.625  0.375  0.875-  22 2.29  40 2.29   7 2.32  53 2.32
  47  0.625  0.875  0.375-  23 2.29  37 2.29   6 2.32  56 2.32
  48  0.625  0.875  0.875-  24 2.29  38 2.29   5 2.32  55 2.32
  49  0.250  0.250  0.000-   9 2.29  57 2.29  42 2.32  26 2.32
  50  0.250  0.250  0.500-  10 2.29  58 2.29  41 2.32  25 2.32
  51  0.250  0.750  0.000-  11 2.29  59 2.29  44 2.32  28 2.32
  52  0.250  0.750  0.500-  12 2.29  60 2.29  43 2.32  27 2.32
  53  0.750  0.250  0.000-  13 2.29  61 2.29  46 2.32  30 2.32
  54  0.750  0.250  0.500-  14 2.29  62 2.29  45 2.32  29 2.32
  55  0.750  0.750  0.000-  15 2.29  63 2.29  48 2.32  32 2.32
  56  0.750  0.750  0.500-  16 2.29  64 2.29  47 2.32  31 2.32
  57  0.125  0.125  0.125-   1 2.29  49 2.29  33 2.32  17 2.32
  58  0.125  0.125  0.625-   2 2.29  50 2.29  34 2.32  18 2.32
  59  0.125  0.625  0.125-   3 2.29  51 2.29  35 2.32  19 2.32
  60  0.125  0.625  0.625-   4 2.29  52 2.29  36 2.32  20 2.32
  61  0.625  0.125  0.125-   5 2.29  53 2.29  37 2.32  21 2.32
  62  0.625  0.125  0.625-   6 2.29  54 2.29  38 2.32  22 2.32
  63  0.625  0.625  0.125-   7 2.29  55 2.29  39 2.32  23 2.32
  64  0.625  0.625  0.625-   8 2.29  56 2.29  40 2.32  24 2.32
 
  LATTYP: Found a simple monoclinic cell.
 ALAT       =    10.5171680469
 B/A-ratio  =     1.0203550554
 C/A-ratio  =     1.0204060714
 COS(beta)  =    -0.0202019371
  
  Lattice vectors:
  
 A1 = (  10.5166205531,  -0.1073120158,   0.0000000000)
 A2 = (   0.0000000000,   0.0000000000, -10.7312455848)
 A3 = (  -0.1073120158,  10.7312455848,   0.0000000000)


Analysis of symmetry for initial positions (statically):
=====================================================================
 Subroutine PRICEL returns following result:
 
  LATTYP: Found a base centered monoclinic cell.
 ALAT       =     5.2585840234
 B/A-ratio  =     1.0203550554
 C/A-ratio  =     0.7071068151
 COS(beta)  =    -0.6925303220
  
  Lattice vectors:
  
 A1 = (  -2.6291551383,   0.0268280040,  -2.6828113962)
 A2 = (  -2.6291551383,   0.0268280040,   2.6828113962)
 A3 = (   2.6023271343,   2.6559833922,   0.0000000000)
 
  32 primitive cells build up your supercell.
 

 Routine SETGRP: Setting up the symmetry group for a 
 simple monoclinic supercell.


 Subroutine GETGRP returns: Found  4 space group operations
 (whereof  2 operations were pure point group operations)
 out of a pool of  4 trial point group operations.


The static configuration has the point symmetry C_2 .
 The point group associated with its full space group is C_2h.


Analysis of symmetry for dynamics (positions and initial velocities):
=====================================================================
 Subroutine PRICEL returns following result:
 
  LATTYP: Found a base centered monoclinic cell.
 ALAT       =     5.2585840234
 B/A-ratio  =     1.0203550554
 C/A-ratio  =     0.7071068151
 COS(beta)  =    -0.6925303220
  
  Lattice vectors:
  
 A1 = (  -2.6291551383,   0.0268280040,  -2.6828113962)
 A2 = (  -2.6291551383,   0.0268280040,   2.6828113962)
 A3 = (   2.6023271343,   2.6559833922,   0.0000000000)
 
  32 primitive cells build up your supercell.
 

 Routine SETGRP: Setting up the symmetry group for a 
 simple monoclinic supercell.


 Subroutine GETGRP returns: Found  4 space group operations
 (whereof  2 operations were pure point group operations)
 out of a pool of  4 trial point group operations.


The dynamic configuration has the point symmetry C_2 .
 The point group associated with its full space group is C_2h.


 Subroutine INISYM returns: Found  4 space group operations
 (whereof  2 operations are pure point group operations),
 and found    32 'primitive' translations


----------------------------------------------------------------------------------------

                                     Primitive cell                                     

  volume of cell :      37.8427

  direct lattice vectors                    reciprocal lattice vectors
    -2.629155138  0.026828004 -2.682811396    -0.188292630  0.184488736 -0.186371655
    -2.629155138  0.026828004  2.682811396    -0.188292630  0.184488736  0.186371655
     2.602327134  2.655983392  0.000000000     0.003803876  0.372781349  0.000000000

  length of vectors
     3.756414976  3.756414976  3.718380601     0.322838353  0.322838353  0.372800756

  position of ions in fractional coordinates (direct lattice)
     0.000000000  0.000000000  0.000000000
     0.750000000  0.250000000  0.500000000

  ion indices of the primitive-cell ions
   primitive index   ion index
                 1           1
                 2          15

----------------------------------------------------------------------------------------

 
 
 KPOINTS: Automatic mesh                          

Automatic generation of k-mesh.
 Grid dimensions read from file:
 generate k-points for:    2    2    2

 Generating k-lattice:

  Cartesian coordinates                     Fractional coordinates (reciprocal lattice)
     0.047548642  0.000475484  0.000000000     0.500000000  0.000000000  0.000000000
     0.000475484  0.046597669  0.000000000    -0.000000000  0.500000000  0.000000000
     0.000000000  0.000000000  0.046592914     0.000000000  0.000000000  0.500000000

  Length of vectors
     0.047551019  0.046600094  0.046592914

  Shift w.r.t. Gamma in fractional coordinates (k-lattice)
     0.000000000  0.000000000  0.000000000

 
 Subroutine IBZKPT returns following result:
 ===========================================
 
 Found      8 irreducible k-points:
 
 Following reciprocal coordinates:
            Coordinates               Weight
  0.000000  0.000000  0.000000      1.000000
  0.500000 -0.000000  0.000000      1.000000
  0.000000  0.500000  0.000000      1.000000
  0.500000  0.500000  0.000000      1.000000
  0.000000  0.000000  0.500000      1.000000
  0.500000 -0.000000  0.500000      1.000000
  0.000000  0.500000  0.500000      1.000000
  0.500000  0.500000  0.500000      1.000000
 
 Following cartesian coordinates:
            Coordinates               Weight
  0.000000  0.000000  0.000000      1.000000
  0.047549  0.000475  0.000000      1.000000
  0.000475  0.046598  0.000000      1.000000
  0.048024  0.047073  0.000000      1.000000
  0.000000  0.000000  0.046593      1.000000
  0.047549  0.000475  0.046593      1.000000
  0.000475  0.046598  0.046593      1.000000
  0.048024  0.047073  0.046593      1.000000
 


--------------------------------------------------------------------------------------------------------




 Dimension of arrays:
   k-points           NKPTS =      8   k-points in BZ     NKDIM =      8   number of bands    NBANDS=    162
   number of dos      NEDOS =    301   number of ions     NIONS =     64
   non local maximal  LDIM  =      4   non local SUM 2l+1 LMDIM =      8
   total plane-waves  NPLWV = 343000
   max r-space proj   IRMAX =   3171   max aug-charges    IRDMAX=  75953
   dimension x,y,z NGX =    70 NGY =   70 NGZ =   70
   dimension x,y,z NGXF=   140 NGYF=  140 NGZF=  140
   support grid    NGXF=   280 NGYF=  280 NGZF=  280
   ions per type =              64
   NGX,Y,Z   is equivalent  to a cutoff of  11.06, 10.84, 10.84 a.u.
   NGXF,Y,Z  is equivalent  to a cutoff of  22.13, 21.69, 21.69 a.u.

 SYSTEM =  Si64                                    
 POSCAR =  Si8                                     

 Startparameter for this run:
   NWRITE =      2    write-flag & timer
   PREC   = accura    normal or accurate (medium, high low for compatibility)
   ISTART =      0    job   : 0-new  1-cont  2-samecut
   ICHARG =      2    charge: 1-file 2-atom 10-const
   ISPIN  =      1    spin polarized calculation?
   LNONCOLLINEAR =      F non collinear calculations
   LSORBIT =      F    spin-orbit coupling
   INIWAV =      1    electr: 0-lowe 1-rand  2-diag
   LASPH  =      F    aspherical Exc in radial PAW
 Electronic Relaxation 1
   ENCUT  =  400.0 eV  29.40 Ry    5.42 a.u.  17.15 17.50 17.50*2*pi/ulx,y,z
   ENINI  =  400.0     initial cutoff
   ENAUG  =  322.1 eV  augmentation charge cutoff
   NELM   =     60;   NELMIN=  8; NELMDL= -5     # of ELM steps 
   EDIFF  = 0.1E-05   stopping-criterion for ELM
   LREAL  =      T    real-space projection
   NLSPLINE    = F    spline interpolate recip. space projectors
   LCOMPAT=      F    compatible to vasp.4.4
   GGA_COMPAT  = F    GGA compatible to vasp.4.4-vasp.4.6
   LMAXPAW     = -100 max onsite density
   LMAXMIX     =    2 max onsite mixed and CHGCAR
   VOSKOWN=      0    Vosko Wilk Nusair interpolation
   ROPT   =   -0.00025
 Ionic relaxation
   EDIFFG = -.1E-01   stopping-criterion for IOM
   NSW    =     60    number of steps for IOM
   NBLOCK =      1;   KBLOCK =     60    inner block; outer block 
   IBRION =      2    ionic relax: 0-MD 1-quasi-New 2-CG
   NFREE  =      1    steps in history (QN), initial steepest desc. (CG)
   ISIF   =      2    stress and relaxation
   IWAVPR =     11    prediction:  0-non 1-charg 2-wave 3-comb
   ISYM   =      2    0-nonsym 1-usesym 2-fastsym
   LCORR  =      T    Harris-Foulkes like correction to forces

   POTIM  = 0.5000    time-step for ionic-motion
   TEIN   =    0.0    initial temperature
   TEBEG  =    0.0;   TEEND  =   0.0 temperature during run
   SMASS  =  -3.00    Nose mass-parameter (am)
   estimated Nose-frequenzy (Omega)   =  0.10E-29 period in steps = 0.13E+47 mass=  -0.253E-26a.u.
   SCALEE = 1.0000    scale energy and forces
   NPACO  =    256;   APACO  = 10.0  distance and # of slots for P.C.
   PSTRESS=    0.0 pullay stress

  Mass of Ions in am
   POMASS =  28.09
  Ionic Valenz
   ZVAL   =   4.00
  Atomic Wigner-Seitz radii
   RWIGS  =  -1.00
  virtual crystal weights 
   VCA    =   1.00
   NELECT =     256.0000    total number of electrons
   NUPDOWN=      -1.0000    fix difference up-down

 DOS related values:
   EMIN   =  10.00;   EMAX   =-10.00  energy-range for DOS
   EFERMI =   0.00;   METHOD = LEGACY      
   ISMEAR =     1;   SIGMA  =   0.20  broadening in eV -4-tet -1-fermi 0-gaus

 Electronic relaxation 2 (details)
   IALGO  =     68    algorithm
   LDIAG  =      T    sub-space diagonalisation (order eigenvalues)
   LSUBROT=      F    optimize rotation matrix (better conditioning)
   TURBO    =      0    0=normal 1=particle mesh
   IRESTART =      0    0=no restart 2=restart with 2 vectors
   NREBOOT  =      0    no. of reboots
   NMIN     =      0    reboot dimension
   EREF     =   0.00    reference energy to select bands
   IMIX   =      4    mixing-type and parameters
     AMIX     =   0.40;   BMIX     =  1.00
     AMIX_MAG =   1.60;   BMIX_MAG =  1.00
     AMIN     =   0.10
     WC   =   100.;   INIMIX=   1;  MIXPRE=   1;  MAXMIX= -45

 Intra band minimization:
   WEIMIN = 0.0010     energy-eigenvalue tresh-hold
   EBREAK =  0.15E-08  absolut break condition
   DEPER  =   0.30     relativ break condition  

   TIME   =   0.40     timestep for ELM

  volume/ion in A,a.u.               =      18.92       127.69
  Fermi-wavevector in a.u.,A,eV,Ry     =   0.975238  1.842933 12.940363  0.951090
  Thomas-Fermi vector in A             =   2.105762
 
 Write flags
   LWAVE        =      F    write WAVECAR
   LDOWNSAMPLE  =      F    k-point downsampling of WAVECAR
   LCHARG       =      F    write CHGCAR
   LVTOT        =      F    write LOCPOT, total local potential
   LVHAR        =      F    write LOCPOT, Hartree potential only
   WRT_POTENTIAL= false  ! write potential to hdf5 file
   LELF         =      F    write electronic localiz. function (ELF)
   LORBIT       =      0    0 simple, 1 ext, 2 COOP (PROOUT), +10 PAW based schemes


 Dipole corrections
   LMONO      =      F    monopole corrections only (constant potential shift)
   LDIPOL     =      F    correct potential (dipole corrections)
   IDIPOL     =      0    1-x, 2-y, 3-z, 4-all directions 
   EPSILON    =  1.0000000 bulk dielectric constant
   LVACPOTAV  =      F  vacuum potentials using an averaging scheme for the charge density
   VACPOTFLAT =  0.1000000 required flatness to determine vacuum potential
 Exchange correlation treatment:
   GGA     = PS    functional components
   XC_C    = 1    coefficients multiplying the functional components
   LIBXC   =     F    Libxc                    
   VOSKOWN =     0    Vosko Wilk Nusair interpolation
   LHFCALC =     F    Hartree Fock is set to
   LHFONE  =     F    Hartree Fock one center treatment
   AEXX    =    0.0000 exact exchange contribution

 Parameters of functionals:
   PS:
     No parameter
 
 Van der Waals corrections
   IVDW    =     0    specifies the selected vdW correction

 Linear response parameters
   LEPSILON=     F    determine dielectric tensor
   LRPA    =     F    only Hartree local field effects (RPA)
   LNABLA  =     F    use nabla operator in PAW spheres
   LVEL    =     F    velocity operator in full k-point grid
   CSHIFT  =0.1000    complex shift for real part using Kramers Kronig
   OMEGAMAX=  -1.0    maximum frequency
   DEG_THRESHOLD= 0.2000000E-02 threshold for treating states as degnerate
   RTIME   =   -0.100 relaxation time in fs
  (WPLASMAI=    0.000 imaginary part of plasma frequency in eV, 0.658/RTIME)
   DFIELD  = 0.0000000 0.0000000 0.0000000 field for delta impulse in time
 
  Optional k-point grid parameters
   LKPOINTS_OPT  =     F    use optional k-point grid
   KPOINTS_OPT_MODE=     1    mode for optional k-point grid
 
 Orbital magnetization related:
   ORBITALMAG=     F  switch on orbital magnetization
   LCHIMAG   =     F  perturbation theory with respect to B field
   DQ        =  0.001000  dq finite difference perturbation B field
   LLRAUG    =     F  two centre corrections for induced B field
   LBONE     =     F  B-component reconstruction in AE one-centre
   LVGVCALC  =     T  calculate vGv susceptibility
   LVGVAPPL  =     F  apply vGv susceptibility instead of pGv for G=0

 Random number generation:
   RANDOM_GENERATOR = DEFAULT
   PCG_SEED         = not used


--------------------------------------------------------------------------------------------------------


 conjugate gradient relaxation of ions
 charge density and potential will be updated during run
 non-spin polarized calculation
 RMM-DIIS sequential band-by-band and
  variant of blocked Davidson during initial phase
 perform sub-space diagonalisation
    before iterative eigenvector-optimisation
 modified Broyden-mixing scheme, WC =      100.0
 initial mixing is a Kerker type mixing with AMIX =  0.4000 and BMIX =      1.0000
 Hartree-type preconditioning will be used
 using additional bands           34
 real space projection scheme for non local part
 use partial core corrections
 calculate Harris-corrections to forces 
   (improved forces if not selfconsistent)
 use gradient corrections 
 use of overlap-Matrix (Vanderbilt PP)
 Methfessel and Paxton  Order N= 1 SIGMA  =   0.20


--------------------------------------------------------------------------------------------------------


  energy-cutoff  :      400.00
  volume of cell :     1210.97
      direct lattice vectors                 reciprocal lattice vectors
    10.516620553 -0.107312016  0.000000000     0.095097284  0.000950969  0.000000000
    -0.107312016 10.731245585  0.000000000     0.000950969  0.093195337  0.000000000
     0.000000000  0.000000000 10.731245585     0.000000000  0.000000000  0.093185828

  length of vectors
    10.517168047 10.731782129 10.731245585     0.095102039  0.093200189  0.093185828


 
 k-points in units of 2pi/SCALE and weight: Automatic mesh                          
   0.00000000  0.00000000  0.00000000       0.125
   0.04754865  0.00047548  0.00000000       0.125
   0.00047548  0.04659768  0.00000000       0.125
   0.04802413  0.04707316  0.00000000       0.125
   0.00000000  0.00000000  0.04659292       0.125
   0.04754865  0.00047548  0.04659292       0.125
   0.00047548  0.04659768  0.04659292       0.125
   0.04802413  0.04707316  0.04659292       0.125
 
 k-points in reciprocal lattice and weights: Automatic mesh                          
   0.00000000  0.00000000  0.00000000       0.125
   0.50000000 -0.00000000  0.00000000       0.125
   0.00000000  0.50000000  0.00000000       0.125
   0.50000000  0.50000000  0.00000000       0.125
   0.00000000  0.00000000  0.50000000       0.125
   0.50000000 -0.00000000  0.50000000       0.125
   0.00000000  0.50000000  0.50000000       0.125
   0.50000000  0.50000000  0.50000000       0.125
 
 position of ions in fractional coordinates (direct lattice) 
   0.00000000  0.00000000  0.00000000
   0.00000000  0.00000000  0.50000000
   0.00000000  0.50000000  0.00000000
   0.00000000  0.50000000  0.50000000
   0.50000000  0.00000000  0.00000000
   0.50000000  0.00000000  0.50000000
   0.50000000  0.50000000  0.00000000
   0.50000000  0.50000000  0.50000000
   0.37500000  0.37500000  0.12500000
   0.37500000  0.37500000  0.62500000
   0.37500000  0.87500000  0.12500000
   0.37500000  0.87500000  0.62500000
   0.87500000  0.37500000  0.12500000
   0.87500000  0.37500000  0.62500000
   0.87500000  0.87500000  0.12500000
   0.87500000  0.87500000  0.62500000
   0.00000000  0.25000000  0.25000000
   0.00000000  0.25000000  0.75000000
   0.00000000  0.75000000  0.25000000
   0.00000000  0.75000000  0.75000000
   0.50000000  0.25000000  0.25000000
   0.50000000  0.25000000  0.75000000
   0.50000000  0.75000000  0.25000000
   0.50000000  0.75000000  0.75000000
   0.37500000  0.12500000  0.37500000
   0.37500000  0.12500000  0.87500000
   0.37500000  0.62500000  0.37500000
   0.37500000  0.62500000  0.87500000
   0.87500000  0.12500000  0.37500000
   0.87500000  0.12500000  0.87500000
   0.87500000  0.62500000  0.37500000
   0.87500000  0.62500000  0.87500000
   0.25000000  0.00000000  0.25000000
   0.25000000  0.00000000  0.75000000
   0.25000000  0.50000000  0.25000000
   0.25000000  0.50000000  0.75000000
   0.75000000  0.00000000  0.25000000
   0.75000000  0.00000000  0.75000000
   0.75000000  0.50000000  0.25000000
   0.75000000  0.50000000  0.75000000
   0.12500000  0.37500000  0.37500000
   0.12500000  0.37500000  0.87500000
   0.12500000  0.87500000  0.37500000
   0.12500000  0.87500000  0.87500000
   0.62500000  0.37500000  0.37500000
   0.62500000  0.37500000  0.87500000
   0.62500000  0.87500000  0.37500000
   0.62500000  0.87500000  0.87500000
   0.25000000  0.25000000  0.00000000
   0.25000000  0.25000000  0.50000000
   0.25000000  0.75000000  0.00000000
   0.25000000  0.75000000  0.50000000
   0.75000000  0.25000000  0.00000000
   0.75000000  0.25000000  0.50000000
   0.75000000  0.75000000  0.00000000
   0.75000000  0.75000000  0.50000000
   0.12500000  0.12500000  0.12500000
   0.12500000  0.12500000  0.62500000
   0.12500000  0.62500000  0.12500000
   0.12500000  0.62500000  0.62500000
   0.62500000  0.12500000  0.12500000
   0.62500000  0.12500000  0.62500000
   0.62500000  0.62500000  0.12500000
   0.62500000  0.62500000  0.62500000
 
 position of ions in cartesian coordinates  (Angst):
   0.00000000  0.00000000  0.00000000
   0.00000000  0.00000000  5.36562279
  -0.05365601  5.36562279  0.00000000
  -0.05365601  5.36562279  5.36562279
   5.25831028 -0.05365601  0.00000000
   5.25831028 -0.05365601  5.36562279
   5.20465427  5.31196678  0.00000000
   5.20465427  5.31196678  5.36562279
   3.90349070  3.98397509  1.34140570
   3.90349070  3.98397509  6.70702849
   3.84983469  9.34959788  1.34140570
   3.84983469  9.34959788  6.70702849
   9.16180098  3.93031908  1.34140570
   9.16180098  3.93031908  6.70702849
   9.10814497  9.29594187  1.34140570
   9.10814497  9.29594187  6.70702849
  -0.02682800  2.68281140  2.68281140
  -0.02682800  2.68281140  8.04843419
  -0.08048401  8.04843419  2.68281140
  -0.08048401  8.04843419  8.04843419
   5.23148227  2.62915539  2.68281140
   5.23148227  2.62915539  8.04843419
   5.17782626  7.99477818  2.68281140
   5.17782626  7.99477818  8.04843419
   3.93031871  1.30116369  4.02421709
   3.93031871  1.30116369  9.38983989
   3.87666270  6.66678648  4.02421709
   3.87666270  6.66678648  9.38983989
   9.18862898  1.24750768  4.02421709
   9.18862898  1.24750768  9.38983989
   9.13497297  6.61313048  4.02421709
   9.13497297  6.61313048  9.38983989
   2.62915514 -0.02682800  2.68281140
   2.62915514 -0.02682800  8.04843419
   2.57549913  5.33879479  2.68281140
   2.57549913  5.33879479  8.04843419
   7.88746541 -0.08048401  2.68281140
   7.88746541 -0.08048401  8.04843419
   7.83380941  5.28513878  2.68281140
   7.83380941  5.28513878  8.04843419
   1.27433556  4.01080309  4.02421709
   1.27433556  4.01080309  9.38983989
   1.22067956  9.37642588  4.02421709
   1.22067956  9.37642588  9.38983989
   6.53264584  3.95714708  4.02421709
   6.53264584  3.95714708  9.38983989
   6.47898983  9.32276988  4.02421709
   6.47898983  9.32276988  9.38983989
   2.60232713  2.65598339  0.00000000
   2.60232713  2.65598339  5.36562279
   2.54867113  8.02160618  0.00000000
   2.54867113  8.02160618  5.36562279
   7.86063741  2.60232738  0.00000000
   7.86063741  2.60232738  5.36562279
   7.80698140  7.96795018  0.00000000
   7.80698140  7.96795018  5.36562279
   1.30116357  1.32799170  1.34140570
   1.30116357  1.32799170  6.70702849
   1.24750756  6.69361449  1.34140570
   1.24750756  6.69361449  6.70702849
   6.55947384  1.27433569  1.34140570
   6.55947384  1.27433569  6.70702849
   6.50581784  6.63995848  1.34140570
   6.50581784  6.63995848  6.70702849
 


--------------------------------------------------------------------------------------------------------


 k-point     1 :   0.0000 0.0000 0.0000  plane waves:   22011
 k-point     2 :   0.5000-0.0000 0.0000  plane waves:   22032
 k-point     3 :   0.0000 0.5000 0.0000  plane waves:   22026
 k-point     4 :   0.5000 0.5000 0.0000  plane waves:   21988
 k-point     5 :   0.0000 0.0000 0.5000  plane waves:   21962
 k-point     6 :   0.5000-0.0000 0.5000  plane waves:   21980
 k-point     7 :   0.0000 0.5000 0.5000  plane waves:   21924
 k-point     8 :   0.5000 0.5000 0.5000  plane waves:   21984

 maximum and minimum number of plane-waves per node :      1865     1800

 maximum number of plane-waves:     22032
 maximum index in each direction: 
   IXMAX=   17   IYMAX=   17   IZMAX=   17
   IXMIN=  -17   IYMIN=  -18   IZMIN=  -17


 real space projection operators:
  total allocation   :      12141.50 KBytes
  max/ min on nodes  :       1050.75        879.75


 parallel 3D FFT for wavefunctions:
    minimum data exchange during FFTs selected (reduces bandwidth)
 parallel 3D FFT for charge:
    minimum data exchange during FFTs selected (reduces bandwidth)


 total amount of memory used by VASP MPI-rank0    79182. kBytes
=======================================================================

   base      :      30000. kBytes
   nonlr-proj:       4696. kBytes
   fftplans  :      17992. kBytes
   grid      :       6881. kBytes
   one-center:         18. kBytes
   wavefun   :      19595. kBytes
 
     INWAV:  cpu time      0.0000: real time      0.0000
 Broyden mixing: mesh for mixing (old mesh)
   NGX = 35   NGY = 35   NGZ = 35
  (NGX  =140   NGY  =140   NGZ  =140)
  gives a total of  42875 points

 initial charge density was supplied:
 charge density of overlapping atoms calculated
 number of electron     256.0000000 magnetization 
 keeping initial charge density in first step


--------------------------------------------------------------------------------------------------------


 Maximum index for non-local projection operator          286
 Maximum index for augmentation-charges         3774 (set IRDMAX)


--------------------------------------------------------------------------------------------------------


 First call to EWALD:  gamma=   0.166
 Maximum number of real-space cells 3x 3x 3
 Maximum number of reciprocal cells 3x 3x 3

    FEWALD:  cpu time      0.0047: real time      0.0047


--------------------------------------- Ionic step        1  -------------------------------------------




--------------------------------------- Iteration      1(   1)  ---------------------------------------


    POTLOK:  cpu time      0.0912: real time      0.1003
    SETDIJ:  cpu time      0.0882: real time      0.0885
     EDDAV:  cpu time      1.2591: real time      1.3112
       DOS:  cpu time      0.0091: real time      0.0132
    --------------------------------------------
      LOOP:  cpu time      1.4476: real time      1.5133

 eigenvalue-minimisations  :  2592
 total energy-change (2. order) : 0.5717245E+03  (-0.8493666E+04)
 number of electron     256.0000000 magnetization 
 augmentation part      256.0000000 magnetization 

 Free energy of the ion-electron system (eV)
  ---------------------------------------------------
  alpha Z        PSCENC =       113.86291501
  Ewald energy   TEWEN  =     -7451.95044778
  -Hartree energ DENC   =      -325.68336978
  -exchange      EXHF   =         0.00000000
  -V(xc)+E(xc)   XCENC  =      -551.89671436
  PAW double counting   =      5598.62625415    -4492.17844134
  entropy T*S    EENTRO =        -0.01716582
  eigenvalues    EBANDS =      1116.16564549
  atomic energy  EATOM  =      6564.79586099
  Solvation  Ediel_sol  =         0.00000000
  ---------------------------------------------------
  free energy    TOTEN  =       571.72453657 eV

  energy without entropy =      571.74170239  energy(sigma->0) =      571.73025851


--------------------------------------------------------------------------------------------------------




--------------------------------------- Iteration      1(   2)  ---------------------------------------


     EDDAV:  cpu time      1.3271: real time      1.3370
       DOS:  cpu time      0.0012: real time      0.0014
    --------------------------------------------
      LOOP:  cpu time      1.3282: real time      1.3384

 eigenvalue-minimisations  :  3096
 total energy-change (2. order) :-0.8823518E+03  (-0.8375313E+03)
 number of electron     256.0000000 magnetization 
 augmentation part      256.0000000 magnetization 

 Free energy of the ion-electron system (eV)
  ---------------------------------------------------
  alpha Z        PSCENC =       113.86291501
  Ewald energy   TEWEN  =     -7451.95044778
  -Hartree energ DENC   =      -325.68336978
  -exchange      EXHF   =         0.00000000
  -V(xc)+E(xc)   XCENC  =      -551.89671436
  PAW double counting   =      5598.62625415    -4492.17844134
  entropy T*S    EENTRO =         0.00247717
  eigenvalues    EBANDS =       233.79418706
  atomic energy  EATOM  =      6564.79586099
  Solvation  Ediel_sol  =         0.00000000
  ---------------------------------------------------
  free energy    TOTEN  =      -310.62727888 eV

  energy without entropy =     -310.62975604  energy(sigma->0) =     -310.62810460


--------------------------------------------------------------------------------------------------------




--------------------------------------- Iteration      1(   3)  ---------------------------------------


     EDDAV:  cpu time      1.3587: real time      1.3736
       DOS:  cpu time      0.0012: real time      0.0012
    --------------------------------------------
      LOOP:  cpu time      1.3599: real time      1.3748

 eigenvalue-minimisations  :  3144
 total energy-change (2. order) :-0.6211551E+02  (-0.6086918E+02)
 number of electron     256.0000000 magnetization 
 augmentation part      256.0000000 magnetization 

 Free energy of the ion-electron system (eV)
  ---------------------------------------------------
  alpha Z        PSCENC =       113.86291501
  Ewald energy   TEWEN  =     -7451.95044778
  -Hartree energ DENC   =      -325.68336978
  -exchange      EXHF   =         0.00000000
  -V(xc)+E(xc)   XCENC  =      -551.89671436
  PAW double counting   =      5598.62625415    -4492.17844134
  entropy T*S    EENTRO =         0.00783282
  eigenvalues    EBANDS =       171.67332316
  atomic energy  EATOM  =      6564.79586099
  Solvation  Ediel_sol  =         0.00000000
  ---------------------------------------------------
  free energy    TOTEN  =      -372.74278713 eV

  energy without entropy =     -372.75061995  energy(sigma->0) =     -372.74539807


--------------------------------------------------------------------------------------------------------




--------------------------------------- Iteration      1(   4)  ---------------------------------------


     EDDAV:  cpu time      1.3134: real time      1.3499
       DOS:  cpu time      0.0014: real time      0.0014
    --------------------------------------------
      LOOP:  cpu time      1.3148: real time      1.3513

 eigenvalue-minimisations  :  3112
 total energy-change (2. order) :-0.1572685E+01  (-0.1560927E+01)
 number of electron     256.0000000 magnetization 
 augmentation part      256.0000000 magnetization 

 Free energy of the ion-electron system (eV)
  ---------------------------------------------------
  alpha Z        PSCENC =       113.86291501
  Ewald energy   TEWEN  =     -7451.95044778
  -Hartree energ DENC   =      -325.68336978
  -exchange      EXHF   =         0.00000000
  -V(xc)+E(xc)   XCENC  =      -551.89671436
  PAW double counting   =      5598.62625415    -4492.17844134
  entropy T*S    EENTRO =         0.00752334
  eigenvalues    EBANDS =       170.10094720
  atomic energy  EATOM  =      6564.79586099
  Solvation  Ediel_sol  =         0.00000000
  ---------------------------------------------------
  free energy    TOTEN  =      -374.31547257 eV

  energy without entropy =     -374.32299591  energy(sigma->0) =     -374.31798035


--------------------------------------------------------------------------------------------------------




--------------------------------------- Iteration      1(   5)  ---------------------------------------


     EDDAV:  cpu time      1.3281: real time      1.3420
       DOS:  cpu time      0.0011: real time      0.0011
    CHARGE:  cpu time      0.2461: real time      0.2515
    MIXING:  cpu time      0.0106: real time      0.0140
    --------------------------------------------
      LOOP:  cpu time      1.5859: real time      1.6086

 eigenvalue-minimisations  :  3086
 total energy-change (2. order) :-0.5273374E-01  (-0.5261602E-01)
 number of electron     256.0000001 magnetization 
 augmentation part      -15.0983775 magnetization 

 Broyden mixing:
  rms(total) = 0.30270E+01    rms(broyden)= 0.30270E+01
  rms(prec ) = 0.33318E+01
  weight for this iteration     100.00

 Free energy of the ion-electron system (eV)
  ---------------------------------------------------
  alpha Z        PSCENC =       113.86291501
  Ewald energy   TEWEN  =     -7451.95044778
  -Hartree energ DENC   =      -325.68336978
  -exchange      EXHF   =         0.00000000
  -V(xc)+E(xc)   XCENC  =      -551.89671436
  PAW double counting   =      5598.62625415    -4492.17844134
  entropy T*S    EENTRO =         0.00754942
  eigenvalues    EBANDS =       170.04818738
  atomic energy  EATOM  =      6564.79586099
  Solvation  Ediel_sol  =         0.00000000
  ---------------------------------------------------
  free energy    TOTEN  =      -374.36820631 eV

  energy without entropy =     -374.37575572  energy(sigma->0) =     -374.37072278


--------------------------------------------------------------------------------------------------------




--------------------------------------- Iteration      1(   6)  ---------------------------------------


    POTLOK:  cpu time      0.0850: real time      0.0969
    SETDIJ:  cpu time      0.0712: real time      0.0715
    EDDIAG:  cpu time      0.1399: real time      0.1425
  RMM-DIIS:  cpu time      0.6987: real time      0.7046
    ORTHCH:  cpu time      0.0208: real time      0.0208
       DOS:  cpu time      0.0012: real time      0.0012
    CHARGE:  cpu time      0.2316: real time      0.2321
    MIXING:  cpu time      0.0068: real time      0.0103
    --------------------------------------------
      LOOP:  cpu time      1.2552: real time      1.2800

 eigenvalue-minimisations  :  2592
 total energy-change (2. order) : 0.5894114E+01  (-0.3093045E+00)
 number of electron     256.0000001 magnetization 
 augmentation part      -14.9157065 magnetization 

 Broyden mixing:
  rms(total) = 0.18256E+01    rms(broyden)= 0.18256E+01
  rms(prec ) = 0.19968E+01
  weight for this iteration     100.00

 eigenvalues of (default mixing * dielectric matrix)
  average eigenvalue GAMMA=   2.5133
  2.5133

 Free energy of the ion-electron system (eV)
  ---------------------------------------------------
  alpha Z        PSCENC =       113.86291501
  Ewald energy   TEWEN  =     -7451.95044778
  -Hartree energ DENC   =      -374.77845899
  -exchange      EXHF   =         0.00000000
  -V(xc)+E(xc)   XCENC  =      -544.12763563
  PAW double counting   =     13144.49191044   -12041.93194069
  entropy T*S    EENTRO =         0.02272149
  eigenvalues    EBANDS =       221.14098252
  atomic energy  EATOM  =      6564.79586099
  Solvation  Ediel_sol  =         0.00000000
  ---------------------------------------------------
  free energy    TOTEN  =      -368.47409264 eV

  energy without entropy =     -368.49681413  energy(sigma->0) =     -368.48166647


--------------------------------------------------------------------------------------------------------




--------------------------------------- Iteration      1(   7)  ---------------------------------------


    POTLOK:  cpu time      0.0781: real time      0.0965
    SETDIJ:  cpu time      0.0689: real time      0.0691
    EDDIAG:  cpu time      0.1358: real time      0.1361
  RMM-DIIS:  cpu time      0.7005: real time      0.7026
    ORTHCH:  cpu time      0.0208: real time      0.0208
       DOS:  cpu time      0.0013: real time      0.0013
    CHARGE:  cpu time      0.2304: real time      0.2309
    MIXING:  cpu time      0.0078: real time      0.0094
    --------------------------------------------
      LOOP:  cpu time      1.2437: real time      1.2667

 eigenvalue-minimisations  :  2643
 total energy-change (2. order) : 0.2570778E+01  (-0.7808815E+00)
 number of electron     256.0000001 magnetization 
 augmentation part      -14.6589644 magnetization 

 Broyden mixing:
  rms(total) = 0.11488E+00    rms(broyden)= 0.11488E+00
  rms(prec ) = 0.14479E+00
  weight for this iteration     100.00

 eigenvalues of (default mixing * dielectric matrix)
  average eigenvalue GAMMA=   2.3044
  2.3044  2.3044

 Free energy of the ion-electron system (eV)
  ---------------------------------------------------
  alpha Z        PSCENC =       113.86291501
  Ewald energy   TEWEN  =     -7451.95044778
  -Hartree energ DENC   =      -455.60478874
  -exchange      EXHF   =         0.00000000
  -V(xc)+E(xc)   XCENC  =      -530.75175021
  PAW double counting   =     31730.43406933   -30633.31850988
  entropy T*S    EENTRO =         0.01946150
  eigenvalues    EBANDS =       296.60987546
  atomic energy  EATOM  =      6564.79586099
  Solvation  Ediel_sol  =         0.00000000
  ---------------------------------------------------
  free energy    TOTEN  =      -365.90331433 eV

  energy without entropy =     -365.92277582  energy(sigma->0) =     -365.90980149


--------------------------------------------------------------------------------------------------------




--------------------------------------- Iteration      1(   8)  ---------------------------------------


    POTLOK:  cpu time      0.0742: real time      0.0892
    SETDIJ:  cpu time      0.0733: real time      0.0735
    EDDIAG:  cpu time      0.1357: real time      0.1365
  RMM-DIIS:  cpu time      0.6980: real time      0.6999
    ORTHCH:  cpu time      0.0205: real time      0.0205
       DOS:  cpu time      0.0014: real time      0.0019
    CHARGE:  cpu time      0.2337: real time      0.2341
    MIXING:  cpu time      0.0073: real time      0.0079
    --------------------------------------------
      LOOP:  cpu time      1.2440: real time      1.2634

 eigenvalue-minimisations  :  2623
 total energy-change (2. order) :-0.3474167E-01  (-0.7452337E-01)
 number of electron     256.0000001 magnetization 
 augmentation part      -14.7175263 magnetization 

 Broyden mixing:
  rms(total) = 0.54569E-01    rms(broyden)= 0.54569E-01
  rms(prec ) = 0.58612E-01
  weight for this iteration     100.00

 eigenvalues of (default mixing * dielectric matrix)
  average eigenvalue GAMMA=   2.0735
  2.5576  1.8314  1.8314

 Free energy of the ion-electron system (eV)
  ---------------------------------------------------
  alpha Z        PSCENC =       113.86291501
  Ewald energy   TEWEN  =     -7451.95044778
  -Hartree energ DENC   =      -446.36334982
  -exchange      EXHF   =         0.00000000
  -V(xc)+E(xc)   XCENC  =      -531.53796879
  PAW double counting   =     31436.16869182   -30337.97993288
  entropy T*S    EENTRO =         0.02202349
  eigenvalues    EBANDS =       287.04415197
  atomic energy  EATOM  =      6564.79586099
  Solvation  Ediel_sol  =         0.00000000
  ---------------------------------------------------
  free energy    TOTEN  =      -365.93805600 eV

  energy without entropy =     -365.96007949  energy(sigma->0) =     -365.94539716


--------------------------------------------------------------------------------------------------------




--------------------------------------- Iteration      1(   9)  ---------------------------------------


    POTLOK:  cpu time      0.0720: real time      0.0894
    SETDIJ:  cpu time      0.0695: real time      0.0711
    EDDIAG:  cpu time      0.1340: real time      0.1365
  RMM-DIIS:  cpu time      0.6983: real time      0.7222
    ORTHCH:  cpu time      0.0199: real time      0.0206
       DOS:  cpu time      0.0018: real time      0.0018
    CHARGE:  cpu time      0.2303: real time      0.2334
    MIXING:  cpu time      0.0061: real time      0.0062
    --------------------------------------------
      LOOP:  cpu time      1.2319: real time      1.2812

 eigenvalue-minimisations  :  2667
 total energy-change (2. order) :-0.2248285E-01  (-0.2180005E-01)
 number of electron     256.0000001 magnetization 
 augmentation part      -14.7028998 magnetization 

 Broyden mixing:
  rms(total) = 0.61254E-01    rms(broyden)= 0.61253E-01
  rms(prec ) = 0.69411E-01
  weight for this iteration     100.00

 eigenvalues of (default mixing * dielectric matrix)
  average eigenvalue GAMMA=   1.6709
  2.5546  1.9728  1.9728  0.1832

 Free energy of the ion-electron system (eV)
  ---------------------------------------------------
  alpha Z        PSCENC =       113.86291501
  Ewald energy   TEWEN  =     -7451.95044778
  -Hartree energ DENC   =      -449.89457005
  -exchange      EXHF   =         0.00000000
  -V(xc)+E(xc)   XCENC  =      -531.06371799
  PAW double counting   =     31895.28013735   -30797.39322269
  entropy T*S    EENTRO =         0.02137143
  eigenvalues    EBANDS =       290.38113489
  atomic energy  EATOM  =      6564.79586099
  Solvation  Ediel_sol  =         0.00000000
  ---------------------------------------------------
  free energy    TOTEN  =      -365.96053885 eV

  energy without entropy =     -365.98191028  energy(sigma->0) =     -365.96766266


--------------------------------------------------------------------------------------------------------




--------------------------------------- Iteration      1(  10)  ---------------------------------------


    POTLOK:  cpu time      0.0715: real time      0.0945
    SETDIJ:  cpu time      0.0694: real time      0.0711
    EDDIAG:  cpu time      0.1337: real time      0.1362
  RMM-DIIS:  cpu time      0.7024: real time      0.7227
    ORTHCH:  cpu time      0.0201: real time      0.0208
       DOS:  cpu time      0.0019: real time      0.0019
    CHARGE:  cpu time      0.2308: real time      0.2339
    MIXING:  cpu time      0.0050: real time      0.0051
    --------------------------------------------
      LOOP:  cpu time      1.2348: real time      1.2860

 eigenvalue-minimisations  :  2719
 total energy-change (2. order) :-0.4791232E-02  (-0.3961941E-02)
 number of electron     256.0000001 magnetization 
 augmentation part      -14.7086565 magnetization 

 Broyden mixing:
  rms(total) = 0.91043E-01    rms(broyden)= 0.91043E-01
  rms(prec ) = 0.98650E-01
  weight for this iteration     100.00

 eigenvalues of (default mixing * dielectric matrix)
  average eigenvalue GAMMA=   1.6552
  2.6947  2.3172  1.7707  0.7466  0.7466

 Free energy of the ion-electron system (eV)
  ---------------------------------------------------
  alpha Z        PSCENC =       113.86291501
  Ewald energy   TEWEN  =     -7451.95044778
  -Hartree energ DENC   =      -450.18600933
  -exchange      EXHF   =         0.00000000
  -V(xc)+E(xc)   XCENC  =      -531.03135758
  PAW double counting   =     31969.45628399   -30871.57984414
  entropy T*S    EENTRO =         0.02128495
  eigenvalues    EBANDS =       290.64598381
  atomic energy  EATOM  =      6564.79586099
  Solvation  Ediel_sol  =         0.00000000
  ---------------------------------------------------
  free energy    TOTEN  =      -365.96533008 eV

  energy without entropy =     -365.98661504  energy(sigma->0) =     -365.97242507


--------------------------------------------------------------------------------------------------------




--------------------------------------- Iteration      1(  11)  ---------------------------------------


    POTLOK:  cpu time      0.0868: real time      0.0947
    SETDIJ:  cpu time      0.0687: real time      0.0688
    EDDIAG:  cpu time      0.1327: real time      0.1330
  RMM-DIIS:  cpu time      0.6870: real time      0.6887
    ORTHCH:  cpu time      0.0201: real time      0.0202
       DOS:  cpu time      0.0019: real time      0.0019
    CHARGE:  cpu time      0.2325: real time      0.2329
    MIXING:  cpu time      0.0077: real time      0.0077
    --------------------------------------------
      LOOP:  cpu time      1.2374: real time      1.2478

 eigenvalue-minimisations  :  2592
 total energy-change (2. order) : 0.4703131E-02  (-0.1531589E-02)
 number of electron     256.0000001 magnetization 
 augmentation part      -14.7237416 magnetization 

 Broyden mixing:
  rms(total) = 0.53706E-01    rms(broyden)= 0.53706E-01
  rms(prec ) = 0.54143E-01
  weight for this iteration     100.00

 eigenvalues of (default mixing * dielectric matrix)
  average eigenvalue GAMMA=   1.5170
  2.6125  2.6125  1.3832  1.3832  0.7794  0.3312

 Free energy of the ion-electron system (eV)
  ---------------------------------------------------
  alpha Z        PSCENC =       113.86291501
  Ewald energy   TEWEN  =     -7451.95044778
  -Hartree energ DENC   =      -447.33419697
  -exchange      EXHF   =         0.00000000
  -V(xc)+E(xc)   XCENC  =      -531.25424083
  PAW double counting   =     31808.59288102   -30710.45481976
  entropy T*S    EENTRO =         0.02211082
  eigenvalues    EBANDS =       287.75931055
  atomic energy  EATOM  =      6564.79586099
  Solvation  Ediel_sol  =         0.00000000
  ---------------------------------------------------
  free energy    TOTEN  =      -365.96062695 eV

  energy without entropy =     -365.98273777  energy(sigma->0) =     -365.96799723


--------------------------------------------------------------------------------------------------------




--------------------------------------- Iteration      1(  12)  ---------------------------------------


    POTLOK:  cpu time      0.0770: real time      0.0943
    SETDIJ:  cpu time      0.0690: real time      0.0691
    EDDIAG:  cpu time      0.1321: real time      0.1323
  RMM-DIIS:  cpu time      0.6875: real time      0.6894
    ORTHCH:  cpu time      0.0200: real time      0.0200
       DOS:  cpu time      0.0029: real time      0.0029
    CHARGE:  cpu time      0.2300: real time      0.2304
    MIXING:  cpu time      0.0090: real time      0.0090
    --------------------------------------------
      LOOP:  cpu time      1.2274: real time      1.2473

 eigenvalue-minimisations  :  2613
 total energy-change (2. order) :-0.2045291E-03  (-0.1910921E-03)
 number of electron     256.0000001 magnetization 
 augmentation part      -14.7266282 magnetization 

 Broyden mixing:
  rms(total) = 0.50356E-01    rms(broyden)= 0.50356E-01
  rms(prec ) = 0.50600E-01
  weight for this iteration     100.00

 eigenvalues of (default mixing * dielectric matrix)
  average eigenvalue GAMMA=   1.4568
  2.6084  2.6084  1.8460  1.0922  0.8536  0.4693  0.7197

 Free energy of the ion-electron system (eV)
  ---------------------------------------------------
  alpha Z        PSCENC =       113.86291501
  Ewald energy   TEWEN  =     -7451.95044778
  -Hartree energ DENC   =      -447.22972577
  -exchange      EXHF   =         0.00000000
  -V(xc)+E(xc)   XCENC  =      -531.27532049
  PAW double counting   =     31728.34234587   -30630.21502034
  entropy T*S    EENTRO =         0.02212599
  eigenvalues    EBANDS =       287.68643505
  atomic energy  EATOM  =      6564.79586099
  Solvation  Ediel_sol  =         0.00000000
  ---------------------------------------------------
  free energy    TOTEN  =      -365.96083148 eV

  energy without entropy =     -365.98295747  energy(sigma->0) =     -365.96820681


--------------------------------------------------------------------------------------------------------




--------------------------------------- Iteration      1(  13)  ---------------------------------------


    POTLOK:  cpu time      0.0803: real time      0.0956
    SETDIJ:  cpu time      0.0691: real time      0.0692
    EDDIAG:  cpu time      0.1302: real time      0.1304
  RMM-DIIS:  cpu time      0.7213: real time      0.7230
    ORTHCH:  cpu time      0.0203: real time      0.0204
       DOS:  cpu time      0.0020: real time      0.0020
    CHARGE:  cpu time      0.2305: real time      0.2310
    MIXING:  cpu time      0.0080: real time      0.0080
    --------------------------------------------
      LOOP:  cpu time      1.2618: real time      1.2797

 eigenvalue-minimisations  :  2723
 total energy-change (2. order) :-0.6747934E-04  (-0.3688216E-04)
 number of electron     256.0000001 magnetization 
 augmentation part      -14.7272664 magnetization 

 Broyden mixing:
  rms(total) = 0.58624E-01    rms(broyden)= 0.58624E-01
  rms(prec ) = 0.58845E-01
  weight for this iteration     100.00

 eigenvalues of (default mixing * dielectric matrix)
  average eigenvalue GAMMA=   1.7064
  2.8907  2.8907  2.3089  2.3089  0.9610  0.8846  0.8846  0.5219

 Free energy of the ion-electron system (eV)
  ---------------------------------------------------
  alpha Z        PSCENC =       113.86291501
  Ewald energy   TEWEN  =     -7451.95044778
  -Hartree energ DENC   =      -447.28055528
  -exchange      EXHF   =         0.00000000
  -V(xc)+E(xc)   XCENC  =      -531.26066677
  PAW double counting   =     31797.28076851   -30699.15584519
  entropy T*S    EENTRO =         0.02212937
  eigenvalues    EBANDS =       287.72494218
  atomic energy  EATOM  =      6564.79586099
  Solvation  Ediel_sol  =         0.00000000
  ---------------------------------------------------
  free energy    TOTEN  =      -365.96089896 eV

  energy without entropy =     -365.98302833  energy(sigma->0) =     -365.96827542


--------------------------------------------------------------------------------------------------------




--------------------------------------- Iteration      1(  14)  ---------------------------------------


    POTLOK:  cpu time      0.0784: real time      0.0928
    SETDIJ:  cpu time      0.0715: real time      0.0716
    EDDIAG:  cpu time      0.1318: real time      0.1321
  RMM-DIIS:  cpu time      0.6932: real time      0.6949
    ORTHCH:  cpu time      0.0200: real time      0.0201
       DOS:  cpu time      0.0027: real time      0.0027
    CHARGE:  cpu time      0.2313: real time      0.2318
    MIXING:  cpu time      0.0070: real time      0.0071
    --------------------------------------------
      LOOP:  cpu time      1.2360: real time      1.2531

 eigenvalue-minimisations  :  2604
 total energy-change (2. order) :-0.2955516E-05  (-0.9514324E-05)
 number of electron     256.0000001 magnetization 
 augmentation part      -14.7271710 magnetization 

 Broyden mixing:
  rms(total) = 0.20648E-01    rms(broyden)= 0.20648E-01
  rms(prec ) = 0.20884E-01
  weight for this iteration     100.00

 eigenvalues of (default mixing * dielectric matrix)
  average eigenvalue GAMMA=   1.5218
  2.6131  2.6131  2.4318  2.1533  0.9565  0.9359  0.9359  0.5281  0.5281

 Free energy of the ion-electron system (eV)
  ---------------------------------------------------
  alpha Z        PSCENC =       113.86291501
  Ewald energy   TEWEN  =     -7451.95044778
  -Hartree energ DENC   =      -447.14636725
  -exchange      EXHF   =         0.00000000
  -V(xc)+E(xc)   XCENC  =      -531.30317316
  PAW double counting   =     31471.35122724   -30373.24565014
  entropy T*S    EENTRO =         0.02212713
  eigenvalues    EBANDS =       287.65260605
  atomic energy  EATOM  =      6564.79586099
  Solvation  Ediel_sol  =         0.00000000
  ---------------------------------------------------
  free energy    TOTEN  =      -365.96090192 eV

  energy without entropy =     -365.98302905  energy(sigma->0) =     -365.96827763


--------------------------------------------------------------------------------------------------------




--------------------------------------- Iteration      1(  15)  ---------------------------------------


    POTLOK:  cpu time      0.0818: real time      0.0968
    SETDIJ:  cpu time      0.0684: real time      0.0685
    EDDIAG:  cpu time      0.1310: real time      0.1314
  RMM-DIIS:  cpu time      0.7035: real time      0.7055
    ORTHCH:  cpu time      0.0202: real time      0.0202
       DOS:  cpu time      0.0028: real time      0.0028
    CHARGE:  cpu time      0.2303: real time      0.2308
    MIXING:  cpu time      0.0089: real time      0.0089
    --------------------------------------------
      LOOP:  cpu time      1.2469: real time      1.2648

 eigenvalue-minimisations  :  2639
 total energy-change (2. order) :-0.3712191E-04  (-0.3797730E-05)
 number of electron     256.0000001 magnetization 
 augmentation part      -14.7274332 magnetization 

 Broyden mixing:
  rms(total) = 0.14364E-01    rms(broyden)= 0.14364E-01
  rms(prec ) = 0.14519E-01
  weight for this iteration     100.00

 eigenvalues of (default mixing * dielectric matrix)
  average eigenvalue GAMMA=   1.4864
  2.7077  2.7077  2.2318  2.0344  0.8751  0.8751  1.0157  1.0157  0.8714  0.5290

 Free energy of the ion-electron system (eV)
  ---------------------------------------------------
  alpha Z        PSCENC =       113.86291501
  Ewald energy   TEWEN  =     -7451.95044778
  -Hartree energ DENC   =      -447.12388827
  -exchange      EXHF   =         0.00000000
  -V(xc)+E(xc)   XCENC  =      -531.30160658
  PAW double counting   =     31452.31341178   -30354.20603815
  entropy T*S    EENTRO =         0.02215068
  eigenvalues    EBANDS =       287.62670328
  atomic energy  EATOM  =      6564.79586099
  Solvation  Ediel_sol  =         0.00000000
  ---------------------------------------------------
  free energy    TOTEN  =      -365.96093904 eV

  energy without entropy =     -365.98308972  energy(sigma->0) =     -365.96832260


--------------------------------------------------------------------------------------------------------




--------------------------------------- Iteration      1(  16)  ---------------------------------------


    POTLOK:  cpu time      0.0839: real time      0.0941
    SETDIJ:  cpu time      0.0685: real time      0.0687
    EDDIAG:  cpu time      0.1324: real time      0.1327
  RMM-DIIS:  cpu time      0.6868: real time      0.6888
    ORTHCH:  cpu time      0.0201: real time      0.0202
       DOS:  cpu time      0.0046: real time      0.0046
    CHARGE:  cpu time      0.2343: real time      0.2349
    MIXING:  cpu time      0.0086: real time      0.0090
    --------------------------------------------
      LOOP:  cpu time      1.2392: real time      1.2530

 eigenvalue-minimisations  :  2592
 total energy-change (2. order) :-0.2298011E-04  (-0.1910272E-05)
 number of electron     256.0000001 magnetization 
 augmentation part      -14.7272666 magnetization 

 Broyden mixing:
  rms(total) = 0.83064E-02    rms(broyden)= 0.83064E-02
  rms(prec ) = 0.83640E-02
  weight for this iteration     100.00

 eigenvalues of (default mixing * dielectric matrix)
  average eigenvalue GAMMA=   1.4445
  2.7316  2.7316  2.1853  2.1853  1.0550  1.0550  0.9836  0.9836  0.8576  0.5604
  0.5604

 Free energy of the ion-electron system (eV)
  ---------------------------------------------------
  alpha Z        PSCENC =       113.86291501
  Ewald energy   TEWEN  =     -7451.95044778
  -Hartree energ DENC   =      -447.19407134
  -exchange      EXHF   =         0.00000000
  -V(xc)+E(xc)   XCENC  =      -531.29382077
  PAW double counting   =     31440.87940062   -30342.77278505
  entropy T*S    EENTRO =         0.02216036
  eigenvalues    EBANDS =       287.68982596
  atomic energy  EATOM  =      6564.79586099
  Solvation  Ediel_sol  =         0.00000000
  ---------------------------------------------------
  free energy    TOTEN  =      -365.96096202 eV

  energy without entropy =     -365.98312238  energy(sigma->0) =     -365.96834881


--------------------------------------------------------------------------------------------------------




--------------------------------------- Iteration      1(  17)  ---------------------------------------


    POTLOK:  cpu time      0.0738: real time      0.0902
    SETDIJ:  cpu time      0.0726: real time      0.0728
    EDDIAG:  cpu time      0.1364: real time      0.1367
  RMM-DIIS:  cpu time      0.6416: real time      0.6435
    ORTHCH:  cpu time      0.0201: real time      0.0201
       DOS:  cpu time      0.0028: real time      0.0028
    CHARGE:  cpu time      0.2320: real time      0.2325
    MIXING:  cpu time      0.0097: real time      0.0097
    --------------------------------------------
      LOOP:  cpu time      1.1890: real time      1.2083

 eigenvalue-minimisations  :  2417
 total energy-change (2. order) :-0.3682017E-05  (-0.6627197E-06)
 number of electron     256.0000001 magnetization 
 augmentation part      -14.7270557 magnetization 

 Broyden mixing:
  rms(total) = 0.19245E-02    rms(broyden)= 0.19244E-02
  rms(prec ) = 0.19501E-02
  weight for this iteration     100.00

 eigenvalues of (default mixing * dielectric matrix)
  average eigenvalue GAMMA=   1.7029
  2.3190  2.3190  2.9400  2.9400  2.5085  2.0935  0.9474  0.9474  0.9258  0.9782
  0.9782  0.5382

 Free energy of the ion-electron system (eV)
  ---------------------------------------------------
  alpha Z        PSCENC =       113.86291501
  Ewald energy   TEWEN  =     -7451.95044778
  -Hartree energ DENC   =      -447.22424680
  -exchange      EXHF   =         0.00000000
  -V(xc)+E(xc)   XCENC  =      -531.29434196
  PAW double counting   =     31403.47674535   -30305.37033332
  entropy T*S    EENTRO =         0.02216358
  eigenvalues    EBANDS =       287.72071923
  atomic energy  EATOM  =      6564.79586099
  Solvation  Ediel_sol  =         0.00000000
  ---------------------------------------------------
  free energy    TOTEN  =      -365.96096570 eV

  energy without entropy =     -365.98312928  energy(sigma->0) =     -365.96835356


--------------------------------------------------------------------------------------------------------




--------------------------------------- Iteration      1(  18)  ---------------------------------------


    POTLOK:  cpu time      0.0758: real time      0.0956
    SETDIJ:  cpu time      0.0706: real time      0.0707
    EDDIAG:  cpu time      0.1309: real time      0.1345
  RMM-DIIS:  cpu time      0.4426: real time      0.4484
    ORTHCH:  cpu time      0.0203: real time      0.0203
       DOS:  cpu time      0.0025: real time      0.0028
    --------------------------------------------
      LOOP:  cpu time      0.7427: real time      0.7724

 eigenvalue-minimisations  :  1575
 total energy-change (2. order) : 0.3604509E-07  (-0.9571739E-07)
 number of electron     256.0000001 magnetization 
 augmentation part      -14.7270557 magnetization 

 Free energy of the ion-electron system (eV)
  ---------------------------------------------------
  alpha Z        PSCENC =       113.86291501
  Ewald energy   TEWEN  =     -7451.95044778
  -Hartree energ DENC   =      -447.22940679
  -exchange      EXHF   =         0.00000000
  -V(xc)+E(xc)   XCENC  =      -531.29525550
  PAW double counting   =     31390.24944686   -30292.14296161
  entropy T*S    EENTRO =         0.02216405
  eigenvalues    EBANDS =       287.72671910
  atomic energy  EATOM  =      6564.79586099
  Solvation  Ediel_sol  =         0.00000000
  ---------------------------------------------------
  free energy    TOTEN  =      -365.96096567 eV

  energy without entropy =     -365.98312972  energy(sigma->0) =     -365.96835368


--------------------------------------------------------------------------------------------------------




 average (electrostatic) potential at core
  the test charge radii are     0.9892
  (the norm of the test charge is              1.0000)
       1 -82.3897       2 -82.3897       3 -82.3897       4 -82.3897       5 -82.3897
       6 -82.3897       7 -82.3897       8 -82.3897       9 -82.3897      10 -82.3897
      11 -82.3897      12 -82.3897      13 -82.3897      14 -82.3897      15 -82.3897
      16 -82.3897      17 -82.3897      18 -82.3897      19 -82.3897      20 -82.3897
      21 -82.3897      22 -82.3897      23 -82.3897      24 -82.3897      25 -82.3897
      26 -82.3897      27 -82.3897      28 -82.3897      29 -82.3897      30 -82.3897
      31 -82.3897      32 -82.3897      33 -82.3897      34 -82.3897      35 -82.3897
      36 -82.3897      37 -82.3897      38 -82.3897      39 -82.3897      40 -82.3897
      41 -82.3897      42 -82.3897      43 -82.3897      44 -82.3897      45 -82.3897
      46 -82.3897      47 -82.3897      48 -82.3897      49 -82.3897      50 -82.3897
      51 -82.3897      52 -82.3897      53 -82.3897      54 -82.3897      55 -82.3897
      56 -82.3897      57 -82.3897      58 -82.3897      59 -82.3897      60 -82.3897
      61 -82.3897      62 -82.3897      63 -82.3897      64 -82.3897
 
 
 
 E-fermi :   6.5672     XC(G=0):  -9.7712     alpha+bet :-12.6759

 val. band max:        6.4838757346   @ k =   0.0000   0.0000   0.0000
 cond. band min:       6.6620440049   @ k =   0.5000  -0.0000   0.0000
 fundamental gap:      0.1781682703
 Fermi energy:         6.5671679513

 k-point     1 :       0.0000    0.0000    0.0000
  band No.  band energies     occupation 
      1      -6.0120      2.00000
      2      -4.8857      2.00000
      3      -4.8857      2.00000
      4      -4.8849      2.00000
      5      -4.8849      2.00000
      6      -4.8450      2.00000
      7      -4.8450      2.00000
      8      -3.8992      2.00000
      9      -3.8992      2.00000
     10      -3.8672      2.00000
     11      -3.8672      2.00000
     12      -3.8672      2.00000
     13      -3.8672      2.00000
     14      -3.8382      2.00000
     15      -3.8382      2.00000
     16      -3.8382      2.00000
     17      -3.8382      2.00000
     18      -3.7751      2.00000
     19      -3.7751      2.00000
     20      -3.5843      2.00000
     21      -3.5843      2.00000
     22      -3.4417      2.00000
     23      -3.4417      2.00000
     24      -1.7660      2.00000
     25      -1.6831      2.00000
     26      -1.6831      2.00000
     27      -1.6040      2.00000
     28      -1.5656      2.00000
     29      -1.5656      2.00000
     30      -1.5530      2.00000
     31      -1.5530      2.00000
     32      -1.5222      2.00000
     33      -1.5222      2.00000
     34      -1.4285      2.00000
     35      -1.4285      2.00000
     36      -1.4285      2.00000
     37      -1.4285      2.00000
     38      -1.3758      2.00000
     39      -1.3758      2.00000
     40      -1.3349      2.00000
     41      -1.3349      2.00000
     42      -0.9271      2.00000
     43      -0.9271      2.00000
     44      -0.9023      2.00000
     45      -0.9023      2.00000
     46       0.7143      2.00000
     47       0.7143      2.00000
     48       0.7503      2.00000
     49       0.7503      2.00000
     50       0.7503      2.00000
     51       0.7504      2.00000
     52       0.7834      2.00000
     53       0.7834      2.00000
     54       0.8295      2.00000
     55       0.8295      2.00000
     56       0.8295      2.00000
     57       0.8295      2.00000
     58       2.2128      2.00000
     59       2.2129      2.00000
     60       2.2167      2.00000
     61       2.2167      2.00000
     62       2.2270      2.00000
     63       2.2270      2.00000
     64       2.2311      2.00000
     65       2.2311      2.00000
     66       2.2311      2.00000
     67       2.2312      2.00000
     68       2.2329      2.00000
     69       2.2329      2.00000
     70       2.2884      2.00000
     71       2.2884      2.00000
     72       2.3137      2.00000
     73       2.3137      2.00000
     74       2.3137      2.00000
     75       2.3137      2.00000
     76       2.3361      2.00000
     77       2.3361      2.00000
     78       2.4323      2.00000
     79       2.4323      2.00000
     80       2.4323      2.00000
     81       2.4323      2.00000
     82       2.8116      2.00000
     83       2.8116      2.00000
     84       2.8179      2.00000
     85       2.8180      2.00000
     86       2.9678      2.00000
     87       2.9678      2.00000
     88       3.2465      2.00000
     89       3.2465      2.00000
     90       3.2927      2.00000
     91       3.4099      2.00000
     92       3.4099      2.00000
     93       3.5290      2.00000
     94       4.2787      2.00000
     95       4.2787      2.00000
     96       4.2788      2.00000
     97       4.2788      2.00000
     98       4.3010      2.00000
     99       4.3010      2.00000
    100       4.3827      2.00000
    101       4.3827      2.00000
    102       4.4272      2.00000
    103       4.4272      2.00000
    104       4.5140      2.00000
    105       4.5140      2.00000
    106       4.8665      2.00000
    107       4.8665      2.00000
    108       4.8665      2.00000
    109       4.8665      2.00000
    110       4.9728      2.00000
    111       4.9728      2.00000
    112       4.9780      2.00000
    113       4.9780      2.00000
    114       5.0328      2.00000
    115       5.0328      2.00000
    116       5.0328      2.00000
    117       5.0328      2.00000
    118       5.0800      2.00000
    119       5.0800      2.00000
    120       5.0923      2.00000
    121       5.0923      2.00000
    122       5.1791      2.00000
    123       5.1791      2.00000
    124       5.2781      2.00000
    125       5.2781      2.00000
    126       6.3270      2.07074
    127       6.3296      2.07048
    128       6.4839      1.64166
    129       6.7409     -0.01112
    130       6.7409     -0.01112
    131       6.7858     -0.06456
    132       6.9077     -0.03687
    133       6.9077     -0.03687
    134       7.0334     -0.00476
    135       7.2493     -0.00002
    136       7.2493     -0.00002
    137       7.4135     -0.00000
    138       7.4135     -0.00000
    139       7.4147     -0.00000
    140       7.4147     -0.00000
    141       7.9329     -0.00000
    142       7.9329     -0.00000
    143       8.1159     -0.00000
    144       8.1159     -0.00000
    145       8.6361     -0.00000
    146       8.6362     -0.00000
    147       8.6365     -0.00000
    148       8.6368     -0.00000
    149       8.7415     -0.00000
    150       8.7639     -0.00000
    151       8.7656     -0.00000
    152       8.8304     -0.00000
    153       8.8308     -0.00000
    154       8.8316     -0.00000
    155       8.8401     -0.00000
    156       8.9061     -0.00000
    157       8.9098     -0.00000
    158       8.9132     -0.00000
    159       9.0887     -0.00000
    160       9.3909     -0.00000
    161       9.4144     -0.00000
    162       9.4503     -0.00000

 k-point     2 :       0.5000   -0.0000    0.0000
  band No.  band energies     occupation 
      1      -5.7175      2.00000
      2      -5.7175      2.00000
      3      -4.6464      2.00000
      4      -4.6464      2.00000
      5      -4.6162      2.00000
      6      -4.6162      2.00000
      7      -4.6162      2.00000
      8      -4.6162      2.00000
      9      -4.5843      2.00000
     10      -4.5843      2.00000
     11      -3.7532      2.00000
     12      -3.7532      2.00000
     13      -3.7532      2.00000
     14      -3.7532      2.00000
     15      -3.6684      2.00000
     16      -3.6684      2.00000
     17      -3.6684      2.00000
     18      -3.6684      2.00000
     19      -3.4311      2.00000
     20      -3.4311      2.00000
     21      -2.7642      2.00000
     22      -2.7642      2.00000
     23      -2.6761      2.00000
     24      -2.6761      2.00000
     25      -2.6760      2.00000
     26      -2.6760      2.00000
     27      -2.5853      2.00000
     28      -2.5853      2.00000
     29      -1.6733      2.00000
     30      -1.6733      2.00000
     31      -1.6432      2.00000
     32      -1.6432      2.00000
     33      -1.5229      2.00000
     34      -1.5229      2.00000
     35      -1.4964      2.00000
     36      -1.4964      2.00000
     37      -0.4168      2.00000
     38      -0.4168      2.00000
     39      -0.3507      2.00000
     40      -0.3507      2.00000
     41      -0.3507      2.00000
     42      -0.3507      2.00000
     43      -0.2905      2.00000
     44      -0.2905      2.00000
     45      -0.2430      2.00000
     46      -0.2430      2.00000
     47      -0.2430      2.00000
     48      -0.2430      2.00000
     49      -0.2209      2.00000
     50      -0.2209      2.00000
     51      -0.2209      2.00000
     52      -0.2209      2.00000
     53       0.6482      2.00000
     54       0.6482      2.00000
     55       1.7881      2.00000
     56       1.7881      2.00000
     57       1.7904      2.00000
     58       1.7904      2.00000
     59       1.7904      2.00000
     60       1.7904      2.00000
     61       1.7928      2.00000
     62       1.7928      2.00000
     63       1.9752      2.00000
     64       1.9752      2.00000
     65       1.9937      2.00000
     66       1.9937      2.00000
     67       1.9937      2.00000
     68       1.9937      2.00000
     69       2.0207      2.00000
     70       2.0207      2.00000
     71       2.6631      2.00000
     72       2.6631      2.00000
     73       2.7107      2.00000
     74       2.7107      2.00000
     75       2.7478      2.00000
     76       2.7478      2.00000
     77       2.7975      2.00000
     78       2.7975      2.00000
     79       3.4165      2.00000
     80       3.4165      2.00000
     81       3.4625      2.00000
     82       3.4625      2.00000
     83       3.4625      2.00000
     84       3.4625      2.00000
     85       3.4980      2.00000
     86       3.4980      2.00000
     87       3.5093      2.00000
     88       3.5093      2.00000
     89       3.5101      2.00000
     90       3.5101      2.00000
     91       3.6453      2.00000
     92       3.6453      2.00000
     93       3.6858      2.00000
     94       3.6858      2.00000
     95       3.6858      2.00000
     96       3.6858      2.00000
     97       3.7250      2.00000
     98       3.7250      2.00000
     99       3.8316      2.00000
    100       3.8316      2.00000
    101       3.8316      2.00000
    102       3.8316      2.00000
    103       3.9398      2.00000
    104       3.9398      2.00000
    105       3.9398      2.00000
    106       3.9398      2.00000
    107       4.8829      2.00000
    108       4.8829      2.00000
    109       4.8829      2.00000
    110       4.8829      2.00000
    111       4.8868      2.00000
    112       4.8868      2.00000
    113       4.8873      2.00000
    114       4.8873      2.00000
    115       4.9073      2.00000
    116       4.9073      2.00000
    117       4.9073      2.00000
    118       4.9073      2.00000
    119       4.9785      2.00000
    120       4.9785      2.00000
    121       4.9785      2.00000
    122       4.9785      2.00000
    123       5.1761      2.00000
    124       5.1761      2.00000
    125       5.4456      2.00000
    126       5.4456      2.00000
    127       5.4521      2.00000
    128       5.4521      2.00000
    129       6.6620      0.28859
    130       6.6620      0.28859
    131       7.6341     -0.00000
    132       7.6341     -0.00000
    133       8.1537     -0.00000
    134       8.1537     -0.00000
    135       8.2394     -0.00000
    136       8.2395     -0.00000
    137       8.3024     -0.00000
    138       8.3028     -0.00000
    139       8.3253     -0.00000
    140       8.3256     -0.00000
    141       8.4767     -0.00000
    142       8.4769     -0.00000
    143       8.6070     -0.00000
    144       8.6072     -0.00000
    145       8.6076     -0.00000
    146       8.6083     -0.00000
    147       8.7160     -0.00000
    148       8.7166     -0.00000
    149       8.7174     -0.00000
    150       8.7244     -0.00000
    151       8.7797     -0.00000
    152       8.7837     -0.00000
    153       8.8481     -0.00000
    154       8.8502     -0.00000
    155       8.8549     -0.00000
    156       8.8702     -0.00000
    157       8.9452     -0.00000
    158       8.9648     -0.00000
    159       9.0490     -0.00000
    160       9.1324     -0.00000
    161       9.1702     -0.00000
    162       9.1993     -0.00000

 k-point     3 :       0.0000    0.5000    0.0000
  band No.  band energies     occupation 
[...]
  0.000   0.000   4.170   0.000   0.000   7.768   0.000   0.000
 -0.001  -0.002   0.000   4.170   0.000   0.000   7.768   0.000
  0.000   0.000   0.000   0.000   4.170   0.000   0.000   7.768
  0.000   0.000   7.768   0.000   0.000  14.481   0.000   0.000
 -0.002  -0.003   0.000   7.768   0.000   0.000  14.481   0.000
  0.000   0.000   0.000   0.000   7.768   0.000   0.000  14.482
 total augmentation occupancy for first ion, spin component:           1
  6.412  -2.548  -0.000   0.053   0.000   0.000  -0.020   0.000
 -2.548   1.121   0.000  -0.027   0.000   0.000   0.010   0.000
 -0.000  -0.000   3.161   0.000   0.003  -0.724   0.000   0.002
  0.053  -0.027   0.000   3.162   0.000   0.000  -0.725   0.000
  0.000  -0.000   0.003  -0.000   3.119   0.002   0.000  -0.709
  0.000   0.000  -0.724   0.000   0.002   0.175   0.000  -0.001
 -0.020   0.010   0.000  -0.725  -0.000   0.000   0.176  -0.000
 -0.000   0.000   0.002   0.000  -0.709  -0.001  -0.000   0.171


------------------------ aborting loop because EDIFF is reached ----------------------------------------


    CHARGE:  cpu time      0.2436: real time      0.2442
    FORLOC:  cpu time      0.0242: real time      0.0244
    FORNL :  cpu time      0.6812: real time      0.6829
    STRESS:  cpu time      2.0881: real time      2.0940
    FORCOR:  cpu time      0.0853: real time      0.0855
    FORHAR:  cpu time      0.0345: real time      0.0346
    MIXING:  cpu time      0.0393: real time      0.0394
    OFIELD:  cpu time      0.0000: real time      0.0000

  FORCE on cell =-STRESS in cart. coord.  units (eV):
  Direction    XX          YY          ZZ          XY          YZ          ZX
  --------------------------------------------------------------------------------------
  Alpha Z   113.86292   113.86292   113.86292
  Ewald   -2530.30412 -2461.30321 -2461.18219    11.02236     0.00000     0.00000
  Hartree   141.66636   152.60554   152.37785     8.56139    -0.00000    -0.00000
  E(xc)    -828.37703  -829.01789  -829.04174    -0.02653    -0.00000    -0.00000
  Local    -850.08222  -932.63935  -932.62462   -21.28179    -0.00000    -0.00000
  n-local  2513.66897  2524.30863  2524.67711    -0.37971    -0.00000     0.00000
  augment  -369.51341  -369.55911  -369.58313    -0.65539     0.00000     0.00000
  Kinetic  1864.58124  1845.16190  1844.75053    14.16385     0.00000     0.00000
  Fock        0.00000     0.00000     0.00000     0.00000     0.00000     0.00000
  -------------------------------------------------------------------------------------
  Total      55.50271    43.41943    43.23673    11.40417     0.00000     0.00000
  in kB      73.43322    57.44637    57.20464    15.08836     0.00000     0.00000
  external pressure =       62.69 kB  Pullay stress =        0.00 kB


 VOLUME and BASIS-vectors are now :
 -----------------------------------------------------------------------------
  energy-cutoff  :      400.00
  volume of cell :     1210.97
      direct lattice vectors                 reciprocal lattice vectors
    10.516620553 -0.107312016  0.000000000     0.095097284  0.000950969  0.000000000
    -0.107312016 10.731245585  0.000000000     0.000950969  0.093195337  0.000000000
     0.000000000  0.000000000 10.731245585     0.000000000  0.000000000  0.093185828

  length of vectors
    10.517168047 10.731782129 10.731245585     0.095102039  0.093200189  0.093185828


 FORCES acting on ions
    electron-ion (+dipol)            ewald-force                    non-local-force                 convergence-correction
 -----------------------------------------------------------------------------------------------
   0.174E-09 -.348E-09 0.168E+01   -.158E-13 -.866E-14 -.119E+01   -.321E-20 0.449E-20 -.486E+00   0.514E-13 -.103E-12 -.209E-04
   0.174E-09 -.348E-09 0.168E+01   -.231E-13 -.107E-13 -.119E+01   -.272E-20 0.654E-20 -.486E+00   -.380E-13 -.206E-13 -.209E-04
   0.174E-09 -.348E-09 0.168E+01   -.187E-13 -.167E-13 -.119E+01   0.227E-20 0.313E-20 -.486E+00   0.241E-13 0.116E-12 -.209E-04
   0.174E-09 -.348E-09 0.168E+01   -.258E-13 -.107E-13 -.119E+01   0.147E-20 0.644E-20 -.486E+00   -.534E-14 0.225E-13 -.209E-04
   0.174E-09 -.348E-09 0.168E+01   -.175E-13 -.888E-14 -.119E+01   0.128E-20 0.841E-22 -.486E+00   -.527E-13 -.503E-13 -.209E-04
   0.174E-09 -.348E-09 0.168E+01   -.369E-13 -.888E-14 -.119E+01   0.150E-20 0.575E-20 -.486E+00   0.471E-13 -.732E-13 -.209E-04
   0.174E-09 -.349E-09 0.168E+01   -.191E-13 -.977E-14 -.119E+01   -.327E-20 0.508E-21 -.486E+00   -.175E-13 0.459E-13 -.209E-04
   0.174E-09 -.348E-09 0.168E+01   -.320E-13 -.142E-13 -.119E+01   0.413E-21 0.479E-20 -.486E+00   0.103E-13 0.733E-13 -.209E-04
   0.181E-08 0.197E-08 -.168E+01   -.129E-13 0.311E-14 0.119E+01   -.619E-21 -.788E-20 0.486E+00   0.328E-13 0.480E-13 0.209E-04
   0.181E-08 0.197E-08 -.168E+01   -.160E-13 0.533E-14 0.119E+01   -.485E-21 0.363E-20 0.486E+00   -.300E-13 0.209E-13 0.209E-04
   0.181E-08 0.197E-08 -.168E+01   -.844E-14 0.129E-13 0.119E+01   0.303E-20 -.652E-20 0.486E+00   -.210E-13 -.541E-13 0.209E-04
   0.181E-08 0.197E-08 -.168E+01   -.213E-13 0.355E-14 0.119E+01   0.150E-20 -.644E-20 0.486E+00   0.204E-13 -.348E-13 0.209E-04
   0.181E-08 0.197E-08 -.168E+01   -.155E-13 0.622E-14 0.119E+01   0.186E-20 -.346E-20 0.486E+00   -.394E-13 0.786E-13 0.209E-04
   0.181E-08 0.197E-08 -.168E+01   -.178E-13 0.533E-14 0.119E+01   0.229E-20 -.575E-20 0.486E+00   0.480E-13 0.139E-13 0.209E-04
   0.181E-08 0.197E-08 -.168E+01   -.120E-13 0.933E-14 0.119E+01   -.141E-20 -.107E-19 0.486E+00   0.245E-13 -.869E-13 0.209E-04
   0.181E-08 0.197E-08 -.168E+01   -.142E-13 0.533E-14 0.119E+01   -.233E-20 0.539E-20 0.486E+00   -.565E-14 -.166E-13 0.209E-04
   0.174E-09 -.348E-09 0.168E+01   -.171E-13 0.622E-14 -.119E+01   -.894E-21 -.559E-21 -.486E+00   -.423E-13 0.344E-13 -.209E-04
   0.174E-09 -.348E-09 0.168E+01   -.231E-13 -.888E-15 -.119E+01   -.354E-20 -.788E-21 -.486E+00   0.584E-13 -.447E-13 -.209E-04
   0.174E-09 -.348E-09 0.168E+01   -.169E-13 -.444E-15 -.119E+01   0.315E-20 -.499E-20 -.486E+00   -.305E-13 -.321E-13 -.209E-04
   0.174E-09 -.348E-09 0.168E+01   -.222E-13 0.222E-14 -.119E+01   0.169E-20 -.772E-20 -.486E+00   0.278E-13 0.449E-13 -.209E-04
   0.174E-09 -.348E-09 0.168E+01   -.167E-13 -.266E-14 -.119E+01   0.163E-20 -.605E-20 -.486E+00   0.511E-13 0.307E-13 -.209E-04
   0.174E-09 -.348E-09 0.168E+01   -.129E-13 -.266E-14 -.119E+01   0.318E-20 -.313E-20 -.486E+00   -.609E-13 -.361E-13 -.209E-04
   0.174E-09 -.348E-09 0.168E+01   -.666E-14 0.755E-14 -.119E+01   -.864E-21 -.327E-20 -.486E+00   0.409E-13 -.256E-13 -.209E-04
   0.174E-09 -.348E-09 0.168E+01   0.355E-14 0.355E-14 -.119E+01   -.332E-20 0.227E-20 -.486E+00   -.286E-13 0.382E-13 -.209E-04
   0.181E-08 0.197E-08 -.168E+01   0.444E-15 0.373E-14 0.119E+01   0.356E-20 -.916E-21 0.486E+00   0.626E-13 -.432E-13 0.209E-04
   0.181E-08 0.197E-08 -.168E+01   -.311E-14 0.995E-14 0.119E+01   -.780E-21 0.395E-20 0.486E+00   -.596E-13 -.480E-13 0.209E-04
   0.181E-08 0.197E-08 -.168E+01   -.160E-13 0.204E-13 0.119E+01   -.169E-20 0.603E-20 0.486E+00   0.734E-13 0.408E-13 0.209E-04
   0.181E-08 0.197E-08 -.168E+01   -.160E-13 0.127E-13 0.119E+01   -.146E-20 -.179E-20 0.486E+00   -.632E-13 0.499E-13 0.209E-04
   0.181E-08 0.197E-08 -.168E+01   -.888E-15 0.332E-14 0.119E+01   0.238E-21 0.652E-20 0.486E+00   -.508E-13 0.243E-14 0.209E-04
   0.181E-08 0.197E-08 -.168E+01   -.888E-15 0.208E-15 0.119E+01   -.161E-20 0.959E-21 0.486E+00   0.560E-13 -.108E-12 0.209E-04
   0.181E-08 0.197E-08 -.168E+01   -.888E-14 0.249E-13 0.119E+01   0.331E-20 0.111E-20 0.486E+00   -.601E-13 -.424E-14 0.209E-04
   0.181E-08 0.197E-08 -.168E+01   -.160E-13 0.129E-13 0.119E+01   0.288E-22 -.182E-20 0.486E+00   0.650E-13 0.115E-12 0.209E-04
   0.174E-09 -.348E-09 0.168E+01   0.755E-14 -.124E-13 -.119E+01   -.598E-21 -.816E-21 -.486E+00   0.253E-13 -.152E-13 -.209E-04
   0.174E-09 -.348E-09 0.168E+01   -.444E-15 -.164E-13 -.119E+01   0.380E-20 0.591E-20 -.486E+00   -.344E-13 -.907E-13 -.209E-04
   0.174E-09 -.348E-09 0.168E+01   0.355E-14 -.173E-13 -.119E+01   -.550E-22 0.174E-20 -.486E+00   0.200E-13 0.194E-13 -.209E-04
   0.174E-09 -.349E-09 0.168E+01   0.107E-13 -.191E-13 -.119E+01   -.146E-20 0.228E-20 -.486E+00   -.228E-13 0.942E-13 -.209E-04
   0.174E-09 -.348E-09 0.168E+01   0.147E-13 -.147E-13 -.119E+01   -.951E-21 0.482E-20 -.486E+00   -.340E-13 -.716E-14 -.209E-04
   0.174E-09 -.348E-09 0.168E+01   0.155E-13 -.115E-13 -.119E+01   -.154E-20 0.645E-20 -.486E+00   0.352E-13 -.119E-12 -.209E-04
   0.174E-09 -.348E-09 0.168E+01   0.169E-13 -.226E-13 -.119E+01   -.581E-21 0.288E-21 -.486E+00   -.289E-13 0.817E-14 -.209E-04
   0.174E-09 -.347E-09 0.168E+01   0.178E-13 -.213E-13 -.119E+01   0.356E-20 0.102E-20 -.486E+00   0.312E-13 0.126E-12 -.209E-04
   0.181E-08 0.197E-08 -.168E+01   0.204E-13 0.133E-14 0.119E+01   -.552E-20 -.845E-20 0.486E+00   -.360E-13 -.147E-14 0.209E-04
   0.181E-08 0.197E-08 -.168E+01   0.284E-13 -.222E-14 0.119E+01   0.558E-21 0.168E-20 0.486E+00   0.502E-13 0.704E-13 0.209E-04
   0.181E-08 0.197E-08 -.168E+01   0.195E-13 0.311E-14 0.119E+01   0.145E-20 -.586E-21 0.486E+00   0.621E-14 -.799E-14 0.209E-04
   0.181E-08 0.197E-08 -.168E+01   0.106E-13 0.102E-13 0.119E+01   0.177E-20 -.936E-20 0.486E+00   -.158E-13 -.822E-13 0.209E-04
   0.181E-08 0.197E-08 -.168E+01   0.162E-13 0.178E-14 0.119E+01   0.152E-20 -.221E-20 0.486E+00   0.258E-13 0.120E-13 0.209E-04
   0.181E-08 0.197E-08 -.168E+01   0.887E-14 -.178E-14 0.119E+01   0.920E-21 -.566E-20 0.486E+00   -.481E-13 0.626E-13 0.209E-04
   0.181E-08 0.197E-08 -.168E+01   0.144E-13 0.355E-14 0.119E+01   -.355E-20 -.355E-20 0.486E+00   -.228E-13 -.136E-13 0.209E-04
   0.181E-08 0.197E-08 -.168E+01   0.776E-14 0.355E-14 0.119E+01   0.579E-21 -.291E-21 0.486E+00   0.120E-13 -.774E-13 0.209E-04
   0.174E-09 -.348E-09 0.168E+01   -.111E-14 -.999E-14 -.119E+01   -.243E-21 -.589E-21 -.486E+00   0.801E-14 0.219E-13 -.209E-04
   0.174E-09 -.348E-09 0.168E+01   0.311E-14 -.266E-14 -.119E+01   0.738E-21 -.645E-20 -.486E+00   -.131E-14 -.283E-13 -.209E-04
   0.174E-09 -.348E-09 0.168E+01   0.888E-14 0.511E-14 -.119E+01   0.131E-20 -.515E-20 -.486E+00   -.492E-13 -.164E-13 -.209E-04
   0.174E-09 -.348E-09 0.168E+01   0.160E-13 -.222E-14 -.119E+01   0.148E-20 -.404E-20 -.486E+00   0.457E-13 0.321E-13 -.209E-04
   0.174E-09 -.348E-09 0.168E+01   0.107E-13 -.355E-14 -.119E+01   0.328E-20 -.482E-20 -.486E+00   -.131E-13 0.492E-13 -.209E-04
   0.174E-09 -.348E-09 0.168E+01   0.302E-13 -.355E-14 -.119E+01   -.141E-21 -.659E-20 -.486E+00   0.195E-14 -.600E-13 -.209E-04
   0.174E-09 -.348E-09 0.168E+01   0.235E-13 -.311E-14 -.119E+01   -.334E-20 -.314E-20 -.486E+00   0.546E-13 -.511E-13 -.209E-04
   0.174E-09 -.348E-09 0.168E+01   0.355E-13 0.355E-14 -.119E+01   -.296E-20 -.707E-20 -.486E+00   -.567E-13 0.686E-13 -.209E-04
   0.181E-08 0.197E-08 -.168E+01   0.336E-13 0.450E-14 0.119E+01   0.284E-21 0.736E-20 0.486E+00   0.153E-13 -.190E-13 0.209E-04
   0.181E-08 0.197E-08 -.168E+01   0.365E-13 0.730E-15 0.119E+01   -.327E-20 0.307E-20 0.486E+00   -.704E-14 -.791E-13 0.209E-04
   0.181E-08 0.197E-08 -.168E+01   0.307E-13 0.104E-13 0.119E+01   -.453E-21 0.516E-20 0.486E+00   -.160E-13 0.189E-13 0.209E-04
   0.181E-08 0.197E-08 -.168E+01   0.236E-13 0.177E-13 0.119E+01   0.508E-20 0.651E-21 0.486E+00   0.317E-14 0.749E-13 0.209E-04
   0.181E-08 0.197E-08 -.168E+01   0.172E-13 0.220E-14 0.119E+01   0.265E-20 0.481E-20 0.486E+00   -.166E-13 0.369E-13 0.209E-04
   0.181E-08 0.197E-08 -.168E+01   0.261E-13 0.221E-14 0.119E+01   0.185E-20 -.189E-21 0.486E+00   -.828E-14 -.125E-12 0.209E-04
   0.181E-08 0.197E-08 -.168E+01   0.115E-13 0.104E-13 0.119E+01   0.128E-21 0.651E-20 0.486E+00   0.184E-13 -.413E-13 0.209E-04
   0.181E-08 0.197E-08 -.168E+01   0.208E-13 0.179E-13 0.119E+01   -.298E-20 0.199E-20 0.486E+00   -.244E-13 0.132E-12 0.209E-04
 -----------------------------------------------------------------------------------------------
   0.634E-07 0.518E-07 -.568E-04   0.591E-13 -.268E-14 0.124E-13   0.754E-20 -.254E-19 0.600E-14   0.589E-14 -.140E-13 -.318E-09
 
 
 POSITION                                       TOTAL-FORCE (eV/Angst)
 -----------------------------------------------------------------------------------
     -0.00000      0.00000     10.72252         0.000000      0.000000     -0.000116
      0.00000      0.00000      5.35690         0.000000      0.000000     -0.000116
     -0.05366      5.36562     10.72252        -0.000000     -0.000000     -0.000116
     -0.05366      5.36562      5.35690        -0.000000     -0.000000     -0.000116
      5.25831     -0.05366     10.72252         0.000000      0.000000     -0.000116
      5.25831     -0.05366      5.35690         0.000000      0.000000     -0.000116
      5.20465      5.31197     10.72252        -0.000000     -0.000000     -0.000116
      5.20465      5.31197      5.35690        -0.000000     -0.000000     -0.000116
      3.90349      3.98398      1.35013         0.000000     -0.000000      0.000116
      3.90349      3.98398      6.71575         0.000000     -0.000000      0.000116
      3.84983      9.34960      1.35013        -0.000000      0.000000      0.000116
      3.84983      9.34960      6.71575        -0.000000     -0.000000      0.000116
      9.16180      3.93032      1.35013        -0.000000     -0.000000      0.000116
      9.16180      3.93032      6.71575        -0.000000      0.000000      0.000116
      9.10814      9.29594      1.35013        -0.000000     -0.000000      0.000116
      9.10814      9.29594      6.71575        -0.000000      0.000000      0.000116
     -0.02683      2.68281      2.67409        -0.000000      0.000000     -0.000116
     -0.02683      2.68281      8.03971         0.000000      0.000000     -0.000116
     -0.08048      8.04843      2.67409         0.000000      0.000000     -0.000116
     -0.08048      8.04843      8.03971         0.000000     -0.000000     -0.000116
      5.23148      2.62916      2.67409        -0.000000     -0.000000     -0.000116
      5.23148      2.62916      8.03971         0.000000      0.000000     -0.000116
      5.17783      7.99478      2.67409        -0.000000     -0.000000     -0.000116
      5.17783      7.99478      8.03971        -0.000000     -0.000000     -0.000116
      3.93032      1.30116      4.03294        -0.000000     -0.000000      0.000116
      3.93032      1.30116      9.39856        -0.000000     -0.000000      0.000116
      3.87666      6.66679      4.03294         0.000000     -0.000000      0.000116
      3.87666      6.66679      9.39856         0.000000      0.000000      0.000116
      9.18863      1.24751      4.03294        -0.000000      0.000000      0.000116
      9.18863      1.24751      9.39856        -0.000000      0.000000      0.000116
      9.13497      6.61313      4.03294         0.000000      0.000000      0.000116
      9.13497      6.61313      9.39856         0.000000     -0.000000      0.000116
      2.62916     -0.02683      2.67409         0.000000      0.000000     -0.000116
      2.62916     -0.02683      8.03971         0.000000      0.000000     -0.000116
      2.57550      5.33879      2.67409        -0.000000     -0.000000     -0.000116
      2.57550      5.33879      8.03971        -0.000000     -0.000000     -0.000116
      7.88747     -0.08048      2.67409         0.000000     -0.000000     -0.000116
      7.88747     -0.08048      8.03971         0.000000      0.000000     -0.000116
      7.83381      5.28514      2.67409        -0.000000     -0.000000     -0.000116
      7.83381      5.28514      8.03971        -0.000000      0.000000     -0.000116
      1.27434      4.01080      4.03294         0.000000     -0.000000      0.000116
      1.27434      4.01080      9.39856         0.000000      0.000000      0.000116
      1.22068      9.37643      4.03294        -0.000000     -0.000000      0.000116
      1.22068      9.37643      9.39856        -0.000000      0.000000      0.000116
      6.53265      3.95715      4.03294         0.000000      0.000000      0.000116
      6.53265      3.95715      9.39856        -0.000000     -0.000000      0.000116
      6.47899      9.32277      4.03294         0.000000     -0.000000      0.000116
      6.47899      9.32277      9.39856        -0.000000     -0.000000      0.000116
      2.60233      2.65598     10.72252        -0.000000     -0.000000     -0.000116
      2.60233      2.65598      5.35690        -0.000000      0.000000     -0.000116
      2.54867      8.02161     10.72252        -0.000000      0.000000     -0.000116
      2.54867      8.02161      5.35690         0.000000     -0.000000     -0.000116
      7.86064      2.60233     10.72252        -0.000000      0.000000     -0.000116
      7.86064      2.60233      5.35690         0.000000     -0.000000     -0.000116
      7.80698      7.96795     10.72252        -0.000000      0.000000     -0.000116
      7.80698      7.96795      5.35690         0.000000     -0.000000     -0.000116
      1.30116      1.32799      1.35013        -0.000000      0.000000      0.000116
      1.30116      1.32799      6.71575        -0.000000     -0.000000      0.000116
      1.24751      6.69361      1.35013         0.000000      0.000000      0.000116
      1.24751      6.69361      6.71575         0.000000      0.000000      0.000116
      6.55947      1.27434      1.35013        -0.000000     -0.000000      0.000116
      6.55947      1.27434      6.71575        -0.000000     -0.000000      0.000116
      6.50582      6.63996      1.35013         0.000000      0.000000      0.000116
      6.50582      6.63996      6.71575         0.000000     -0.000000      0.000116
 -----------------------------------------------------------------------------------
    total drift:                                0.000000      0.000000     -0.000057


--------------------------------------------------------------------------------------------------------



  FREE ENERGIE OF THE ION-ELECTRON SYSTEM (eV)
  ---------------------------------------------------
  free  energy   TOTEN  =      -366.03226943 eV

  energy  without entropy=     -366.04761901  energy(sigma->0) =     -366.03738595
 
 d Force = 0.1216177E-01[-0.269E-04, 0.244E-01]  d Energy = 0.1220142E-01-0.396E-04
 d Force =-0.2533496E+00[-0.275E+00,-0.231E+00]  d Ewald  =-0.2533385E+00-0.111E-04


--------------------------------------------------------------------------------------------------------


    POTLOK:  cpu time      0.1436: real time      0.1440


--------------------------------------------------------------------------------------------------------




--------------------------------------------------------------------------------------------------------


  
 reached required accuracy - stopping structural energy minimisation
     LOOP+:  cpu time     12.9453: real time     13.1010
    4ORBIT:  cpu time      0.0000: real time      0.0000

 total amount of memory used by VASP MPI-rank0    79182. kBytes
=======================================================================

   base      :      30000. kBytes
   nonlr-proj:       4696. kBytes
   fftplans  :      17992. kBytes
   grid      :       6881. kBytes
   one-center:         18. kBytes
   wavefun   :      19595. kBytes
 
  
  
 General timing and accounting informations for this job:
 ========================================================
  
                  Total CPU time used (sec):       58.514
                            User time (sec):       55.289
                          System time (sec):        3.225
                         Elapsed time (sec):       62.062
  
                   Maximum memory used (kb):      405804.
                   Average memory used (kb):          N/A
  
                          Minor page faults:        92718
                          Major page faults:            0
                 Voluntary context switches:         9191
