Si64                                    
           1
    10.516621   -0.107312    0.000000
    -0.107312   10.731246    0.000000
     0.000000    0.000000   10.731246
   Si
    64
Direct configuration=     1
   0.00000000  0.00000000  0.00000000
   0.00000000  0.00000000  0.50000000
   0.00000000  0.50000000  0.00000000
   0.00000000  0.50000000  0.50000000
   0.50000000  0.00000000  0.00000000
   0.50000000  0.00000000  0.50000000
   0.50000000  0.50000000  0.00000000
   0.50000000  0.50000000  0.50000000
   0.37500000  0.37500000  0.12500000
   0.37500000  0.37500000  0.62500000
   0.37500000  0.87500000  0.12500000
   0.37500000  0.87500000  0.62500000
   0.87500000  0.37500000  0.12500000
   0.87500000  0.37500000  0.62500000
   0.87500000  0.87500000  0.12500000
   0.87500000  0.87500000  0.62500000
   0.00000000  0.25000000  0.25000000
   0.00000000  0.25000000  0.75000000
   0.00000000  0.75000000  0.25000000
   0.00000000  0.75000000  0.75000000
   0.50000000  0.25000000  0.25000000
   0.50000000  0.25000000  0.75000000
   0.50000000  0.75000000  0.25000000
   0.50000000  0.75000000  0.75000000
   0.37500000  0.12500000  0.37500000
   0.37500000  0.12500000  0.87500000
   0.37500000  0.62500000  0.37500000
   0.37500000  0.62500000  0.87500000
   0.87500000  0.12500000  0.37500000
   0.87500000  0.12500000  0.87500000
   0.87500000  0.62500000  0.37500000
   0.87500000  0.62500000  0.87500000
   0.25000000  0.00000000  0.25000000
   0.25000000  0.00000000  0.75000000
   0.25000000  0.50000000  0.25000000
   0.25000000  0.50000000  0.75000000
   0.75000000  0.00000000  0.25000000
   0.75000000  0.00000000  0.75000000
   0.75000000  0.50000000  0.25000000
   0.75000000  0.50000000  0.75000000
   0.12500000  0.37500000  0.37500000
   0.12500000  0.37500000  0.87500000
   0.12500000  0.87500000  0.37500000
   0.12500000  0.87500000  0.87500000
   0.62500000  0.37500000  0.37500000
   0.62500000  0.37500000  0.87500000
   0.62500000  0.87500000  0.37500000
   0.62500000  0.87500000  0.87500000
   0.25000000  0.25000000  0.00000000
   0.25000000  0.25000000  0.50000000
   0.25000000  0.75000000  0.00000000
   0.25000000  0.75000000  0.50000000
   0.75000000  0.25000000  0.00000000
   0.75000000  0.25000000  0.50000000
   0.75000000  0.75000000  0.00000000
   0.75000000  0.75000000  0.50000000
   0.12500000  0.12500000  0.12500000
   0.12500000  0.12500000  0.62500000
   0.12500000  0.62500000  0.12500000
   0.12500000  0.62500000  0.62500000
   0.62500000  0.12500000  0.12500000
   0.62500000  0.12500000  0.62500000
   0.62500000  0.62500000  0.12500000
   0.62500000  0.62500000  0.62500000
Direct configuration=     2
   1.00000000  0.00000000  0.99884990
   0.00000000  0.00000000  0.49884990
   1.00000000  0.50000000  0.99884990
   1.00000000  0.50000000  0.49884990
   0.50000000  1.00000000  0.99884990
   0.50000000  1.00000000  0.49884990
   0.50000000  0.50000000  0.99884990
   0.50000000  0.50000000  0.49884990
   0.37500000  0.37500000  0.12615010
   0.37500000  0.37500000  0.62615010
   0.37500000  0.87500000  0.12615010
   0.37500000  0.87500000  0.62615010
   0.87500000  0.37500000  0.12615010
   0.87500000  0.37500000  0.62615010
   0.87500000  0.87500000  0.12615010
   0.87500000  0.87500000  0.62615010
   1.00000000  0.25000000  0.24884990
   1.00000000  0.25000000  0.74884990
   0.00000000  0.75000000  0.24884990
   1.00000000  0.75000000  0.74884990
   0.50000000  0.25000000  0.24884990
   0.50000000  0.25000000  0.74884990
   0.50000000  0.75000000  0.24884990
   0.50000000  0.75000000  0.74884990
   0.37500000  0.12500000  0.37615010
   0.37500000  0.12500000  0.87615010
   0.37500000  0.62500000  0.37615010
   0.37500000  0.62500000  0.87615010
   0.87500000  0.12500000  0.37615010
   0.87500000  0.12500000  0.87615010
   0.87500000  0.62500000  0.37615010
   0.87500000  0.62500000  0.87615010
   0.25000000  1.00000000  0.24884990
   0.25000000  0.00000000  0.74884990
   0.25000000  0.50000000  0.24884990
   0.25000000  0.50000000  0.74884990
   0.75000000  1.00000000  0.24884990
   0.75000000  0.00000000  0.74884990
   0.75000000  0.50000000  0.24884990
   0.75000000  0.50000000  0.74884990
   0.12500000  0.37500000  0.37615010
   0.12500000  0.37500000  0.87615010
   0.12500000  0.87500000  0.37615010
   0.12500000  0.87500000  0.87615010
   0.62500000  0.37500000  0.37615010
   0.62500000  0.37500000  0.87615010
   0.62500000  0.87500000  0.37615010
   0.62500000  0.87500000  0.87615010
   0.25000000  0.25000000  0.99884990
   0.25000000  0.25000000  0.49884990
   0.25000000  0.75000000  0.99884990
   0.25000000  0.75000000  0.49884990
   0.75000000  0.25000000  0.99884990
   0.75000000  0.25000000  0.49884990
   0.75000000  0.75000000  0.99884990
   0.75000000  0.75000000  0.49884990
   0.12500000  0.12500000  0.12615010
   0.12500000  0.12500000  0.62615010
   0.12500000  0.62500000  0.12615010
   0.12500000  0.62500000  0.62615010
   0.62500000  0.12500000  0.12615010
   0.62500000  0.12500000  0.62615010
   0.62500000  0.62500000  0.12615010
   0.62500000  0.62500000  0.62615010
Direct configuration=     3
   0.00000000  0.00000000  0.99918697
   0.00000000  0.00000000  0.49918697
   0.00000000  0.50000000  0.99918697
   0.00000000  0.50000000  0.49918697
   0.50000000  0.00000000  0.99918697
   0.50000000  0.00000000  0.49918697
   0.50000000  0.50000000  0.99918697
   0.50000000  0.50000000  0.49918697
   0.37500000  0.37500000  0.12581303
   0.37500000  0.37500000  0.62581303
   0.37500000  0.87500000  0.12581303
   0.37500000  0.87500000  0.62581303
   0.87500000  0.37500000  0.12581303
   0.87500000  0.37500000  0.62581303
   0.87500000  0.87500000  0.12581303
   0.87500000  0.87500000  0.62581303
   0.00000000  0.25000000  0.24918697
   0.00000000  0.25000000  0.74918697
   0.00000000  0.75000000  0.24918697
   0.00000000  0.75000000  0.74918697
   0.50000000  0.25000000  0.24918697
   0.50000000  0.25000000  0.74918697
   0.50000000  0.75000000  0.24918697
   0.50000000  0.75000000  0.74918697
   0.37500000  0.12500000  0.37581303
   0.37500000  0.12500000  0.87581303
   0.37500000  0.62500000  0.37581303
   0.37500000  0.62500000  0.87581303
   0.87500000  0.12500000  0.37581303
   0.87500000  0.12500000  0.87581303
   0.87500000  0.62500000  0.37581303
   0.87500000  0.62500000  0.87581303
   0.25000000  0.00000000  0.24918697
   0.25000000  0.00000000  0.74918697
   0.25000000  0.50000000  0.24918697
   0.25000000  0.50000000  0.74918697
   0.75000000  0.00000000  0.24918697
   0.75000000  0.00000000  0.74918697
   0.75000000  0.50000000  0.24918697
   0.75000000  0.50000000  0.74918697
   0.12500000  0.37500000  0.37581303
   0.12500000  0.37500000  0.87581303
   0.12500000  0.87500000  0.37581303
   0.12500000  0.87500000  0.87581303
   0.62500000  0.37500000  0.37581303
   0.62500000  0.37500000  0.87581303
   0.62500000  0.87500000  0.37581303
   0.62500000  0.87500000  0.87581303
   0.25000000  0.25000000  0.99918697
   0.25000000  0.25000000  0.49918697
   0.25000000  0.75000000  0.99918697
   0.25000000  0.75000000  0.49918697
   0.75000000  0.25000000  0.99918697
   0.75000000  0.25000000  0.49918697
   0.75000000  0.75000000  0.99918697
   0.75000000  0.75000000  0.49918697
   0.12500000  0.12500000  0.12581303
   0.12500000  0.12500000  0.62581303
   0.12500000  0.62500000  0.12581303
   0.12500000  0.62500000  0.62581303
   0.62500000  0.12500000  0.12581303
   0.62500000  0.12500000  0.62581303
   0.62500000  0.62500000  0.12581303
   0.62500000  0.62500000  0.62581303
