  64  64   0   0
  0.2013400E+02  0.1088187E-08  0.1088187E-08  0.1088187E-08  0.5000000E-15
  1.000000000000000E-004
  CAR 
 Si64                                    
     11.84171398     -8.02214888  301      6.60029711      1.00000000
     -8.022  0.0000E+00  0.0000E+00
     -7.956  0.0000E+00  0.0000E+00
     -7.890  0.0000E+00  0.0000E+00
     -7.824  0.0000E+00  0.0000E+00
     -7.757  0.0000E+00  0.0000E+00
     -7.691  0.0000E+00  0.0000E+00
     -7.625 -0.1835E-28 -0.1215E-29
     -7.559 -0.3159E-26 -0.2104E-27
     -7.492 -0.4378E-24 -0.2920E-25
     -7.426 -0.4863E-22 -0.3249E-23
     -7.360 -0.4327E-20 -0.2897E-21
     -7.294 -0.3082E-18 -0.2070E-19
     -7.228 -0.1757E-16 -0.1184E-17
     -7.161 -0.7772E-15 -0.5265E-16
     -7.095 -0.2824E-13 -0.1922E-14
     -7.029 -0.8188E-12 -0.5614E-13
     -6.963 -0.1893E-10 -0.1310E-11
     -6.897 -0.3486E-09 -0.2439E-10
     -6.830 -0.5098E-08 -0.3620E-09
     -6.764 -0.5910E-07 -0.4275E-08
     -6.698 -0.5409E-06 -0.4009E-07
     -6.632 -0.3887E-05 -0.2975E-06
     -6.565 -0.2176E-04 -0.1738E-05
     -6.499 -0.9360E-04 -0.7936E-05
     -6.433 -0.3022E-03 -0.2794E-04
     -6.367 -0.6960E-03 -0.7403E-04
     -6.301 -0.9892E-03 -0.1395E-03
     -6.234 -0.2524E-03 -0.1562E-03
     -6.168  0.2528E-02  0.1113E-04
     -6.102  0.6792E-02  0.4609E-03
     -6.036  0.1035E-01  0.1146E-02
     -5.970  0.1382E-01  0.2061E-02
     -5.903  0.2431E-01  0.3671E-02
     -5.837  0.4798E-01  0.6848E-02
     -5.771  0.7690E-01  0.1194E-01
     -5.705  0.9446E-01  0.1819E-01
     -5.638  0.1015E+00  0.2491E-01
     -5.572  0.1212E+00  0.3294E-01
     -5.506  0.1628E+00  0.4372E-01
     -5.440  0.1965E+00  0.5673E-01
     -5.374  0.1909E+00  0.6937E-01
     -5.307  0.1585E+00  0.7986E-01
     -5.241  0.1358E+00  0.8885E-01
     -5.175  0.1293E+00  0.9741E-01
     -5.109  0.1165E+00  0.1051E+00
     -5.043  0.9062E-01  0.1111E+00
     -4.976  0.7065E-01  0.1158E+00
     -4.910  0.7002E-01  0.1204E+00
     -4.844  0.9003E-01  0.1264E+00
     -4.778  0.1436E+00  0.1359E+00
     -4.712  0.2434E+00  0.1520E+00
     -4.645  0.3574E+00  0.1757E+00
     -4.579  0.4256E+00  0.2039E+00
     -4.513  0.4381E+00  0.2329E+00
     -4.447  0.4393E+00  0.2620E+00
     -4.380  0.4377E+00  0.2910E+00
     -4.314  0.3816E+00  0.3162E+00
     -4.248  0.2483E+00  0.3327E+00
     -4.182  0.9409E-01  0.3389E+00
     -4.116 -0.7032E-02  0.3384E+00
     -4.049 -0.2519E-01  0.3368E+00
     -3.983  0.3376E-01  0.3390E+00
     -3.917  0.1547E+00  0.3492E+00
     -3.851  0.3108E+00  0.3698E+00
     -3.785  0.4521E+00  0.3997E+00
     -3.718  0.5177E+00  0.4340E+00
     -3.652  0.4771E+00  0.4656E+00
     -3.586  0.3631E+00  0.4897E+00
     -3.520  0.2517E+00  0.5063E+00
     -3.453  0.2118E+00  0.5203E+00
     -3.387  0.2738E+00  0.5385E+00
     -3.321  0.4161E+00  0.5660E+00
     -3.255  0.5692E+00  0.6037E+00
     -3.189  0.6599E+00  0.6474E+00
     -3.122  0.6668E+00  0.6916E+00
     -3.056  0.6198E+00  0.7326E+00
     -2.990  0.5503E+00  0.7690E+00
     -2.924  0.4729E+00  0.8003E+00
     -2.858  0.4135E+00  0.8277E+00
     -2.791  0.4029E+00  0.8544E+00
     -2.725  0.4169E+00  0.8820E+00
     -2.659  0.3796E+00  0.9071E+00
     -2.593  0.2591E+00  0.9243E+00
     -2.526  0.1114E+00  0.9317E+00
     -2.460  0.8884E-02  0.9323E+00
     -2.394 -0.3061E-01  0.9302E+00
     -2.328 -0.2902E-01  0.9283E+00
     -2.262 -0.1337E-03  0.9283E+00
     -2.195  0.5960E-01  0.9323E+00
     -2.129  0.1398E+00  0.9415E+00
     -2.063  0.1970E+00  0.9546E+00
     -1.997  0.1867E+00  0.9669E+00
     -1.931  0.1125E+00  0.9744E+00
     -1.864  0.3236E-01  0.9765E+00
     -1.798  0.1765E-01  0.9777E+00
     -1.732  0.1119E+00  0.9851E+00
     -1.666  0.3035E+00  0.1005E+01
     -1.599  0.5121E+00  0.1039E+01
     -1.533  0.6217E+00  0.1080E+01
     -1.467  0.5643E+00  0.1118E+01
     -1.401  0.3772E+00  0.1143E+01
     -1.335  0.1695E+00  0.1154E+01
     -1.268  0.3932E-01  0.1156E+01
     -1.202  0.2273E-01  0.1158E+01
     -1.136  0.9310E-01  0.1164E+01
     -1.070  0.1832E+00  0.1176E+01
     -1.004  0.2246E+00  0.1191E+01
     -0.937  0.1999E+00  0.1204E+01
     -0.871  0.1641E+00  0.1215E+01
     -0.805  0.1924E+00  0.1228E+01
     -0.739  0.2893E+00  0.1247E+01
     -0.673  0.3656E+00  0.1271E+01
     -0.606  0.3384E+00  0.1294E+01
     -0.540  0.2526E+00  0.1310E+01
     -0.474  0.2617E+00  0.1328E+01
     -0.408  0.4665E+00  0.1359E+01
     -0.341  0.7914E+00  0.1411E+01
     -0.275  0.1030E+01  0.1479E+01
     -0.209  0.1011E+01  0.1546E+01
     -0.143  0.7392E+00  0.1595E+01
     -0.077  0.3716E+00  0.1620E+01
     -0.010  0.8606E-01  0.1625E+01
      0.056 -0.3138E-01  0.1623E+01
      0.122  0.1372E-01  0.1624E+01
      0.188  0.1665E+00  0.1635E+01
      0.254  0.3349E+00  0.1657E+01
      0.321  0.4154E+00  0.1685E+01
      0.387  0.3667E+00  0.1709E+01
      0.453  0.2444E+00  0.1725E+01
      0.519  0.1371E+00  0.1734E+01
      0.586  0.9557E-01  0.1741E+01
      0.652  0.1329E+00  0.1750E+01
      0.718  0.2448E+00  0.1766E+01
      0.784  0.3960E+00  0.1792E+01
      0.850  0.5092E+00  0.1826E+01
      0.917  0.5057E+00  0.1859E+01
      0.983  0.3749E+00  0.1884E+01
      1.049  0.1913E+00  0.1897E+01
      1.115  0.4854E-01  0.1900E+01
      1.181 -0.1610E-01  0.1899E+01
      1.248 -0.2590E-01  0.1897E+01
      1.314 -0.1951E-01  0.1896E+01
      1.380 -0.1908E-01  0.1895E+01
      1.446 -0.2606E-01  0.1893E+01
      1.513 -0.2216E-01  0.1891E+01
      1.579  0.2930E-01  0.1893E+01
      1.645  0.1609E+00  0.1904E+01
      1.711  0.3577E+00  0.1928E+01
      1.777  0.5447E+00  0.1964E+01
      1.844  0.6441E+00  0.2006E+01
      1.910  0.6406E+00  0.2049E+01
      1.976  0.5717E+00  0.2087E+01
      2.042  0.4798E+00  0.2118E+01
      2.108  0.4063E+00  0.2145E+01
      2.175  0.3903E+00  0.2171E+01
      2.241  0.4204E+00  0.2199E+01
      2.307  0.4223E+00  0.2227E+01
      2.373  0.3492E+00  0.2250E+01
      2.439  0.2757E+00  0.2268E+01
      2.506  0.3594E+00  0.2292E+01
      2.572  0.6845E+00  0.2337E+01
      2.638  0.1138E+01  0.2413E+01
      2.704  0.1453E+01  0.2509E+01
      2.771  0.1408E+01  0.2602E+01
      2.837  0.1019E+01  0.2670E+01
      2.903  0.5156E+00  0.2704E+01
      2.969  0.1325E+00  0.2713E+01
      3.035 -0.5594E-01  0.2709E+01
      3.102 -0.1028E+00  0.2702E+01
      3.168 -0.6014E-01  0.2698E+01
      3.234  0.8456E-01  0.2704E+01
      3.300  0.3551E+00  0.2727E+01
      3.366  0.7009E+00  0.2774E+01
      3.433  0.1002E+01  0.2840E+01
      3.499  0.1170E+01  0.2918E+01
      3.565  0.1206E+01  0.2997E+01
      3.631  0.1154E+01  0.3074E+01
      3.698  0.1037E+01  0.3143E+01
      3.764  0.8711E+00  0.3200E+01
      3.830  0.7049E+00  0.3247E+01
      3.896  0.6318E+00  0.3289E+01
      3.962  0.6932E+00  0.3335E+01
      4.029  0.7785E+00  0.3386E+01
      4.095  0.7176E+00  0.3434E+01
      4.161  0.4980E+00  0.3467E+01
      4.227  0.2956E+00  0.3486E+01
      4.293  0.2696E+00  0.3504E+01
      4.360  0.3992E+00  0.3531E+01
      4.426  0.5466E+00  0.3567E+01
      4.492  0.6218E+00  0.3608E+01
      4.558  0.6416E+00  0.3650E+01
      4.625  0.6508E+00  0.3693E+01
      4.691  0.6540E+00  0.3737E+01
      4.757  0.6502E+00  0.3780E+01
      4.823  0.6737E+00  0.3824E+01
      4.889  0.7542E+00  0.3874E+01
      4.956  0.8571E+00  0.3931E+01
      5.022  0.8867E+00  0.3990E+01
      5.088  0.7611E+00  0.4040E+01
      5.154  0.4970E+00  0.4073E+01
      5.220  0.2143E+00  0.4087E+01
      5.287  0.4677E-01  0.4090E+01
      5.353  0.5486E-01  0.4094E+01
      5.419  0.2022E+00  0.4107E+01
      5.485  0.3778E+00  0.4132E+01
      5.551  0.4554E+00  0.4163E+01
      5.618  0.3819E+00  0.4188E+01
      5.684  0.2152E+00  0.4202E+01
      5.750  0.6189E-01  0.4206E+01
      5.816 -0.1033E-01  0.4206E+01
      5.883  0.5510E-02  0.4206E+01
      5.949  0.8053E-01  0.4211E+01
      6.015  0.1650E+00  0.4222E+01
      6.081  0.2038E+00  0.4236E+01
      6.147  0.1753E+00  0.4247E+01
      6.214  0.1118E+00  0.4255E+01
      6.280  0.6250E-01  0.4259E+01
      6.346  0.4252E-01  0.4262E+01
      6.412  0.3286E-01  0.4264E+01
      6.478  0.1784E-01  0.4265E+01
      6.545  0.7223E-02  0.4265E+01
      6.611  0.2475E-01  0.4267E+01
      6.677  0.8109E-01  0.4272E+01
      6.743  0.1539E+00  0.4283E+01
      6.810  0.1964E+00  0.4296E+01
      6.876  0.1765E+00  0.4307E+01
      6.942  0.1067E+00  0.4314E+01
      7.008  0.3069E-01  0.4316E+01
      7.074 -0.1252E-01  0.4316E+01
      7.141 -0.7094E-03  0.4316E+01
      7.207  0.7371E-01  0.4320E+01
      7.273  0.1871E+00  0.4333E+01
      7.339  0.2731E+00  0.4351E+01
      7.405  0.2727E+00  0.4369E+01
      7.472  0.2128E+00  0.4383E+01
      7.538  0.1999E+00  0.4396E+01
      7.604  0.3003E+00  0.4416E+01
      7.670  0.4438E+00  0.4446E+01
      7.737  0.4857E+00  0.4478E+01
      7.803  0.3663E+00  0.4502E+01
      7.869  0.1745E+00  0.4514E+01
      7.935  0.6080E-01  0.4518E+01
      8.001  0.1282E+00  0.4526E+01
      8.068  0.3808E+00  0.4551E+01
      8.134  0.6994E+00  0.4598E+01
      8.200  0.8804E+00  0.4656E+01
      8.266  0.7963E+00  0.4709E+01
      8.332  0.5377E+00  0.4744E+01
      8.399  0.3310E+00  0.4766E+01
      8.465  0.3184E+00  0.4787E+01
      8.531  0.4765E+00  0.4819E+01
      8.597  0.7300E+00  0.4867E+01
      8.663  0.1034E+01  0.4936E+01
      8.730  0.1302E+01  0.5022E+01
      8.796  0.1373E+01  0.5113E+01
      8.862  0.1149E+01  0.5189E+01
      8.928  0.7381E+00  0.5238E+01
      8.995  0.3665E+00  0.5262E+01
      9.061  0.1763E+00  0.5274E+01
      9.127  0.1422E+00  0.5283E+01
      9.193  0.1690E+00  0.5294E+01
      9.259  0.2098E+00  0.5308E+01
      9.326  0.2669E+00  0.5326E+01
      9.392  0.3197E+00  0.5347E+01
      9.458  0.3164E+00  0.5368E+01
      9.524  0.2365E+00  0.5383E+01
      9.590  0.1227E+00  0.5392E+01
      9.657  0.3651E-01  0.5394E+01
      9.723  0.4398E-02  0.5394E+01
      9.789  0.1064E-01  0.5395E+01
      9.855  0.2488E-01  0.5397E+01
      9.922  0.2793E-01  0.5399E+01
      9.988  0.1901E-01  0.5400E+01
     10.054  0.7334E-02  0.5400E+01
     10.120  0.1628E-03  0.5400E+01
     10.186 -0.1833E-02  0.5400E+01
     10.253 -0.1368E-02  0.5400E+01
     10.319 -0.6012E-03  0.5400E+01
     10.385 -0.1869E-03  0.5400E+01
     10.451 -0.4349E-04  0.5400E+01
     10.517 -0.7772E-05  0.5400E+01
     10.584 -0.1082E-05  0.5400E+01
     10.650 -0.1182E-06  0.5400E+01
     10.716 -0.1020E-07  0.5400E+01
     10.782 -0.6971E-09  0.5400E+01
     10.849 -0.3786E-10  0.5400E+01
     10.915 -0.1638E-11  0.5400E+01
     10.981 -0.5646E-13  0.5400E+01
     11.047 -0.1565E-14  0.5400E+01
     11.113 -0.2795E-16  0.5400E+01
     11.180  0.0000E+00  0.5400E+01
     11.246  0.0000E+00  0.5400E+01
     11.312  0.0000E+00  0.5400E+01
     11.378  0.0000E+00  0.5400E+01
     11.444  0.0000E+00  0.5400E+01
     11.511  0.0000E+00  0.5400E+01
     11.577  0.0000E+00  0.5400E+01
     11.643  0.0000E+00  0.5400E+01
     11.709  0.0000E+00  0.5400E+01
     11.776  0.0000E+00  0.5400E+01
     11.842  0.0000E+00  0.5400E+01
