       N       E                     dE             d eps       ncg     rms          rms(c)
DAV:   1     0.555804707810E+03    0.55580E+03   -0.83694E+04  1296   0.106E+03
DAV:   2    -0.309906729313E+03   -0.86571E+03   -0.82147E+03  1536   0.172E+02
DAV:   3    -0.372982226243E+03   -0.63075E+02   -0.61823E+02  1568   0.409E+01
DAV:   4    -0.374664277786E+03   -0.16821E+01   -0.16700E+01  1552   0.800E+00
DAV:   5    -0.374715560020E+03   -0.51282E-01   -0.51178E-01  1510   0.132E+00    0.279E+01
RMM:   6    -0.369822199438E+03    0.48934E+01   -0.24101E+00  1296   0.242E+00    0.168E+01
RMM:   7    -0.367570632286E+03    0.22516E+01   -0.62841E+00  1322   0.391E+00    0.931E-01
RMM:   8    -0.367608697552E+03   -0.38065E-01   -0.55290E-01  1310   0.148E+00    0.480E-01
RMM:   9    -0.367626680108E+03   -0.17983E-01   -0.16517E-01  1322   0.726E-01    0.564E-01
RMM:  10    -0.367629569675E+03   -0.28896E-02   -0.28950E-02  1354   0.344E-01    0.682E-01
RMM:  11    -0.367628071930E+03    0.14977E-02   -0.95577E-03  1296   0.203E-01    0.819E-01
RMM:  12    -0.367627955941E+03    0.11599E-03   -0.17209E-03  1304   0.978E-02    0.981E-01
RMM:  13    -0.367628101843E+03   -0.14590E-03   -0.33053E-04  1368   0.421E-02    0.956E-01
RMM:  14    -0.367626376640E+03    0.17252E-02   -0.67685E-04  1296   0.575E-02    0.151E+00
RMM:  15    -0.367626156066E+03    0.22057E-03   -0.16016E-04  1299   0.257E-02    0.166E+00
RMM:  16    -0.367626243714E+03   -0.87648E-04   -0.20131E-05  1338   0.954E-03    0.162E+00
RMM:  17    -0.367627310176E+03   -0.10665E-02   -0.16341E-04  1350   0.268E-02    0.104E+00
RMM:  18    -0.367628459248E+03   -0.11491E-02   -0.57836E-04  1747   0.535E-02    0.293E-01
RMM:  19    -0.367628593289E+03   -0.13404E-03   -0.17536E-04  1324   0.278E-02    0.366E-02
RMM:  20    -0.367628600875E+03   -0.75857E-05   -0.46774E-05  1300   0.130E-02    0.337E-03
RMM:  21    -0.367628601367E+03   -0.49171E-06   -0.66531E-06  1076   0.503E-03
   1 F= -.31937267E+03 E0= -.31938106E+03  d E =-.319373E+03
       N       E                     dE             d eps       ncg     rms          rms(c)
DAV:   1    -0.364817894422E+03    0.28107E+01   -0.82883E+01  1368   0.162E+01    0.977E+00
RMM:   2    -0.363186415944E+03    0.16315E+01   -0.29132E+00  1296   0.322E+00    0.570E+00
RMM:   3    -0.362347623381E+03    0.83879E+00   -0.19245E+00  1296   0.245E+00    0.101E+00
RMM:   4    -0.362368259739E+03   -0.20636E-01   -0.18491E-01  1296   0.102E+00    0.113E+00
RMM:   5    -0.362372406086E+03   -0.41463E-02   -0.37799E-02  1322   0.420E-01    0.155E+00
RMM:   6    -0.362372850855E+03   -0.44477E-03   -0.16010E-02  1296   0.260E-01    0.110E+00
RMM:   7    -0.362369720381E+03    0.31305E-02   -0.41351E-03  1296   0.145E-01    0.429E-01
RMM:   8    -0.362369498594E+03    0.22179E-03   -0.54414E-04  1298   0.637E-02    0.380E-01
RMM:   9    -0.362369206159E+03    0.29244E-03   -0.13529E-04  1296   0.261E-02    0.255E-01
RMM:  10    -0.362368908004E+03    0.29815E-03   -0.66524E-04  1313   0.425E-02    0.209E-02
RMM:  11    -0.362368914700E+03   -0.66965E-05   -0.69133E-05  1322   0.157E-02    0.264E-02
RMM:  12    -0.362368914803E+03   -0.10268E-06   -0.10587E-05  1133   0.614E-03    0.390E-02
RMM:  13    -0.362368918286E+03   -0.34830E-05   -0.35243E-06   980   0.379E-03    0.177E-02
RMM:  14    -0.362368918702E+03   -0.41637E-06   -0.83570E-07   766   0.200E-03
   2 F= -.31940410E+03 E0= -.31941208E+03  d E =-.314310E-01
       N       E                     dE             d eps       ncg     rms          rms(c)
DAV:   1    -0.366988342501E+03   -0.46194E+01   -0.18934E+01  1350   0.749E+00    0.460E+00
RMM:   2    -0.366598127797E+03    0.39021E+00   -0.55118E-01  1296   0.146E+00    0.276E+00
RMM:   3    -0.366392680612E+03    0.20545E+00   -0.47529E-01  1296   0.118E+00    0.503E-01
RMM:   4    -0.366397192309E+03   -0.45117E-02   -0.41169E-02  1296   0.483E-01    0.522E-01
RMM:   5    -0.366398083327E+03   -0.89102E-03   -0.81020E-03  1322   0.199E-01    0.580E-01
RMM:   6    -0.366400216789E+03   -0.21335E-02   -0.63366E-03  1296   0.138E-01    0.111E+00
RMM:   7    -0.366403781773E+03   -0.35650E-02   -0.41730E-02  1629   0.314E-01    0.145E+00
RMM:   8    -0.366399290202E+03    0.44916E-02   -0.29196E-03  1296   0.966E-02    0.885E-01
RMM:   9    -0.366397249962E+03    0.20402E-02   -0.58657E-03  1296   0.121E-01    0.395E-02
RMM:  10    -0.366397339930E+03   -0.89967E-04   -0.65271E-04  1300   0.445E-02    0.842E-02
RMM:  11    -0.366397325691E+03    0.14238E-04   -0.74774E-05  1314   0.187E-02    0.562E-02
RMM:  12    -0.366397326957E+03   -0.12654E-05   -0.15710E-05  1220   0.808E-03    0.616E-02
RMM:  13    -0.366397314506E+03    0.12451E-04   -0.11329E-05  1296   0.624E-03    0.264E-02
RMM:  14    -0.366397312059E+03    0.24474E-05   -0.39257E-06   942   0.351E-03    0.994E-03
RMM:  15    -0.366397311758E+03    0.30080E-06   -0.84326E-07   750   0.157E-03
   3 F= -.32089831E+03 E0= -.32090934E+03  d E =-.152564E+01
