       N       E                     dE             d eps       ncg     rms          rms(c)
DAV:   1     0.575362443504E+03    0.57536E+03   -0.84962E+04  2592   0.107E+03
DAV:   2    -0.308999916529E+03   -0.88436E+03   -0.83891E+03  3088   0.175E+02
DAV:   3    -0.372809294863E+03   -0.63809E+02   -0.62581E+02  3144   0.414E+01
DAV:   4    -0.374451780519E+03   -0.16425E+01   -0.16301E+01  3144   0.806E+00
DAV:   5    -0.374503312958E+03   -0.51532E-01   -0.51397E-01  3120   0.133E+00    0.302E+01
RMM:   6    -0.368639991400E+03    0.58633E+01   -0.30589E+00  2592   0.275E+00    0.182E+01
RMM:   7    -0.366073743637E+03    0.25662E+01   -0.77334E+00  2646   0.436E+00    0.113E+00
RMM:   8    -0.366110360815E+03   -0.36617E-01   -0.72847E-01  2618   0.166E+00    0.535E-01
RMM:   9    -0.366132998398E+03   -0.22638E-01   -0.21692E-01  2664   0.815E-01    0.605E-01
RMM:  10    -0.366137398329E+03   -0.43999E-02   -0.39351E-02  2740   0.385E-01    0.828E-01
RMM:  11    -0.366133108075E+03    0.42903E-02   -0.13640E-02  2592   0.233E-01    0.623E-01
RMM:  12    -0.366133279211E+03   -0.17114E-03   -0.19083E-03  2617   0.103E-01    0.609E-01
RMM:  13    -0.366133349141E+03   -0.69929E-04   -0.36335E-04  2731   0.422E-02    0.693E-01
RMM:  14    -0.366133342091E+03    0.70501E-05   -0.10174E-04  2602   0.250E-02    0.264E-01
RMM:  15    -0.366133413071E+03   -0.70980E-04   -0.40805E-05  2640   0.134E-02    0.240E-01
RMM:  16    -0.366133462878E+03   -0.49808E-04   -0.28381E-05  2592   0.118E-02    0.171E-01
RMM:  17    -0.366133468270E+03   -0.53915E-05   -0.77186E-06  2558   0.682E-03    0.502E-02
RMM:  18    -0.366133472553E+03   -0.42829E-05   -0.31602E-06  1781   0.408E-03    0.107E-02
RMM:  19    -0.366133473439E+03   -0.88626E-06   -0.10793E-06  1565   0.228E-03
   1 F= -.36613347E+03 E0= -.36614272E+03  d E =-.366133E+03
       N       E                     dE             d eps       ncg     rms          rms(c)
DAV:   1    -0.366157595639E+03   -0.24123E-01   -0.14566E+00  2960   0.232E+00    0.548E-01
RMM:   2    -0.366164618907E+03   -0.70233E-02   -0.72853E-02  2592   0.574E-01    0.222E-01
RMM:   3    -0.366165520446E+03   -0.90154E-03   -0.11326E-02  2635   0.254E-01    0.935E-02
RMM:   4    -0.366165498216E+03    0.22230E-04   -0.15498E-03  2639   0.106E-01    0.348E-02
RMM:   5    -0.366165510672E+03   -0.12456E-04   -0.28550E-04  2680   0.421E-02    0.731E-03
RMM:   6    -0.366165517352E+03   -0.66798E-05   -0.67184E-05  2796   0.186E-02    0.159E-03
RMM:   7    -0.366165518177E+03   -0.82552E-06   -0.88348E-06  2110   0.661E-03    0.202E-03
RMM:   8    -0.366165518281E+03   -0.10376E-06   -0.15921E-06  1661   0.278E-03
   2 F= -.36616552E+03 E0= -.36617177E+03  d E =-.320448E-01
       N       E                     dE             d eps       ncg     rms          rms(c)
DAV:   1    -0.366171597636E+03   -0.60795E-02   -0.12744E-01  2928   0.686E-01    0.163E-01
RMM:   2    -0.366172199398E+03   -0.60176E-03   -0.62190E-03  2592   0.169E-01    0.664E-02
RMM:   3    -0.366172272096E+03   -0.72698E-04   -0.94069E-04  2637   0.745E-02    0.270E-02
RMM:   4    -0.366172270228E+03    0.18675E-05   -0.12811E-04  2633   0.309E-02    0.101E-02
RMM:   5    -0.366172271281E+03   -0.10527E-05   -0.23824E-05  2651   0.121E-02    0.206E-03
RMM:   6    -0.366172271741E+03   -0.45948E-06   -0.52749E-06  1992   0.539E-03    0.402E-04
RMM:   7    -0.366172271822E+03   -0.81593E-07   -0.82719E-07  1552   0.209E-03    0.497E-04
RMM:   8    -0.366172271858E+03   -0.35337E-07   -0.19061E-07  1235   0.999E-04
   3 F= -.36617227E+03 E0= -.36617962E+03  d E =-.387984E-01
