<?xml version="1.0" encoding="ISO-8859-1"?>
<modeling>
 <generator>
  <i name="program" type="string">vasp </i>
  <i name="version" type="string">6.4.3  </i>
  <i name="subversion" type="string">19Mar24 (build Oct 21 2024 22:36:34) complex                          parallel </i>
  <i name="platform" type="string">LinuxIFC </i>
  <i name="date" type="string">2024 11 01 </i>
  <i name="time" type="string">22:56:43 </i>
 </generator>
 <incar>
  <i type="string" name="SYSTEM">Si64</i>
  <i type="int" name="ISTART">     0</i>
  <i type="string" name="PREC">Accurate</i>
  <i type="string" name="ALGO">Fast</i>
  <i type="logical" name="ADDGRID"> T  </i>
  <i type="int" name="ICHARG">     2</i>
  <i type="int" name="NELM">    60</i>
  <i type="int" name="NELMIN">     8</i>
  <i type="int" name="IBRION">     2</i>
  <i name="EDIFF">      0.00000100</i>
  <i name="EDIFFG">     -0.01000000</i>
  <i type="int" name="NSW">    60</i>
  <i type="int" name="ISIF">     2</i>
  <i name="ENCUT">    400.00000000</i>
  <i type="string" name="LREAL">Auto</i>
  <i type="int" name="ISMEAR">     1</i>
  <i name="SIGMA">      0.20000000</i>
  <i type="logical" name="LWAVE"> F  </i>
  <i type="logical" name="LCHARG"> F  </i>
  <i type="logical" name="GGA_COMPAT"> F  </i>
  <i type="string" name="GGA">PS</i>
 </incar>
 <primitive_cell>
  <structure name="primitive_cell" >
   <crystal>
    <varray name="basis" >
     <v>       0.01989400       2.65251839      -2.65251839 </v>
     <v>       0.01989400       2.65251839       2.65251839 </v>
     <v>       2.67241214      -2.63262439       0.00000000 </v>
    </varray>
    <i name="volume">     37.88324540 </i>
    <varray name="rec_basis" >
     <v>       0.18433174       0.18711761      -0.18850011 </v>
     <v>       0.18433174       0.18711761       0.18850011 </v>
     <v>       0.37144937      -0.00278589       0.00000000 </v>
    </varray>
   </crystal>
   <varray name="positions" >
    <v>       0.00000000       0.00000000       0.00000000 </v>
    <v>       0.25000000       0.75000000       0.50000000 </v>
   </varray>
  </structure>
  <varray name="primitive_index" >
   <v type="int" >        1 </v>
   <v type="int" >       15 </v>
  </varray>
 </primitive_cell>
 <kpoints>
  <generation param="Gamma">
   <v type="int" name="divisions">       2        2        2 </v>
   <v name="usershift">      0.00000000       0.00000000       0.00000000 </v>
   <v name="genvec1">      0.50000000       0.00000000       0.00000000 </v>
   <v name="genvec2">      0.00000000       0.50000000       0.00000000 </v>
   <v name="genvec3">      0.00000000       0.00000000       0.50000000 </v>
   <v name="shift">      0.00000000       0.00000000       0.00000000 </v>
  </generation>
  <varray name="kpointlist" >
   <v>       0.00000000       0.00000000       0.00000000 </v>
   <v>       0.50000000      -0.00000000       0.00000000 </v>
   <v>       0.00000000       0.50000000       0.00000000 </v>
   <v>       0.50000000       0.50000000       0.00000000 </v>
   <v>       0.00000000       0.00000000       0.50000000 </v>
   <v>       0.50000000      -0.00000000       0.50000000 </v>
   <v>       0.00000000       0.50000000       0.50000000 </v>
   <v>       0.50000000       0.50000000       0.50000000 </v>
  </varray>
  <varray name="weights" >
   <v>       0.12500000 </v>
   <v>       0.12500000 </v>
   <v>       0.12500000 </v>
   <v>       0.12500000 </v>
   <v>       0.12500000 </v>
   <v>       0.12500000 </v>
   <v>       0.12500000 </v>
   <v>       0.12500000 </v>
  </varray>
 </kpoints>
 <parameters>
  <separator name="general" >
   <i type="string" name="SYSTEM">Si64</i>
   <i type="logical" name="LCOMPAT"> F  </i>
  </separator>
  <separator name="electronic" >
   <i type="string" name="PREC">accura</i>
   <i name="ENMAX">    400.00000000</i>
   <i name="ENAUG">    322.06900000</i>
   <i name="EDIFF">      0.00000100</i>
   <i type="int" name="IALGO">    68</i>
   <i type="int" name="IWAVPR">    11</i>
   <i type="int" name="NBANDS">   162</i>
   <i type="int" name="NBANDSLOW">    -1</i>
   <i type="int" name="NBANDSHIGH">    -1</i>
   <i name="NELECT">    256.00000000</i>
   <i type="int" name="TURBO">     0</i>
   <i type="int" name="IRESTART">     0</i>
   <i type="int" name="NREBOOT">     0</i>
   <i type="int" name="NMIN">     0</i>
   <i name="EREF">      0.00000000</i>
   <separator name="electronic smearing" >
    <i type="int" name="ISMEAR">     1</i>
    <i name="SIGMA">      0.20000000</i>
    <i name="KSPACING">      0.50000000</i>
    <i type="logical" name="KGAMMA"> T  </i>
    <i type="logical" name="KBLOWUP"> T  </i>
   </separator>
   <separator name="electronic projectors" >
    <i type="logical" name="LREAL"> T  </i>
    <v name="ROPT">     -0.00025000</v>
    <i type="int" name="LMAXPAW">  -100</i>
    <i type="int" name="LMAXMIX">     2</i>
    <i type="logical" name="NLSPLINE"> F  </i>
   </separator>
   <separator name="electronic startup" >
    <i type="int" name="ISTART">     0</i>
    <i type="int" name="ICHARG">     2</i>
    <i type="int" name="INIWAV">     1</i>
   </separator>
   <separator name="electronic spin" >
    <i type="int" name="ISPIN">     1</i>
    <i type="logical" name="LNONCOLLINEAR"> F  </i>
    <v name="MAGMOM">      1.00000000      1.00000000      1.00000000      1.00000000      1.00000000      1.00000000      1.00000000      1.00000000      1.00000000      1.00000000      1.00000000      1.00000000      1.00000000      1.00000000      1.00000000      1.00000000      1.00000000      1.00000000      1.00000000      1.00000000
      1.00000000      1.00000000      1.00000000      1.00000000      1.00000000      1.00000000      1.00000000      1.00000000      1.00000000      1.00000000      1.00000000      1.00000000      1.00000000      1.00000000      1.00000000      1.00000000      1.00000000      1.00000000      1.00000000      1.00000000
      1.00000000      1.00000000      1.00000000      1.00000000      1.00000000      1.00000000      1.00000000      1.00000000      1.00000000      1.00000000      1.00000000      1.00000000      1.00000000      1.00000000      1.00000000      1.00000000      1.00000000      1.00000000      1.00000000      1.00000000
      1.00000000      1.00000000      1.00000000      1.00000000</v>
    <i name="NUPDOWN">     -1.00000000</i>
    <i type="logical" name="LSORBIT"> F  </i>
    <v name="SAXIS">      0.00000000      0.00000000      1.00000000</v>
    <i type="logical" name="LSPIRAL"> F  </i>
    <v name="QSPIRAL">      0.00000000      0.00000000      0.00000000</v>
    <i type="logical" name="LZEROZ"> F  </i>
   </separator>
   <separator name="electronic exchange-correlation" >
    <i type="logical" name="LASPH"> F  </i>
   </separator>
   <separator name="electronic convergence" >
    <i type="int" name="NELM">    60</i>
    <i type="int" name="NELMDL">    -5</i>
    <i type="int" name="NELMIN">     8</i>
    <i name="ENINI">    400.00000000</i>
    <separator name="electronic convergence detail" >
     <i type="logical" name="LDIAG"> T  </i>
     <i type="logical" name="LSUBROT"> F  </i>
     <i name="WEIMIN">      0.00100000</i>
     <i name="EBREAK">      0.00000000</i>
     <i name="DEPER">      0.30000000</i>
     <i type="int" name="NRMM">     4</i>
     <i name="TIME">      0.40000000</i>
    </separator>
   </separator>
   <separator name="electronic mixer" >
    <i name="AMIX">      0.40000000</i>
    <i name="BMIX">      1.00000000</i>
    <i name="AMIN">      0.10000000</i>
    <i name="AMIX_MAG">      1.60000000</i>
    <i name="BMIX_MAG">      1.00000000</i>
    <separator name="electronic mixer details" >
     <i type="int" name="IMIX">     4</i>
     <i type="logical" name="MIXFIRST"> F  </i>
     <i type="int" name="MAXMIX">   -45</i>
     <i name="WC">    100.00000000</i>
     <i type="int" name="INIMIX">     1</i>
     <i type="int" name="MIXPRE">     1</i>
     <i type="int" name="MREMOVE">     5</i>
    </separator>
   </separator>
   <separator name="electronic dipolcorrection" >
    <i type="logical" name="LDIPOL"> F  </i>
    <i type="logical" name="LMONO"> F  </i>
    <i type="int" name="IDIPOL">     0</i>
    <i name="EPSILON">      1.00000000</i>
    <v name="DIPOL">   -100.00000000   -100.00000000   -100.00000000</v>
    <i name="EFIELD">      0.00000000</i>
    <i type="logical" name="LVACPOTAV"> F  </i>
   </separator>
  </separator>
  <separator name="grids" >
   <i type="int" name="NGX">    70</i>
   <i type="int" name="NGY">    70</i>
   <i type="int" name="NGZ">    70</i>
   <i type="int" name="NGXF">   140</i>
   <i type="int" name="NGYF">   140</i>
   <i type="int" name="NGZF">   140</i>
   <i type="logical" name="ADDGRID"> T  </i>
  </separator>
  <separator name="ionic" >
   <i type="int" name="NSW">    60</i>
   <i type="int" name="IBRION">     2</i>
   <i type="int" name="MDALGO">     0</i>
   <i type="int" name="ISIF">     2</i>
   <i name="PSTRESS">      0.00000000</i>
   <i name="EDIFFG">     -0.01000000</i>
   <i type="int" name="NFREE">     1</i>
   <i name="POTIM">      0.50000000</i>
   <i name="SMASS">     -3.00000000</i>
   <i name="SCALEE">      1.00000000</i>
  </separator>
  <separator name="ionic md" >
   <i name="TEBEG">      0.00010000</i>
   <i name="TEEND">      0.00010000</i>
   <i type="int" name="NBLOCK">     1</i>
   <i type="int" name="KBLOCK">    60</i>
   <i type="int" name="NPACO">   256</i>
   <i name="APACO">     10.00000000</i>
  </separator>
  <separator name="symmetry" >
   <i type="int" name="ISYM">     2</i>
   <i name="SYMPREC">      0.00001000</i>
  </separator>
  <separator name="dos" >
   <i type="int" name="LORBIT">     0</i>
   <v name="RWIGS">     -1.00000000</v>
   <i type="int" name="NEDOS">   301</i>
   <i name="EMIN">     10.00000000</i>
   <i name="EMAX">    -10.00000000</i>
   <i name="EFERMI">      0.00000000</i>
  </separator>
  <separator name="writing" >
   <i type="int" name="NWRITE">     2</i>
   <i type="logical" name="LWAVE"> F  </i>
   <i type="logical" name="LDOWNSAMPLE"> F  </i>
   <i type="logical" name="LCHARG"> F  </i>
   <i type="logical" name="LPARD"> F  </i>
   <i type="logical" name="LVTOT"> F  </i>
   <i type="logical" name="LVHAR"> F  </i>
   <i type="logical" name="LELF"> F  </i>
   <i type="logical" name="LOPTICS"> F  </i>
   <v name="STM">      0.00000000      0.00000000      0.00000000      0.00000000      0.00000000      0.00000000      0.00000000</v>
  </separator>
  <separator name="performance" >
   <i type="int" name="NPAR">     2</i>
   <i type="int" name="NSIM">     4</i>
   <i type="int" name="NBLK">    -1</i>
   <i type="logical" name="LPLANE"> T  </i>
   <i type="logical" name="LSCALAPACK"> T  </i>
   <i type="logical" name="LSCAAWARE"> F  </i>
   <i type="logical" name="LSCALU"> F  </i>
   <i type="logical" name="LASYNC"> F  </i>
   <i type="logical" name="LORBITALREAL"> F  </i>
  </separator>
  <separator name="miscellaneous" >
   <i type="int" name="IDIOT">     3</i>
   <i type="int" name="PHON_NSTRUCT">    -1</i>
   <i type="logical" name="LMUSIC"> F  </i>
   <v name="POMASS">     28.08500000</v>
   <v name="DARWINR">      0.00000000</v>
   <v name="DARWINV">      1.00000000</v>
   <i type="logical" name="LCORR"> T  </i>
  </separator>
  <i type="logical" name="GGA_COMPAT"> F  </i>
  <i type="logical" name="LBERRY"> F  </i>
  <i type="int" name="ICORELEVEL">     0</i>
  <i type="logical" name="LDAU"> F  </i>
  <i type="int" name="I_CONSTRAINED_M">     0</i>
  <separator name="electronic exchange-correlation" >
   <i type="string" name="GGA    ">PS</i>
   <i type="string" name="XC_C">1</i>
   <i type="int" name="VOSKOWN">     0</i>
   <i type="logical" name="LHFCALC"> F  </i>
   <i type="string" name="PRECFOCK"></i>
   <i type="logical" name="LSYMGRAD"> F  </i>
   <i type="logical" name="LHFONE"> F  </i>
   <i type="logical" name="LRHFCALC"> F  </i>
   <i type="logical" name="LTHOMAS"> F  </i>
   <i type="logical" name="LMODELHF"> F  </i>
   <i type="logical" name="LFOCKACE"> F  </i>
   <i name="ENCUT4O">     -1.00000000</i>
   <i type="int" name="EXXOEP">     0</i>
   <i type="int" name="FOURORBIT">     0</i>
   <i name="AEXX">      0.00000000</i>
   <i name="HFALPHA">      0.00000000</i>
   <i name="MCALPHA">      0.00000000</i>
   <i name="ALDAX">      1.00000000</i>
   <i name="AGGAX">      1.00000000</i>
   <i name="AMGGAX">      1.00000000</i>
   <i name="ALDAC">      1.00000000</i>
   <i name="AGGAC">      1.00000000</i>
   <i name="AMGGAC">      1.00000000</i>
   <i type="int" name="NKREDX">     1</i>
   <i type="int" name="NKREDY">     1</i>
   <i type="int" name="NKREDZ">     1</i>
   <i type="logical" name="SHIFTRED"> F  </i>
   <i type="logical" name="ODDONLY"> F  </i>
   <i type="logical" name="EVENONLY"> F  </i>
   <i type="int" name="LMAXFOCK">     0</i>
   <i type="int" name="NMAXFOCKAE">     0</i>
   <i type="logical" name="LFOCKAEDFT"> F  </i>
   <i name="HFSCREEN">      0.00000000</i>
   <i name="HFSCREENC">      0.00000000</i>
   <i type="int" name="NBANDSGWLOW">     0</i>
  </separator>
  <separator name="vdW DFT" >
   <i type="logical" name="LUSE_VDW"> F  </i>
   <i type="int" name="IVDW_NL">    -1</i>
   <i type="logical" name="LSPIN_VDW"> F  </i>
   <i name="ZAB_VDW">     -0.84910000</i>
   <i name="GAMMA_VDW">      1.39626340</i>
   <i name="ALPHA_VDW">      0.00000000</i>
   <i name="PARAM1">      0.12340000</i>
   <i name="PARAM2">      1.00000000</i>
   <i name="BPARAM">      6.30000000</i>
   <i name="CPARAM">      0.00930000</i>
  </separator>
  <separator name="model GW" >
   <i type="int" name="MODEL_GW">     0</i>
   <i name="MODEL_EPS0">     11.36497362</i>
   <i name="MODEL_ALPHA">      1.00000000</i>
  </separator>
  <separator name="linear response parameters" >
   <i type="logical" name="LEPSILON"> F  </i>
   <i type="logical" name="LRPA"> F  </i>
   <i type="logical" name="LNABLA"> F  </i>
   <i type="logical" name="LVEL"> F  </i>
   <i name="CSHIFT">      0.10000000</i>
   <i name="OMEGAMAX">     -1.00000000</i>
   <i name="DEG_THRESHOLD">      0.00200000</i>
   <i name="RTIME">     -0.10000000</i>
   <i name="WPLASMAI">      0.00000000</i>
   <v name="DFIELD">      0.00000000      0.00000000      0.00000000</v>
   <v name="WPLASMA">      0.00000000      0.00000000      0.00000000      0.00000000      0.00000000      0.00000000      0.00000000      0.00000000      0.00000000</v>
  </separator>
  <separator name="orbital magnetization" >
   <i type="logical" name="NUCIND"> F  </i>
   <v name="MAGPOS">      0.00000000      0.00000000      0.00000000</v>
   <i type="logical" name="LNICSALL"> T  </i>
   <i type="logical" name="ORBITALMAG"> F  </i>
   <i type="logical" name="LMAGBLOCH"> F  </i>
   <i type="logical" name="LCHIMAG"> F  </i>
   <i type="logical" name="LGAUGE"> T  </i>
   <i type="int" name="MAGATOM">     0</i>
   <v name="MAGDIPOL">      0.00000000      0.00000000      0.00000000</v>
   <v name="AVECCONST">      0.00000000      0.00000000      0.00000000</v>
  </separator>
  <separator name="response functions" >
   <i type="logical" name="LALL_IN_ONE"> F  </i>
   <i type="int" name="IALL_IN_ONE">    -1</i>
   <i type="int" name="NBANDS_WAVE">    -1</i>
   <i type="logical" name="LFINITE_TEMPERATURE"> F  </i>
   <i type="logical" name="LADDER"> F  </i>
   <i type="logical" name="LRPAFORCE"> F  </i>
   <i type="logical" name="LFXC"> F  </i>
   <i type="logical" name="LHARTREE"> T  </i>
   <i type="int" name="IBSE">     0</i>
   <v type="int" name="KPOINT">    -1     0     0     0</v>
   <i type="logical" name="LTCTC"> F  </i>
   <i type="logical" name="LTCTE"> F  </i>
   <i type="logical" name="LTETE"> F  </i>
   <i type="logical" name="LTRIPLET"> F  </i>
   <i type="logical" name="LFXCEPS"> F  </i>
   <i type="logical" name="LFXHEG"> F  </i>
   <i type="int" name="NATURALO">     2</i>
   <i type="logical" name="LHOLEGF"> F  </i>
   <i type="logical" name="L2ORDER"> F  </i>
   <i type="logical" name="LDMP1"> F  </i>
   <i type="logical" name="LMP2LT"> F  </i>
   <i type="logical" name="LSMP2LT"> F  </i>
   <i type="logical" name="LGWLF"> F  </i>
   <i name="ENCUTGW">     -1.60000002</i>
   <i name="ENCUTGWSOFT">     -1.60000002</i>
   <i name="ENCUTLF">     -1.00000000</i>
   <i type="logical" name="ESF_SPLINES"> F  </i>
   <i name="ESF_CONV">      0.01000000</i>
   <i type="int" name="ESF_NINTER">    15</i>
   <i type="int" name="LMAXMP2">    -1</i>
   <i name="SCISSOR">      0.00000000</i>
   <i type="int" name="NOMEGA">     0</i>
   <i type="int" name="NOMEGAR">     0</i>
   <i type="int" name="NBANDSGW">    -1</i>
   <i type="int" name="NBANDSO">    -1</i>
   <i type="int" name="NBANDSV">    -1</i>
   <i type="int" name="NELMGW">     1</i>
   <i type="int" name="NELMHF">     1</i>
   <i type="int" name="DIM">     3</i>
   <i type="int" name="IESPILON">     4</i>
   <i type="int" name="ANTIRES">     0</i>
   <i name="OMEGAMAX">    -30.00000000</i>
   <i name="OMEGAMIN">    -30.00000000</i>
   <i name="OMEGATL">   -200.00000000</i>
   <i type="int" name="OMEGAGRID">     0</i>
   <i name="CSHIFT">     -0.10000000</i>
   <i type="logical" name="LSELFENERGY"> F  </i>
   <i type="logical" name="LSPECTRAL"> F  </i>
   <i type="logical" name="LSPECTRALGW"> F  </i>
   <i type="logical" name="LSINGLES"> F  </i>
   <i type="logical" name="LFERMIGW"> F  </i>
   <i type="logical" name="ODDONLYGW"> F  </i>
   <i type="logical" name="EVENONLYGW"> F  </i>
   <i type="int" name="NKREDLFX">     1</i>
   <i type="int" name="NKREDLFY">     1</i>
   <i type="int" name="NKREDLFZ">     1</i>
   <i type="int" name="MAXMEM">  2800</i>
   <i type="int" name="TELESCOPE">     0</i>
   <i type="int" name="NTAUPAR">    -1</i>
   <i type="int" name="NOMEGAPAR">    -1</i>
   <i name="DAMP_NEWTON">      0.80000001</i>
   <i name="LAMBDA">      1.00000000</i>
  </separator>
  <separator name="External order field" >
   <i name="OFIELD_KAPPA">      0.00000000</i>
   <v name="OFIELD_K">      0.00000000      0.00000000      0.00000000</v>
   <i name="OFIELD_Q6_NEAR">      0.00000000</i>
   <i name="OFIELD_Q6_FAR">      0.00000000</i>
   <i name="OFIELD_A">      0.00000000</i>
  </separator>
  <separator name="optional k-points parameters" >
   <i type="int" name="KPOINTS_OPT_MODE">     1</i>
   <i type="logical" name="LKPOINTS_OPT"> F  </i>
  </separator>
 </parameters>
 <atominfo>
  <atoms>      64 </atoms>
  <types>       1 </types>
  <array name="atoms" >
   <dimension dim="1">ion</dimension>
   <field type="string">element</field>
   <field type="int">atomtype</field>
   <set>
    <rc><c>Si</c><c>   1</c></rc>
    <rc><c>Si</c><c>   1</c></rc>
    <rc><c>Si</c><c>   1</c></rc>
    <rc><c>Si</c><c>   1</c></rc>
    <rc><c>Si</c><c>   1</c></rc>
    <rc><c>Si</c><c>   1</c></rc>
    <rc><c>Si</c><c>   1</c></rc>
    <rc><c>Si</c><c>   1</c></rc>
    <rc><c>Si</c><c>   1</c></rc>
    <rc><c>Si</c><c>   1</c></rc>
    <rc><c>Si</c><c>   1</c></rc>
    <rc><c>Si</c><c>   1</c></rc>
    <rc><c>Si</c><c>   1</c></rc>
    <rc><c>Si</c><c>   1</c></rc>
    <rc><c>Si</c><c>   1</c></rc>
    <rc><c>Si</c><c>   1</c></rc>
    <rc><c>Si</c><c>   1</c></rc>
    <rc><c>Si</c><c>   1</c></rc>
    <rc><c>Si</c><c>   1</c></rc>
    <rc><c>Si</c><c>   1</c></rc>
    <rc><c>Si</c><c>   1</c></rc>
    <rc><c>Si</c><c>   1</c></rc>
    <rc><c>Si</c><c>   1</c></rc>
    <rc><c>Si</c><c>   1</c></rc>
    <rc><c>Si</c><c>   1</c></rc>
    <rc><c>Si</c><c>   1</c></rc>
    <rc><c>Si</c><c>   1</c></rc>
    <rc><c>Si</c><c>   1</c></rc>
    <rc><c>Si</c><c>   1</c></rc>
    <rc><c>Si</c><c>   1</c></rc>
    <rc><c>Si</c><c>   1</c></rc>
    <rc><c>Si</c><c>   1</c></rc>
    <rc><c>Si</c><c>   1</c></rc>
    <rc><c>Si</c><c>   1</c></rc>
    <rc><c>Si</c><c>   1</c></rc>
    <rc><c>Si</c><c>   1</c></rc>
    <rc><c>Si</c><c>   1</c></rc>
    <rc><c>Si</c><c>   1</c></rc>
    <rc><c>Si</c><c>   1</c></rc>
    <rc><c>Si</c><c>   1</c></rc>
    <rc><c>Si</c><c>   1</c></rc>
    <rc><c>Si</c><c>   1</c></rc>
    <rc><c>Si</c><c>   1</c></rc>
    <rc><c>Si</c><c>   1</c></rc>
    <rc><c>Si</c><c>   1</c></rc>
    <rc><c>Si</c><c>   1</c></rc>
    <rc><c>Si</c><c>   1</c></rc>
    <rc><c>Si</c><c>   1</c></rc>
    <rc><c>Si</c><c>   1</c></rc>
    <rc><c>Si</c><c>   1</c></rc>
    <rc><c>Si</c><c>   1</c></rc>
    <rc><c>Si</c><c>   1</c></rc>
    <rc><c>Si</c><c>   1</c></rc>
    <rc><c>Si</c><c>   1</c></rc>
    <rc><c>Si</c><c>   1</c></rc>
    <rc><c>Si</c><c>   1</c></rc>
    <rc><c>Si</c><c>   1</c></rc>
    <rc><c>Si</c><c>   1</c></rc>
    <rc><c>Si</c><c>   1</c></rc>
    <rc><c>Si</c><c>   1</c></rc>
    <rc><c>Si</c><c>   1</c></rc>
    <rc><c>Si</c><c>   1</c></rc>
    <rc><c>Si</c><c>   1</c></rc>
    <rc><c>Si</c><c>   1</c></rc>
   </set>
  </array>
  <array name="atomtypes" >
   <dimension dim="1">type</dimension>
   <field type="int">atomspertype</field>
   <field type="string">element</field>
   <field>mass</field>
   <field>valence</field>
   <field type="string">pseudopotential</field>
   <set>
    <rc><c>  64</c><c>Si</c><c>     28.08500000</c><c>      4.00000000</c><c>  PAW_PBE Si 05Jan2001                  </c></rc>
   </set>
  </array>
 </atominfo>
 <structure name="initialpos" >
  <crystal>
   <varray name="basis" >
    <v>      10.76922459       0.07957601       0.00000000 </v>
    <v>       0.07957601      10.61007357       0.00000000 </v>
    <v>       0.00000000       0.00000000      10.61007357 </v>
   </varray>
   <i name="volume">   1212.26385269 </i>
   <varray name="rec_basis" >
    <v>       0.09286234      -0.00069647       0.00000000 </v>
    <v>      -0.00069647       0.09425528       0.00000000 </v>
    <v>       0.00000000       0.00000000       0.09425005 </v>
   </varray>
  </crystal>
  <varray name="positions" >
   <v>       0.00000000       0.00000000       0.00000000 </v>
   <v>       0.00000000       0.00000000       0.50000000 </v>
   <v>       0.00000000       0.50000000       0.00000000 </v>
   <v>       0.00000000       0.50000000       0.50000000 </v>
   <v>       0.50000000       0.00000000       0.00000000 </v>
   <v>       0.50000000       0.00000000       0.50000000 </v>
   <v>       0.50000000       0.50000000       0.00000000 </v>
   <v>       0.50000000       0.50000000       0.50000000 </v>
   <v>       0.37500000       0.37500000       0.12500000 </v>
   <v>       0.37500000       0.37500000       0.62500000 </v>
   <v>       0.37500000       0.87500000       0.12500000 </v>
   <v>       0.37500000       0.87500000       0.62500000 </v>
   <v>       0.87500000       0.37500000       0.12500000 </v>
   <v>       0.87500000       0.37500000       0.62500000 </v>
   <v>       0.87500000       0.87500000       0.12500000 </v>
   <v>       0.87500000       0.87500000       0.62500000 </v>
   <v>       0.00000000       0.25000000       0.25000000 </v>
   <v>       0.00000000       0.25000000       0.75000000 </v>
   <v>       0.00000000       0.75000000       0.25000000 </v>
   <v>       0.00000000       0.75000000       0.75000000 </v>
   <v>       0.50000000       0.25000000       0.25000000 </v>
   <v>       0.50000000       0.25000000       0.75000000 </v>
   <v>       0.50000000       0.75000000       0.25000000 </v>
   <v>       0.50000000       0.75000000       0.75000000 </v>
   <v>       0.37500000       0.12500000       0.37500000 </v>
   <v>       0.37500000       0.12500000       0.87500000 </v>
   <v>       0.37500000       0.62500000       0.37500000 </v>
   <v>       0.37500000       0.62500000       0.87500000 </v>
   <v>       0.87500000       0.12500000       0.37500000 </v>
   <v>       0.87500000       0.12500000       0.87500000 </v>
   <v>       0.87500000       0.62500000       0.37500000 </v>
   <v>       0.87500000       0.62500000       0.87500000 </v>
   <v>       0.25000000       0.00000000       0.25000000 </v>
   <v>       0.25000000       0.00000000       0.75000000 </v>
   <v>       0.25000000       0.50000000       0.25000000 </v>
   <v>       0.25000000       0.50000000       0.75000000 </v>
   <v>       0.75000000       0.00000000       0.25000000 </v>
   <v>       0.75000000       0.00000000       0.75000000 </v>
   <v>       0.75000000       0.50000000       0.25000000 </v>
   <v>       0.75000000       0.50000000       0.75000000 </v>
   <v>       0.12500000       0.37500000       0.37500000 </v>
   <v>       0.12500000       0.37500000       0.87500000 </v>
   <v>       0.12500000       0.87500000       0.37500000 </v>
   <v>       0.12500000       0.87500000       0.87500000 </v>
   <v>       0.62500000       0.37500000       0.37500000 </v>
   <v>       0.62500000       0.37500000       0.87500000 </v>
   <v>       0.62500000       0.87500000       0.37500000 </v>
   <v>       0.62500000       0.87500000       0.87500000 </v>
   <v>       0.25000000       0.25000000       0.00000000 </v>
   <v>       0.25000000       0.25000000       0.50000000 </v>
   <v>       0.25000000       0.75000000       0.00000000 </v>
   <v>       0.25000000       0.75000000       0.50000000 </v>
   <v>       0.75000000       0.25000000       0.00000000 </v>
   <v>       0.75000000       0.25000000       0.50000000 </v>
   <v>       0.75000000       0.75000000       0.00000000 </v>
   <v>       0.75000000       0.75000000       0.50000000 </v>
   <v>       0.12500000       0.12500000       0.12500000 </v>
   <v>       0.12500000       0.12500000       0.62500000 </v>
   <v>       0.12500000       0.62500000       0.12500000 </v>
   <v>       0.12500000       0.62500000       0.62500000 </v>
   <v>       0.62500000       0.12500000       0.12500000 </v>
   <v>       0.62500000       0.12500000       0.62500000 </v>
   <v>       0.62500000       0.62500000       0.12500000 </v>
   <v>       0.62500000       0.62500000       0.62500000 </v>
  </varray>
 </structure>
 <calculation>
  <scstep>
   <time name="dav">    1.27    1.36</time>
   <time name="total">    1.46    1.57</time>
   <energy>
    <i name="alphaZ">    113.74106673 </i>
    <i name="ewald">  -7449.33894463 </i>
    <i name="hartreedc">   -326.14728570 </i>
    <i name="XCdc">   -552.02368933 </i>
    <i name="pawpsdc">   5598.62625415 </i>
    <i name="pawaedc">  -4492.17844134 </i>
    <i name="eentropy">     -0.00897907 </i>
    <i name="bandstr">   1117.89660171 </i>
    <i name="atom">   6564.79586099 </i>
    <i name="e_fr_energy">    575.36244350 </i>
    <i name="e_wo_entrp">    575.37142258 </i>
    <i name="e_0_energy">    575.36543653 </i>
   </energy>
  </scstep>
  <scstep>
   <time name="dav">    1.33    1.34</time>
   <time name="total">    1.34    1.34</time>
   <energy>
    <i name="e_fr_energy">   -308.99991653 </i>
    <i name="e_wo_entrp">   -309.01542381 </i>
    <i name="e_0_energy">   -309.00508562 </i>
   </energy>
  </scstep>
  <scstep>
   <time name="dav">    1.35    1.37</time>
   <time name="total">    1.36    1.37</time>
   <energy>
    <i name="e_fr_energy">   -372.80929486 </i>
    <i name="e_wo_entrp">   -372.81631606 </i>
    <i name="e_0_energy">   -372.81163526 </i>
   </energy>
  </scstep>
  <scstep>
   <time name="dav">    1.32    1.34</time>
   <time name="total">    1.32    1.34</time>
   <energy>
    <i name="e_fr_energy">   -374.45178052 </i>
    <i name="e_wo_entrp">   -374.45960633 </i>
    <i name="e_0_energy">   -374.45438912 </i>
   </energy>
  </scstep>
  <scstep>
   <time name="dav">    1.31    1.33</time>
   <time name="total">    1.57    1.59</time>
   <energy>
    <i name="e_fr_energy">   -374.50331296 </i>
    <i name="e_wo_entrp">   -374.51113411 </i>
    <i name="e_0_energy">   -374.50592001 </i>
   </energy>
  </scstep>
  <scstep>
   <time name="diag">    0.14    0.14</time>
   <time name="diis">    0.70    0.70</time>
   <time name="orth">    0.02    0.02</time>
   <time name="total">    1.25    1.27</time>
   <energy>
    <i name="e_fr_energy">   -368.63999140 </i>
    <i name="e_wo_entrp">   -368.66064161 </i>
    <i name="e_0_energy">   -368.64687480 </i>
   </energy>
  </scstep>
  <scstep>
   <time name="diag">    0.14    0.14</time>
   <time name="diis">    0.70    0.70</time>
   <time name="orth">    0.02    0.02</time>
   <time name="total">    1.25    1.27</time>
   <energy>
    <i name="e_fr_energy">   -366.07374364 </i>
    <i name="e_wo_entrp">   -366.09711875 </i>
    <i name="e_0_energy">   -366.08153534 </i>
   </energy>
  </scstep>
  <scstep>
   <time name="diag">    0.14    0.14</time>
   <time name="diis">    0.71    0.72</time>
   <time name="orth">    0.02    0.02</time>
   <time name="total">    1.27    1.28</time>
   <energy>
    <i name="e_fr_energy">   -366.11036081 </i>
    <i name="e_wo_entrp">   -366.13785114 </i>
    <i name="e_0_energy">   -366.11952426 </i>
   </energy>
  </scstep>
  <scstep>
   <time name="diag">    0.13    0.13</time>
   <time name="diis">    0.72    0.72</time>
   <time name="orth">    0.02    0.02</time>
   <time name="total">    1.26    1.28</time>
   <energy>
    <i name="e_fr_energy">   -366.13299840 </i>
    <i name="e_wo_entrp">   -366.15958512 </i>
    <i name="e_0_energy">   -366.14186064 </i>
   </energy>
  </scstep>
  <scstep>
   <time name="diag">    0.13    0.13</time>
   <time name="diis">    0.72    0.73</time>
   <time name="orth">    0.02    0.02</time>
   <time name="total">    1.28    1.29</time>
   <energy>
    <i name="e_fr_energy">   -366.13739833 </i>
    <i name="e_wo_entrp">   -366.16391039 </i>
    <i name="e_0_energy">   -366.14623568 </i>
   </energy>
  </scstep>
  <scstep>
   <time name="diag">    0.13    0.13</time>
   <time name="diis">    0.70    0.70</time>
   <time name="orth">    0.02    0.02</time>
   <time name="total">    1.24    1.27</time>
   <energy>
    <i name="e_fr_energy">   -366.13310808 </i>
    <i name="e_wo_entrp">   -366.16072757 </i>
    <i name="e_0_energy">   -366.14231457 </i>
   </energy>
  </scstep>
  <scstep>
   <time name="diag">    0.14    0.14</time>
   <time name="diis">    0.72    0.72</time>
   <time name="orth">    0.02    0.02</time>
   <time name="total">    1.26    1.29</time>
   <energy>
    <i name="e_fr_energy">   -366.13327921 </i>
    <i name="e_wo_entrp">   -366.16092615 </i>
    <i name="e_0_energy">   -366.14249486 </i>
   </energy>
  </scstep>
  <scstep>
   <time name="diag">    0.14    0.14</time>
   <time name="diis">    0.73    0.73</time>
   <time name="orth">    0.02    0.02</time>
   <time name="total">    1.27    1.29</time>
   <energy>
    <i name="e_fr_energy">   -366.13334914 </i>
    <i name="e_wo_entrp">   -366.16099918 </i>
    <i name="e_0_energy">   -366.14256582 </i>
   </energy>
  </scstep>
  <scstep>
   <time name="diag">    0.13    0.13</time>
   <time name="diis">    0.69    0.69</time>
   <time name="orth">    0.02    0.02</time>
   <time name="total">    1.24    1.26</time>
   <energy>
    <i name="e_fr_energy">   -366.13334209 </i>
    <i name="e_wo_entrp">   -366.16101425 </i>
    <i name="e_0_energy">   -366.14256615 </i>
   </energy>
  </scstep>
  <scstep>
   <time name="diag">    0.13    0.13</time>
   <time name="diis">    0.71    0.72</time>
   <time name="orth">    0.02    0.02</time>
   <time name="total">    1.25    1.27</time>
   <energy>
    <i name="e_fr_energy">   -366.13341307 </i>
    <i name="e_wo_entrp">   -366.16112045 </i>
    <i name="e_0_energy">   -366.14264886 </i>
   </energy>
  </scstep>
  <scstep>
   <time name="diag">    0.14    0.14</time>
   <time name="diis">    0.70    0.70</time>
   <time name="orth">    0.02    0.02</time>
   <time name="total">    1.25    1.27</time>
   <energy>
    <i name="e_fr_energy">   -366.13346288 </i>
    <i name="e_wo_entrp">   -366.16117941 </i>
    <i name="e_0_energy">   -366.14270172 </i>
   </energy>
  </scstep>
  <scstep>
   <time name="diag">    0.13    0.13</time>
   <time name="diis">    0.68    0.68</time>
   <time name="orth">    0.02    0.02</time>
   <time name="total">    1.22    1.24</time>
   <energy>
    <i name="e_fr_energy">   -366.13346827 </i>
    <i name="e_wo_entrp">   -366.16119688 </i>
    <i name="e_0_energy">   -366.14271114 </i>
   </energy>
  </scstep>
  <scstep>
   <time name="diag">    0.13    0.13</time>
   <time name="diis">    0.50    0.50</time>
   <time name="orth">    0.02    0.02</time>
   <time name="total">    1.05    1.06</time>
   <energy>
    <i name="e_fr_energy">   -366.13347255 </i>
    <i name="e_wo_entrp">   -366.16120607 </i>
    <i name="e_0_energy">   -366.14271706 </i>
   </energy>
  </scstep>
  <scstep>
   <time name="diag">    0.13    0.13</time>
   <time name="diis">    0.44    0.45</time>
   <time name="orth">    0.02    0.02</time>
   <time name="total">    0.74    0.76</time>
   <energy>
    <i name="alphaZ">    113.74106673 </i>
    <i name="ewald">  -7449.33894463 </i>
    <i name="hartreedc">   -447.71263268 </i>
    <i name="XCdc">   -531.42113360 </i>
    <i name="pawpsdc">  31329.90694144 </i>
    <i name="pawaedc"> -30231.77547462 </i>
    <i name="eentropy">      0.02773507 </i>
    <i name="bandstr">    285.64310786 </i>
    <i name="atom">   6564.79586099 </i>
    <i name="e_fr_energy">   -366.13347344 </i>
    <i name="e_wo_entrp">   -366.16120850 </i>
    <i name="e_0_energy">   -366.14271846 </i>
   </energy>
  </scstep>
  <structure>
   <crystal>
    <varray name="basis" >
     <v>      10.76922459       0.07957601       0.00000000 </v>
     <v>       0.07957601      10.61007357       0.00000000 </v>
     <v>       0.00000000       0.00000000      10.61007357 </v>
    </varray>
    <i name="volume">   1212.26385269 </i>
    <varray name="rec_basis" >
     <v>       0.09286234      -0.00069647       0.00000000 </v>
     <v>      -0.00069647       0.09425528       0.00000000 </v>
     <v>       0.00000000       0.00000000       0.09425005 </v>
    </varray>
   </crystal>
   <varray name="positions" >
    <v>       0.00000000       0.00000000       0.00000000 </v>
    <v>       0.00000000       0.00000000       0.50000000 </v>
    <v>       0.00000000       0.50000000       0.00000000 </v>
    <v>       0.00000000       0.50000000       0.50000000 </v>
    <v>       0.50000000       0.00000000       0.00000000 </v>
    <v>       0.50000000       0.00000000       0.50000000 </v>
    <v>       0.50000000       0.50000000       0.00000000 </v>
    <v>       0.50000000       0.50000000       0.50000000 </v>
    <v>       0.37500000       0.37500000       0.12500000 </v>
    <v>       0.37500000       0.37500000       0.62500000 </v>
    <v>       0.37500000       0.87500000       0.12500000 </v>
    <v>       0.37500000       0.87500000       0.62500000 </v>
    <v>       0.87500000       0.37500000       0.12500000 </v>
    <v>       0.87500000       0.37500000       0.62500000 </v>
    <v>       0.87500000       0.87500000       0.12500000 </v>
    <v>       0.87500000       0.87500000       0.62500000 </v>
    <v>       0.00000000       0.25000000       0.25000000 </v>
    <v>       0.00000000       0.25000000       0.75000000 </v>
    <v>       0.00000000       0.75000000       0.25000000 </v>
    <v>       0.00000000       0.75000000       0.75000000 </v>
    <v>       0.50000000       0.25000000       0.25000000 </v>
    <v>       0.50000000       0.25000000       0.75000000 </v>
    <v>       0.50000000       0.75000000       0.25000000 </v>
    <v>       0.50000000       0.75000000       0.75000000 </v>
    <v>       0.37500000       0.12500000       0.37500000 </v>
    <v>       0.37500000       0.12500000       0.87500000 </v>
    <v>       0.37500000       0.62500000       0.37500000 </v>
    <v>       0.37500000       0.62500000       0.87500000 </v>
    <v>       0.87500000       0.12500000       0.37500000 </v>
    <v>       0.87500000       0.12500000       0.87500000 </v>
    <v>       0.87500000       0.62500000       0.37500000 </v>
    <v>       0.87500000       0.62500000       0.87500000 </v>
    <v>       0.25000000       0.00000000       0.25000000 </v>
    <v>       0.25000000       0.00000000       0.75000000 </v>
    <v>       0.25000000       0.50000000       0.25000000 </v>
    <v>       0.25000000       0.50000000       0.75000000 </v>
    <v>       0.75000000       0.00000000       0.25000000 </v>
    <v>       0.75000000       0.00000000       0.75000000 </v>
    <v>       0.75000000       0.50000000       0.25000000 </v>
    <v>       0.75000000       0.50000000       0.75000000 </v>
    <v>       0.12500000       0.37500000       0.37500000 </v>
    <v>       0.12500000       0.37500000       0.87500000 </v>
    <v>       0.12500000       0.87500000       0.37500000 </v>
    <v>       0.12500000       0.87500000       0.87500000 </v>
    <v>       0.62500000       0.37500000       0.37500000 </v>
    <v>       0.62500000       0.37500000       0.87500000 </v>
    <v>       0.62500000       0.87500000       0.37500000 </v>
    <v>       0.62500000       0.87500000       0.87500000 </v>
    <v>       0.25000000       0.25000000       0.00000000 </v>
    <v>       0.25000000       0.25000000       0.50000000 </v>
    <v>       0.25000000       0.75000000       0.00000000 </v>
    <v>       0.25000000       0.75000000       0.50000000 </v>
    <v>       0.75000000       0.25000000       0.00000000 </v>
    <v>       0.75000000       0.25000000       0.50000000 </v>
    <v>       0.75000000       0.75000000       0.00000000 </v>
    <v>       0.75000000       0.75000000       0.50000000 </v>
    <v>       0.12500000       0.12500000       0.12500000 </v>
    <v>       0.12500000       0.12500000       0.62500000 </v>
    <v>       0.12500000       0.62500000       0.12500000 </v>
    <v>       0.12500000       0.62500000       0.62500000 </v>
    <v>       0.62500000       0.12500000       0.12500000 </v>
    <v>       0.62500000       0.12500000       0.62500000 </v>
    <v>       0.62500000       0.62500000       0.12500000 </v>
    <v>       0.62500000       0.62500000       0.62500000 </v>
   </varray>
  </structure>
  <varray name="forces" >
   <v>      -0.00000000       0.00000000       0.18925061 </v>
   <v>      -0.00000000       0.00000000       0.18925061 </v>
   <v>      -0.00000000      -0.00000000       0.18925061 </v>
   <v>      -0.00000000      -0.00000000       0.18925061 </v>
   <v>       0.00000000      -0.00000000       0.18925061 </v>
   <v>      -0.00000000      -0.00000000       0.18925061 </v>
   <v>       0.00000000      -0.00000000       0.18925061 </v>
   <v>       0.00000000      -0.00000000       0.18925061 </v>
   <v>      -0.00000000       0.00000000      -0.18925061 </v>
   <v>       0.00000000       0.00000000      -0.18925061 </v>
   <v>      -0.00000000       0.00000000      -0.18925061 </v>
   <v>       0.00000000       0.00000000      -0.18925061 </v>
   <v>      -0.00000000      -0.00000000      -0.18925061 </v>
   <v>      -0.00000000      -0.00000000      -0.18925061 </v>
   <v>      -0.00000000      -0.00000000      -0.18925061 </v>
   <v>      -0.00000000      -0.00000000      -0.18925061 </v>
   <v>      -0.00000000       0.00000000       0.18925061 </v>
   <v>      -0.00000000       0.00000000       0.18925061 </v>
   <v>      -0.00000000      -0.00000000       0.18925061 </v>
   <v>      -0.00000000      -0.00000000       0.18925061 </v>
   <v>       0.00000000       0.00000000       0.18925061 </v>
   <v>       0.00000000      -0.00000000       0.18925061 </v>
   <v>       0.00000000      -0.00000000       0.18925061 </v>
   <v>       0.00000000      -0.00000000       0.18925061 </v>
   <v>       0.00000000       0.00000000      -0.18925061 </v>
   <v>      -0.00000000       0.00000000      -0.18925061 </v>
   <v>       0.00000000       0.00000000      -0.18925061 </v>
   <v>      -0.00000000       0.00000000      -0.18925061 </v>
   <v>       0.00000000      -0.00000000      -0.18925061 </v>
   <v>       0.00000000       0.00000000      -0.18925061 </v>
   <v>       0.00000000      -0.00000000      -0.18925061 </v>
   <v>      -0.00000000      -0.00000000      -0.18925061 </v>
   <v>      -0.00000000       0.00000000       0.18925061 </v>
   <v>      -0.00000000       0.00000000       0.18925061 </v>
   <v>      -0.00000000       0.00000000       0.18925061 </v>
   <v>       0.00000000       0.00000000       0.18925061 </v>
   <v>      -0.00000000      -0.00000000       0.18925061 </v>
   <v>      -0.00000000       0.00000000       0.18925061 </v>
   <v>      -0.00000000       0.00000000       0.18925061 </v>
   <v>       0.00000000       0.00000000       0.18925061 </v>
   <v>       0.00000000      -0.00000000      -0.18925061 </v>
   <v>       0.00000000      -0.00000000      -0.18925061 </v>
   <v>       0.00000000      -0.00000000      -0.18925061 </v>
   <v>       0.00000000      -0.00000000      -0.18925061 </v>
   <v>      -0.00000000      -0.00000000      -0.18925061 </v>
   <v>      -0.00000000       0.00000000      -0.18925061 </v>
   <v>       0.00000000       0.00000000      -0.18925061 </v>
   <v>       0.00000000       0.00000000      -0.18925061 </v>
   <v>       0.00000000       0.00000000       0.18925061 </v>
   <v>       0.00000000       0.00000000       0.18925061 </v>
   <v>      -0.00000000      -0.00000000       0.18925061 </v>
   <v>       0.00000000       0.00000000       0.18925061 </v>
   <v>      -0.00000000      -0.00000000       0.18925061 </v>
   <v>       0.00000000      -0.00000000       0.18925061 </v>
   <v>      -0.00000000       0.00000000       0.18925061 </v>
   <v>      -0.00000000       0.00000000       0.18925061 </v>
   <v>       0.00000000      -0.00000000      -0.18925061 </v>
   <v>       0.00000000      -0.00000000      -0.18925061 </v>
   <v>      -0.00000000      -0.00000000      -0.18925061 </v>
   <v>       0.00000000      -0.00000000      -0.18925061 </v>
   <v>      -0.00000000       0.00000000      -0.18925061 </v>
   <v>      -0.00000000      -0.00000000      -0.18925061 </v>
   <v>      -0.00000000       0.00000000      -0.18925061 </v>
   <v>       0.00000000       0.00000000      -0.18925061 </v>
  </varray>
  <varray name="stress" >
   <v>      52.87660549     -17.77389013       0.00000000 </v>
   <v>     -17.77389012      66.82719176       0.00000000 </v>
   <v>       0.00000000       0.00000000      66.45034540 </v>
  </varray>
  <energy>
   <i name="e_fr_energy">   -366.13347344 </i>
   <i name="e_wo_entrp">   -366.16120850 </i>
   <i name="e_0_energy">   -366.14271846 </i>
  </energy>
  <time name="totalsc">   27.58   28.05</time>
 </calculation>
 <calculation>
  <scstep>
   <time name="dav">    1.26    1.27</time>
   <time name="total">    1.65    1.66</time>
   <energy>
    <i name="alphaZ">    113.74106673 </i>
    <i name="ewald">  -7449.91485457 </i>
    <i name="hartreedc">   -447.41853160 </i>
    <i name="XCdc">   -531.43168614 </i>
    <i name="pawpsdc">  31338.95079069 </i>
    <i name="pawaedc"> -30240.81897512 </i>
    <i name="eentropy">      0.01798768 </i>
    <i name="bandstr">    285.92074569 </i>
    <i name="atom">   6564.79586099 </i>
    <i name="e_fr_energy">   -366.15759564 </i>
    <i name="e_wo_entrp">   -366.17558332 </i>
    <i name="e_0_energy">   -366.16359153 </i>
   </energy>
  </scstep>
  <scstep>
   <time name="diag">    0.13    0.13</time>
   <time name="diis">    0.71    0.71</time>
   <time name="orth">    0.02    0.03</time>
   <time name="total">    1.25    1.28</time>
   <energy>
    <i name="e_fr_energy">   -366.16461891 </i>
    <i name="e_wo_entrp">   -366.18262662 </i>
    <i name="e_0_energy">   -366.17062148 </i>
   </energy>
  </scstep>
  <scstep>
   <time name="diag">    0.13    0.13</time>
   <time name="diis">    0.69    0.71</time>
   <time name="orth">    0.02    0.02</time>
   <time name="total">    1.23    1.27</time>
   <energy>
    <i name="e_fr_energy">   -366.16552045 </i>
    <i name="e_wo_entrp">   -366.18388216 </i>
    <i name="e_0_energy">   -366.17164102 </i>
   </energy>
  </scstep>
  <scstep>
   <time name="diag">    0.13    0.13</time>
   <time name="diis">    0.70    0.70</time>
   <time name="orth">    0.02    0.02</time>
   <time name="total">    1.26    1.26</time>
   <energy>
    <i name="e_fr_energy">   -366.16549822 </i>
    <i name="e_wo_entrp">   -366.18414391 </i>
    <i name="e_0_energy">   -366.17171345 </i>
   </energy>
  </scstep>
  <scstep>
   <time name="diag">    0.13    0.13</time>
   <time name="diis">    0.70    0.71</time>
   <time name="orth">    0.02    0.02</time>
   <time name="total">    1.25    1.27</time>
   <energy>
    <i name="e_fr_energy">   -366.16551067 </i>
    <i name="e_wo_entrp">   -366.18426155 </i>
    <i name="e_0_energy">   -366.17176096 </i>
   </energy>
  </scstep>
  <scstep>
   <time name="diag">    0.13    0.13</time>
   <time name="diis">    0.74    0.74</time>
   <time name="orth">    0.02    0.02</time>
   <time name="total">    1.28    1.30</time>
   <energy>
    <i name="e_fr_energy">   -366.16551735 </i>
    <i name="e_wo_entrp">   -366.18426304 </i>
    <i name="e_0_energy">   -366.17176591 </i>
   </energy>
  </scstep>
  <scstep>
   <time name="diag">    0.13    0.13</time>
   <time name="diis">    0.58    0.58</time>
   <time name="orth">    0.02    0.02</time>
   <time name="total">    1.12    1.14</time>
   <energy>
    <i name="e_fr_energy">   -366.16551818 </i>
    <i name="e_wo_entrp">   -366.18426044 </i>
    <i name="e_0_energy">   -366.17176560 </i>
   </energy>
  </scstep>
  <scstep>
   <time name="diag">    0.13    0.13</time>
   <time name="diis">    0.48    0.48</time>
   <time name="orth">    0.02    0.02</time>
   <time name="total">    0.80    0.80</time>
   <energy>
    <i name="alphaZ">    113.74106673 </i>
    <i name="ewald">  -7449.91485457 </i>
    <i name="hartreedc">   -447.25096481 </i>
    <i name="XCdc">   -531.45711499 </i>
    <i name="pawpsdc">  31309.50074229 </i>
    <i name="pawaedc"> -30211.35442002 </i>
    <i name="eentropy">      0.01874351 </i>
    <i name="bandstr">    285.75542259 </i>
    <i name="atom">   6564.79586099 </i>
    <i name="e_fr_energy">   -366.16551828 </i>
    <i name="e_wo_entrp">   -366.18426179 </i>
    <i name="e_0_energy">   -366.17176612 </i>
   </energy>
  </scstep>
  <structure>
   <crystal>
    <varray name="basis" >
     <v>      10.76922459       0.07957601       0.00000000 </v>
     <v>       0.07957601      10.61007357       0.00000000 </v>
     <v>       0.00000000       0.00000000      10.61007357 </v>
    </varray>
    <i name="volume">   1212.26385269 </i>
    <varray name="rec_basis" >
     <v>       0.09286234      -0.00069647       0.00000000 </v>
     <v>      -0.00069647       0.09425528       0.00000000 </v>
     <v>       0.00000000       0.00000000       0.09425005 </v>
    </varray>
   </crystal>
   <varray name="positions" >
    <v>       1.00000000       0.00000000       0.00086050 </v>
    <v>       1.00000000       0.00000000       0.50086050 </v>
    <v>       1.00000000       0.50000000       0.00086050 </v>
    <v>       1.00000000       0.50000000       0.50086050 </v>
    <v>       0.50000000       1.00000000       0.00086050 </v>
    <v>       0.50000000       1.00000000       0.50086050 </v>
    <v>       0.50000000       0.50000000       0.00086050 </v>
    <v>       0.50000000       0.50000000       0.50086050 </v>
    <v>       0.37500000       0.37500000       0.12413950 </v>
    <v>       0.37500000       0.37500000       0.62413950 </v>
    <v>       0.37500000       0.87500000       0.12413950 </v>
    <v>       0.37500000       0.87500000       0.62413950 </v>
    <v>       0.87500000       0.37500000       0.12413950 </v>
    <v>       0.87500000       0.37500000       0.62413950 </v>
    <v>       0.87500000       0.87500000       0.12413950 </v>
    <v>       0.87500000       0.87500000       0.62413950 </v>
    <v>       1.00000000       0.25000000       0.25086050 </v>
    <v>       1.00000000       0.25000000       0.75086050 </v>
    <v>       1.00000000       0.75000000       0.25086050 </v>
    <v>       1.00000000       0.75000000       0.75086050 </v>
    <v>       0.50000000       0.25000000       0.25086050 </v>
    <v>       0.50000000       0.25000000       0.75086050 </v>
    <v>       0.50000000       0.75000000       0.25086050 </v>
    <v>       0.50000000       0.75000000       0.75086050 </v>
    <v>       0.37500000       0.12500000       0.37413950 </v>
    <v>       0.37500000       0.12500000       0.87413950 </v>
    <v>       0.37500000       0.62500000       0.37413950 </v>
    <v>       0.37500000       0.62500000       0.87413950 </v>
    <v>       0.87500000       0.12500000       0.37413950 </v>
    <v>       0.87500000       0.12500000       0.87413950 </v>
    <v>       0.87500000       0.62500000       0.37413950 </v>
    <v>       0.87500000       0.62500000       0.87413950 </v>
    <v>       0.25000000       0.00000000       0.25086050 </v>
    <v>       0.25000000       0.00000000       0.75086050 </v>
    <v>       0.25000000       0.50000000       0.25086050 </v>
    <v>       0.25000000       0.50000000       0.75086050 </v>
    <v>       0.75000000       1.00000000       0.25086050 </v>
    <v>       0.75000000       0.00000000       0.75086050 </v>
    <v>       0.75000000       0.50000000       0.25086050 </v>
    <v>       0.75000000       0.50000000       0.75086050 </v>
    <v>       0.12500000       0.37500000       0.37413950 </v>
    <v>       0.12500000       0.37500000       0.87413950 </v>
    <v>       0.12500000       0.87500000       0.37413950 </v>
    <v>       0.12500000       0.87500000       0.87413950 </v>
    <v>       0.62500000       0.37500000       0.37413950 </v>
    <v>       0.62500000       0.37500000       0.87413950 </v>
    <v>       0.62500000       0.87500000       0.37413950 </v>
    <v>       0.62500000       0.87500000       0.87413950 </v>
    <v>       0.25000000       0.25000000       0.00086050 </v>
    <v>       0.25000000       0.25000000       0.50086050 </v>
    <v>       0.25000000       0.75000000       0.00086050 </v>
    <v>       0.25000000       0.75000000       0.50086050 </v>
    <v>       0.75000000       0.25000000       0.00086050 </v>
    <v>       0.75000000       0.25000000       0.50086050 </v>
    <v>       0.75000000       0.75000000       0.00086050 </v>
    <v>       0.75000000       0.75000000       0.50086050 </v>
    <v>       0.12500000       0.12500000       0.12413950 </v>
    <v>       0.12500000       0.12500000       0.62413950 </v>
    <v>       0.12500000       0.62500000       0.12413950 </v>
    <v>       0.12500000       0.62500000       0.62413950 </v>
    <v>       0.62500000       0.12500000       0.12413950 </v>
    <v>       0.62500000       0.12500000       0.62413950 </v>
    <v>       0.62500000       0.62500000       0.12413950 </v>
    <v>       0.62500000       0.62500000       0.62413950 </v>
   </varray>
  </structure>
  <varray name="forces" >
   <v>      -0.00000000      -0.00000000      -0.07812516 </v>
   <v>      -0.00000000      -0.00000000      -0.07812516 </v>
   <v>      -0.00000000      -0.00000000      -0.07812516 </v>
   <v>      -0.00000000      -0.00000000      -0.07812516 </v>
   <v>       0.00000000       0.00000000      -0.07812516 </v>
   <v>       0.00000000       0.00000000      -0.07812516 </v>
   <v>       0.00000000       0.00000000      -0.07812516 </v>
   <v>       0.00000000       0.00000000      -0.07812516 </v>
   <v>      -0.00000000       0.00000000       0.07812516 </v>
   <v>      -0.00000000       0.00000000       0.07812516 </v>
   <v>      -0.00000000       0.00000000       0.07812516 </v>
   <v>      -0.00000000       0.00000000       0.07812516 </v>
   <v>       0.00000000      -0.00000000       0.07812516 </v>
   <v>       0.00000000      -0.00000000       0.07812516 </v>
   <v>       0.00000000      -0.00000000       0.07812516 </v>
   <v>      -0.00000000      -0.00000000       0.07812516 </v>
   <v>      -0.00000000      -0.00000000      -0.07812516 </v>
   <v>      -0.00000000      -0.00000000      -0.07812516 </v>
   <v>      -0.00000000      -0.00000000      -0.07812516 </v>
   <v>      -0.00000000      -0.00000000      -0.07812516 </v>
   <v>       0.00000000       0.00000000      -0.07812516 </v>
   <v>       0.00000000       0.00000000      -0.07812516 </v>
   <v>       0.00000000       0.00000000      -0.07812516 </v>
   <v>       0.00000000       0.00000000      -0.07812516 </v>
   <v>      -0.00000000       0.00000000       0.07812516 </v>
   <v>      -0.00000000       0.00000000       0.07812516 </v>
   <v>      -0.00000000      -0.00000000       0.07812516 </v>
   <v>      -0.00000000       0.00000000       0.07812516 </v>
   <v>      -0.00000000      -0.00000000       0.07812516 </v>
   <v>       0.00000000       0.00000000       0.07812516 </v>
   <v>       0.00000000      -0.00000000       0.07812516 </v>
   <v>       0.00000000      -0.00000000       0.07812516 </v>
   <v>       0.00000000      -0.00000000      -0.07812516 </v>
   <v>      -0.00000000      -0.00000000      -0.07812516 </v>
   <v>       0.00000000      -0.00000000      -0.07812516 </v>
   <v>      -0.00000000      -0.00000000      -0.07812516 </v>
   <v>      -0.00000000       0.00000000      -0.07812516 </v>
   <v>      -0.00000000       0.00000000      -0.07812516 </v>
   <v>       0.00000000       0.00000000      -0.07812516 </v>
   <v>       0.00000000       0.00000000      -0.07812516 </v>
   <v>       0.00000000      -0.00000000       0.07812516 </v>
   <v>       0.00000000      -0.00000000       0.07812516 </v>
   <v>       0.00000000      -0.00000000       0.07812516 </v>
   <v>       0.00000000      -0.00000000       0.07812516 </v>
   <v>      -0.00000000      -0.00000000       0.07812516 </v>
   <v>      -0.00000000      -0.00000000       0.07812516 </v>
   <v>      -0.00000000       0.00000000       0.07812516 </v>
   <v>      -0.00000000       0.00000000       0.07812516 </v>
   <v>      -0.00000000      -0.00000000      -0.07812516 </v>
   <v>       0.00000000      -0.00000000      -0.07812516 </v>
   <v>      -0.00000000      -0.00000000      -0.07812516 </v>
   <v>      -0.00000000      -0.00000000      -0.07812516 </v>
   <v>       0.00000000       0.00000000      -0.07812516 </v>
   <v>      -0.00000000       0.00000000      -0.07812516 </v>
   <v>       0.00000000       0.00000000      -0.07812516 </v>
   <v>      -0.00000000       0.00000000      -0.07812516 </v>
   <v>       0.00000000      -0.00000000       0.07812516 </v>
   <v>       0.00000000      -0.00000000       0.07812516 </v>
   <v>       0.00000000      -0.00000000       0.07812516 </v>
   <v>       0.00000000      -0.00000000       0.07812516 </v>
   <v>      -0.00000000       0.00000000       0.07812516 </v>
   <v>      -0.00000000      -0.00000000       0.07812516 </v>
   <v>      -0.00000000       0.00000000       0.07812516 </v>
   <v>      -0.00000000       0.00000000       0.07812516 </v>
  </varray>
  <varray name="stress" >
   <v>      52.56285666      -7.80163509       0.00000000 </v>
   <v>      -7.80163500      66.47191199       0.00000000 </v>
   <v>       0.00000000       0.00000000      65.71994132 </v>
  </varray>
  <energy>
   <i name="e_fr_energy">   -366.16551828 </i>
   <i name="e_wo_entrp">   -366.18426179 </i>
   <i name="e_0_energy">   -366.17176612 </i>
  </energy>
  <time name="totalsc">   13.53   13.70</time>
 </calculation>
 <calculation>
  <scstep>
   <time name="dav">    1.27    1.27</time>
   <time name="total">    1.65    1.66</time>
   <energy>
    <i name="alphaZ">    113.74106673 </i>
    <i name="ewald">  -7449.77235614 </i>
    <i name="hartreedc">   -447.33517163 </i>
    <i name="XCdc">   -531.45321160 </i>
    <i name="pawpsdc">  31309.21928315 </i>
    <i name="pawaedc"> -30211.07293758 </i>
    <i name="eentropy">      0.02228110 </i>
    <i name="bandstr">    285.68358735 </i>
    <i name="atom">   6564.79586099 </i>
    <i name="e_fr_energy">   -366.17159764 </i>
    <i name="e_wo_entrp">   -366.19387874 </i>
    <i name="e_0_energy">   -366.17902467 </i>
   </energy>
  </scstep>
  <scstep>
   <time name="diag">    0.13    0.13</time>
   <time name="diis">    0.69    0.69</time>
   <time name="orth">    0.02    0.02</time>
   <time name="total">    1.23    1.25</time>
   <energy>
    <i name="e_fr_energy">   -366.17219940 </i>
    <i name="e_wo_entrp">   -366.19446677 </i>
    <i name="e_0_energy">   -366.17962186 </i>
   </energy>
  </scstep>
  <scstep>
   <time name="diag">    0.13    0.13</time>
   <time name="diis">    0.72    0.73</time>
   <time name="orth">    0.02    0.02</time>
   <time name="total">    1.27    1.29</time>
   <energy>
    <i name="e_fr_energy">   -366.17227210 </i>
    <i name="e_wo_entrp">   -366.19443576 </i>
    <i name="e_0_energy">   -366.17965998 </i>
   </energy>
  </scstep>
  <scstep>
   <time name="diag">    0.13    0.13</time>
   <time name="diis">    0.70    0.70</time>
   <time name="orth">    0.02    0.02</time>
   <time name="total">    1.25    1.26</time>
   <energy>
    <i name="e_fr_energy">   -366.17227023 </i>
    <i name="e_wo_entrp">   -366.19435570 </i>
    <i name="e_0_energy">   -366.17963205 </i>
   </energy>
  </scstep>
  <scstep>
   <time name="diag">    0.13    0.13</time>
   <time name="diis">    0.71    0.71</time>
   <time name="orth">    0.02    0.02</time>
   <time name="total">    1.25    1.27</time>
   <energy>
    <i name="e_fr_energy">   -366.17227128 </i>
    <i name="e_wo_entrp">   -366.19432787 </i>
    <i name="e_0_energy">   -366.17962348 </i>
   </energy>
  </scstep>
  <scstep>
   <time name="diag">    0.13    0.13</time>
   <time name="diis">    0.55    0.56</time>
   <time name="orth">    0.02    0.02</time>
   <time name="total">    1.09    1.11</time>
   <energy>
    <i name="e_fr_energy">   -366.17227174 </i>
    <i name="e_wo_entrp">   -366.19432960 </i>
    <i name="e_0_energy">   -366.17962436 </i>
   </energy>
  </scstep>
  <scstep>
   <time name="diag">    0.13    0.13</time>
   <time name="diis">    0.45    0.46</time>
   <time name="orth">    0.02    0.02</time>
   <time name="total">    0.99    1.02</time>
   <energy>
    <i name="e_fr_energy">   -366.17227182 </i>
    <i name="e_wo_entrp">   -366.19433077 </i>
    <i name="e_0_energy">   -366.17962480 </i>
   </energy>
  </scstep>
  <scstep>
   <time name="diag">    0.13    0.13</time>
   <time name="diis">    0.40    0.41</time>
   <time name="orth">    0.02    0.02</time>
   <time name="total">    0.72    0.72</time>
   <energy>
    <i name="alphaZ">    113.74106673 </i>
    <i name="ewald">  -7449.77235614 </i>
    <i name="hartreedc">   -447.40128882 </i>
    <i name="XCdc">   -531.44422152 </i>
    <i name="pawpsdc">  31317.61404256 </i>
    <i name="pawaedc"> -30219.47188686 </i>
    <i name="eentropy">      0.02205871 </i>
    <i name="bandstr">    285.74445251 </i>
    <i name="atom">   6564.79586099 </i>
    <i name="e_fr_energy">   -366.17227186 </i>
    <i name="e_wo_entrp">   -366.19433056 </i>
    <i name="e_0_energy">   -366.17962476 </i>
   </energy>
  </scstep>
  <structure>
   <crystal>
    <varray name="basis" >
     <v>      10.76922459       0.07957601       0.00000000 </v>
     <v>       0.07957601      10.61007357       0.00000000 </v>
     <v>       0.00000000       0.00000000      10.61007357 </v>
    </varray>
    <i name="volume">   1212.26385269 </i>
    <varray name="rec_basis" >
     <v>       0.09286234      -0.00069647       0.00000000 </v>
     <v>      -0.00069647       0.09425528       0.00000000 </v>
     <v>       0.00000000       0.00000000       0.09425005 </v>
    </varray>
   </crystal>
   <varray name="positions" >
    <v>       0.00000000       0.00000000       0.00060617 </v>
    <v>       0.00000000       0.00000000       0.50060617 </v>
    <v>       0.00000000       0.50000000       0.00060617 </v>
    <v>       0.00000000       0.50000000       0.50060617 </v>
    <v>       0.50000000       0.00000000       0.00060617 </v>
    <v>       0.50000000       0.00000000       0.50060617 </v>
    <v>       0.50000000       0.50000000       0.00060617 </v>
    <v>       0.50000000       0.50000000       0.50060617 </v>
    <v>       0.37500000       0.37500000       0.12439383 </v>
    <v>       0.37500000       0.37500000       0.62439383 </v>
    <v>       0.37500000       0.87500000       0.12439383 </v>
    <v>       0.37500000       0.87500000       0.62439383 </v>
    <v>       0.87500000       0.37500000       0.12439383 </v>
    <v>       0.87500000       0.37500000       0.62439383 </v>
    <v>       0.87500000       0.87500000       0.12439383 </v>
    <v>       0.87500000       0.87500000       0.62439383 </v>
    <v>       0.00000000       0.25000000       0.25060617 </v>
    <v>       0.00000000       0.25000000       0.75060617 </v>
    <v>       0.00000000       0.75000000       0.25060617 </v>
    <v>       0.00000000       0.75000000       0.75060617 </v>
    <v>       0.50000000       0.25000000       0.25060617 </v>
    <v>       0.50000000       0.25000000       0.75060617 </v>
    <v>       0.50000000       0.75000000       0.25060617 </v>
    <v>       0.50000000       0.75000000       0.75060617 </v>
    <v>       0.37500000       0.12500000       0.37439383 </v>
    <v>       0.37500000       0.12500000       0.87439383 </v>
    <v>       0.37500000       0.62500000       0.37439383 </v>
    <v>       0.37500000       0.62500000       0.87439383 </v>
    <v>       0.87500000       0.12500000       0.37439383 </v>
    <v>       0.87500000       0.12500000       0.87439383 </v>
    <v>       0.87500000       0.62500000       0.37439383 </v>
    <v>       0.87500000       0.62500000       0.87439383 </v>
    <v>       0.25000000       0.00000000       0.25060617 </v>
    <v>       0.25000000       0.00000000       0.75060617 </v>
    <v>       0.25000000       0.50000000       0.25060617 </v>
    <v>       0.25000000       0.50000000       0.75060617 </v>
    <v>       0.75000000       0.00000000       0.25060617 </v>
    <v>       0.75000000       0.00000000       0.75060617 </v>
    <v>       0.75000000       0.50000000       0.25060617 </v>
    <v>       0.75000000       0.50000000       0.75060617 </v>
    <v>       0.12500000       0.37500000       0.37439383 </v>
    <v>       0.12500000       0.37500000       0.87439383 </v>
    <v>       0.12500000       0.87500000       0.37439383 </v>
    <v>       0.12500000       0.87500000       0.87439383 </v>
    <v>       0.62500000       0.37500000       0.37439383 </v>
    <v>       0.62500000       0.37500000       0.87439383 </v>
    <v>       0.62500000       0.87500000       0.37439383 </v>
    <v>       0.62500000       0.87500000       0.87439383 </v>
    <v>       0.25000000       0.25000000       0.00060617 </v>
    <v>       0.25000000       0.25000000       0.50060617 </v>
    <v>       0.25000000       0.75000000       0.00060617 </v>
    <v>       0.25000000       0.75000000       0.50060617 </v>
    <v>       0.75000000       0.25000000       0.00060617 </v>
    <v>       0.75000000       0.25000000       0.50060617 </v>
    <v>       0.75000000       0.75000000       0.00060617 </v>
    <v>       0.75000000       0.75000000       0.50060617 </v>
    <v>       0.12500000       0.12500000       0.12439383 </v>
    <v>       0.12500000       0.12500000       0.62439383 </v>
    <v>       0.12500000       0.62500000       0.12439383 </v>
    <v>       0.12500000       0.62500000       0.62439383 </v>
    <v>       0.62500000       0.12500000       0.12439383 </v>
    <v>       0.62500000       0.12500000       0.62439383 </v>
    <v>       0.62500000       0.62500000       0.12439383 </v>
    <v>       0.62500000       0.62500000       0.62439383 </v>
   </varray>
  </structure>
  <varray name="forces" >
   <v>      -0.00000000      -0.00000000       0.00010990 </v>
   <v>       0.00000000      -0.00000000       0.00010990 </v>
   <v>       0.00000000      -0.00000000       0.00010990 </v>
   <v>       0.00000000       0.00000000       0.00010990 </v>
   <v>      -0.00000000       0.00000000       0.00010990 </v>
   <v>      -0.00000000       0.00000000       0.00010990 </v>
   <v>      -0.00000000       0.00000000       0.00010990 </v>
   <v>      -0.00000000       0.00000000       0.00010990 </v>
   <v>      -0.00000000      -0.00000000      -0.00010990 </v>
   <v>      -0.00000000      -0.00000000      -0.00010990 </v>
   <v>      -0.00000000      -0.00000000      -0.00010990 </v>
   <v>      -0.00000000       0.00000000      -0.00010990 </v>
   <v>      -0.00000000       0.00000000      -0.00010990 </v>
   <v>      -0.00000000      -0.00000000      -0.00010990 </v>
   <v>       0.00000000      -0.00000000      -0.00010990 </v>
   <v>       0.00000000       0.00000000      -0.00010990 </v>
   <v>       0.00000000      -0.00000000       0.00010990 </v>
   <v>      -0.00000000       0.00000000       0.00010990 </v>
   <v>       0.00000000      -0.00000000       0.00010990 </v>
   <v>       0.00000000      -0.00000000       0.00010990 </v>
   <v>      -0.00000000       0.00000000       0.00010990 </v>
   <v>       0.00000000       0.00000000       0.00010990 </v>
   <v>      -0.00000000       0.00000000       0.00010990 </v>
   <v>      -0.00000000       0.00000000       0.00010990 </v>
   <v>      -0.00000000       0.00000000      -0.00010990 </v>
   <v>      -0.00000000       0.00000000      -0.00010990 </v>
   <v>      -0.00000000      -0.00000000      -0.00010990 </v>
   <v>       0.00000000      -0.00000000      -0.00010990 </v>
   <v>      -0.00000000      -0.00000000      -0.00010990 </v>
   <v>       0.00000000      -0.00000000      -0.00010990 </v>
   <v>       0.00000000      -0.00000000      -0.00010990 </v>
   <v>      -0.00000000       0.00000000      -0.00010990 </v>
   <v>       0.00000000      -0.00000000       0.00010990 </v>
   <v>       0.00000000      -0.00000000       0.00010990 </v>
   <v>       0.00000000      -0.00000000       0.00010990 </v>
   <v>       0.00000000      -0.00000000       0.00010990 </v>
   <v>       0.00000000       0.00000000       0.00010990 </v>
   <v>      -0.00000000       0.00000000       0.00010990 </v>
   <v>      -0.00000000       0.00000000       0.00010990 </v>
   <v>      -0.00000000      -0.00000000       0.00010990 </v>
   <v>       0.00000000       0.00000000      -0.00010990 </v>
   <v>       0.00000000      -0.00000000      -0.00010990 </v>
   <v>      -0.00000000       0.00000000      -0.00010990 </v>
   <v>      -0.00000000       0.00000000      -0.00010990 </v>
   <v>       0.00000000       0.00000000      -0.00010990 </v>
   <v>       0.00000000       0.00000000      -0.00010990 </v>
   <v>      -0.00000000      -0.00000000      -0.00010990 </v>
   <v>       0.00000000       0.00000000      -0.00010990 </v>
   <v>       0.00000000      -0.00000000       0.00010990 </v>
   <v>       0.00000000      -0.00000000       0.00010990 </v>
   <v>       0.00000000      -0.00000000       0.00010990 </v>
   <v>       0.00000000      -0.00000000       0.00010990 </v>
   <v>      -0.00000000      -0.00000000       0.00010990 </v>
   <v>      -0.00000000       0.00000000       0.00010990 </v>
   <v>      -0.00000000      -0.00000000       0.00010990 </v>
   <v>      -0.00000000       0.00000000       0.00010990 </v>
   <v>       0.00000000       0.00000000      -0.00010990 </v>
   <v>       0.00000000       0.00000000      -0.00010990 </v>
   <v>       0.00000000       0.00000000      -0.00010990 </v>
   <v>      -0.00000000      -0.00000000      -0.00010990 </v>
   <v>       0.00000000       0.00000000      -0.00010990 </v>
   <v>       0.00000000      -0.00000000      -0.00010990 </v>
   <v>      -0.00000000      -0.00000000      -0.00010990 </v>
   <v>      -0.00000000       0.00000000      -0.00010990 </v>
  </varray>
  <varray name="stress" >
   <v>      52.59048896     -10.77720653       0.00000000 </v>
   <v>     -10.77720653      66.53404162       0.00000000 </v>
   <v>       0.00000000       0.00000000      65.95208380 </v>
  </varray>
  <energy>
   <i name="e_fr_energy">   -366.17227186 </i>
   <i name="e_wo_entrp">   -366.19433056 </i>
   <i name="e_0_energy">   -366.17962476 </i>
  </energy>
  <time name="totalsc">   12.92   13.07</time>
  <eigenvalues>
   <array>
    <dimension dim="1">band</dimension>
    <dimension dim="2">kpoint</dimension>
    <dimension dim="3">spin</dimension>
    <field>eigene</field>
    <field>occ</field>
    <set>
     <set comment="spin 1">
      <set comment="kpoint 1">
       <r>   -6.0146    1.0000 </r>
       <r>   -4.8949    1.0000 </r>
       <r>   -4.8949    1.0000 </r>
       <r>   -4.8660    1.0000 </r>
       <r>   -4.8660    1.0000 </r>
       <r>   -4.8657    1.0000 </r>
       <r>   -4.8657    1.0000 </r>
       <r>   -3.8950    1.0000 </r>
       <r>   -3.8950    1.0000 </r>
       <r>   -3.8592    1.0000 </r>
       <r>   -3.8592    1.0000 </r>
       <r>   -3.8592    1.0000 </r>
       <r>   -3.8592    1.0000 </r>
       <r>   -3.8383    1.0000 </r>
       <r>   -3.8383    1.0000 </r>
       <r>   -3.8383    1.0000 </r>
       <r>   -3.8383    1.0000 </r>
       <r>   -3.8227    1.0000 </r>
       <r>   -3.8227    1.0000 </r>
       <r>   -3.5564    1.0000 </r>
       <r>   -3.5564    1.0000 </r>
       <r>   -3.4815    1.0000 </r>
       <r>   -3.4815    1.0000 </r>
       <r>   -1.7108    1.0000 </r>
       <r>   -1.7108    1.0000 </r>
       <r>   -1.6384    1.0000 </r>
       <r>   -1.6148    1.0000 </r>
       <r>   -1.6148    1.0000 </r>
       <r>   -1.5937    1.0000 </r>
       <r>   -1.5018    1.0000 </r>
       <r>   -1.5018    1.0000 </r>
       <r>   -1.4670    1.0000 </r>
       <r>   -1.4670    1.0000 </r>
       <r>   -1.4609    1.0000 </r>
       <r>   -1.4609    1.0000 </r>
       <r>   -1.4609    1.0000 </r>
       <r>   -1.4609    1.0000 </r>
       <r>   -1.4211    1.0000 </r>
       <r>   -1.4211    1.0000 </r>
       <r>   -1.3887    1.0000 </r>
       <r>   -1.3887    1.0000 </r>
       <r>   -0.9397    1.0000 </r>
       <r>   -0.9396    1.0000 </r>
       <r>   -0.9006    1.0000 </r>
       <r>   -0.9006    1.0000 </r>
       <r>    0.7283    1.0000 </r>
       <r>    0.7283    1.0000 </r>
       <r>    0.7283    1.0000 </r>
       <r>    0.7283    1.0000 </r>
       <r>    0.7737    1.0000 </r>
       <r>    0.7737    1.0000 </r>
       <r>    0.7856    1.0000 </r>
       <r>    0.7857    1.0000 </r>
       <r>    0.7857    1.0000 </r>
       <r>    0.7857    1.0000 </r>
       <r>    0.7989    1.0000 </r>
       <r>    0.7989    1.0000 </r>
       <r>    2.1967    1.0000 </r>
       <r>    2.1967    1.0000 </r>
       <r>    2.2031    1.0000 </r>
       <r>    2.2031    1.0000 </r>
       <r>    2.2153    1.0000 </r>
       <r>    2.2153    1.0000 </r>
       <r>    2.2153    1.0000 </r>
       <r>    2.2153    1.0000 </r>
       <r>    2.2342    1.0000 </r>
       <r>    2.2342    1.0000 </r>
       <r>    2.2434    1.0000 </r>
       <r>    2.2434    1.0000 </r>
       <r>    2.2889    1.0000 </r>
       <r>    2.2889    1.0000 </r>
       <r>    2.2889    1.0000 </r>
       <r>    2.2889    1.0000 </r>
       <r>    2.3591    1.0000 </r>
       <r>    2.3591    1.0000 </r>
       <r>    2.3757    1.0000 </r>
       <r>    2.3757    1.0000 </r>
       <r>    2.3757    1.0000 </r>
       <r>    2.3757    1.0000 </r>
       <r>    2.3877    1.0000 </r>
       <r>    2.3877    1.0000 </r>
       <r>    2.7790    1.0000 </r>
       <r>    2.7790    1.0000 </r>
       <r>    2.8917    1.0000 </r>
       <r>    2.8917    1.0000 </r>
       <r>    2.8941    1.0000 </r>
       <r>    2.8941    1.0000 </r>
       <r>    3.2008    1.0000 </r>
       <r>    3.3060    1.0000 </r>
       <r>    3.3060    1.0000 </r>
       <r>    3.4136    1.0000 </r>
       <r>    3.4260    1.0000 </r>
       <r>    3.4260    1.0000 </r>
       <r>    4.2220    1.0000 </r>
       <r>    4.2220    1.0000 </r>
       <r>    4.3074    1.0000 </r>
       <r>    4.3074    1.0000 </r>
       <r>    4.3399    1.0000 </r>
       <r>    4.3399    1.0000 </r>
       <r>    4.4164    1.0000 </r>
       <r>    4.4164    1.0000 </r>
       <r>    4.4173    1.0000 </r>
       <r>    4.4173    1.0000 </r>
       <r>    4.4274    1.0000 </r>
       <r>    4.4274    1.0000 </r>
       <r>    4.8507    1.0000 </r>
       <r>    4.8507    1.0000 </r>
       <r>    4.9254    1.0000 </r>
       <r>    4.9254    1.0000 </r>
       <r>    4.9254    1.0000 </r>
       <r>    4.9254    1.0000 </r>
       <r>    4.9768    1.0000 </r>
       <r>    4.9768    1.0000 </r>
       <r>    5.0038    1.0000 </r>
       <r>    5.0038    1.0000 </r>
       <r>    5.0525    1.0000 </r>
       <r>    5.0525    1.0000 </r>
       <r>    5.0525    1.0000 </r>
       <r>    5.0525    1.0000 </r>
       <r>    5.0979    1.0000 </r>
       <r>    5.0979    1.0000 </r>
       <r>    5.1664    1.0000 </r>
       <r>    5.1664    1.0000 </r>
       <r>    5.2278    1.0000 </r>
       <r>    5.2278    1.0000 </r>
       <r>    6.2526    1.0225 </r>
       <r>    6.4036    1.0032 </r>
       <r>    6.4518    0.9270 </r>
       <r>    6.6840    0.1063 </r>
       <r>    6.8013   -0.0339 </r>
       <r>    6.8013   -0.0339 </r>
       <r>    6.9202   -0.0174 </r>
       <r>    6.9240   -0.0166 </r>
       <r>    6.9240   -0.0166 </r>
       <r>    7.3043   -0.0000 </r>
       <r>    7.3043   -0.0000 </r>
       <r>    7.3075   -0.0000 </r>
       <r>    7.3075   -0.0000 </r>
       <r>    7.4278   -0.0000 </r>
       <r>    7.4278   -0.0000 </r>
       <r>    7.9357   -0.0000 </r>
       <r>    7.9357   -0.0000 </r>
       <r>    8.1014   -0.0000 </r>
       <r>    8.1014   -0.0000 </r>
       <r>    8.6246   -0.0000 </r>
       <r>    8.6247   -0.0000 </r>
       <r>    8.7073   -0.0000 </r>
       <r>    8.7073   -0.0000 </r>
       <r>    8.7073   -0.0000 </r>
       <r>    8.7073   -0.0000 </r>
       <r>    8.7924   -0.0000 </r>
       <r>    8.7924   -0.0000 </r>
       <r>    8.8282   -0.0000 </r>
       <r>    8.8511   -0.0000 </r>
       <r>    8.8511   -0.0000 </r>
       <r>    8.8511   -0.0000 </r>
       <r>    8.8511   -0.0000 </r>
       <r>    8.8737   -0.0000 </r>
       <r>    9.0038   -0.0000 </r>
       <r>    9.3530   -0.0000 </r>
       <r>    9.3594   -0.0000 </r>
       <r>    9.3774   -0.0000 </r>
      </set>
      <set comment="kpoint 2">
       <r>   -5.7323    1.0000 </r>
       <r>   -5.7323    1.0000 </r>
       <r>   -4.6261    1.0000 </r>
       <r>   -4.6261    1.0000 </r>
       <r>   -4.6076    1.0000 </r>
       <r>   -4.6076    1.0000 </r>
       <r>   -4.6076    1.0000 </r>
       <r>   -4.6076    1.0000 </r>
       <r>   -4.5885    1.0000 </r>
       <r>   -4.5885    1.0000 </r>
       <r>   -3.7190    1.0000 </r>
       <r>   -3.7190    1.0000 </r>
       <r>   -3.7190    1.0000 </r>
       <r>   -3.7190    1.0000 </r>
       <r>   -3.6728    1.0000 </r>
       <r>   -3.6728    1.0000 </r>
       <r>   -3.6728    1.0000 </r>
       <r>   -3.6728    1.0000 </r>
       <r>   -3.5331    1.0000 </r>
       <r>   -3.5331    1.0000 </r>
       <r>   -2.7730    1.0000 </r>
       <r>   -2.7730    1.0000 </r>
       <r>   -2.7256    1.0000 </r>
       <r>   -2.7256    1.0000 </r>
       <r>   -2.7256    1.0000 </r>
       <r>   -2.7256    1.0000 </r>
       <r>   -2.6778    1.0000 </r>
       <r>   -2.6778    1.0000 </r>
       <r>   -1.5556    1.0000 </r>
       <r>   -1.5556    1.0000 </r>
       <r>   -1.5555    1.0000 </r>
       <r>   -1.5555    1.0000 </r>
       <r>   -1.4991    1.0000 </r>
       <r>   -1.4991    1.0000 </r>
       <r>   -1.4970    1.0000 </r>
       <r>   -1.4970    1.0000 </r>
       <r>   -0.3443    1.0000 </r>
       <r>   -0.3443    1.0000 </r>
       <r>   -0.3313    1.0000 </r>
       <r>   -0.3313    1.0000 </r>
       <r>   -0.3313    1.0000 </r>
       <r>   -0.3313    1.0000 </r>
       <r>   -0.3204    1.0000 </r>
       <r>   -0.3204    1.0000 </r>
       <r>   -0.3090    1.0000 </r>
       <r>   -0.3090    1.0000 </r>
       <r>   -0.3090    1.0000 </r>
       <r>   -0.3090    1.0000 </r>
       <r>   -0.2487    1.0000 </r>
       <r>   -0.2487    1.0000 </r>
       <r>   -0.2487    1.0000 </r>
       <r>   -0.2487    1.0000 </r>
       <r>    0.4548    1.0000 </r>
       <r>    0.4548    1.0000 </r>
       <r>    1.8503    1.0000 </r>
       <r>    1.8503    1.0000 </r>
       <r>    1.8580    1.0000 </r>
       <r>    1.8580    1.0000 </r>
       <r>    1.8580    1.0000 </r>
       <r>    1.8580    1.0000 </r>
       <r>    1.8647    1.0000 </r>
       <r>    1.8647    1.0000 </r>
       <r>    2.0099    1.0000 </r>
       <r>    2.0099    1.0000 </r>
       <r>    2.0295    1.0000 </r>
       <r>    2.0295    1.0000 </r>
       <r>    2.0295    1.0000 </r>
       <r>    2.0295    1.0000 </r>
       <r>    2.0560    1.0000 </r>
       <r>    2.0560    1.0000 </r>
       <r>    2.6221    1.0000 </r>
       <r>    2.6221    1.0000 </r>
       <r>    2.6861    1.0000 </r>
       <r>    2.6861    1.0000 </r>
       <r>    2.6988    1.0000 </r>
       <r>    2.6988    1.0000 </r>
       <r>    2.7648    1.0000 </r>
       <r>    2.7648    1.0000 </r>
       <r>    3.4426    1.0000 </r>
       <r>    3.4426    1.0000 </r>
       <r>    3.4689    1.0000 </r>
       <r>    3.4689    1.0000 </r>
       <r>    3.4689    1.0000 </r>
       <r>    3.4689    1.0000 </r>
       <r>    3.4884    1.0000 </r>
       <r>    3.4884    1.0000 </r>
       <r>    3.4902    1.0000 </r>
       <r>    3.4902    1.0000 </r>
       <r>    3.5434    1.0000 </r>
       <r>    3.5434    1.0000 </r>
       <r>    3.5434    1.0000 </r>
       <r>    3.5434    1.0000 </r>
       <r>    3.5979    1.0000 </r>
       <r>    3.5979    1.0000 </r>
       <r>    3.6466    1.0000 </r>
       <r>    3.6466    1.0000 </r>
       <r>    3.6466    1.0000 </r>
       <r>    3.6466    1.0000 </r>
       <r>    3.6781    1.0000 </r>
       <r>    3.6781    1.0000 </r>
       <r>    3.6785    1.0000 </r>
       <r>    3.6785    1.0000 </r>
       <r>    3.7649    1.0000 </r>
       <r>    3.7649    1.0000 </r>
       <r>    3.7649    1.0000 </r>
       <r>    3.7649    1.0000 </r>
       <r>    4.8007    1.0000 </r>
       <r>    4.8007    1.0000 </r>
       <r>    4.8438    1.0000 </r>
       <r>    4.8438    1.0000 </r>
       <r>    4.8438    1.0000 </r>
       <r>    4.8438    1.0000 </r>
       <r>    4.8897    1.0000 </r>
       <r>    4.8897    1.0000 </r>
       <r>    5.0034    1.0000 </r>
       <r>    5.0034    1.0000 </r>
       <r>    5.0999    1.0000 </r>
       <r>    5.0999    1.0000 </r>
       <r>    5.0999    1.0000 </r>
       <r>    5.0999    1.0000 </r>
       <r>    5.1396    1.0000 </r>
       <r>    5.1396    1.0000 </r>
       <r>    5.1396    1.0000 </r>
       <r>    5.1396    1.0000 </r>
       <r>    5.5418    1.0000 </r>
       <r>    5.5418    1.0000 </r>
       <r>    5.5521    1.0000 </r>
       <r>    5.5521    1.0000 </r>
       <r>    6.8686   -0.0290 </r>
       <r>    6.8686   -0.0290 </r>
       <r>    7.7251   -0.0000 </r>
       <r>    7.7251   -0.0000 </r>
       <r>    7.9740   -0.0000 </r>
       <r>    7.9740   -0.0000 </r>
       <r>    8.1020   -0.0000 </r>
       <r>    8.1020   -0.0000 </r>
       <r>    8.1348   -0.0000 </r>
       <r>    8.1348   -0.0000 </r>
       <r>    8.2643   -0.0000 </r>
       <r>    8.2643   -0.0000 </r>
       <r>    8.3576   -0.0000 </r>
       <r>    8.3576   -0.0000 </r>
       <r>    8.6420   -0.0000 </r>
       <r>    8.6420   -0.0000 </r>
       <r>    8.6810   -0.0000 </r>
       <r>    8.6811   -0.0000 </r>
       <r>    8.6811   -0.0000 </r>
       <r>    8.6811   -0.0000 </r>
       <r>    8.7372   -0.0000 </r>
       <r>    8.7373   -0.0000 </r>
       <r>    8.8140   -0.0000 </r>
       <r>    8.8140   -0.0000 </r>
       <r>    8.8140   -0.0000 </r>
       <r>    8.8141   -0.0000 </r>
       <r>    8.9006   -0.0000 </r>
[...]
      </set>
     </set>
    </set>
   </array>
  </eigenvalues>
  <separator name="orbital magnetization" >
   <v name="MAGDIPOLOUT">      0.00000000      0.00000000      0.00000000</v>
  </separator>
  <dos>
   <i name="efermi">      6.57500938 </i>
   <total>
    <array>
     <dimension dim="1">gridpoints</dimension>
     <dimension dim="2">spin</dimension>
     <field>energy</field>
     <field>total</field>
     <field>integrated</field>
     <set>
      <set comment="spin 1">
       <r>    -8.0146     0.0000     0.0000 </r>
       <r>    -7.9484     0.0000     0.0000 </r>
       <r>    -7.8823     0.0000     0.0000 </r>
       <r>    -7.8161     0.0000     0.0000 </r>
       <r>    -7.7500     0.0000     0.0000 </r>
       <r>    -7.6838     0.0000     0.0000 </r>
       <r>    -7.6177    -0.0000    -0.0000 </r>
       <r>    -7.5515    -0.0000    -0.0000 </r>
       <r>    -7.4854    -0.0000    -0.0000 </r>
       <r>    -7.4193    -0.0000    -0.0000 </r>
       <r>    -7.3531    -0.0000    -0.0000 </r>
       <r>    -7.2870    -0.0000    -0.0000 </r>
       <r>    -7.2208    -0.0000    -0.0000 </r>
       <r>    -7.1547    -0.0000    -0.0000 </r>
       <r>    -7.0885    -0.0000    -0.0000 </r>
       <r>    -7.0224    -0.0000    -0.0000 </r>
       <r>    -6.9563    -0.0000    -0.0000 </r>
       <r>    -6.8901    -0.0000    -0.0000 </r>
       <r>    -6.8240    -0.0000    -0.0000 </r>
       <r>    -6.7578    -0.0000    -0.0000 </r>
       <r>    -6.6917    -0.0000    -0.0000 </r>
       <r>    -6.6255    -0.0002    -0.0000 </r>
       <r>    -6.5594    -0.0013    -0.0001 </r>
       <r>    -6.4933    -0.0054    -0.0005 </r>
       <r>    -6.4271    -0.0177    -0.0016 </r>
       <r>    -6.3610    -0.0411    -0.0043 </r>
       <r>    -6.2948    -0.0593    -0.0083 </r>
       <r>    -6.2287    -0.0177    -0.0094 </r>
       <r>    -6.1625     0.1457     0.0002 </r>
       <r>    -6.0964     0.4012     0.0267 </r>
       <r>    -6.0303     0.6169     0.0675 </r>
       <r>    -5.9641     0.8165     0.1215 </r>
       <r>    -5.8980     1.4151     0.2151 </r>
       <r>    -5.8318     2.8029     0.4005 </r>
       <r>    -5.7657     4.5453     0.7012 </r>
       <r>    -5.6995     5.6387     1.0741 </r>
       <r>    -5.6334     6.0518     1.4744 </r>
       <r>    -5.5672     7.1507     1.9474 </r>
       <r>    -5.5011     9.5927     2.5819 </r>
       <r>    -5.4350    11.7116     3.3565 </r>
       <r>    -5.3688    11.5268     4.1190 </r>
       <r>    -5.3027     9.6168     4.7550 </r>
       <r>    -5.2365     8.1685     5.2953 </r>
       <r>    -5.1704     7.7529     5.8081 </r>
       <r>    -5.1042     7.0662     6.2755 </r>
       <r>    -5.0381     5.5628     6.6435 </r>
       <r>    -4.9720     4.3011     6.9280 </r>
       <r>    -4.9058     4.1730     7.2040 </r>
       <r>    -4.8397     5.2784     7.5531 </r>
       <r>    -4.7735     8.2663     8.0999 </r>
       <r>    -4.7074    13.9499     9.0226 </r>
       <r>    -4.6412    20.7603    10.3957 </r>
       <r>    -4.5751    25.2102    12.0632 </r>
       <r>    -4.5090    26.2481    13.7993 </r>
       <r>    -4.4428    26.2324    15.5344 </r>
       <r>    -4.3767    26.1155    17.2618 </r>
       <r>    -4.3105    23.2397    18.7990 </r>
       <r>    -4.2444    15.8810    19.8494 </r>
       <r>    -4.1782     6.7657    20.2969 </r>
       <r>    -4.1121     0.2794    20.3154 </r>
       <r>    -4.0460    -1.4066    20.2223 </r>
       <r>    -3.9798     1.5854    20.3272 </r>
       <r>    -3.9137     8.3594    20.8801 </r>
       <r>    -3.8475    17.3613    22.0285 </r>
       <r>    -3.7814    25.8025    23.7351 </r>
       <r>    -3.7152    30.2685    25.7372 </r>
       <r>    -3.6491    28.8120    27.6429 </r>
       <r>    -3.5829    22.7811    29.1497 </r>
       <r>    -3.5168    16.2055    30.2216 </r>
       <r>    -3.4507    13.2182    31.0959 </r>
       <r>    -3.3845    15.9391    32.1502 </r>
       <r>    -3.3184    23.5514    33.7079 </r>
       <r>    -3.2522    32.4771    35.8561 </r>
       <r>    -3.1861    38.5075    38.4031 </r>
       <r>    -3.1199    39.8039    41.0358 </r>
       <r>    -3.0538    37.4930    43.5158 </r>
       <r>    -2.9877    33.4768    45.7300 </r>
       <r>    -2.9215    28.9765    47.6466 </r>
       <r>    -2.8554    25.4026    49.3268 </r>
       <r>    -2.7892    24.3078    50.9346 </r>
       <r>    -2.7231    24.8218    52.5764 </r>
       <r>    -2.6569    23.2004    54.1110 </r>
       <r>    -2.5908    17.0700    55.2401 </r>
       <r>    -2.5247     8.5910    55.8083 </r>
       <r>    -2.4585     1.8468    55.9304 </r>
       <r>    -2.3924    -1.3424    55.8417 </r>
       <r>    -2.3262    -1.7523    55.7257 </r>
       <r>    -2.2601    -0.3459    55.7029 </r>
       <r>    -2.1939     2.8143    55.8890 </r>
       <r>    -2.1278     7.2762    56.3703 </r>
       <r>    -2.0617    10.9408    57.0939 </r>
       <r>    -1.9955    11.2471    57.8379 </r>
       <r>    -1.9294     7.8319    58.3559 </r>
       <r>    -1.8632     3.3966    58.5806 </r>
       <r>    -1.7971     1.8433    58.7025 </r>
       <r>    -1.7309     5.8438    59.0890 </r>
       <r>    -1.6648    15.3203    60.1023 </r>
       <r>    -1.5986    26.8125    61.8758 </r>
       <r>    -1.5325    34.5669    64.1622 </r>
       <r>    -1.4664    34.0561    66.4148 </r>
       <r>    -1.4002    25.5193    68.1027 </r>
       <r>    -1.3341    13.8668    69.0199 </r>
       <r>    -1.2679     4.9674    69.3485 </r>
       <r>    -1.2018     2.0101    69.4814 </r>
       <r>    -1.1356     4.4908    69.7785 </r>
       <r>    -1.0695     9.2554    70.3906 </r>
       <r>    -1.0034    12.4831    71.2163 </r>
       <r>    -0.9372    12.2696    72.0279 </r>
       <r>    -0.8711    10.4670    72.7202 </r>
       <r>    -0.8049    11.2222    73.4624 </r>
       <r>    -0.7388    16.1614    74.5314 </r>
       <r>    -0.6726    21.3469    75.9434 </r>
       <r>    -0.6065    21.2734    77.3505 </r>
       <r>    -0.5404    16.5025    78.4420 </r>
       <r>    -0.4742    14.9670    79.4320 </r>
       <r>    -0.4081    24.0169    81.0205 </r>
       <r>    -0.3419    41.9541    83.7955 </r>
       <r>    -0.2758    58.1702    87.6431 </r>
       <r>    -0.2096    61.5331    91.7131 </r>
       <r>    -0.1435    49.2144    94.9683 </r>
       <r>    -0.0774    28.3220    96.8416 </r>
       <r>    -0.0112     9.5444    97.4729 </r>
       <r>     0.0549    -0.3052    97.4527 </r>
       <r>     0.1211    -0.2420    97.4367 </r>
       <r>     0.1872     7.1130    97.9072 </r>
       <r>     0.2534    17.0367    99.0340 </r>
       <r>     0.3195    23.6568   100.5988 </r>
       <r>     0.3857    23.1525   102.1302 </r>
       <r>     0.4518    16.8575   103.2452 </r>
       <r>     0.5179     9.7609   103.8908 </r>
       <r>     0.5841     6.1240   104.2959 </r>
       <r>     0.6502     7.4647   104.7896 </r>
       <r>     0.7164    13.3084   105.6699 </r>
       <r>     0.7825    21.5774   107.0971 </r>
       <r>     0.8487    28.4386   108.9781 </r>
       <r>     0.9148    29.8091   110.9498 </r>
       <r>     0.9809    24.3277   112.5589 </r>
       <r>     1.0471    14.7423   113.5340 </r>
       <r>     1.1132     5.7735   113.9159 </r>
       <r>     1.1794     0.4707   113.9470 </r>
       <r>     1.2455    -1.2711   113.8629 </r>
       <r>     1.3117    -1.2953   113.7772 </r>
       <r>     1.3778    -1.2066   113.6974 </r>
       <r>     1.4439    -1.5032   113.5980 </r>
       <r>     1.5101    -1.4075   113.5049 </r>
       <r>     1.5762     1.0372   113.5735 </r>
       <r>     1.6424     7.8067   114.0899 </r>
       <r>     1.7085    18.5351   115.3158 </r>
       <r>     1.7747    29.4925   117.2666 </r>
       <r>     1.8408    36.2689   119.6655 </r>
       <r>     1.9069    37.5214   122.1473 </r>
       <r>     1.9731    34.9947   124.4620 </r>
       <r>     2.0392    30.8096   126.4998 </r>
       <r>     2.1054    26.7059   128.2662 </r>
       <r>     2.1715    24.5374   129.8892 </r>
       <r>     2.2377    24.6018   131.5165 </r>
       <r>     2.3038    24.3366   133.1262 </r>
       <r>     2.3700    21.4231   134.5432 </r>
       <r>     2.4361    18.3043   135.7539 </r>
       <r>     2.5022    21.8366   137.1982 </r>
       <r>     2.5684    36.9847   139.6445 </r>
       <r>     2.6345    60.1580   143.6236 </r>
       <r>     2.7007    79.2979   148.8686 </r>
       <r>     2.7668    82.2228   154.3071 </r>
       <r>     2.8330    66.3331   158.6946 </r>
       <r>     2.8991    40.3513   161.3636 </r>
       <r>     2.9652    16.5502   162.4582 </r>
       <r>     3.0314     1.8228   162.5788 </r>
       <r>     3.0975    -4.1262   162.3059 </r>
       <r>     3.1637    -4.0010   162.0412 </r>
       <r>     3.2298     1.8928   162.1664 </r>
       <r>     3.2960    15.3128   163.1793 </r>
       <r>     3.3621    35.2754   165.5125 </r>
       <r>     3.4282    55.3801   169.1755 </r>
       <r>     3.4944    68.2420   173.6893 </r>
       <r>     3.5605    71.7863   178.4375 </r>
       <r>     3.6267    68.8722   182.9929 </r>
       <r>     3.6928    62.3515   187.1171 </r>
       <r>     3.7590    53.6499   190.6656 </r>
       <r>     3.8251    44.9973   193.6419 </r>
       <r>     3.8912    39.8317   196.2765 </r>
       <r>     3.9574    40.0447   198.9252 </r>
       <r>     4.0235    43.1262   201.7777 </r>
       <r>     4.0897    43.0838   204.6274 </r>
       <r>     4.1558    36.1819   207.0206 </r>
       <r>     4.2220    25.8231   208.7286 </r>
       <r>     4.2881    19.6448   210.0280 </r>
       <r>     4.3543    21.5469   211.4532 </r>
       <r>     4.4204    28.3400   213.3277 </r>
       <r>     4.4865    34.2047   215.5901 </r>
       <r>     4.5527    36.4789   218.0029 </r>
       <r>     4.6188    36.5820   220.4226 </r>
       <r>     4.6850    37.1255   222.8782 </r>
       <r>     4.7511    39.5036   225.4911 </r>
       <r>     4.8173    43.4188   228.3630 </r>
       <r>     4.8834    47.3870   231.4973 </r>
       <r>     4.9495    49.5802   234.7767 </r>
       <r>     5.0157    48.5032   237.9849 </r>
       <r>     5.0818    43.1373   240.8381 </r>
       <r>     5.1480    33.4239   243.0489 </r>
       <r>     5.2141    21.4744   244.4693 </r>
       <r>     5.2803    11.5447   245.2329 </r>
       <r>     5.3464     7.5005   245.7290 </r>
       <r>     5.4125     9.9993   246.3904 </r>
       <r>     5.4787    16.0994   247.4552 </r>
       <r>     5.5448    21.2040   248.8577 </r>
       <r>     5.6110    21.7069   250.2935 </r>
       <r>     5.6771    17.0063   251.4184 </r>
       <r>     5.7433     9.7129   252.0608 </r>
       <r>     5.8094     3.6927   252.3051 </r>
       <r>     5.8756     1.5087   252.4049 </r>
       <r>     5.9417     3.2558   252.6202 </r>
       <r>     6.0078     7.0369   253.0856 </r>
       <r>     6.0740    10.1932   253.7599 </r>
       <r>     6.1401    10.7691   254.4722 </r>
       <r>     6.2063     8.6629   255.0452 </r>
       <r>     6.2724     5.4800   255.4076 </r>
       <r>     6.3386     2.9992   255.6060 </r>
       <r>     6.4047     1.7911   255.7245 </r>
       <r>     6.4708     1.3969   255.8169 </r>
       <r>     6.5370     1.5195   255.9174 </r>
       <r>     6.6031     2.5162   256.0838 </r>
       <r>     6.6693     4.6267   256.3898 </r>
       <r>     6.7354     7.1751   256.8644 </r>
       <r>     6.8016     8.9023   257.4532 </r>
       <r>     6.8677     8.9062   258.0423 </r>
       <r>     6.9338     7.1316   258.5140 </r>
       <r>     7.0000     4.3665   258.8028 </r>
       <r>     7.0661     2.0556   258.9388 </r>
       <r>     7.1323     1.7259   259.0529 </r>
       <r>     7.1984     4.0231   259.3190 </r>
       <r>     7.2646     8.0730   259.8530 </r>
       <r>     7.3307    11.9035   260.6404 </r>
       <r>     7.3968    13.8732   261.5580 </r>
       <r>     7.4630    14.0943   262.4902 </r>
       <r>     7.5291    14.5081   263.4498 </r>
       <r>     7.5953    17.0795   264.5795 </r>
       <r>     7.6614    21.4095   265.9956 </r>
       <r>     7.7276    24.4132   267.6104 </r>
       <r>     7.7937    23.1274   269.1401 </r>
       <r>     7.8599    18.0691   270.3353 </r>
       <r>     7.9260    13.4599   271.2255 </r>
       <r>     7.9921    13.8068   272.1388 </r>
       <r>     8.0583    20.0710   273.4663 </r>
       <r>     8.1244    29.0195   275.3858 </r>
       <r>     8.1906    36.0731   277.7718 </r>
       <r>     8.2567    38.4302   280.3137 </r>
       <r>     8.3229    35.9731   282.6931 </r>
       <r>     8.3890    31.0507   284.7469 </r>
       <r>     8.4551    28.0289   286.6008 </r>
       <r>     8.5213    31.0221   288.6527 </r>
       <r>     8.5874    40.5230   291.3330 </r>
       <r>     8.6536    52.9356   294.8344 </r>
       <r>     8.7197    63.6811   299.0464 </r>
       <r>     8.7859    69.5307   303.6454 </r>
       <r>     8.8520    68.1631   308.1540 </r>
       <r>     8.9181    58.4088   312.0173 </r>
       <r>     8.9843    42.5853   314.8341 </r>
       <r>     9.0504    26.6557   316.5972 </r>
       <r>     9.1166    16.2783   317.6739 </r>
       <r>     9.1827    13.0843   318.5393 </r>
       <r>     9.2489    14.7455   319.5146 </r>
       <r>     9.3150    17.3600   320.6629 </r>
       <r>     9.3811    17.6345   321.8293 </r>
       <r>     9.4473    14.3172   322.7762 </r>
       <r>     9.5134     8.6936   323.3513 </r>
       <r>     9.5796     3.4550   323.5798 </r>
       <r>     9.6457     0.5810   323.6182 </r>
       <r>     9.7119     0.1836   323.6304 </r>
       <r>     9.7780     1.0308   323.6986 </r>
       <r>     9.8442     1.7503   323.8143 </r>
       <r>     9.9103     1.6844   323.9257 </r>
       <r>     9.9764     1.0290   323.9938 </r>
       <r>    10.0426     0.3446   324.0166 </r>
       <r>    10.1087    -0.0267   324.0148 </r>
       <r>    10.1749    -0.1094   324.0076 </r>
       <r>    10.2410    -0.0730   324.0028 </r>
       <r>    10.3072    -0.0302   324.0008 </r>
       <r>    10.3733    -0.0090   324.0002 </r>
       <r>    10.4394    -0.0020   324.0000 </r>
       <r>    10.5056    -0.0003   324.0000 </r>
       <r>    10.5717    -0.0000   324.0000 </r>
       <r>    10.6379    -0.0000   324.0000 </r>
       <r>    10.7040    -0.0000   324.0000 </r>
       <r>    10.7702    -0.0000   324.0000 </r>
       <r>    10.8363    -0.0000   324.0000 </r>
       <r>    10.9024    -0.0000   324.0000 </r>
       <r>    10.9686    -0.0000   324.0000 </r>
       <r>    11.0347    -0.0000   324.0000 </r>
       <r>    11.1009    -0.0000   324.0000 </r>
       <r>    11.1670     0.0000   324.0000 </r>
       <r>    11.2332     0.0000   324.0000 </r>
       <r>    11.2993     0.0000   324.0000 </r>
       <r>    11.3654     0.0000   324.0000 </r>
       <r>    11.4316     0.0000   324.0000 </r>
       <r>    11.4977     0.0000   324.0000 </r>
       <r>    11.5639     0.0000   324.0000 </r>
       <r>    11.6300     0.0000   324.0000 </r>
       <r>    11.6962     0.0000   324.0000 </r>
       <r>    11.7623     0.0000   324.0000 </r>
       <r>    11.8285     0.0000   324.0000 </r>
      </set>
     </set>
    </array>
   </total>
  </dos>
 </calculation>
 <structure name="finalpos" >
  <crystal>
   <varray name="basis" >
    <v>      10.76922459       0.07957601       0.00000000 </v>
    <v>       0.07957601      10.61007357       0.00000000 </v>
    <v>       0.00000000       0.00000000      10.61007357 </v>
   </varray>
   <i name="volume">   1212.26385269 </i>
   <varray name="rec_basis" >
    <v>       0.09286234      -0.00069647       0.00000000 </v>
    <v>      -0.00069647       0.09425528       0.00000000 </v>
    <v>       0.00000000       0.00000000       0.09425005 </v>
   </varray>
  </crystal>
  <varray name="positions" >
   <v>       0.00000000       0.00000000       0.00060617 </v>
   <v>       0.00000000       0.00000000       0.50060617 </v>
   <v>       0.00000000       0.50000000       0.00060617 </v>
   <v>       0.00000000       0.50000000       0.50060617 </v>
   <v>       0.50000000       0.00000000       0.00060617 </v>
   <v>       0.50000000       0.00000000       0.50060617 </v>
   <v>       0.50000000       0.50000000       0.00060617 </v>
   <v>       0.50000000       0.50000000       0.50060617 </v>
   <v>       0.37500000       0.37500000       0.12439383 </v>
   <v>       0.37500000       0.37500000       0.62439383 </v>
   <v>       0.37500000       0.87500000       0.12439383 </v>
   <v>       0.37500000       0.87500000       0.62439383 </v>
   <v>       0.87500000       0.37500000       0.12439383 </v>
   <v>       0.87500000       0.37500000       0.62439383 </v>
   <v>       0.87500000       0.87500000       0.12439383 </v>
   <v>       0.87500000       0.87500000       0.62439383 </v>
   <v>       0.00000000       0.25000000       0.25060617 </v>
   <v>       0.00000000       0.25000000       0.75060617 </v>
   <v>       0.00000000       0.75000000       0.25060617 </v>
   <v>       0.00000000       0.75000000       0.75060617 </v>
   <v>       0.50000000       0.25000000       0.25060617 </v>
   <v>       0.50000000       0.25000000       0.75060617 </v>
   <v>       0.50000000       0.75000000       0.25060617 </v>
   <v>       0.50000000       0.75000000       0.75060617 </v>
   <v>       0.37500000       0.12500000       0.37439383 </v>
   <v>       0.37500000       0.12500000       0.87439383 </v>
   <v>       0.37500000       0.62500000       0.37439383 </v>
   <v>       0.37500000       0.62500000       0.87439383 </v>
   <v>       0.87500000       0.12500000       0.37439383 </v>
   <v>       0.87500000       0.12500000       0.87439383 </v>
   <v>       0.87500000       0.62500000       0.37439383 </v>
   <v>       0.87500000       0.62500000       0.87439383 </v>
   <v>       0.25000000       0.00000000       0.25060617 </v>
   <v>       0.25000000       0.00000000       0.75060617 </v>
   <v>       0.25000000       0.50000000       0.25060617 </v>
   <v>       0.25000000       0.50000000       0.75060617 </v>
   <v>       0.75000000       0.00000000       0.25060617 </v>
   <v>       0.75000000       0.00000000       0.75060617 </v>
   <v>       0.75000000       0.50000000       0.25060617 </v>
   <v>       0.75000000       0.50000000       0.75060617 </v>
   <v>       0.12500000       0.37500000       0.37439383 </v>
   <v>       0.12500000       0.37500000       0.87439383 </v>
   <v>       0.12500000       0.87500000       0.37439383 </v>
   <v>       0.12500000       0.87500000       0.87439383 </v>
   <v>       0.62500000       0.37500000       0.37439383 </v>
   <v>       0.62500000       0.37500000       0.87439383 </v>
   <v>       0.62500000       0.87500000       0.37439383 </v>
   <v>       0.62500000       0.87500000       0.87439383 </v>
   <v>       0.25000000       0.25000000       0.00060617 </v>
   <v>       0.25000000       0.25000000       0.50060617 </v>
   <v>       0.25000000       0.75000000       0.00060617 </v>
   <v>       0.25000000       0.75000000       0.50060617 </v>
   <v>       0.75000000       0.25000000       0.00060617 </v>
   <v>       0.75000000       0.25000000       0.50060617 </v>
   <v>       0.75000000       0.75000000       0.00060617 </v>
   <v>       0.75000000       0.75000000       0.50060617 </v>
   <v>       0.12500000       0.12500000       0.12439383 </v>
   <v>       0.12500000       0.12500000       0.62439383 </v>
   <v>       0.12500000       0.62500000       0.12439383 </v>
   <v>       0.12500000       0.62500000       0.62439383 </v>
   <v>       0.62500000       0.12500000       0.12439383 </v>
   <v>       0.62500000       0.12500000       0.62439383 </v>
   <v>       0.62500000       0.62500000       0.12439383 </v>
   <v>       0.62500000       0.62500000       0.62439383 </v>
  </varray>
 </structure>
</modeling>
