Si64                                    
           1
    10.769225    0.079576    0.000000
     0.079576   10.610074    0.000000
     0.000000    0.000000   10.610074
   Si
    64
Direct configuration=     1
   0.00000000  0.00000000  0.00000000
   0.00000000  0.00000000  0.50000000
   0.00000000  0.50000000  0.00000000
   0.00000000  0.50000000  0.50000000
   0.50000000  0.00000000  0.00000000
   0.50000000  0.00000000  0.50000000
   0.50000000  0.50000000  0.00000000
   0.50000000  0.50000000  0.50000000
   0.37500000  0.37500000  0.12500000
   0.37500000  0.37500000  0.62500000
   0.37500000  0.87500000  0.12500000
   0.37500000  0.87500000  0.62500000
   0.87500000  0.37500000  0.12500000
   0.87500000  0.37500000  0.62500000
   0.87500000  0.87500000  0.12500000
   0.87500000  0.87500000  0.62500000
   0.00000000  0.25000000  0.25000000
   0.00000000  0.25000000  0.75000000
   0.00000000  0.75000000  0.25000000
   0.00000000  0.75000000  0.75000000
   0.50000000  0.25000000  0.25000000
   0.50000000  0.25000000  0.75000000
   0.50000000  0.75000000  0.25000000
   0.50000000  0.75000000  0.75000000
   0.37500000  0.12500000  0.37500000
   0.37500000  0.12500000  0.87500000
   0.37500000  0.62500000  0.37500000
   0.37500000  0.62500000  0.87500000
   0.87500000  0.12500000  0.37500000
   0.87500000  0.12500000  0.87500000
   0.87500000  0.62500000  0.37500000
   0.87500000  0.62500000  0.87500000
   0.25000000  0.00000000  0.25000000
   0.25000000  0.00000000  0.75000000
   0.25000000  0.50000000  0.25000000
   0.25000000  0.50000000  0.75000000
   0.75000000  0.00000000  0.25000000
   0.75000000  0.00000000  0.75000000
   0.75000000  0.50000000  0.25000000
   0.75000000  0.50000000  0.75000000
   0.12500000  0.37500000  0.37500000
   0.12500000  0.37500000  0.87500000
   0.12500000  0.87500000  0.37500000
   0.12500000  0.87500000  0.87500000
   0.62500000  0.37500000  0.37500000
   0.62500000  0.37500000  0.87500000
   0.62500000  0.87500000  0.37500000
   0.62500000  0.87500000  0.87500000
   0.25000000  0.25000000  0.00000000
   0.25000000  0.25000000  0.50000000
   0.25000000  0.75000000  0.00000000
   0.25000000  0.75000000  0.50000000
   0.75000000  0.25000000  0.00000000
   0.75000000  0.25000000  0.50000000
   0.75000000  0.75000000  0.00000000
   0.75000000  0.75000000  0.50000000
   0.12500000  0.12500000  0.12500000
   0.12500000  0.12500000  0.62500000
   0.12500000  0.62500000  0.12500000
   0.12500000  0.62500000  0.62500000
   0.62500000  0.12500000  0.12500000
   0.62500000  0.12500000  0.62500000
   0.62500000  0.62500000  0.12500000
   0.62500000  0.62500000  0.62500000
Direct configuration=     2
   1.00000000  0.00000000  0.00086050
   1.00000000  0.00000000  0.50086050
   1.00000000  0.50000000  0.00086050
   1.00000000  0.50000000  0.50086050
   0.50000000  1.00000000  0.00086050
   0.50000000  1.00000000  0.50086050
   0.50000000  0.50000000  0.00086050
   0.50000000  0.50000000  0.50086050
   0.37500000  0.37500000  0.12413950
   0.37500000  0.37500000  0.62413950
   0.37500000  0.87500000  0.12413950
   0.37500000  0.87500000  0.62413950
   0.87500000  0.37500000  0.12413950
   0.87500000  0.37500000  0.62413950
   0.87500000  0.87500000  0.12413950
   0.87500000  0.87500000  0.62413950
   1.00000000  0.25000000  0.25086050
   1.00000000  0.25000000  0.75086050
   1.00000000  0.75000000  0.25086050
   1.00000000  0.75000000  0.75086050
   0.50000000  0.25000000  0.25086050
   0.50000000  0.25000000  0.75086050
   0.50000000  0.75000000  0.25086050
   0.50000000  0.75000000  0.75086050
   0.37500000  0.12500000  0.37413950
   0.37500000  0.12500000  0.87413950
   0.37500000  0.62500000  0.37413950
   0.37500000  0.62500000  0.87413950
   0.87500000  0.12500000  0.37413950
   0.87500000  0.12500000  0.87413950
   0.87500000  0.62500000  0.37413950
   0.87500000  0.62500000  0.87413950
   0.25000000  0.00000000  0.25086050
   0.25000000  0.00000000  0.75086050
   0.25000000  0.50000000  0.25086050
   0.25000000  0.50000000  0.75086050
   0.75000000  1.00000000  0.25086050
   0.75000000  0.00000000  0.75086050
   0.75000000  0.50000000  0.25086050
   0.75000000  0.50000000  0.75086050
   0.12500000  0.37500000  0.37413950
   0.12500000  0.37500000  0.87413950
   0.12500000  0.87500000  0.37413950
   0.12500000  0.87500000  0.87413950
   0.62500000  0.37500000  0.37413950
   0.62500000  0.37500000  0.87413950
   0.62500000  0.87500000  0.37413950
   0.62500000  0.87500000  0.87413950
   0.25000000  0.25000000  0.00086050
   0.25000000  0.25000000  0.50086050
   0.25000000  0.75000000  0.00086050
   0.25000000  0.75000000  0.50086050
   0.75000000  0.25000000  0.00086050
   0.75000000  0.25000000  0.50086050
   0.75000000  0.75000000  0.00086050
   0.75000000  0.75000000  0.50086050
   0.12500000  0.12500000  0.12413950
   0.12500000  0.12500000  0.62413950
   0.12500000  0.62500000  0.12413950
   0.12500000  0.62500000  0.62413950
   0.62500000  0.12500000  0.12413950
   0.62500000  0.12500000  0.62413950
   0.62500000  0.62500000  0.12413950
   0.62500000  0.62500000  0.62413950
Direct configuration=     3
   0.00000000  0.00000000  0.00060617
   0.00000000  0.00000000  0.50060617
   0.00000000  0.50000000  0.00060617
   0.00000000  0.50000000  0.50060617
   0.50000000  0.00000000  0.00060617
   0.50000000  0.00000000  0.50060617
   0.50000000  0.50000000  0.00060617
   0.50000000  0.50000000  0.50060617
   0.37500000  0.37500000  0.12439383
   0.37500000  0.37500000  0.62439383
   0.37500000  0.87500000  0.12439383
   0.37500000  0.87500000  0.62439383
   0.87500000  0.37500000  0.12439383
   0.87500000  0.37500000  0.62439383
   0.87500000  0.87500000  0.12439383
   0.87500000  0.87500000  0.62439383
   0.00000000  0.25000000  0.25060617
   0.00000000  0.25000000  0.75060617
   0.00000000  0.75000000  0.25060617
   0.00000000  0.75000000  0.75060617
   0.50000000  0.25000000  0.25060617
   0.50000000  0.25000000  0.75060617
   0.50000000  0.75000000  0.25060617
   0.50000000  0.75000000  0.75060617
   0.37500000  0.12500000  0.37439383
   0.37500000  0.12500000  0.87439383
   0.37500000  0.62500000  0.37439383
   0.37500000  0.62500000  0.87439383
   0.87500000  0.12500000  0.37439383
   0.87500000  0.12500000  0.87439383
   0.87500000  0.62500000  0.37439383
   0.87500000  0.62500000  0.87439383
   0.25000000  0.00000000  0.25060617
   0.25000000  0.00000000  0.75060617
   0.25000000  0.50000000  0.25060617
   0.25000000  0.50000000  0.75060617
   0.75000000  0.00000000  0.25060617
   0.75000000  0.00000000  0.75060617
   0.75000000  0.50000000  0.25060617
   0.75000000  0.50000000  0.75060617
   0.12500000  0.37500000  0.37439383
   0.12500000  0.37500000  0.87439383
   0.12500000  0.87500000  0.37439383
   0.12500000  0.87500000  0.87439383
   0.62500000  0.37500000  0.37439383
   0.62500000  0.37500000  0.87439383
   0.62500000  0.87500000  0.37439383
   0.62500000  0.87500000  0.87439383
   0.25000000  0.25000000  0.00060617
   0.25000000  0.25000000  0.50060617
   0.25000000  0.75000000  0.00060617
   0.25000000  0.75000000  0.50060617
   0.75000000  0.25000000  0.00060617
   0.75000000  0.25000000  0.50060617
   0.75000000  0.75000000  0.00060617
   0.75000000  0.75000000  0.50060617
   0.12500000  0.12500000  0.12439383
   0.12500000  0.12500000  0.62439383
   0.12500000  0.62500000  0.12439383
   0.12500000  0.62500000  0.62439383
   0.62500000  0.12500000  0.12439383
   0.62500000  0.12500000  0.62439383
   0.62500000  0.62500000  0.12439383
   0.62500000  0.62500000  0.62439383
