 vasp.6.4.3 19Mar24 (build Oct 21 2024 22:36:34) complex                        
  
 executed on             LinuxIFC date 2024.11.01  22:56:58
 running   96 mpi-ranks, on    1 nodes
 distrk:  each k-point on   24 cores,    4 groups
 distr:  one band on NCORE=  12 cores,    2 groups


--------------------------------------------------------------------------------------------------------


 INCAR:
   SYSTEM = Si64
   ISTART = 0
   ICHARG = 2
   LREAL = Auto
   PREC = Accurate
   LWAVE = .False.
   LCHARG = .False.
   ADDGRID = .True.
   ENCUT = 400
   GGA = PS
   GGA_COMPAT = .FALSE.
   ISMEAR = 1
   SIGMA = 0.2
   NELM = 60
   NELMIN = 8
   EDIFF = 1e-06
   EDIFFG = -0.01
   NSW = 60
   IBRION = 2
   ISIF = 2
   KPAR = 4
   NPAR = 2
   ALGO = Fast

 POTCAR:    PAW_PBE Si 05Jan2001                  
 POTCAR:    PAW_PBE Si 05Jan2001                  
   VRHFIN =Si: s2p2                                                                                 
   LEXCH  = PE                                                                                      
   EATOM  =   103.0669 eV,    7.5752 Ry                                                             
                                                                                                    
   TITEL  = PAW_PBE Si 05Jan2001                                                                    
   LULTRA =        F    use ultrasoft PP ?                                                          
   IUNSCR =        1    unscreen: 0-lin 1-nonlin 2-no                                               
   RPACOR =    1.500    partial core radius                                                         
   POMASS =   28.085; ZVAL   =    4.000    mass and valenz                                          
   RCORE  =    1.900    outmost cutoff radius                                                       
   RWIGS  =    2.480; RWIGS  =    1.312    wigner-seitz radius (au A)                               
   ENMAX  =  245.345; ENMIN  =  184.009 eV                                                          
   ICORE  =        2    local potential                                                             
   LCOR   =        T    correct aug charges                                                         
   LPAW   =        T    paw PP                                                                      
   EAUG   =  322.069                                                                                
   DEXC   =    0.000                                                                                
   RMAX   =    1.950    core radius for proj-oper                                                   
   RAUG   =    1.300    factor for augmentation sphere                                              
   RDEP   =    1.993    radius for radial grids                                                     
   RDEPT  =    1.837    core radius for aug-charge                                                  
                                                                                                    
   Atomic configuration                                                                             
    6 entries                                                                                       
     n  l   j            E        occ.                                                              
     1  0  0.50     -1785.8828   2.0000                                                             
     2  0  0.50      -139.4969   2.0000                                                             
     2  1  1.50       -95.5546   6.0000                                                             
     3  0  0.50       -10.8127   2.0000                                                             
     3  1  0.50        -4.0811   2.0000                                                             
     3  2  1.50        -4.0817   0.0000                                                             
   Description                                                                                      
     l       E           TYP  RCUT    TYP  RCUT                                                     
     0    -10.8127223     23  1.900                                                                 
     0     -7.6451159     23  1.900                                                                 
     1     -4.0811372     23  1.900                                                                 
     1      2.4879257     23  1.900                                                                 
     2     -4.0817478      7  1.900                                                                 
  local pseudopotential read in
  partial core-charges read in
  partial kinetic energy density read in
  atomic valenz-charges read in
  non local Contribution for L=           0  read in
    real space projection operators read in
  non local Contribution for L=           0  read in
    real space projection operators read in
  non local Contribution for L=           1  read in
    real space projection operators read in
  non local Contribution for L=           1  read in
    real space projection operators read in
    PAW grid and wavefunctions read in
 
   number of l-projection  operators is LMAX  =           4
   number of lm-projection operators is LMMAX =           8
 
 Optimization of the real space projectors (new method)

 maximal supplied QI-value         = 19.84
 optimisation between [QCUT,QGAM] = [ 10.12, 20.44] = [ 28.68,116.96] Ry 
 Optimized for a Real-space Cutoff    1.38 Angstroem

   l    n(q)    QCUT    max X(q) W(low)/X(q) W(high)/X(q)  e(spline) 
   0      8    10.119   159.560    0.58E-04    0.11E-03    0.54E-07
   0      8    10.119   115.863    0.56E-04    0.11E-03    0.54E-07
   1      8    10.119    88.339    0.22E-03    0.17E-03    0.19E-06
   1      8    10.119    48.592    0.22E-03    0.17E-03    0.18E-06
 -----------------------------------------------------------------------------
|                                                                             |
|               ----> ADVICE to this user running VASP <----                  |
|                                                                             |
|     You enforced a specific xc type in the INCAR file but a different       |
|     type was found in the POTCAR file.                                      |
|     I HOPE YOU KNOW WHAT YOU ARE DOING!                                     |
|                                                                             |
 -----------------------------------------------------------------------------

  PAW_PBE Si 05Jan2001                  :
 energy of atom  1       EATOM= -103.0669
 kinetic energy error for atom=    0.0012 (will be added to EATOM!!)
 
 
 POSCAR: Si8
  positions in direct lattice
  velocities in cartesian coordinates


 exchange-correlation table for PS
   RHO(1)=    0.500       N(1)  =     2000
   RHO(2)=  100.500       N(2)  =     4000
 


--------------------------------------------------------------------------------------------------------


 ion  position               nearest neighbor table
   1  0.000  0.000  0.000-  15 2.26  57 2.26  44 2.29  30 2.29
   2  0.000  0.000  0.500-  16 2.26  58 2.26  43 2.29  29 2.29
   3  0.000  0.500  0.000-  13 2.26  59 2.26  42 2.29  32 2.29
   4  0.000  0.500  0.500-  14 2.26  60 2.26  41 2.29  31 2.29
   5  0.500  0.000  0.000-  11 2.26  61 2.26  48 2.29  26 2.29
   6  0.500  0.000  0.500-  12 2.26  62 2.26  47 2.29  25 2.29
   7  0.500  0.500  0.000-   9 2.26  63 2.26  46 2.29  28 2.29
   8  0.500  0.500  0.500-  10 2.26  64 2.26  45 2.29  27 2.29
   9  0.375  0.375  0.125-   7 2.26  49 2.26  35 2.29  21 2.29
  10  0.375  0.375  0.625-   8 2.26  50 2.26  36 2.29  22 2.29
  11  0.375  0.875  0.125-   5 2.26  51 2.26  33 2.29  23 2.29
  12  0.375  0.875  0.625-   6 2.26  52 2.26  34 2.29  24 2.29
  13  0.875  0.375  0.125-   3 2.26  53 2.26  39 2.29  17 2.29
  14  0.875  0.375  0.625-   4 2.26  54 2.26  40 2.29  18 2.29
  15  0.875  0.875  0.125-   1 2.26  55 2.26  37 2.29  19 2.29
  16  0.875  0.875  0.625-   2 2.26  56 2.26  38 2.29  20 2.29
  17  0.000  0.250  0.250-  29 2.26  41 2.26  13 2.29  57 2.29
  18  0.000  0.250  0.750-  30 2.26  42 2.26  14 2.29  58 2.29
  19  0.000  0.750  0.250-  31 2.26  43 2.26  15 2.29  59 2.29
  20  0.000  0.750  0.750-  32 2.26  44 2.26  16 2.29  60 2.29
  21  0.500  0.250  0.250-  25 2.26  45 2.26   9 2.29  61 2.29
  22  0.500  0.250  0.750-  26 2.26  46 2.26  10 2.29  62 2.29
  23  0.500  0.750  0.250-  27 2.26  47 2.26  11 2.29  63 2.29
  24  0.500  0.750  0.750-  28 2.26  48 2.26  12 2.29  64 2.29
  25  0.375  0.125  0.375-  21 2.26  33 2.26   6 2.29  50 2.29
  26  0.375  0.125  0.875-  22 2.26  34 2.26   5 2.29  49 2.29
  27  0.375  0.625  0.375-  23 2.26  35 2.26   8 2.29  52 2.29
  28  0.375  0.625  0.875-  24 2.26  36 2.26   7 2.29  51 2.29
  29  0.875  0.125  0.375-  17 2.26  37 2.26   2 2.29  54 2.29
  30  0.875  0.125  0.875-  18 2.26  38 2.26   1 2.29  53 2.29
  31  0.875  0.625  0.375-  19 2.26  39 2.26   4 2.29  56 2.29
  32  0.875  0.625  0.875-  20 2.26  40 2.26   3 2.29  55 2.29
  33  0.250  0.000  0.250-  25 2.26  43 2.26  11 2.29  57 2.29
  34  0.250  0.000  0.750-  26 2.26  44 2.26  12 2.29  58 2.29
  35  0.250  0.500  0.250-  27 2.26  41 2.26   9 2.29  59 2.29
  36  0.250  0.500  0.750-  28 2.26  42 2.26  10 2.29  60 2.29
  37  0.750  0.000  0.250-  29 2.26  47 2.26  15 2.29  61 2.29
  38  0.750  0.000  0.750-  30 2.26  48 2.26  16 2.29  62 2.29
  39  0.750  0.500  0.250-  31 2.26  45 2.26  13 2.29  63 2.29
  40  0.750  0.500  0.750-  32 2.26  46 2.26  14 2.29  64 2.29
  41  0.125  0.375  0.375-  17 2.26  35 2.26   4 2.29  50 2.29
  42  0.125  0.375  0.875-  18 2.26  36 2.26   3 2.29  49 2.29
  43  0.125  0.875  0.375-  19 2.26  33 2.26   2 2.29  52 2.29
  44  0.125  0.875  0.875-  20 2.26  34 2.26   1 2.29  51 2.29
  45  0.625  0.375  0.375-  21 2.26  39 2.26   8 2.29  54 2.29
  46  0.625  0.375  0.875-  22 2.26  40 2.26   7 2.29  53 2.29
  47  0.625  0.875  0.375-  23 2.26  37 2.26   6 2.29  56 2.29
  48  0.625  0.875  0.875-  24 2.26  38 2.26   5 2.29  55 2.29
  49  0.250  0.250  0.000-   9 2.26  57 2.26  42 2.29  26 2.29
  50  0.250  0.250  0.500-  10 2.26  58 2.26  41 2.29  25 2.29
  51  0.250  0.750  0.000-  11 2.26  59 2.26  44 2.29  28 2.29
  52  0.250  0.750  0.500-  12 2.26  60 2.26  43 2.29  27 2.29
  53  0.750  0.250  0.000-  13 2.26  61 2.26  46 2.29  30 2.29
  54  0.750  0.250  0.500-  14 2.26  62 2.26  45 2.29  29 2.29
  55  0.750  0.750  0.000-  15 2.26  63 2.26  48 2.29  32 2.29
  56  0.750  0.750  0.500-  16 2.26  64 2.26  47 2.29  31 2.29
  57  0.125  0.125  0.125-   1 2.26  49 2.26  33 2.29  17 2.29
  58  0.125  0.125  0.625-   2 2.26  50 2.26  34 2.29  18 2.29
  59  0.125  0.625  0.125-   3 2.26  51 2.26  35 2.29  19 2.29
  60  0.125  0.625  0.625-   4 2.26  52 2.26  36 2.29  20 2.29
  61  0.625  0.125  0.125-   5 2.26  53 2.26  37 2.29  21 2.29
  62  0.625  0.125  0.625-   6 2.26  54 2.26  38 2.29  22 2.29
  63  0.625  0.625  0.125-   7 2.26  55 2.26  39 2.29  23 2.29
  64  0.625  0.625  0.625-   8 2.26  56 2.26  40 2.29  24 2.29
 
  LATTYP: Found a simple monoclinic cell.
 ALAT       =    10.3726765070
 B/A-ratio  =     1.0203551182
 C/A-ratio  =     1.0204061345
 COS(beta)  =    -0.0202019976
  
  Lattice vectors:
  
 A1 = (  10.3721365318,  -0.1058380156,   0.0000000000)
 A2 = (   0.0000000000,   0.0000000000, -10.5838135630)
 A3 = (  -0.1058380156,  10.5838135630,   0.0000000000)


Analysis of symmetry for initial positions (statically):
=====================================================================
 Subroutine PRICEL returns following result:
 
  LATTYP: Found a base centered monoclinic cell.
 ALAT       =     5.1863382535
 B/A-ratio  =     1.0203551182
 C/A-ratio  =     0.7071068156
 COS(beta)  =    -0.6925302769
  
  Lattice vectors:
  
 A1 = (  -2.5930341329,   0.0264595039,  -2.6459533908)
 A2 = (  -2.5930341329,   0.0264595039,   2.6459533908)
 A3 = (   2.5665746290,   2.6194938868,   0.0000000000)
 
  32 primitive cells build up your supercell.
 

 Routine SETGRP: Setting up the symmetry group for a 
 simple monoclinic supercell.


 Subroutine GETGRP returns: Found  4 space group operations
 (whereof  2 operations were pure point group operations)
 out of a pool of  4 trial point group operations.


The static configuration has the point symmetry C_2 .
 The point group associated with its full space group is C_2h.


Analysis of symmetry for dynamics (positions and initial velocities):
=====================================================================
 Subroutine PRICEL returns following result:
 
  LATTYP: Found a base centered monoclinic cell.
 ALAT       =     5.1863382535
 B/A-ratio  =     1.0203551182
 C/A-ratio  =     0.7071068156
 COS(beta)  =    -0.6925302769
  
  Lattice vectors:
  
 A1 = (  -2.5930341329,   0.0264595039,  -2.6459533908)
 A2 = (  -2.5930341329,   0.0264595039,   2.6459533908)
 A3 = (   2.5665746290,   2.6194938868,   0.0000000000)
 
  32 primitive cells build up your supercell.
 

 Routine SETGRP: Setting up the symmetry group for a 
 simple monoclinic supercell.


 Subroutine GETGRP returns: Found  4 space group operations
 (whereof  2 operations were pure point group operations)
 out of a pool of  4 trial point group operations.


The dynamic configuration has the point symmetry C_2 .
 The point group associated with its full space group is C_2h.


 Subroutine INISYM returns: Found  4 space group operations
 (whereof  2 operations are pure point group operations),
 and found    32 'primitive' translations


----------------------------------------------------------------------------------------

                                     Primitive cell                                     

  volume of cell :      36.3043

  direct lattice vectors                    reciprocal lattice vectors
    -2.593034133  0.026459504 -2.645953391    -0.190915544  0.187058650 -0.188967803
    -2.593034133  0.026459504  2.645953391    -0.190915544  0.187058650  0.188967803
     2.566574629  2.619493887  0.000000000     0.003856875  0.377974175 -0.000000000

  length of vectors
     3.704807075  3.704807075  3.667295127     0.327335476  0.327335476  0.377993853

  position of ions in fractional coordinates (direct lattice)
     0.000000000  0.000000000  0.000000000
     0.750000000  0.250000000  0.500000000

  ion indices of the primitive-cell ions
   primitive index   ion index
                 1           1
                 2          15

----------------------------------------------------------------------------------------

 
 
 KPOINTS: Automatic mesh                          

Automatic generation of k-mesh.
 Grid dimensions read from file:
 generate k-points for:    2    2    2

 Generating k-lattice:

  Cartesian coordinates                     Fractional coordinates (reciprocal lattice)
     0.048210995  0.000482109  0.000000000     0.500000000  0.000000000  0.000000000
     0.000482109  0.047246772  0.000000000     0.000000000  0.500000000  0.000000000
     0.000000000  0.000000000  0.047241951     0.000000000  0.000000000  0.500000000

  Length of vectors
     0.048213406  0.047249232  0.047241951

  Shift w.r.t. Gamma in fractional coordinates (k-lattice)
     0.000000000  0.000000000  0.000000000

 
 Subroutine IBZKPT returns following result:
 ===========================================
 
 Found      8 irreducible k-points:
 
 Following reciprocal coordinates:
            Coordinates               Weight
  0.000000  0.000000  0.000000      1.000000
  0.500000  0.000000  0.000000      1.000000
  0.000000  0.500000  0.000000      1.000000
  0.500000  0.500000  0.000000      1.000000
  0.000000  0.000000  0.500000      1.000000
  0.500000  0.000000  0.500000      1.000000
  0.000000  0.500000  0.500000      1.000000
  0.500000  0.500000  0.500000      1.000000
 
 Following cartesian coordinates:
            Coordinates               Weight
  0.000000  0.000000  0.000000      1.000000
  0.048211  0.000482  0.000000      1.000000
  0.000482  0.047247  0.000000      1.000000
  0.048693  0.047729  0.000000      1.000000
  0.000000  0.000000  0.047242      1.000000
  0.048211  0.000482  0.047242      1.000000
  0.000482  0.047247  0.047242      1.000000
  0.048693  0.047729  0.047242      1.000000
 


--------------------------------------------------------------------------------------------------------




 Dimension of arrays:
   k-points           NKPTS =      8   k-points in BZ     NKDIM =      8   number of bands    NBANDS=    162
   number of dos      NEDOS =    301   number of ions     NIONS =     64
   non local maximal  LDIM  =      4   non local SUM 2l+1 LMDIM =      8
   total plane-waves  NPLWV = 343000
   max r-space proj   IRMAX =   3303   max aug-charges    IRDMAX=  79163
   dimension x,y,z NGX =    70 NGY =   70 NGZ =   70
   dimension x,y,z NGXF=   140 NGYF=  140 NGZF=  140
   support grid    NGXF=   280 NGYF=  280 NGZF=  280
   ions per type =              64
   NGX,Y,Z   is equivalent  to a cutoff of  11.22, 10.99, 11.00 a.u.
   NGXF,Y,Z  is equivalent  to a cutoff of  22.44, 21.99, 21.99 a.u.

 SYSTEM =  Si64                                    
 POSCAR =  Si8                                     

 Startparameter for this run:
   NWRITE =      2    write-flag & timer
   PREC   = accura    normal or accurate (medium, high low for compatibility)
   ISTART =      0    job   : 0-new  1-cont  2-samecut
   ICHARG =      2    charge: 1-file 2-atom 10-const
   ISPIN  =      1    spin polarized calculation?
   LNONCOLLINEAR =      F non collinear calculations
   LSORBIT =      F    spin-orbit coupling
   INIWAV =      1    electr: 0-lowe 1-rand  2-diag
   LASPH  =      F    aspherical Exc in radial PAW
 Electronic Relaxation 1
   ENCUT  =  400.0 eV  29.40 Ry    5.42 a.u.  16.92 17.26 17.26*2*pi/ulx,y,z
   ENINI  =  400.0     initial cutoff
   ENAUG  =  322.1 eV  augmentation charge cutoff
   NELM   =     60;   NELMIN=  8; NELMDL= -5     # of ELM steps 
   EDIFF  = 0.1E-05   stopping-criterion for ELM
   LREAL  =      T    real-space projection
   NLSPLINE    = F    spline interpolate recip. space projectors
   LCOMPAT=      F    compatible to vasp.4.4
   GGA_COMPAT  = F    GGA compatible to vasp.4.4-vasp.4.6
   LMAXPAW     = -100 max onsite density
   LMAXMIX     =    2 max onsite mixed and CHGCAR
   VOSKOWN=      0    Vosko Wilk Nusair interpolation
   ROPT   =   -0.00025
 Ionic relaxation
   EDIFFG = -.1E-01   stopping-criterion for IOM
   NSW    =     60    number of steps for IOM
   NBLOCK =      1;   KBLOCK =     60    inner block; outer block 
   IBRION =      2    ionic relax: 0-MD 1-quasi-New 2-CG
   NFREE  =      1    steps in history (QN), initial steepest desc. (CG)
   ISIF   =      2    stress and relaxation
   IWAVPR =     11    prediction:  0-non 1-charg 2-wave 3-comb
   ISYM   =      2    0-nonsym 1-usesym 2-fastsym
   LCORR  =      T    Harris-Foulkes like correction to forces

   POTIM  = 0.5000    time-step for ionic-motion
   TEIN   =    0.0    initial temperature
   TEBEG  =    0.0;   TEEND  =   0.0 temperature during run
   SMASS  =  -3.00    Nose mass-parameter (am)
   estimated Nose-frequenzy (Omega)   =  0.10E-29 period in steps = 0.13E+47 mass=  -0.246E-26a.u.
   SCALEE = 1.0000    scale energy and forces
   NPACO  =    256;   APACO  = 10.0  distance and # of slots for P.C.
   PSTRESS=    0.0 pullay stress

  Mass of Ions in am
   POMASS =  28.09
  Ionic Valenz
   ZVAL   =   4.00
  Atomic Wigner-Seitz radii
   RWIGS  =  -1.00
  virtual crystal weights 
   VCA    =   1.00
   NELECT =     256.0000    total number of electrons
   NUPDOWN=      -1.0000    fix difference up-down

 DOS related values:
   EMIN   =  10.00;   EMAX   =-10.00  energy-range for DOS
   EFERMI =   0.00;   METHOD = LEGACY      
   ISMEAR =     1;   SIGMA  =   0.20  broadening in eV -4-tet -1-fermi 0-gaus

 Electronic relaxation 2 (details)
   IALGO  =     68    algorithm
   LDIAG  =      T    sub-space diagonalisation (order eigenvalues)
   LSUBROT=      F    optimize rotation matrix (better conditioning)
   TURBO    =      0    0=normal 1=particle mesh
   IRESTART =      0    0=no restart 2=restart with 2 vectors
   NREBOOT  =      0    no. of reboots
   NMIN     =      0    reboot dimension
   EREF     =   0.00    reference energy to select bands
   IMIX   =      4    mixing-type and parameters
     AMIX     =   0.40;   BMIX     =  1.00
     AMIX_MAG =   1.60;   BMIX_MAG =  1.00
     AMIN     =   0.10
     WC   =   100.;   INIMIX=   1;  MIXPRE=   1;  MAXMIX= -45

 Intra band minimization:
   WEIMIN = 0.0010     energy-eigenvalue tresh-hold
   EBREAK =  0.15E-08  absolut break condition
   DEPER  =   0.30     relativ break condition  

   TIME   =   0.40     timestep for ELM

  volume/ion in A,a.u.               =      18.15       122.50
  Fermi-wavevector in a.u.,A,eV,Ry     =   0.988823  1.868605 13.303392  0.977772
  Thomas-Fermi vector in A             =   2.120378
 
 Write flags
   LWAVE        =      F    write WAVECAR
   LDOWNSAMPLE  =      F    k-point downsampling of WAVECAR
   LCHARG       =      F    write CHGCAR
   LVTOT        =      F    write LOCPOT, total local potential
   LVHAR        =      F    write LOCPOT, Hartree potential only
   WRT_POTENTIAL= false  ! write potential to hdf5 file
   LELF         =      F    write electronic localiz. function (ELF)
   LORBIT       =      0    0 simple, 1 ext, 2 COOP (PROOUT), +10 PAW based schemes


 Dipole corrections
   LMONO      =      F    monopole corrections only (constant potential shift)
   LDIPOL     =      F    correct potential (dipole corrections)
   IDIPOL     =      0    1-x, 2-y, 3-z, 4-all directions 
   EPSILON    =  1.0000000 bulk dielectric constant
   LVACPOTAV  =      F  vacuum potentials using an averaging scheme for the charge density
   VACPOTFLAT =  0.1000000 required flatness to determine vacuum potential
 Exchange correlation treatment:
   GGA     = PS    functional components
   XC_C    = 1    coefficients multiplying the functional components
   LIBXC   =     F    Libxc                    
   VOSKOWN =     0    Vosko Wilk Nusair interpolation
   LHFCALC =     F    Hartree Fock is set to
   LHFONE  =     F    Hartree Fock one center treatment
   AEXX    =    0.0000 exact exchange contribution

 Parameters of functionals:
   PS:
     No parameter
 
 Van der Waals corrections
   IVDW    =     0    specifies the selected vdW correction

 Linear response parameters
   LEPSILON=     F    determine dielectric tensor
   LRPA    =     F    only Hartree local field effects (RPA)
   LNABLA  =     F    use nabla operator in PAW spheres
   LVEL    =     F    velocity operator in full k-point grid
   CSHIFT  =0.1000    complex shift for real part using Kramers Kronig
   OMEGAMAX=  -1.0    maximum frequency
   DEG_THRESHOLD= 0.2000000E-02 threshold for treating states as degnerate
   RTIME   =   -0.100 relaxation time in fs
  (WPLASMAI=    0.000 imaginary part of plasma frequency in eV, 0.658/RTIME)
   DFIELD  = 0.0000000 0.0000000 0.0000000 field for delta impulse in time
 
  Optional k-point grid parameters
   LKPOINTS_OPT  =     F    use optional k-point grid
   KPOINTS_OPT_MODE=     1    mode for optional k-point grid
 
 Orbital magnetization related:
   ORBITALMAG=     F  switch on orbital magnetization
   LCHIMAG   =     F  perturbation theory with respect to B field
   DQ        =  0.001000  dq finite difference perturbation B field
   LLRAUG    =     F  two centre corrections for induced B field
   LBONE     =     F  B-component reconstruction in AE one-centre
   LVGVCALC  =     T  calculate vGv susceptibility
   LVGVAPPL  =     F  apply vGv susceptibility instead of pGv for G=0

 Random number generation:
   RANDOM_GENERATOR = DEFAULT
   PCG_SEED         = not used


--------------------------------------------------------------------------------------------------------


 conjugate gradient relaxation of ions
 charge density and potential will be updated during run
 non-spin polarized calculation
 RMM-DIIS sequential band-by-band and
  variant of blocked Davidson during initial phase
 perform sub-space diagonalisation
    before iterative eigenvector-optimisation
 modified Broyden-mixing scheme, WC =      100.0
 initial mixing is a Kerker type mixing with AMIX =  0.4000 and BMIX =      1.0000
 Hartree-type preconditioning will be used
 using additional bands           34
 real space projection scheme for non local part
 use partial core corrections
 calculate Harris-corrections to forces 
   (improved forces if not selfconsistent)
 use gradient corrections 
 use of overlap-Matrix (Vanderbilt PP)
 Methfessel and Paxton  Order N= 1 SIGMA  =   0.20


--------------------------------------------------------------------------------------------------------


  energy-cutoff  :      400.00
  volume of cell :     1161.74
      direct lattice vectors                 reciprocal lattice vectors
    10.372136532 -0.105838016  0.000000000     0.096421991  0.000964219  0.000000000
    -0.105838016 10.583813563  0.000000000     0.000964219  0.094493544  0.000000000
     0.000000000  0.000000000 10.583813563     0.000000000  0.000000000  0.094483902

  length of vectors
    10.372676507 10.584342739 10.583813563     0.096426812  0.094498463  0.094483902


 
 k-points in units of 2pi/SCALE and weight: Automatic mesh                          
   0.00000000  0.00000000  0.00000000       0.125
   0.04821100  0.00048211  0.00000000       0.125
   0.00048211  0.04724678  0.00000000       0.125
   0.04869311  0.04772889  0.00000000       0.125
   0.00000000  0.00000000  0.04724196       0.125
   0.04821100  0.00048211  0.04724196       0.125
   0.00048211  0.04724678  0.04724196       0.125
   0.04869311  0.04772889  0.04724196       0.125
 
 k-points in reciprocal lattice and weights: Automatic mesh                          
   0.00000000  0.00000000  0.00000000       0.125
   0.50000000  0.00000000  0.00000000       0.125
   0.00000000  0.50000000  0.00000000       0.125
   0.50000000  0.50000000  0.00000000       0.125
   0.00000000  0.00000000  0.50000000       0.125
   0.50000000  0.00000000  0.50000000       0.125
   0.00000000  0.50000000  0.50000000       0.125
   0.50000000  0.50000000  0.50000000       0.125
 
 position of ions in fractional coordinates (direct lattice) 
   0.00000000  0.00000000  0.00000000
   0.00000000  0.00000000  0.50000000
   0.00000000  0.50000000  0.00000000
   0.00000000  0.50000000  0.50000000
   0.50000000  0.00000000  0.00000000
   0.50000000  0.00000000  0.50000000
   0.50000000  0.50000000  0.00000000
   0.50000000  0.50000000  0.50000000
   0.37500000  0.37500000  0.12500000
   0.37500000  0.37500000  0.62500000
   0.37500000  0.87500000  0.12500000
   0.37500000  0.87500000  0.62500000
   0.87500000  0.37500000  0.12500000
   0.87500000  0.37500000  0.62500000
   0.87500000  0.87500000  0.12500000
   0.87500000  0.87500000  0.62500000
   0.00000000  0.25000000  0.25000000
   0.00000000  0.25000000  0.75000000
   0.00000000  0.75000000  0.25000000
   0.00000000  0.75000000  0.75000000
   0.50000000  0.25000000  0.25000000
   0.50000000  0.25000000  0.75000000
   0.50000000  0.75000000  0.25000000
   0.50000000  0.75000000  0.75000000
   0.37500000  0.12500000  0.37500000
   0.37500000  0.12500000  0.87500000
   0.37500000  0.62500000  0.37500000
   0.37500000  0.62500000  0.87500000
   0.87500000  0.12500000  0.37500000
   0.87500000  0.12500000  0.87500000
   0.87500000  0.62500000  0.37500000
   0.87500000  0.62500000  0.87500000
   0.25000000  0.00000000  0.25000000
   0.25000000  0.00000000  0.75000000
   0.25000000  0.50000000  0.25000000
   0.25000000  0.50000000  0.75000000
   0.75000000  0.00000000  0.25000000
   0.75000000  0.00000000  0.75000000
   0.75000000  0.50000000  0.25000000
   0.75000000  0.50000000  0.75000000
   0.12500000  0.37500000  0.37500000
   0.12500000  0.37500000  0.87500000
   0.12500000  0.87500000  0.37500000
   0.12500000  0.87500000  0.87500000
   0.62500000  0.37500000  0.37500000
   0.62500000  0.37500000  0.87500000
   0.62500000  0.87500000  0.37500000
   0.62500000  0.87500000  0.87500000
   0.25000000  0.25000000  0.00000000
   0.25000000  0.25000000  0.50000000
   0.25000000  0.75000000  0.00000000
   0.25000000  0.75000000  0.50000000
   0.75000000  0.25000000  0.00000000
   0.75000000  0.25000000  0.50000000
   0.75000000  0.75000000  0.00000000
   0.75000000  0.75000000  0.50000000
   0.12500000  0.12500000  0.12500000
   0.12500000  0.12500000  0.62500000
   0.12500000  0.62500000  0.12500000
   0.12500000  0.62500000  0.62500000
   0.62500000  0.12500000  0.12500000
   0.62500000  0.12500000  0.62500000
   0.62500000  0.62500000  0.12500000
   0.62500000  0.62500000  0.62500000
 
 position of ions in cartesian coordinates  (Angst):
   0.00000000  0.00000000  0.00000000
   0.00000000  0.00000000  5.29190678
  -0.05291901  5.29190678  0.00000000
  -0.05291901  5.29190678  5.29190678
   5.18606827 -0.05291901  0.00000000
   5.18606827 -0.05291901  5.29190678
   5.13314926  5.23898777  0.00000000
   5.13314926  5.23898777  5.29190678
   3.84986194  3.92924083  1.32297670
   3.84986194  3.92924083  6.61488348
   3.79694294  9.22114761  1.32297670
   3.79694294  9.22114761  6.61488348
   9.03593021  3.87632182  1.32297670
   9.03593021  3.87632182  6.61488348
   8.98301120  9.16822860  1.32297670
   8.98301120  9.16822860  6.61488348
  -0.02645950  2.64595339  2.64595339
  -0.02645950  2.64595339  7.93786017
  -0.07937851  7.93786017  2.64595339
  -0.07937851  7.93786017  7.93786017
   5.15960876  2.59303438  2.64595339
   5.15960876  2.59303438  7.93786017
   5.10668975  7.88494116  2.64595339
   5.10668975  7.88494116  7.93786017
   3.87632145  1.28328744  3.96893009
   3.87632145  1.28328744  9.26083687
   3.82340244  6.57519422  3.96893009
   3.82340244  6.57519422  9.26083687
   9.06238971  1.23036843  3.96893009
   9.06238971  1.23036843  9.26083687
   9.00947071  6.52227521  3.96893009
   9.00947071  6.52227521  9.26083687
   2.59303413 -0.02645950  2.64595339
   2.59303413 -0.02645950  7.93786017
   2.54011513  5.26544728  2.64595339
   2.54011513  5.26544728  7.93786017
   7.77910240 -0.07937851  2.64595339
   7.77910240 -0.07937851  7.93786017
   7.72618339  5.21252827  2.64595339
   7.72618339  5.21252827  7.93786017
   1.25682781  3.95570033  3.96893009
   1.25682781  3.95570033  9.26083687
   1.20390880  9.24760712  3.96893009
   1.20390880  9.24760712  9.26083687
   6.44289608  3.90278133  3.96893009
   6.44289608  3.90278133  9.26083687
   6.38997707  9.19468811  3.96893009
   6.38997707  9.19468811  9.26083687
   2.56657463  2.61949389  0.00000000
   2.56657463  2.61949389  5.29190678
   2.51365562  7.91140067  0.00000000
   2.51365562  7.91140067  5.29190678
   7.75264289  2.56657488  0.00000000
   7.75264289  2.56657488  5.29190678
   7.69972389  7.85848166  0.00000000
   7.69972389  7.85848166  5.29190678
   1.28328731  1.30974694  1.32297670
   1.28328731  1.30974694  6.61488348
   1.23036831  6.60165372  1.32297670
   1.23036831  6.60165372  6.61488348
   6.46935558  1.25682794  1.32297670
   6.46935558  1.25682794  6.61488348
   6.41643657  6.54873472  1.32297670
   6.41643657  6.54873472  6.61488348
 


--------------------------------------------------------------------------------------------------------


 k-point     1 :   0.0000 0.0000 0.0000  plane waves:   21105
 k-point     2 :   0.5000 0.0000 0.0000  plane waves:   21124
 k-point     3 :   0.0000 0.5000 0.0000  plane waves:   21094
 k-point     4 :   0.5000 0.5000 0.0000  plane waves:   21100
 k-point     5 :   0.0000 0.0000 0.5000  plane waves:   21090
 k-point     6 :   0.5000 0.0000 0.5000  plane waves:   21124
 k-point     7 :   0.0000 0.5000 0.5000  plane waves:   21112
 k-point     8 :   0.5000 0.5000 0.5000  plane waves:   21124

 maximum and minimum number of plane-waves per node :      1786     1734

 maximum number of plane-waves:     21124
 maximum index in each direction: 
   IXMAX=   16   IYMAX=   17   IZMAX=   17
   IXMIN=  -17   IYMIN=  -17   IZMIN=  -17


 real space projection operators:
  total allocation   :      12627.50 KBytes
  max/ min on nodes  :       1095.50        912.25


 parallel 3D FFT for wavefunctions:
    minimum data exchange during FFTs selected (reduces bandwidth)
 parallel 3D FFT for charge:
    minimum data exchange during FFTs selected (reduces bandwidth)


 total amount of memory used by VASP MPI-rank0    78511. kBytes
=======================================================================

   base      :      30000. kBytes
   nonlr-proj:       4876. kBytes
   fftplans  :      17991. kBytes
   grid      :       6881. kBytes
   one-center:         18. kBytes
   wavefun   :      18745. kBytes
 
     INWAV:  cpu time      0.0000: real time      0.0000
 Broyden mixing: mesh for mixing (old mesh)
   NGX = 33   NGY = 35   NGZ = 35
  (NGX  =140   NGY  =140   NGZ  =140)
  gives a total of  40425 points

 initial charge density was supplied:
 charge density of overlapping atoms calculated
 number of electron     256.0000000 magnetization 
 keeping initial charge density in first step


--------------------------------------------------------------------------------------------------------


 Maximum index for non-local projection operator          294
 Maximum index for augmentation-charges         3934 (set IRDMAX)


--------------------------------------------------------------------------------------------------------


 First call to EWALD:  gamma=   0.169
 Maximum number of real-space cells 3x 3x 3
 Maximum number of reciprocal cells 3x 3x 3

    FEWALD:  cpu time      0.0043: real time      0.0043


--------------------------------------- Ionic step        1  -------------------------------------------




--------------------------------------- Iteration      1(   1)  ---------------------------------------


    POTLOK:  cpu time      0.0917: real time      0.0999
    SETDIJ:  cpu time      0.0880: real time      0.0886
     EDDAV:  cpu time      1.2776: real time      1.3551
       DOS:  cpu time      0.0108: real time      0.0129
    --------------------------------------------
      LOOP:  cpu time      1.4680: real time      1.5564

 eigenvalue-minimisations  :  2592
 total energy-change (2. order) : 0.5795545E+03  (-0.8563165E+04)
 number of electron     256.0000000 magnetization 
 augmentation part      256.0000000 magnetization 

 Free energy of the ion-electron system (eV)
  ---------------------------------------------------
  alpha Z        PSCENC =       118.68782834
  Ewald energy   TEWEN  =     -7555.75592143
  -Hartree energ DENC   =      -306.81783340
  -exchange      EXHF   =         0.00000000
  -V(xc)+E(xc)   XCENC  =      -546.82540374
  PAW double counting   =      5598.62625415    -4492.17844134
  entropy T*S    EENTRO =         0.01710102
  eigenvalues    EBANDS =      1199.00503229
  atomic energy  EATOM  =      6564.79586099
  Solvation  Ediel_sol  =         0.00000000
  ---------------------------------------------------
  free energy    TOTEN  =       579.55447689 eV

  energy without entropy =      579.53737587  energy(sigma->0) =      579.54877655


--------------------------------------------------------------------------------------------------------




--------------------------------------- Iteration      1(   2)  ---------------------------------------


     EDDAV:  cpu time      1.3109: real time      1.3244
       DOS:  cpu time      0.0014: real time      0.0014
    --------------------------------------------
      LOOP:  cpu time      1.3123: real time      1.3258

 eigenvalue-minimisations  :  3082
 total energy-change (2. order) :-0.8871413E+03  (-0.8401859E+03)
 number of electron     256.0000000 magnetization 
 augmentation part      256.0000000 magnetization 

 Free energy of the ion-electron system (eV)
  ---------------------------------------------------
  alpha Z        PSCENC =       118.68782834
  Ewald energy   TEWEN  =     -7555.75592143
  -Hartree energ DENC   =      -306.81783340
  -exchange      EXHF   =         0.00000000
  -V(xc)+E(xc)   XCENC  =      -546.82540374
  PAW double counting   =      5598.62625415    -4492.17844134
  entropy T*S    EENTRO =         0.00641911
  eigenvalues    EBANDS =       311.87441105
  atomic energy  EATOM  =      6564.79586099
  Solvation  Ediel_sol  =         0.00000000
  ---------------------------------------------------
  free energy    TOTEN  =      -307.58682626 eV

  energy without entropy =     -307.59324537  energy(sigma->0) =     -307.58896597


--------------------------------------------------------------------------------------------------------




--------------------------------------- Iteration      1(   3)  ---------------------------------------


     EDDAV:  cpu time      1.3527: real time      1.3662
       DOS:  cpu time      0.0012: real time      0.0013
    --------------------------------------------
      LOOP:  cpu time      1.3539: real time      1.3676

 eigenvalue-minimisations  :  3136
 total energy-change (2. order) :-0.6329979E+02  (-0.6190154E+02)
 number of electron     256.0000000 magnetization 
 augmentation part      256.0000000 magnetization 

 Free energy of the ion-electron system (eV)
  ---------------------------------------------------
  alpha Z        PSCENC =       118.68782834
  Ewald energy   TEWEN  =     -7555.75592143
  -Hartree energ DENC   =      -306.81783340
  -exchange      EXHF   =         0.00000000
  -V(xc)+E(xc)   XCENC  =      -546.82540374
  PAW double counting   =      5598.62625415    -4492.17844134
  entropy T*S    EENTRO =         0.01885563
  eigenvalues    EBANDS =       248.56218903
  atomic energy  EATOM  =      6564.79586099
  Solvation  Ediel_sol  =         0.00000000
  ---------------------------------------------------
  free energy    TOTEN  =      -370.88661175 eV

  energy without entropy =     -370.90546739  energy(sigma->0) =     -370.89289697


--------------------------------------------------------------------------------------------------------




--------------------------------------- Iteration      1(   4)  ---------------------------------------


     EDDAV:  cpu time      1.3247: real time      1.3408
       DOS:  cpu time      0.0012: real time      0.0012
    --------------------------------------------
      LOOP:  cpu time      1.3259: real time      1.3419

 eigenvalue-minimisations  :  3152
 total energy-change (2. order) :-0.1638073E+01  (-0.1622273E+01)
 number of electron     256.0000000 magnetization 
 augmentation part      256.0000000 magnetization 

 Free energy of the ion-electron system (eV)
  ---------------------------------------------------
  alpha Z        PSCENC =       118.68782834
  Ewald energy   TEWEN  =     -7555.75592143
  -Hartree energ DENC   =      -306.81783340
  -exchange      EXHF   =         0.00000000
  -V(xc)+E(xc)   XCENC  =      -546.82540374
  PAW double counting   =      5598.62625415    -4492.17844134
  entropy T*S    EENTRO =         0.00914354
  eigenvalues    EBANDS =       246.93382853
  atomic energy  EATOM  =      6564.79586099
  Solvation  Ediel_sol  =         0.00000000
  ---------------------------------------------------
  free energy    TOTEN  =      -372.52468435 eV

  energy without entropy =     -372.53382789  energy(sigma->0) =     -372.52773220


--------------------------------------------------------------------------------------------------------




--------------------------------------- Iteration      1(   5)  ---------------------------------------


     EDDAV:  cpu time      1.3491: real time      1.3625
       DOS:  cpu time      0.0014: real time      0.0014
    CHARGE:  cpu time      0.2502: real time      0.2540
    MIXING:  cpu time      0.0081: real time      0.0109
    --------------------------------------------
      LOOP:  cpu time      1.6088: real time      1.6288

 eigenvalue-minimisations  :  3118
 total energy-change (2. order) :-0.4674137E-01  (-0.4663994E-01)
 number of electron     255.9999998 magnetization 
 augmentation part      -15.2137332 magnetization 

 Broyden mixing:
  rms(total) = 0.31931E+01    rms(broyden)= 0.31931E+01
  rms(prec ) = 0.35110E+01
  weight for this iteration     100.00

 Free energy of the ion-electron system (eV)
  ---------------------------------------------------
  alpha Z        PSCENC =       118.68782834
  Ewald energy   TEWEN  =     -7555.75592143
  -Hartree energ DENC   =      -306.81783340
  -exchange      EXHF   =         0.00000000
  -V(xc)+E(xc)   XCENC  =      -546.82540374
  PAW double counting   =      5598.62625415    -4492.17844134
  entropy T*S    EENTRO =         0.00911569
  eigenvalues    EBANDS =       246.88711501
  atomic energy  EATOM  =      6564.79586099
  Solvation  Ediel_sol  =         0.00000000
  ---------------------------------------------------
  free energy    TOTEN  =      -372.57142572 eV

  energy without entropy =     -372.58054142  energy(sigma->0) =     -372.57446429


--------------------------------------------------------------------------------------------------------




--------------------------------------- Iteration      1(   6)  ---------------------------------------


    POTLOK:  cpu time      0.0784: real time      0.0929
    SETDIJ:  cpu time      0.0733: real time      0.0735
    EDDIAG:  cpu time      0.1366: real time      0.1396
  RMM-DIIS:  cpu time      0.7201: real time      0.7258
    ORTHCH:  cpu time      0.0197: real time      0.0198
       DOS:  cpu time      0.0024: real time      0.0024
    CHARGE:  cpu time      0.2347: real time      0.2356
    MIXING:  cpu time      0.0069: real time      0.0106
    --------------------------------------------
      LOOP:  cpu time      1.2721: real time      1.3002

 eigenvalue-minimisations  :  2592
 total energy-change (2. order) : 0.6616047E+01  (-0.3575536E+00)
 number of electron     255.9999998 magnetization 
 augmentation part      -15.0127530 magnetization 

 Broyden mixing:
  rms(total) = 0.19305E+01    rms(broyden)= 0.19305E+01
  rms(prec ) = 0.21063E+01
  weight for this iteration     100.00

 eigenvalues of (default mixing * dielectric matrix)
  average eigenvalue GAMMA=   2.5216
  2.5216

 Free energy of the ion-electron system (eV)
  ---------------------------------------------------
  alpha Z        PSCENC =       118.68782834
  Ewald energy   TEWEN  =     -7555.75592143
  -Hartree energ DENC   =      -357.90296495
  -exchange      EXHF   =         0.00000000
  -V(xc)+E(xc)   XCENC  =      -538.71781648
  PAW double counting   =     13803.62604705   -12701.57174422
  entropy T*S    EENTRO =         0.02468497
  eigenvalues    EBANDS =       300.85864666
  atomic energy  EATOM  =      6564.79586099
  Solvation  Ediel_sol  =         0.00000000
  ---------------------------------------------------
  free energy    TOTEN  =      -365.95537907 eV

  energy without entropy =     -365.98006404  energy(sigma->0) =     -365.96360739


--------------------------------------------------------------------------------------------------------




--------------------------------------- Iteration      1(   7)  ---------------------------------------


    POTLOK:  cpu time      0.0736: real time      0.0880
    SETDIJ:  cpu time      0.0763: real time      0.0765
    EDDIAG:  cpu time      0.1343: real time      0.1347
  RMM-DIIS:  cpu time      0.7116: real time      0.7140
    ORTHCH:  cpu time      0.0200: real time      0.0200
       DOS:  cpu time      0.0019: real time      0.0019
    CHARGE:  cpu time      0.2375: real time      0.2382
    MIXING:  cpu time      0.0104: real time      0.0119
    --------------------------------------------
      LOOP:  cpu time      1.2656: real time      1.2852

 eigenvalue-minimisations  :  2644
 total energy-change (2. order) : 0.2793128E+01  (-0.8915723E+00)
 number of electron     255.9999998 magnetization 
 augmentation part      -14.7302331 magnetization 

 Broyden mixing:
  rms(total) = 0.13340E+00    rms(broyden)= 0.13340E+00
  rms(prec ) = 0.16781E+00
  weight for this iteration     100.00

 eigenvalues of (default mixing * dielectric matrix)
  average eigenvalue GAMMA=   2.3401
  2.3401  2.3401

 Free energy of the ion-electron system (eV)
  ---------------------------------------------------
  alpha Z        PSCENC =       118.68782834
  Ewald energy   TEWEN  =     -7555.75592143
  -Hartree energ DENC   =      -441.79681518
  -exchange      EXHF   =         0.00000000
  -V(xc)+E(xc)   XCENC  =      -524.80409715
  PAW double counting   =     34519.74077917   -33423.91117569
  entropy T*S    EENTRO =         0.01417060
  eigenvalues    EBANDS =       379.86711890
  atomic energy  EATOM  =      6564.79586099
  Solvation  Ediel_sol  =         0.00000000
  ---------------------------------------------------
  free energy    TOTEN  =      -363.16225144 eV

  energy without entropy =     -363.17642204  energy(sigma->0) =     -363.16697498


--------------------------------------------------------------------------------------------------------




--------------------------------------- Iteration      1(   8)  ---------------------------------------


    POTLOK:  cpu time      0.0728: real time      0.0880
    SETDIJ:  cpu time      0.0768: real time      0.0770
    EDDIAG:  cpu time      0.1330: real time      0.1334
  RMM-DIIS:  cpu time      0.7055: real time      0.7080
    ORTHCH:  cpu time      0.0194: real time      0.0194
       DOS:  cpu time      0.0029: real time      0.0029
    CHARGE:  cpu time      0.2356: real time      0.2363
    MIXING:  cpu time      0.0078: real time      0.0085
    --------------------------------------------
      LOOP:  cpu time      1.2537: real time      1.2735

 eigenvalue-minimisations  :  2620
 total energy-change (2. order) :-0.2531485E-01  (-0.8519524E-01)
 number of electron     255.9999998 magnetization 
 augmentation part      -14.7963914 magnetization 

 Broyden mixing:
  rms(total) = 0.60077E-01    rms(broyden)= 0.60077E-01
  rms(prec ) = 0.65349E-01
  weight for this iteration     100.00

 eigenvalues of (default mixing * dielectric matrix)
  average eigenvalue GAMMA=   2.0508
  2.5677  1.7924  1.7924

 Free energy of the ion-electron system (eV)
  ---------------------------------------------------
  alpha Z        PSCENC =       118.68782834
  Ewald energy   TEWEN  =     -7555.75592143
  -Hartree energ DENC   =      -430.61140430
  -exchange      EXHF   =         0.00000000
  -V(xc)+E(xc)   XCENC  =      -525.78671342
  PAW double counting   =     34307.71489214   -33210.62400409
  entropy T*S    EENTRO =         0.01668203
  eigenvalues    EBANDS =       368.37521344
  atomic energy  EATOM  =      6564.79586099
  Solvation  Ediel_sol  =         0.00000000
  ---------------------------------------------------
  free energy    TOTEN  =      -363.18756629 eV

  energy without entropy =     -363.20424832  energy(sigma->0) =     -363.19312697


--------------------------------------------------------------------------------------------------------




--------------------------------------- Iteration      1(   9)  ---------------------------------------


    POTLOK:  cpu time      0.0732: real time      0.0886
    SETDIJ:  cpu time      0.0753: real time      0.0762
    EDDIAG:  cpu time      0.1333: real time      0.1340
  RMM-DIIS:  cpu time      0.7123: real time      0.7379
    ORTHCH:  cpu time      0.0194: real time      0.0197
       DOS:  cpu time      0.0017: real time      0.0017
    CHARGE:  cpu time      0.2338: real time      0.2359
    MIXING:  cpu time      0.0092: real time      0.0092
    --------------------------------------------
      LOOP:  cpu time      1.2582: real time      1.3031

 eigenvalue-minimisations  :  2674
 total energy-change (2. order) :-0.2481456E-01  (-0.2556242E-01)
 number of electron     255.9999998 magnetization 
 augmentation part      -14.7775000 magnetization 

 Broyden mixing:
  rms(total) = 0.64884E-01    rms(broyden)= 0.64884E-01
  rms(prec ) = 0.74385E-01
  weight for this iteration     100.00

 eigenvalues of (default mixing * dielectric matrix)
  average eigenvalue GAMMA=   1.6227
  2.5659  1.8908  1.8908  0.1434

 Free energy of the ion-electron system (eV)
  ---------------------------------------------------
  alpha Z        PSCENC =       118.68782834
  Ewald energy   TEWEN  =     -7555.75592143
  -Hartree energ DENC   =      -435.02776015
  -exchange      EXHF   =         0.00000000
  -V(xc)+E(xc)   XCENC  =      -525.20665639
  PAW double counting   =     34879.54665467   -33782.85546314
  entropy T*S    EENTRO =         0.01580449
  eigenvalues    EBANDS =       372.58727176
  atomic energy  EATOM  =      6564.79586099
  Solvation  Ediel_sol  =         0.00000000
  ---------------------------------------------------
  free energy    TOTEN  =      -363.21238085 eV

  energy without entropy =     -363.22818534  energy(sigma->0) =     -363.21764901


--------------------------------------------------------------------------------------------------------




--------------------------------------- Iteration      1(  10)  ---------------------------------------


    POTLOK:  cpu time      0.0758: real time      0.0878
    SETDIJ:  cpu time      0.0775: real time      0.0777
    EDDIAG:  cpu time      0.1341: real time      0.1344
  RMM-DIIS:  cpu time      0.7166: real time      0.7191
    ORTHCH:  cpu time      0.0201: real time      0.0202
       DOS:  cpu time      0.0013: real time      0.0013
    CHARGE:  cpu time      0.2349: real time      0.2357
    MIXING:  cpu time      0.0090: real time      0.0090
    --------------------------------------------
      LOOP:  cpu time      1.2692: real time      1.2853

 eigenvalue-minimisations  :  2693
 total energy-change (2. order) :-0.6207104E-02  (-0.4787500E-02)
 number of electron     255.9999998 magnetization 
 augmentation part      -14.7826164 magnetization 

 Broyden mixing:
  rms(total) = 0.10449E+00    rms(broyden)= 0.10449E+00
  rms(prec ) = 0.11346E+00
  weight for this iteration     100.00

 eigenvalues of (default mixing * dielectric matrix)
  average eigenvalue GAMMA=   1.6936
  2.6919  2.4051  1.7447  0.8132  0.8132

 Free energy of the ion-electron system (eV)
  ---------------------------------------------------
  alpha Z        PSCENC =       118.68782834
  Ewald energy   TEWEN  =     -7555.75592143
  -Hartree energ DENC   =      -435.44186278
  -exchange      EXHF   =         0.00000000
  -V(xc)+E(xc)   XCENC  =      -525.16258274
  PAW double counting   =     34989.44325642   -33892.76520068
  entropy T*S    EENTRO =         0.01568779
  eigenvalues    EBANDS =       372.96434614
  atomic energy  EATOM  =      6564.79586099
  Solvation  Ediel_sol  =         0.00000000
  ---------------------------------------------------
  free energy    TOTEN  =      -363.21858796 eV

  energy without entropy =     -363.23427575  energy(sigma->0) =     -363.22381722


--------------------------------------------------------------------------------------------------------




--------------------------------------- Iteration      1(  11)  ---------------------------------------


    POTLOK:  cpu time      0.0763: real time      0.0876
    SETDIJ:  cpu time      0.0805: real time      0.0808
    EDDIAG:  cpu time      0.1334: real time      0.1338
  RMM-DIIS:  cpu time      0.6971: real time      0.6994
    ORTHCH:  cpu time      0.0194: real time      0.0195
       DOS:  cpu time      0.0020: real time      0.0020
    CHARGE:  cpu time      0.2354: real time      0.2361
    MIXING:  cpu time      0.0087: real time      0.0087
    --------------------------------------------
      LOOP:  cpu time      1.2528: real time      1.2678

 eigenvalue-minimisations  :  2592
 total energy-change (2. order) : 0.6955174E-02  (-0.1900892E-02)
 number of electron     255.9999998 magnetization 
 augmentation part      -14.7995667 magnetization 

 Broyden mixing:
  rms(total) = 0.50241E-01    rms(broyden)= 0.50241E-01
  rms(prec ) = 0.50637E-01
  weight for this iteration     100.00

 eigenvalues of (default mixing * dielectric matrix)
  average eigenvalue GAMMA=   1.5448
  2.6277  2.6277  1.6720  1.2371  0.7801  0.3244

 Free energy of the ion-electron system (eV)
  ---------------------------------------------------
  alpha Z        PSCENC =       118.68782834
  Ewald energy   TEWEN  =     -7555.75592143
  -Hartree energ DENC   =      -432.10592422
  -exchange      EXHF   =         0.00000000
  -V(xc)+E(xc)   XCENC  =      -525.44059764
  PAW double counting   =     34776.62191786   -33679.65705562
  entropy T*S    EENTRO =         0.01660743
  eigenvalues    EBANDS =       369.62565149
  atomic energy  EATOM  =      6564.79586099
  Solvation  Ediel_sol  =         0.00000000
  ---------------------------------------------------
  free energy    TOTEN  =      -363.21163278 eV

  energy without entropy =     -363.22824021  energy(sigma->0) =     -363.21716859


--------------------------------------------------------------------------------------------------------




--------------------------------------- Iteration      1(  12)  ---------------------------------------


    POTLOK:  cpu time      0.0755: real time      0.0896
    SETDIJ:  cpu time      0.0756: real time      0.0758
    EDDIAG:  cpu time      0.1325: real time      0.1329
  RMM-DIIS:  cpu time      0.7047: real time      0.7099
    ORTHCH:  cpu time      0.0195: real time      0.0196
       DOS:  cpu time      0.0021: real time      0.0021
    CHARGE:  cpu time      0.2354: real time      0.2360
    MIXING:  cpu time      0.0094: real time      0.0094
    --------------------------------------------
      LOOP:  cpu time      1.2547: real time      1.2753

 eigenvalue-minimisations  :  2611
 total energy-change (2. order) :-0.2270043E-03  (-0.1958804E-03)
 number of electron     255.9999998 magnetization 
 augmentation part      -14.8021044 magnetization 

 Broyden mixing:
  rms(total) = 0.46134E-01    rms(broyden)= 0.46134E-01
  rms(prec ) = 0.46354E-01
  weight for this iteration     100.00

 eigenvalues of (default mixing * dielectric matrix)
  average eigenvalue GAMMA=   1.4737
  2.6222  2.6222  2.0188  1.0534  0.8742  0.4799  0.6454

 Free energy of the ion-electron system (eV)
  ---------------------------------------------------
  alpha Z        PSCENC =       118.68782834
  Ewald energy   TEWEN  =     -7555.75592143
  -Hartree energ DENC   =      -432.04907437
  -exchange      EXHF   =         0.00000000
  -V(xc)+E(xc)   XCENC  =      -525.45549624
  PAW double counting   =     34697.32023803   -33600.36755737
  entropy T*S    EENTRO =         0.01661832
  eigenvalues    EBANDS =       369.59564394
  atomic energy  EATOM  =      6564.79586099
  Solvation  Ediel_sol  =         0.00000000
  ---------------------------------------------------
  free energy    TOTEN  =      -363.21185979 eV

  energy without entropy =     -363.22847811  energy(sigma->0) =     -363.21739923


--------------------------------------------------------------------------------------------------------




--------------------------------------- Iteration      1(  13)  ---------------------------------------


    POTLOK:  cpu time      0.0822: real time      0.0961
    SETDIJ:  cpu time      0.0704: real time      0.0706
    EDDIAG:  cpu time      0.1331: real time      0.1334
  RMM-DIIS:  cpu time      0.7186: real time      0.7212
    ORTHCH:  cpu time      0.0192: real time      0.0193
       DOS:  cpu time      0.0029: real time      0.0029
    CHARGE:  cpu time      0.2352: real time      0.2358
    MIXING:  cpu time      0.0091: real time      0.0092
    --------------------------------------------
      LOOP:  cpu time      1.2708: real time      1.2884

 eigenvalue-minimisations  :  2699
 total energy-change (2. order) :-0.6883599E-04  (-0.3734939E-04)
 number of electron     255.9999998 magnetization 
 augmentation part      -14.8028194 magnetization 

 Broyden mixing:
  rms(total) = 0.53111E-01    rms(broyden)= 0.53111E-01
  rms(prec ) = 0.53304E-01
  weight for this iteration     100.00

 eigenvalues of (default mixing * dielectric matrix)
  average eigenvalue GAMMA=   1.6067
  2.3076  2.3076  2.3789  2.3789  1.0012  1.0012  0.9463  0.5318

 Free energy of the ion-electron system (eV)
  ---------------------------------------------------
  alpha Z        PSCENC =       118.68782834
  Ewald energy   TEWEN  =     -7555.75592143
  -Hartree energ DENC   =      -432.10590978
  -exchange      EXHF   =         0.00000000
  -V(xc)+E(xc)   XCENC  =      -525.43978388
  PAW double counting   =     34763.80911045   -33666.86051659
  entropy T*S    EENTRO =         0.01661850
  eigenvalues    EBANDS =       369.64078478
  atomic energy  EATOM  =      6564.79586099
  Solvation  Ediel_sol  =         0.00000000
  ---------------------------------------------------
  free energy    TOTEN  =      -363.21192862 eV

  energy without entropy =     -363.22854712  energy(sigma->0) =     -363.21746812


--------------------------------------------------------------------------------------------------------




--------------------------------------- Iteration      1(  14)  ---------------------------------------


    POTLOK:  cpu time      0.0741: real time      0.0875
    SETDIJ:  cpu time      0.0787: real time      0.0789
    EDDIAG:  cpu time      0.1307: real time      0.1310
  RMM-DIIS:  cpu time      0.7024: real time      0.7043
    ORTHCH:  cpu time      0.0200: real time      0.0201
       DOS:  cpu time      0.0013: real time      0.0013
    CHARGE:  cpu time      0.2333: real time      0.2339
    MIXING:  cpu time      0.0090: real time      0.0090
    --------------------------------------------
      LOOP:  cpu time      1.2495: real time      1.2661

 eigenvalue-minimisations  :  2653
 total energy-change (2. order) : 0.8607617E-05  (-0.9990518E-05)
 number of electron     255.9999998 magnetization 
 augmentation part      -14.8027448 magnetization 

 Broyden mixing:
  rms(total) = 0.23757E-01    rms(broyden)= 0.23757E-01
  rms(prec ) = 0.23971E-01
  weight for this iteration     100.00

 eigenvalues of (default mixing * dielectric matrix)
  average eigenvalue GAMMA=   1.5622
  2.7454  2.7454  2.5065  2.1386  0.9905  0.9162  0.9162  0.5505  0.5505

 Free energy of the ion-electron system (eV)
  ---------------------------------------------------
  alpha Z        PSCENC =       118.68782834
  Ewald energy   TEWEN  =     -7555.75592143
  -Hartree energ DENC   =      -431.99569825
  -exchange      EXHF   =         0.00000000
  -V(xc)+E(xc)   XCENC  =      -525.47611626
  PAW double counting   =     34484.18775102   -33387.25239814
  entropy T*S    EENTRO =         0.01662041
  eigenvalues    EBANDS =       369.58015331
  atomic energy  EATOM  =      6564.79586099
  Solvation  Ediel_sol  =         0.00000000
  ---------------------------------------------------
  free energy    TOTEN  =      -363.21192001 eV

  energy without entropy =     -363.22854042  energy(sigma->0) =     -363.21746015


--------------------------------------------------------------------------------------------------------




--------------------------------------- Iteration      1(  15)  ---------------------------------------


    POTLOK:  cpu time      0.0765: real time      0.0924
    SETDIJ:  cpu time      0.0709: real time      0.0711
    EDDIAG:  cpu time      0.1300: real time      0.1303
  RMM-DIIS:  cpu time      0.7076: real time      0.7096
    ORTHCH:  cpu time      0.0200: real time      0.0201
       DOS:  cpu time      0.0016: real time      0.0016
    CHARGE:  cpu time      0.2359: real time      0.2365
    MIXING:  cpu time      0.0088: real time      0.0088
    --------------------------------------------
      LOOP:  cpu time      1.2513: real time      1.2705

 eigenvalue-minimisations  :  2626
 total energy-change (2. order) :-0.2734847E-04  (-0.4150686E-05)
 number of electron     255.9999998 magnetization 
 augmentation part      -14.8030483 magnetization 

 Broyden mixing:
  rms(total) = 0.87749E-02    rms(broyden)= 0.87749E-02
  rms(prec ) = 0.89591E-02
  weight for this iteration     100.00

 eigenvalues of (default mixing * dielectric matrix)
  average eigenvalue GAMMA=   1.5089
  2.7814  2.7814  2.2259  2.2259  0.8226  0.8226  1.0038  1.0038  0.8748  0.5469

 Free energy of the ion-electron system (eV)
  ---------------------------------------------------
  alpha Z        PSCENC =       118.68782834
  Ewald energy   TEWEN  =     -7555.75592143
  -Hartree energ DENC   =      -431.92385948
  -exchange      EXHF   =         0.00000000
  -V(xc)+E(xc)   XCENC  =      -525.48673593
  PAW double counting   =     34380.25310040   -33283.31950839
  entropy T*S    EENTRO =         0.01664667
  eigenvalues    EBANDS =       369.52064146
  atomic energy  EATOM  =      6564.79586099
  Solvation  Ediel_sol  =         0.00000000
  ---------------------------------------------------
  free energy    TOTEN  =      -363.21194736 eV

  energy without entropy =     -363.22859404  energy(sigma->0) =     -363.21749625


--------------------------------------------------------------------------------------------------------




--------------------------------------- Iteration      1(  16)  ---------------------------------------


    POTLOK:  cpu time      0.0736: real time      0.0905
    SETDIJ:  cpu time      0.0735: real time      0.0736
    EDDIAG:  cpu time      0.1364: real time      0.1368
  RMM-DIIS:  cpu time      0.6559: real time      0.6578
    ORTHCH:  cpu time      0.0206: real time      0.0206
       DOS:  cpu time      0.0015: real time      0.0015
    CHARGE:  cpu time      0.2358: real time      0.2364
    MIXING:  cpu time      0.0094: real time      0.0098
    --------------------------------------------
      LOOP:  cpu time      1.2068: real time      1.2271

 eigenvalue-minimisations  :  2402
 total energy-change (2. order) :-0.1212996E-04  (-0.1256677E-05)
 number of electron     255.9999998 magnetization 
 augmentation part      -14.8030398 magnetization 

 Broyden mixing:
  rms(total) = 0.59821E-02    rms(broyden)= 0.59821E-02
  rms(prec ) = 0.61043E-02
  weight for this iteration     100.00

 eigenvalues of (default mixing * dielectric matrix)
  average eigenvalue GAMMA=   1.4401
  2.7643  2.7643  2.2917  2.0682  0.8546  0.8546  1.0369  1.0369  0.8752  0.5526
  0.7417

 Free energy of the ion-electron system (eV)
  ---------------------------------------------------
  alpha Z        PSCENC =       118.68782834
  Ewald energy   TEWEN  =     -7555.75592143
  -Hartree energ DENC   =      -431.94546309
  -exchange      EXHF   =         0.00000000
  -V(xc)+E(xc)   XCENC  =      -525.48350668
  PAW double counting   =     34377.84801623   -33280.91404822
  entropy T*S    EENTRO =         0.01665242
  eigenvalues    EBANDS =       369.53862194
  atomic energy  EATOM  =      6564.79586099
  Solvation  Ediel_sol  =         0.00000000
  ---------------------------------------------------
  free energy    TOTEN  =      -363.21195949 eV

  energy without entropy =     -363.22861191  energy(sigma->0) =     -363.21751030


--------------------------------------------------------------------------------------------------------




--------------------------------------- Iteration      1(  17)  ---------------------------------------


    POTLOK:  cpu time      0.0792: real time      0.0955
    SETDIJ:  cpu time      0.0718: real time      0.0720
    EDDIAG:  cpu time      0.1310: real time      0.1313
  RMM-DIIS:  cpu time      0.6907: real time      0.7008
    ORTHCH:  cpu time      0.0193: real time      0.0193
       DOS:  cpu time      0.0021: real time      0.0021
    CHARGE:  cpu time      0.2352: real time      0.2357
    MIXING:  cpu time      0.0098: real time      0.0098
    --------------------------------------------
      LOOP:  cpu time      1.2389: real time      1.2665

 eigenvalue-minimisations  :  2588
 total energy-change (2. order) :-0.8711292E-05  (-0.1052317E-05)
 number of electron     255.9999998 magnetization 
 augmentation part      -14.8028010 magnetization 

 Broyden mixing:
  rms(total) = 0.99453E-03    rms(broyden)= 0.99446E-03
  rms(prec ) = 0.10351E-02
  weight for this iteration     100.00

 eigenvalues of (default mixing * dielectric matrix)
  average eigenvalue GAMMA=   1.6369
  3.0948  3.0948  2.3849  2.3849  1.8331  1.8331  0.9172  0.9172  0.9204  0.9204
  0.7827  0.5593

 Free energy of the ion-electron system (eV)
  ---------------------------------------------------
  alpha Z        PSCENC =       118.68782834
  Ewald energy   TEWEN  =     -7555.75592143
  -Hartree energ DENC   =      -432.02855282
  -exchange      EXHF   =         0.00000000
  -V(xc)+E(xc)   XCENC  =      -525.47410647
  PAW double counting   =     34376.84783336   -33279.91315340
  entropy T*S    EENTRO =         0.01665380
  eigenvalues    EBANDS =       369.61158942
  atomic energy  EATOM  =      6564.79586099
  Solvation  Ediel_sol  =         0.00000000
  ---------------------------------------------------
  free energy    TOTEN  =      -363.21196820 eV

  energy without entropy =     -363.22862200  energy(sigma->0) =     -363.21751947


--------------------------------------------------------------------------------------------------------




--------------------------------------- Iteration      1(  18)  ---------------------------------------


    POTLOK:  cpu time      0.0774: real time      0.0932
    SETDIJ:  cpu time      0.0716: real time      0.0718
    EDDIAG:  cpu time      0.1292: real time      0.1295
  RMM-DIIS:  cpu time      0.4731: real time      0.4746
    ORTHCH:  cpu time      0.0193: real time      0.0194
       DOS:  cpu time      0.0017: real time      0.0017
    CHARGE:  cpu time      0.2345: real time      0.2351
    MIXING:  cpu time      0.0104: real time      0.0104
    --------------------------------------------
      LOOP:  cpu time      1.0172: real time      1.0358

 eigenvalue-minimisations  :  1648
 total energy-change (2. order) : 0.2036018E-05  (-0.2222770E-06)
 number of electron     255.9999998 magnetization 
 augmentation part      -14.8028450 magnetization 

 Broyden mixing:
  rms(total) = 0.64364E-03    rms(broyden)= 0.64354E-03
  rms(prec ) = 0.64469E-03
  weight for this iteration     100.00

 eigenvalues of (default mixing * dielectric matrix)
  average eigenvalue GAMMA=   1.6069
  2.9878  2.9878  2.2297  2.2297  2.2850  2.2850  0.9390  0.9390  0.9488  0.9488
  0.9261  0.5657  0.6169

 Free energy of the ion-electron system (eV)
  ---------------------------------------------------
  alpha Z        PSCENC =       118.68782834
  Ewald energy   TEWEN  =     -7555.75592143
  -Hartree energ DENC   =      -432.01712032
  -exchange      EXHF   =         0.00000000
  -V(xc)+E(xc)   XCENC  =      -525.47637935
  PAW double counting   =     34367.95575887   -33271.01935920
  entropy T*S    EENTRO =         0.01665856
  eigenvalues    EBANDS =       369.60070737
  atomic energy  EATOM  =      6564.79586099
  Solvation  Ediel_sol  =         0.00000000
  ---------------------------------------------------
  free energy    TOTEN  =      -363.21196617 eV

  energy without entropy =     -363.22862473  energy(sigma->0) =     -363.21751902


--------------------------------------------------------------------------------------------------------




--------------------------------------- Iteration      1(  19)  ---------------------------------------


    POTLOK:  cpu time      0.0753: real time      0.0931
    SETDIJ:  cpu time      0.0714: real time      0.0716
    EDDIAG:  cpu time      0.1317: real time      0.1320
  RMM-DIIS:  cpu time      0.4507: real time      0.4518
    ORTHCH:  cpu time      0.0195: real time      0.0195
       DOS:  cpu time      0.0016: real time      0.0016
    --------------------------------------------
      LOOP:  cpu time      0.7501: real time      0.7696

 eigenvalue-minimisations  :  1556
 total energy-change (2. order) :-0.6098617E-07  (-0.4075033E-07)
 number of electron     255.9999998 magnetization 
 augmentation part      -14.8028450 magnetization 

 Free energy of the ion-electron system (eV)
  ---------------------------------------------------
  alpha Z        PSCENC =       118.68782834
  Ewald energy   TEWEN  =     -7555.75592143
  -Hartree energ DENC   =      -432.01501440
  -exchange      EXHF   =         0.00000000
  -V(xc)+E(xc)   XCENC  =      -525.47649024
  PAW double counting   =     34372.05609143   -33275.11969847
  entropy T*S    EENTRO =         0.01665834
  eigenvalues    EBANDS =       369.59871922
  atomic energy  EATOM  =      6564.79586099
  Solvation  Ediel_sol  =         0.00000000
  ---------------------------------------------------
  free energy    TOTEN  =      -363.21196623 eV

  energy without entropy =     -363.22862456  energy(sigma->0) =     -363.21751901


--------------------------------------------------------------------------------------------------------




 average (electrostatic) potential at core
  the test charge radii are     0.9892
  (the norm of the test charge is              1.0000)
       1 -81.9042       2 -81.9042       3 -81.9042       4 -81.9042       5 -81.9042
       6 -81.9042       7 -81.9042       8 -81.9042       9 -81.9042      10 -81.9042
      11 -81.9042      12 -81.9042      13 -81.9042      14 -81.9042      15 -81.9042
      16 -81.9042      17 -81.9042      18 -81.9042      19 -81.9042      20 -81.9042
      21 -81.9042      22 -81.9042      23 -81.9042      24 -81.9042      25 -81.9042
      26 -81.9042      27 -81.9042      28 -81.9042      29 -81.9042      30 -81.9042
      31 -81.9042      32 -81.9042      33 -81.9042      34 -81.9042      35 -81.9042
      36 -81.9042      37 -81.9042      38 -81.9042      39 -81.9042      40 -81.9042
      41 -81.9042      42 -81.9042      43 -81.9042      44 -81.9042      45 -81.9042
      46 -81.9042      47 -81.9042      48 -81.9042      49 -81.9042      50 -81.9042
      51 -81.9042      52 -81.9042      53 -81.9042      54 -81.9042      55 -81.9042
      56 -81.9042      57 -81.9042      58 -81.9042      59 -81.9042      60 -81.9042
      61 -81.9042      62 -81.9042      63 -81.9042      64 -81.9042
 
 
 
 E-fermi :   6.9587     XC(G=0):  -9.9337     alpha+bet :-13.2130

 val. band max:        6.9377502248   @ k =   0.0000   0.0000   0.0000
 cond. band min:       7.0335510109   @ k =   0.5000   0.0000   0.0000
 fundamental gap:      0.0958007861
 Fermi energy:         6.9587081508

 k-point     1 :       0.0000    0.0000    0.0000
  band No.  band energies     occupation 
      1      -5.8679      2.00000
      2      -4.7017      2.00000
      3      -4.7017      2.00000
      4      -4.7009      2.00000
      5      -4.7009      2.00000
      6      -4.6591      2.00000
      7      -4.6591      2.00000
      8      -3.6727      2.00000
      9      -3.6727      2.00000
     10      -3.6413      2.00000
     11      -3.6413      2.00000
     12      -3.6413      2.00000
     13      -3.6413      2.00000
     14      -3.6102      2.00000
     15      -3.6102      2.00000
     16      -3.6102      2.00000
     17      -3.6102      2.00000
     18      -3.5456      2.00000
     19      -3.5456      2.00000
     20      -3.3290      2.00000
     21      -3.3290      2.00000
     22      -3.1818      2.00000
     23      -3.1818      2.00000
     24      -1.4653      2.00000
     25      -1.3829      2.00000
     26      -1.3829      2.00000
     27      -1.3046      2.00000
     28      -1.2453      2.00000
     29      -1.2453      2.00000
     30      -1.2438      2.00000
     31      -1.2438      2.00000
     32      -1.1985      2.00000
     33      -1.1985      2.00000
     34      -1.1025      2.00000
     35      -1.1025      2.00000
     36      -1.1025      2.00000
     37      -1.1025      2.00000
     38      -1.0490      2.00000
     39      -1.0490      2.00000
     40      -1.0066      2.00000
     41      -1.0066      2.00000
     42      -0.6925      2.00000
     43      -0.6925      2.00000
     44      -0.6715      2.00000
     45      -0.6715      2.00000
     46       1.0761      2.00000
     47       1.0761      2.00000
     48       1.1103      2.00000
     49       1.1103      2.00000
     50       1.1103      2.00000
     51       1.1103      2.00000
     52       1.1418      2.00000
     53       1.1418      2.00000
     54       1.1950      2.00000
     55       1.1950      2.00000
     56       1.1950      2.00000
     57       1.1950      2.00000
     58       2.4710      2.00000
     59       2.4710      2.00000
     60       2.4761      2.00000
     61       2.4761      2.00000
     62       2.4871      2.00000
     63       2.4871      2.00000
     64       2.4921      2.00000
     65       2.4921      2.00000
     66       2.4921      2.00000
     67       2.4921      2.00000
     68       2.4946      2.00000
     69       2.4946      2.00000
     70       2.5659      2.00000
     71       2.5659      2.00000
     72       2.5934      2.00000
     73       2.5934      2.00000
     74       2.5934      2.00000
     75       2.5934      2.00000
     76       2.6175      2.00000
     77       2.6175      2.00000
     78       2.7170      2.00000
     79       2.7170      2.00000
     80       2.7170      2.00000
     81       2.7170      2.00000
     82       3.2597      2.00000
     83       3.2598      2.00000
     84       3.2666      2.00000
     85       3.2666      2.00000
     86       3.4249      2.00000
     87       3.4249      2.00000
     88       3.5776      2.00000
     89       3.5776      2.00000
     90       3.6241      2.00000
     91       3.7476      2.00000
     92       3.7476      2.00000
     93       3.8731      2.00000
     94       4.6433      2.00000
     95       4.6433      2.00000
     96       4.6434      2.00000
     97       4.6434      2.00000
     98       4.6646      2.00000
     99       4.6646      2.00000
    100       4.7522      2.00000
    101       4.7522      2.00000
    102       4.7967      2.00000
    103       4.7967      2.00000
    104       4.8898      2.00000
    105       4.8898      2.00000
    106       5.2631      2.00000
    107       5.2631      2.00000
    108       5.2631      2.00000
    109       5.2631      2.00000
    110       5.3775      2.00000
    111       5.3775      2.00000
    112       5.3805      2.00000
    113       5.3805      2.00000
    114       5.4365      2.00000
    115       5.4365      2.00000
    116       5.4365      2.00000
    117       5.4365      2.00000
    118       5.4917      2.00000
    119       5.4917      2.00000
    120       5.5004      2.00000
    121       5.5004      2.00000
    122       5.5940      2.00000
    123       5.5940      2.00000
    124       5.6992      2.00000
    125       5.6992      2.00000
    126       6.7747      2.02941
    127       6.7790      2.02225
    128       6.9378      1.17629
    129       7.0944      0.09569
    130       7.0944      0.09568
    131       7.1392     -0.02370
    132       7.2659     -0.05204
    133       7.2659     -0.05204
    134       7.3964     -0.00830
    135       7.6531     -0.00001
    136       7.6531     -0.00001
    137       7.8192     -0.00000
    138       7.8192     -0.00000
    139       7.8207     -0.00000
    140       7.8207     -0.00000
    141       8.5254     -0.00000
    142       8.5254     -0.00000
    143       8.7123     -0.00000
    144       8.7124     -0.00000
    145       9.0890     -0.00000
    146       9.0891     -0.00000
    147       9.0894     -0.00000
    148       9.0898     -0.00000
    149       9.1996     -0.00000
    150       9.2223     -0.00000
    151       9.2240     -0.00000
    152       9.2888     -0.00000
    153       9.2897     -0.00000
    154       9.2907     -0.00000
    155       9.2996     -0.00000
    156       9.3643     -0.00000
    157       9.3661     -0.00000
    158       9.3836     -0.00000
    159       9.5574     -0.00000
    160       9.8033     -0.00000
    161       9.8273     -0.00000
    162       9.8698     -0.00000

 k-point     2 :       0.5000    0.0000    0.0000
  band No.  band energies     occupation 
      1      -5.5629      2.00000
      2      -5.5629      2.00000
      3      -4.4520      2.00000
      4      -4.4520      2.00000
      5      -4.4212      2.00000
      6      -4.4212      2.00000
      7      -4.4211      2.00000
      8      -4.4211      2.00000
      9      -4.3886      2.00000
     10      -4.3886      2.00000
     11      -3.5157      2.00000
     12      -3.5157      2.00000
     13      -3.5157      2.00000
     14      -3.5157      2.00000
     15      -3.4292      2.00000
     16      -3.4292      2.00000
     17      -3.4292      2.00000
     18      -3.4292      2.00000
     19      -3.1934      2.00000
     20      -3.1934      2.00000
     21      -2.4874      2.00000
     22      -2.4874      2.00000
     23      -2.3967      2.00000
     24      -2.3967      2.00000
     25      -2.3967      2.00000
     26      -2.3967      2.00000
     27      -2.3033      2.00000
     28      -2.3033      2.00000
     29      -1.3628      2.00000
     30      -1.3628      2.00000
     31      -1.3343      2.00000
     32      -1.3343      2.00000
     33      -1.2103      2.00000
     34      -1.2103      2.00000
     35      -1.1855      2.00000
     36      -1.1855      2.00000
     37      -0.0749      2.00000
     38      -0.0749      2.00000
     39      -0.0091      2.00000
     40      -0.0091      2.00000
     41      -0.0091      2.00000
     42      -0.0091      2.00000
     43       0.0306      2.00000
     44       0.0306      2.00000
     45       0.0306      2.00000
     46       0.0306      2.00000
     47       0.0505      2.00000
     48       0.0505      2.00000
     49       0.0596      2.00000
     50       0.0596      2.00000
     51       0.0596      2.00000
     52       0.0596      2.00000
     53       1.0362      2.00000
     54       1.0362      2.00000
     55       2.0368      2.00000
     56       2.0368      2.00000
     57       2.0398      2.00000
     58       2.0398      2.00000
     59       2.0398      2.00000
     60       2.0398      2.00000
     61       2.0431      2.00000
     62       2.0431      2.00000
     63       2.3775      2.00000
     64       2.3775      2.00000
     65       2.3941      2.00000
     66       2.3941      2.00000
     67       2.3941      2.00000
     68       2.3941      2.00000
     69       2.4207      2.00000
     70       2.4207      2.00000
     71       2.9510      2.00000
     72       2.9510      2.00000
     73       3.0026      2.00000
     74       3.0026      2.00000
     75       3.0396      2.00000
     76       3.0396      2.00000
     77       3.0936      2.00000
     78       3.0936      2.00000
     79       3.7411      2.00000
     80       3.7411      2.00000
     81       3.7908      2.00000
     82       3.7908      2.00000
     83       3.7908      2.00000
     84       3.7908      2.00000
     85       3.8280      2.00000
     86       3.8280      2.00000
     87       3.8488      2.00000
     88       3.8488      2.00000
     89       3.8495      2.00000
     90       3.8495      2.00000
     91       3.9785      2.00000
     92       3.9785      2.00000
     93       4.0223      2.00000
     94       4.0223      2.00000
     95       4.0223      2.00000
     96       4.0223      2.00000
     97       4.0649      2.00000
     98       4.0649      2.00000
     99       4.2052      2.00000
    100       4.2052      2.00000
    101       4.2052      2.00000
    102       4.2052      2.00000
    103       4.3212      2.00000
    104       4.3212      2.00000
[...]
  0.000   0.000   4.165   0.000   0.000   7.758   0.000   0.000
 -0.001  -0.002   0.000   4.165   0.000   0.000   7.758   0.000
  0.000   0.000   0.000   0.000   4.165   0.000   0.000   7.758
  0.000   0.000   7.758   0.000   0.000  14.462   0.000   0.000
 -0.002  -0.003   0.000   7.758   0.000   0.000  14.462   0.000
  0.000   0.000   0.000   0.000   7.758   0.000   0.000  14.463
 total augmentation occupancy for first ion, spin component:           1
  6.802  -2.767  -0.000   0.052  -0.000   0.000  -0.020  -0.000
 -2.767   1.233   0.000  -0.027   0.000  -0.000   0.010  -0.000
 -0.000   0.000   3.327   0.000  -0.004  -0.775   0.000   0.004
  0.052  -0.027   0.000   3.329  -0.000   0.000  -0.775   0.000
 -0.000   0.000  -0.004  -0.000   3.282   0.004   0.000  -0.758
  0.000  -0.000  -0.775   0.000   0.004   0.190   0.000  -0.001
 -0.020   0.010   0.000  -0.775   0.000   0.000   0.190  -0.000
 -0.000  -0.000   0.004   0.000  -0.758  -0.001  -0.000   0.185


------------------------ aborting loop because EDIFF is reached ----------------------------------------


    CHARGE:  cpu time      0.2476: real time      0.2484
    FORLOC:  cpu time      0.0217: real time      0.0217
    FORNL :  cpu time      0.6906: real time      0.6924
    STRESS:  cpu time      2.1277: real time      2.1336
    FORCOR:  cpu time      0.0848: real time      0.0850
    FORHAR:  cpu time      0.0346: real time      0.0348
    MIXING:  cpu time      0.0759: real time      0.0761
    OFIELD:  cpu time      0.0001: real time      0.0001

  FORCE on cell =-STRESS in cart. coord.  units (eV):
  Direction    XX          YY          ZZ          XY          YZ          ZX
  --------------------------------------------------------------------------------------
  Alpha Z   118.68783   118.68783   118.68783
  Ewald   -2565.54154 -2495.58609 -2495.56214     5.31386    -0.00000    -0.00000
  Hartree   136.88991   147.33959   147.10786     7.85410    -0.00000    -0.00000
  E(xc)    -836.90192  -837.59418  -837.63032     0.09066    -0.00000    -0.00000
  Local    -833.11509  -915.54393  -915.70094   -14.53865    -0.00000    -0.00000
  n-local  2544.35526  2555.62616  2556.24176    -2.20034     0.00000     0.00000
  augment  -370.83785  -370.91849  -370.97875    -0.51895     0.00000     0.00000
  Kinetic  1897.66811  1878.75768  1878.40369    14.35970     0.00000    -0.00000
  Fock        0.00000     0.00000     0.00000     0.00000     0.00000     0.00000
  -------------------------------------------------------------------------------------
  Total      91.20470    80.76857    80.56899    10.36037     0.00000     0.00000
  in kB     125.78230   111.38962   111.11437    14.28820     0.00000     0.00000
  external pressure =      116.10 kB  Pullay stress =        0.00 kB


 VOLUME and BASIS-vectors are now :
 -----------------------------------------------------------------------------
  energy-cutoff  :      400.00
  volume of cell :     1161.74
      direct lattice vectors                 reciprocal lattice vectors
    10.372136532 -0.105838016  0.000000000     0.096421991  0.000964219  0.000000000
    -0.105838016 10.583813563  0.000000000     0.000964219  0.094493544  0.000000000
     0.000000000  0.000000000 10.583813563     0.000000000  0.000000000  0.094483902

  length of vectors
    10.372676507 10.584342739 10.583813563     0.096426812  0.094498463  0.094483902


 FORCES acting on ions
    electron-ion (+dipol)            ewald-force                    non-local-force                 convergence-correction
 -----------------------------------------------------------------------------------------------
   -.216E-08 -.148E-08 0.164E+01   0.111E-13 0.511E-14 -.116E+01   -.423E-20 0.116E-20 -.475E+00   0.429E-13 -.181E-12 -.258E-04
   -.216E-08 -.148E-08 0.164E+01   0.124E-13 0.888E-15 -.116E+01   -.648E-20 -.204E-20 -.475E+00   -.524E-13 0.259E-13 -.258E-04
   -.216E-08 -.148E-08 0.164E+01   0.400E-14 -.666E-15 -.116E+01   -.940E-20 -.285E-21 -.475E+00   0.300E-13 0.184E-12 -.258E-04
   -.216E-08 -.148E-08 0.164E+01   -.711E-14 0.711E-14 -.116E+01   0.417E-20 -.813E-21 -.475E+00   -.279E-13 -.263E-13 -.258E-04
   -.216E-08 -.148E-08 0.164E+01   0.222E-15 -.222E-14 -.116E+01   -.388E-20 -.106E-20 -.475E+00   -.525E-13 -.157E-12 -.258E-04
   -.216E-08 -.148E-08 0.164E+01   0.115E-13 -.266E-14 -.116E+01   0.344E-20 -.142E-20 -.475E+00   0.650E-13 0.120E-13 -.258E-04
   -.216E-08 -.148E-08 0.164E+01   0.266E-14 -.755E-14 -.116E+01   -.596E-20 0.996E-21 -.475E+00   -.281E-13 0.146E-12 -.258E-04
   -.216E-08 -.148E-08 0.164E+01   0.107E-13 0.000E+00 -.116E+01   -.995E-20 -.215E-20 -.475E+00   0.359E-13 -.715E-14 -.258E-04
   0.395E-08 0.293E-08 -.164E+01   -.888E-14 0.400E-14 0.116E+01   0.421E-20 0.220E-20 0.475E+00   -.116E-12 0.490E-14 0.258E-04
   0.395E-08 0.293E-08 -.164E+01   -.533E-14 0.711E-14 0.116E+01   0.818E-20 0.122E-20 0.475E+00   0.111E-12 0.722E-13 0.258E-04
   0.395E-08 0.293E-08 -.164E+01   -.129E-13 0.133E-13 0.116E+01   0.438E-20 0.197E-20 0.475E+00   -.511E-13 -.409E-14 0.258E-04
   0.395E-08 0.293E-08 -.164E+01   -.533E-14 0.711E-14 0.116E+01   -.416E-20 -.172E-20 0.475E+00   0.474E-13 -.641E-13 0.258E-04
   0.395E-08 0.293E-08 -.164E+01   -.711E-14 0.799E-14 0.116E+01   0.562E-20 0.275E-20 0.475E+00   0.111E-12 0.160E-12 0.258E-04
   0.395E-08 0.293E-08 -.164E+01   -.284E-13 0.355E-14 0.116E+01   -.692E-22 -.198E-20 0.475E+00   -.129E-12 -.828E-13 0.258E-04
   0.395E-08 0.293E-08 -.164E+01   -.711E-14 0.138E-13 0.116E+01   0.599E-20 0.158E-20 0.475E+00   0.445E-13 -.153E-12 0.258E-04
   0.395E-08 0.293E-08 -.164E+01   0.000E+00 0.142E-13 0.116E+01   0.824E-20 0.128E-20 0.475E+00   -.610E-13 0.883E-13 0.258E-04
   -.216E-08 -.148E-08 0.164E+01   -.533E-14 -.955E-14 -.116E+01   -.569E-21 0.562E-22 -.475E+00   0.142E-12 -.374E-14 -.258E-04
   -.216E-08 -.148E-08 0.164E+01   -.533E-14 -.129E-13 -.116E+01   -.215E-20 0.967E-21 -.475E+00   -.128E-12 -.593E-13 -.258E-04
   -.216E-08 -.148E-08 0.164E+01   -.178E-14 0.133E-14 -.116E+01   0.456E-20 -.460E-21 -.475E+00   0.484E-13 0.484E-14 -.258E-04
   -.216E-08 -.148E-08 0.164E+01   0.533E-14 -.311E-14 -.116E+01   0.137E-20 0.116E-20 -.475E+00   -.546E-13 0.424E-13 -.258E-04
   -.216E-08 -.148E-08 0.164E+01   -.355E-14 -.622E-14 -.116E+01   0.664E-20 0.825E-21 -.475E+00   -.145E-12 -.118E-12 -.258E-04
   -.216E-08 -.148E-08 0.164E+01   -.107E-13 -.622E-14 -.116E+01   0.143E-20 0.702E-21 -.475E+00   0.139E-12 0.843E-13 -.258E-04
   -.216E-08 -.148E-08 0.164E+01   0.400E-14 0.888E-15 -.116E+01   -.356E-20 -.393E-22 -.475E+00   -.490E-13 0.109E-12 -.258E-04
   -.216E-08 -.148E-08 0.164E+01   0.355E-14 0.000E+00 -.116E+01   -.625E-20 0.124E-20 -.475E+00   0.625E-13 -.841E-13 -.258E-04
   0.395E-08 0.293E-08 -.164E+01   -.107E-13 -.132E-13 0.116E+01   0.214E-20 -.957E-21 0.475E+00   0.857E-14 -.595E-13 0.258E-04
   0.395E-08 0.293E-08 -.164E+01   -.107E-13 -.633E-14 0.116E+01   0.397E-20 -.320E-22 0.475E+00   -.228E-13 -.453E-13 0.258E-04
   0.395E-08 0.293E-08 -.164E+01   -.124E-13 -.541E-15 0.116E+01   0.200E-20 -.291E-21 0.475E+00   -.811E-14 0.653E-13 0.258E-04
   0.395E-08 0.293E-08 -.164E+01   -.124E-13 0.125E-13 0.116E+01   0.519E-21 0.475E-21 0.475E+00   0.136E-13 0.580E-13 0.258E-04
   0.395E-08 0.292E-08 -.164E+01   -.124E-13 -.874E-14 0.116E+01   -.148E-20 0.141E-21 0.475E+00   -.773E-14 -.370E-13 0.258E-04
   0.395E-08 0.293E-08 -.164E+01   -.124E-13 -.877E-14 0.116E+01   0.350E-20 0.173E-20 0.475E+00   -.540E-15 -.100E-12 0.258E-04
   0.395E-08 0.293E-08 -.164E+01   -.888E-14 0.387E-14 0.116E+01   -.223E-20 -.125E-20 0.475E+00   0.719E-14 0.515E-13 0.258E-04
   0.395E-08 0.293E-08 -.164E+01   -.888E-14 0.343E-14 0.116E+01   0.192E-21 0.627E-22 0.475E+00   -.296E-13 0.111E-12 0.258E-04
   -.216E-08 -.148E-08 0.164E+01   0.178E-13 0.200E-14 -.116E+01   -.565E-20 -.190E-20 -.475E+00   0.672E-13 -.668E-13 -.258E-04
   -.216E-08 -.148E-08 0.164E+01   0.147E-13 0.222E-14 -.116E+01   -.136E-20 0.116E-20 -.475E+00   -.728E-13 -.703E-13 -.258E-04
   -.216E-08 -.148E-08 0.164E+01   0.155E-13 0.289E-14 -.116E+01   -.900E-21 -.431E-21 -.475E+00   -.361E-13 0.687E-13 -.258E-04
   -.216E-08 -.148E-08 0.164E+01   0.160E-13 0.311E-14 -.116E+01   0.164E-20 0.860E-21 -.475E+00   0.607E-13 0.657E-13 -.258E-04
   -.216E-08 -.148E-08 0.164E+01   0.131E-13 0.222E-14 -.116E+01   -.481E-21 -.605E-21 -.475E+00   -.708E-13 -.166E-12 -.258E-04
   -.216E-08 -.148E-08 0.164E+01   0.151E-13 -.444E-14 -.116E+01   0.133E-20 0.532E-21 -.475E+00   0.688E-13 0.851E-14 -.258E-04
   -.216E-08 -.148E-08 0.164E+01   0.129E-13 -.400E-14 -.116E+01   -.711E-20 -.231E-20 -.475E+00   0.477E-13 0.157E-12 -.258E-04
   -.216E-08 -.148E-08 0.164E+01   0.142E-13 0.355E-14 -.116E+01   0.216E-20 -.552E-22 -.475E+00   -.729E-13 -.195E-14 -.258E-04
   0.395E-08 0.293E-08 -.164E+01   -.124E-13 -.400E-14 0.116E+01   -.330E-21 0.137E-20 0.475E+00   0.372E-13 0.421E-14 0.258E-04
   0.395E-08 0.293E-08 -.164E+01   -.122E-13 -.444E-15 0.116E+01   0.737E-20 0.204E-21 0.475E+00   -.135E-13 0.616E-13 0.258E-04
   0.395E-08 0.293E-08 -.164E+01   0.221E-14 0.666E-14 0.116E+01   0.180E-20 0.166E-20 0.475E+00   0.554E-13 0.475E-15 0.258E-04
   0.395E-08 0.293E-08 -.164E+01   -.135E-14 0.666E-14 0.116E+01   -.247E-20 -.211E-20 0.475E+00   -.733E-13 -.633E-13 0.258E-04
   0.395E-08 0.293E-08 -.164E+01   -.110E-13 -.355E-14 0.116E+01   0.374E-20 0.202E-20 0.475E+00   -.513E-13 -.144E-13 0.258E-04
   0.395E-08 0.293E-08 -.164E+01   -.110E-13 0.355E-14 0.116E+01   0.221E-20 -.111E-20 0.475E+00   0.221E-13 0.961E-13 0.258E-04
   0.395E-08 0.293E-08 -.164E+01   0.321E-14 0.142E-13 0.116E+01   -.220E-20 0.176E-20 0.475E+00   -.699E-13 0.131E-13 0.258E-04
   0.395E-08 0.293E-08 -.164E+01   0.365E-14 0.107E-13 0.116E+01   0.377E-21 -.216E-21 0.475E+00   0.723E-13 -.935E-13 0.258E-04
   -.216E-08 -.148E-08 0.164E+01   -.444E-15 -.109E-13 -.116E+01   -.175E-20 0.304E-21 -.475E+00   -.193E-13 -.398E-13 -.258E-04
   -.216E-08 -.148E-08 0.164E+01   0.244E-13 -.147E-13 -.116E+01   0.939E-20 0.290E-20 -.475E+00   0.269E-13 -.321E-14 -.258E-04
   -.216E-08 -.148E-08 0.164E+01   0.293E-13 -.888E-14 -.116E+01   -.235E-20 -.309E-20 -.475E+00   -.499E-13 0.331E-13 -.258E-04
   -.216E-08 -.148E-08 0.164E+01   0.151E-13 -.533E-14 -.116E+01   0.210E-20 0.259E-20 -.475E+00   0.446E-13 -.195E-14 -.258E-04
   -.216E-08 -.148E-08 0.164E+01   0.133E-13 -.488E-14 -.116E+01   0.159E-20 -.303E-20 -.475E+00   0.226E-13 -.187E-13 -.258E-04
   -.216E-08 -.148E-08 0.164E+01   0.231E-13 -.888E-14 -.116E+01   0.471E-20 0.205E-20 -.475E+00   -.352E-13 -.313E-13 -.258E-04
   -.216E-08 -.148E-08 0.164E+01   0.151E-13 -.355E-14 -.116E+01   -.352E-20 -.711E-22 -.475E+00   0.575E-13 0.189E-13 -.258E-04
   -.216E-08 -.148E-08 0.164E+01   0.249E-13 0.355E-14 -.116E+01   0.134E-19 0.309E-20 -.475E+00   -.526E-13 0.210E-13 -.258E-04
   0.395E-08 0.293E-08 -.164E+01   -.189E-13 -.277E-15 0.116E+01   -.332E-20 -.369E-20 0.475E+00   0.128E-12 -.120E-12 0.258E-04
   0.395E-08 0.293E-08 -.164E+01   -.126E-13 -.468E-16 0.116E+01   -.770E-20 0.134E-20 0.475E+00   -.129E-12 -.526E-14 0.258E-04
   0.395E-08 0.293E-08 -.164E+01   -.211E-13 -.494E-14 0.116E+01   0.236E-20 -.114E-20 0.475E+00   -.215E-13 0.126E-12 0.258E-04
   0.395E-08 0.293E-08 -.164E+01   -.211E-13 0.219E-14 0.116E+01   -.213E-20 -.869E-21 0.475E+00   0.224E-13 0.120E-13 0.258E-04
   0.395E-08 0.293E-08 -.164E+01   0.416E-14 -.620E-14 0.116E+01   -.328E-20 -.203E-20 0.475E+00   -.143E-12 -.181E-12 0.258E-04
   0.395E-08 0.293E-08 -.164E+01   0.153E-14 -.575E-14 0.116E+01   -.305E-20 -.320E-21 0.475E+00   0.132E-12 0.560E-13 0.258E-04
   0.395E-08 0.293E-08 -.164E+01   -.153E-13 -.304E-14 0.116E+01   0.137E-21 -.330E-20 0.475E+00   0.160E-13 0.192E-12 0.258E-04
   0.395E-08 0.293E-08 -.164E+01   -.376E-14 -.302E-14 0.116E+01   -.995E-20 0.114E-20 0.475E+00   -.277E-13 -.544E-13 0.258E-04
 -----------------------------------------------------------------------------------------------
   0.571E-07 0.463E-07 0.105E-04   0.593E-14 -.157E-13 0.364E-13   0.693E-20 0.273E-20 -.294E-14   -.113E-12 0.383E-13 -.240E-10
 
 
 POSITION                                       TOTAL-FORCE (eV/Angst)
 -----------------------------------------------------------------------------------
      0.00000      0.00000     10.57412        -0.000000      0.000000     -0.000514
      0.00000      0.00000      5.28221        -0.000000      0.000000     -0.000514
     -0.05292      5.29191     10.57412        -0.000000     -0.000000     -0.000514
     -0.05292      5.29191      5.28221         0.000000     -0.000000     -0.000514
      5.18607     -0.05292     10.57412        -0.000000     -0.000000     -0.000514
      5.18607     -0.05292      5.28221        -0.000000      0.000000     -0.000514
      5.13315      5.23899     10.57412         0.000000     -0.000000     -0.000514
      5.13315      5.23899      5.28221         0.000000     -0.000000     -0.000514
      3.84986      3.92924      1.33268         0.000000      0.000000      0.000514
      3.84986      3.92924      6.62458         0.000000      0.000000      0.000514
      3.79694      9.22115      1.33268         0.000000      0.000000      0.000514
      3.79694      9.22115      6.62458        -0.000000      0.000000      0.000514
      9.03593      3.87632      1.33268         0.000000     -0.000000      0.000514
      9.03593      3.87632      6.62458        -0.000000      0.000000      0.000514
      8.98301      9.16823      1.33268        -0.000000      0.000000      0.000514
      8.98301      9.16823      6.62458        -0.000000     -0.000000      0.000514
     -0.02646      2.64595      2.63625        -0.000000     -0.000000     -0.000514
     -0.02646      2.64595      7.92816        -0.000000     -0.000000     -0.000514
     -0.07938      7.93786      2.63625        -0.000000     -0.000000     -0.000514
     -0.07938      7.93786      7.92816         0.000000      0.000000     -0.000514
      5.15961      2.59303      2.63625         0.000000      0.000000     -0.000514
      5.15961      2.59303      7.92816        -0.000000      0.000000     -0.000514
      5.10669      7.88494      2.63625         0.000000     -0.000000     -0.000514
      5.10669      7.88494      7.92816         0.000000      0.000000     -0.000514
      3.87632      1.28329      3.97863        -0.000000     -0.000000      0.000514
      3.87632      1.28329      9.27054        -0.000000     -0.000000      0.000514
      3.82340      6.57519      3.97863         0.000000      0.000000      0.000514
      3.82340      6.57519      9.27054        -0.000000      0.000000      0.000514
      9.06239      1.23037      3.97863         0.000000      0.000000      0.000514
      9.06239      1.23037      9.27054        -0.000000      0.000000      0.000514
      9.00947      6.52228      3.97863        -0.000000     -0.000000      0.000514
      9.00947      6.52228      9.27054        -0.000000     -0.000000      0.000514
      2.59303     -0.02646      2.63625         0.000000     -0.000000     -0.000514
      2.59303     -0.02646      7.92816        -0.000000     -0.000000     -0.000514
      2.54012      5.26545      2.63625        -0.000000      0.000000     -0.000514
      2.54012      5.26545      7.92816         0.000000      0.000000     -0.000514
      7.77910     -0.07938      2.63625         0.000000      0.000000     -0.000514
      7.77910     -0.07938      7.92816        -0.000000      0.000000     -0.000514
      7.72618      5.21253      2.63625         0.000000     -0.000000     -0.000514
      7.72618      5.21253      7.92816         0.000000     -0.000000     -0.000514
      1.25683      3.95570      3.97863         0.000000     -0.000000      0.000514
      1.25683      3.95570      9.27054         0.000000     -0.000000      0.000514
      1.20391      9.24761      3.97863        -0.000000      0.000000      0.000514
      1.20391      9.24761      9.27054        -0.000000     -0.000000      0.000514
      6.44290      3.90278      3.97863        -0.000000      0.000000      0.000514
      6.44290      3.90278      9.27054        -0.000000      0.000000      0.000514
      6.38998      9.19469      3.97863         0.000000      0.000000      0.000514
      6.38998      9.19469      9.27054        -0.000000     -0.000000      0.000514
      2.56657      2.61949     10.57412        -0.000000      0.000000     -0.000514
      2.56657      2.61949      5.28221         0.000000      0.000000     -0.000514
      2.51366      7.91140     10.57412         0.000000      0.000000     -0.000514
      2.51366      7.91140      5.28221        -0.000000     -0.000000     -0.000514
      7.75264      2.56657     10.57412        -0.000000      0.000000     -0.000514
      7.75264      2.56657      5.28221         0.000000      0.000000     -0.000514
      7.69972      7.85848     10.57412        -0.000000      0.000000     -0.000514
      7.69972      7.85848      5.28221         0.000000     -0.000000     -0.000514
      1.28329      1.30975      1.33268         0.000000     -0.000000      0.000514
      1.28329      1.30975      6.62458        -0.000000      0.000000      0.000514
      1.23037      6.60165      1.33268        -0.000000     -0.000000      0.000514
      1.23037      6.60165      6.62458         0.000000      0.000000      0.000514
      6.46936      1.25683      1.33268         0.000000     -0.000000      0.000514
      6.46936      1.25683      6.62458        -0.000000     -0.000000      0.000514
      6.41644      6.54873      1.33268         0.000000     -0.000000      0.000514
      6.41644      6.54873      6.62458        -0.000000     -0.000000      0.000514
 -----------------------------------------------------------------------------------
    total drift:                                0.000000      0.000000      0.000010


--------------------------------------------------------------------------------------------------------



  FREE ENERGIE OF THE ION-ELECTRON SYSTEM (eV)
  ---------------------------------------------------
  free  energy   TOTEN  =      -363.30637561 eV

  energy  without entropy=     -363.32003782  energy(sigma->0) =     -363.31092968
 
 d Force = 0.2431134E-01[-0.162E-03, 0.488E-01]  d Energy = 0.2423468E-01 0.767E-04
 d Force =-0.3247416E+00[-0.367E+00,-0.282E+00]  d Ewald  =-0.3247360E+00-0.567E-05


--------------------------------------------------------------------------------------------------------


    POTLOK:  cpu time      0.1468: real time      0.1471


--------------------------------------------------------------------------------------------------------




--------------------------------------------------------------------------------------------------------


  
 reached required accuracy - stopping structural energy minimisation
     LOOP+:  cpu time     13.2251: real time     13.3719
    4ORBIT:  cpu time      0.0000: real time      0.0000

 total amount of memory used by VASP MPI-rank0    78511. kBytes
=======================================================================

   base      :      30000. kBytes
   nonlr-proj:       4876. kBytes
   fftplans  :      17991. kBytes
   grid      :       6881. kBytes
   one-center:         18. kBytes
   wavefun   :      18745. kBytes
 
  
  
 General timing and accounting informations for this job:
 ========================================================
  
                  Total CPU time used (sec):       60.421
                            User time (sec):       57.109
                          System time (sec):        3.312
                         Elapsed time (sec):       64.097
  
                   Maximum memory used (kb):      407188.
                   Average memory used (kb):          N/A
  
                          Minor page faults:        94706
                          Major page faults:            0
                 Voluntary context switches:        10074
