<?xml version="1.0" encoding="ISO-8859-1"?>
<modeling>
 <generator>
  <i name="program" type="string">vasp </i>
  <i name="version" type="string">6.4.3  </i>
  <i name="subversion" type="string">19Mar24 (build Oct 21 2024 22:36:34) complex                          parallel </i>
  <i name="platform" type="string">LinuxIFC </i>
  <i name="date" type="string">2024 11 01 </i>
  <i name="time" type="string">22:56:58 </i>
 </generator>
 <incar>
  <i type="string" name="SYSTEM">Si64</i>
  <i type="int" name="ISTART">     0</i>
  <i type="string" name="PREC">Accurate</i>
  <i type="string" name="ALGO">Fast</i>
  <i type="logical" name="ADDGRID"> T  </i>
  <i type="int" name="ICHARG">     2</i>
  <i type="int" name="NELM">    60</i>
  <i type="int" name="NELMIN">     8</i>
  <i type="int" name="IBRION">     2</i>
  <i name="EDIFF">      0.00000100</i>
  <i name="EDIFFG">     -0.01000000</i>
  <i type="int" name="NSW">    60</i>
  <i type="int" name="ISIF">     2</i>
  <i name="ENCUT">    400.00000000</i>
  <i type="string" name="LREAL">Auto</i>
  <i type="int" name="ISMEAR">     1</i>
  <i name="SIGMA">      0.20000000</i>
  <i type="logical" name="LWAVE"> F  </i>
  <i type="logical" name="LCHARG"> F  </i>
  <i type="logical" name="GGA_COMPAT"> F  </i>
  <i type="string" name="GGA">PS</i>
 </incar>
 <primitive_cell>
  <structure name="primitive_cell" >
   <crystal>
    <varray name="basis" >
     <v>      -2.59303413       0.02645950      -2.64595339 </v>
     <v>      -2.59303413       0.02645950       2.64595339 </v>
     <v>       2.56657463       2.61949389       0.00000000 </v>
    </varray>
    <i name="volume">     36.30431867 </i>
    <varray name="rec_basis" >
     <v>      -0.19091554       0.18705865      -0.18896780 </v>
     <v>      -0.19091554       0.18705865       0.18896780 </v>
     <v>       0.00385688       0.37797418      -0.00000000 </v>
    </varray>
   </crystal>
   <varray name="positions" >
    <v>       0.00000000       0.00000000       0.00000000 </v>
    <v>       0.75000000       0.25000000       0.50000000 </v>
   </varray>
  </structure>
  <varray name="primitive_index" >
   <v type="int" >        1 </v>
   <v type="int" >       15 </v>
  </varray>
 </primitive_cell>
 <kpoints>
  <generation param="Gamma">
   <v type="int" name="divisions">       2        2        2 </v>
   <v name="usershift">      0.00000000       0.00000000       0.00000000 </v>
   <v name="genvec1">      0.50000000       0.00000000       0.00000000 </v>
   <v name="genvec2">      0.00000000       0.50000000       0.00000000 </v>
   <v name="genvec3">      0.00000000       0.00000000       0.50000000 </v>
   <v name="shift">      0.00000000       0.00000000       0.00000000 </v>
  </generation>
  <varray name="kpointlist" >
   <v>       0.00000000       0.00000000       0.00000000 </v>
   <v>       0.50000000       0.00000000       0.00000000 </v>
   <v>       0.00000000       0.50000000       0.00000000 </v>
   <v>       0.50000000       0.50000000       0.00000000 </v>
   <v>       0.00000000       0.00000000       0.50000000 </v>
   <v>       0.50000000       0.00000000       0.50000000 </v>
   <v>       0.00000000       0.50000000       0.50000000 </v>
   <v>       0.50000000       0.50000000       0.50000000 </v>
  </varray>
  <varray name="weights" >
   <v>       0.12500000 </v>
   <v>       0.12500000 </v>
   <v>       0.12500000 </v>
   <v>       0.12500000 </v>
   <v>       0.12500000 </v>
   <v>       0.12500000 </v>
   <v>       0.12500000 </v>
   <v>       0.12500000 </v>
  </varray>
 </kpoints>
 <parameters>
  <separator name="general" >
   <i type="string" name="SYSTEM">Si64</i>
   <i type="logical" name="LCOMPAT"> F  </i>
  </separator>
  <separator name="electronic" >
   <i type="string" name="PREC">accura</i>
   <i name="ENMAX">    400.00000000</i>
   <i name="ENAUG">    322.06900000</i>
   <i name="EDIFF">      0.00000100</i>
   <i type="int" name="IALGO">    68</i>
   <i type="int" name="IWAVPR">    11</i>
   <i type="int" name="NBANDS">   162</i>
   <i type="int" name="NBANDSLOW">    -1</i>
   <i type="int" name="NBANDSHIGH">    -1</i>
   <i name="NELECT">    256.00000000</i>
   <i type="int" name="TURBO">     0</i>
   <i type="int" name="IRESTART">     0</i>
   <i type="int" name="NREBOOT">     0</i>
   <i type="int" name="NMIN">     0</i>
   <i name="EREF">      0.00000000</i>
   <separator name="electronic smearing" >
    <i type="int" name="ISMEAR">     1</i>
    <i name="SIGMA">      0.20000000</i>
    <i name="KSPACING">      0.50000000</i>
    <i type="logical" name="KGAMMA"> T  </i>
    <i type="logical" name="KBLOWUP"> T  </i>
   </separator>
   <separator name="electronic projectors" >
    <i type="logical" name="LREAL"> T  </i>
    <v name="ROPT">     -0.00025000</v>
    <i type="int" name="LMAXPAW">  -100</i>
    <i type="int" name="LMAXMIX">     2</i>
    <i type="logical" name="NLSPLINE"> F  </i>
   </separator>
   <separator name="electronic startup" >
    <i type="int" name="ISTART">     0</i>
    <i type="int" name="ICHARG">     2</i>
    <i type="int" name="INIWAV">     1</i>
   </separator>
   <separator name="electronic spin" >
    <i type="int" name="ISPIN">     1</i>
    <i type="logical" name="LNONCOLLINEAR"> F  </i>
    <v name="MAGMOM">      1.00000000      1.00000000      1.00000000      1.00000000      1.00000000      1.00000000      1.00000000      1.00000000      1.00000000      1.00000000      1.00000000      1.00000000      1.00000000      1.00000000      1.00000000      1.00000000      1.00000000      1.00000000      1.00000000      1.00000000
      1.00000000      1.00000000      1.00000000      1.00000000      1.00000000      1.00000000      1.00000000      1.00000000      1.00000000      1.00000000      1.00000000      1.00000000      1.00000000      1.00000000      1.00000000      1.00000000      1.00000000      1.00000000      1.00000000      1.00000000
      1.00000000      1.00000000      1.00000000      1.00000000      1.00000000      1.00000000      1.00000000      1.00000000      1.00000000      1.00000000      1.00000000      1.00000000      1.00000000      1.00000000      1.00000000      1.00000000      1.00000000      1.00000000      1.00000000      1.00000000
      1.00000000      1.00000000      1.00000000      1.00000000</v>
    <i name="NUPDOWN">     -1.00000000</i>
    <i type="logical" name="LSORBIT"> F  </i>
    <v name="SAXIS">      0.00000000      0.00000000      1.00000000</v>
    <i type="logical" name="LSPIRAL"> F  </i>
    <v name="QSPIRAL">      0.00000000      0.00000000      0.00000000</v>
    <i type="logical" name="LZEROZ"> F  </i>
   </separator>
   <separator name="electronic exchange-correlation" >
    <i type="logical" name="LASPH"> F  </i>
   </separator>
   <separator name="electronic convergence" >
    <i type="int" name="NELM">    60</i>
    <i type="int" name="NELMDL">    -5</i>
    <i type="int" name="NELMIN">     8</i>
    <i name="ENINI">    400.00000000</i>
    <separator name="electronic convergence detail" >
     <i type="logical" name="LDIAG"> T  </i>
     <i type="logical" name="LSUBROT"> F  </i>
     <i name="WEIMIN">      0.00100000</i>
     <i name="EBREAK">      0.00000000</i>
     <i name="DEPER">      0.30000000</i>
     <i type="int" name="NRMM">     4</i>
     <i name="TIME">      0.40000000</i>
    </separator>
   </separator>
   <separator name="electronic mixer" >
    <i name="AMIX">      0.40000000</i>
    <i name="BMIX">      1.00000000</i>
    <i name="AMIN">      0.10000000</i>
    <i name="AMIX_MAG">      1.60000000</i>
    <i name="BMIX_MAG">      1.00000000</i>
    <separator name="electronic mixer details" >
     <i type="int" name="IMIX">     4</i>
     <i type="logical" name="MIXFIRST"> F  </i>
     <i type="int" name="MAXMIX">   -45</i>
     <i name="WC">    100.00000000</i>
     <i type="int" name="INIMIX">     1</i>
     <i type="int" name="MIXPRE">     1</i>
     <i type="int" name="MREMOVE">     5</i>
    </separator>
   </separator>
   <separator name="electronic dipolcorrection" >
    <i type="logical" name="LDIPOL"> F  </i>
    <i type="logical" name="LMONO"> F  </i>
    <i type="int" name="IDIPOL">     0</i>
    <i name="EPSILON">      1.00000000</i>
    <v name="DIPOL">   -100.00000000   -100.00000000   -100.00000000</v>
    <i name="EFIELD">      0.00000000</i>
    <i type="logical" name="LVACPOTAV"> F  </i>
   </separator>
  </separator>
  <separator name="grids" >
   <i type="int" name="NGX">    70</i>
   <i type="int" name="NGY">    70</i>
   <i type="int" name="NGZ">    70</i>
   <i type="int" name="NGXF">   140</i>
   <i type="int" name="NGYF">   140</i>
   <i type="int" name="NGZF">   140</i>
   <i type="logical" name="ADDGRID"> T  </i>
  </separator>
  <separator name="ionic" >
   <i type="int" name="NSW">    60</i>
   <i type="int" name="IBRION">     2</i>
   <i type="int" name="MDALGO">     0</i>
   <i type="int" name="ISIF">     2</i>
   <i name="PSTRESS">      0.00000000</i>
   <i name="EDIFFG">     -0.01000000</i>
   <i type="int" name="NFREE">     1</i>
   <i name="POTIM">      0.50000000</i>
   <i name="SMASS">     -3.00000000</i>
   <i name="SCALEE">      1.00000000</i>
  </separator>
  <separator name="ionic md" >
   <i name="TEBEG">      0.00010000</i>
   <i name="TEEND">      0.00010000</i>
   <i type="int" name="NBLOCK">     1</i>
   <i type="int" name="KBLOCK">    60</i>
   <i type="int" name="NPACO">   256</i>
   <i name="APACO">     10.00000000</i>
  </separator>
  <separator name="symmetry" >
   <i type="int" name="ISYM">     2</i>
   <i name="SYMPREC">      0.00001000</i>
  </separator>
  <separator name="dos" >
   <i type="int" name="LORBIT">     0</i>
   <v name="RWIGS">     -1.00000000</v>
   <i type="int" name="NEDOS">   301</i>
   <i name="EMIN">     10.00000000</i>
   <i name="EMAX">    -10.00000000</i>
   <i name="EFERMI">      0.00000000</i>
  </separator>
  <separator name="writing" >
   <i type="int" name="NWRITE">     2</i>
   <i type="logical" name="LWAVE"> F  </i>
   <i type="logical" name="LDOWNSAMPLE"> F  </i>
   <i type="logical" name="LCHARG"> F  </i>
   <i type="logical" name="LPARD"> F  </i>
   <i type="logical" name="LVTOT"> F  </i>
   <i type="logical" name="LVHAR"> F  </i>
   <i type="logical" name="LELF"> F  </i>
   <i type="logical" name="LOPTICS"> F  </i>
   <v name="STM">      0.00000000      0.00000000      0.00000000      0.00000000      0.00000000      0.00000000      0.00000000</v>
  </separator>
  <separator name="performance" >
   <i type="int" name="NPAR">     2</i>
   <i type="int" name="NSIM">     4</i>
   <i type="int" name="NBLK">    -1</i>
   <i type="logical" name="LPLANE"> T  </i>
   <i type="logical" name="LSCALAPACK"> T  </i>
   <i type="logical" name="LSCAAWARE"> F  </i>
   <i type="logical" name="LSCALU"> F  </i>
   <i type="logical" name="LASYNC"> F  </i>
   <i type="logical" name="LORBITALREAL"> F  </i>
  </separator>
  <separator name="miscellaneous" >
   <i type="int" name="IDIOT">     3</i>
   <i type="int" name="PHON_NSTRUCT">    -1</i>
   <i type="logical" name="LMUSIC"> F  </i>
   <v name="POMASS">     28.08500000</v>
   <v name="DARWINR">      0.00000000</v>
   <v name="DARWINV">      1.00000000</v>
   <i type="logical" name="LCORR"> T  </i>
  </separator>
  <i type="logical" name="GGA_COMPAT"> F  </i>
  <i type="logical" name="LBERRY"> F  </i>
  <i type="int" name="ICORELEVEL">     0</i>
  <i type="logical" name="LDAU"> F  </i>
  <i type="int" name="I_CONSTRAINED_M">     0</i>
  <separator name="electronic exchange-correlation" >
   <i type="string" name="GGA    ">PS</i>
   <i type="string" name="XC_C">1</i>
   <i type="int" name="VOSKOWN">     0</i>
   <i type="logical" name="LHFCALC"> F  </i>
   <i type="string" name="PRECFOCK"></i>
   <i type="logical" name="LSYMGRAD"> F  </i>
   <i type="logical" name="LHFONE"> F  </i>
   <i type="logical" name="LRHFCALC"> F  </i>
   <i type="logical" name="LTHOMAS"> F  </i>
   <i type="logical" name="LMODELHF"> F  </i>
   <i type="logical" name="LFOCKACE"> F  </i>
   <i name="ENCUT4O">     -1.00000000</i>
   <i type="int" name="EXXOEP">     0</i>
   <i type="int" name="FOURORBIT">     0</i>
   <i name="AEXX">      0.00000000</i>
   <i name="HFALPHA">      0.00000000</i>
   <i name="MCALPHA">      0.00000000</i>
   <i name="ALDAX">      1.00000000</i>
   <i name="AGGAX">      1.00000000</i>
   <i name="AMGGAX">      1.00000000</i>
   <i name="ALDAC">      1.00000000</i>
   <i name="AGGAC">      1.00000000</i>
   <i name="AMGGAC">      1.00000000</i>
   <i type="int" name="NKREDX">     1</i>
   <i type="int" name="NKREDY">     1</i>
   <i type="int" name="NKREDZ">     1</i>
   <i type="logical" name="SHIFTRED"> F  </i>
   <i type="logical" name="ODDONLY"> F  </i>
   <i type="logical" name="EVENONLY"> F  </i>
   <i type="int" name="LMAXFOCK">     0</i>
   <i type="int" name="NMAXFOCKAE">     0</i>
   <i type="logical" name="LFOCKAEDFT"> F  </i>
   <i name="HFSCREEN">      0.00000000</i>
   <i name="HFSCREENC">      0.00000000</i>
   <i type="int" name="NBANDSGWLOW">     0</i>
  </separator>
  <separator name="vdW DFT" >
   <i type="logical" name="LUSE_VDW"> F  </i>
   <i type="int" name="IVDW_NL">    -1</i>
   <i type="logical" name="LSPIN_VDW"> F  </i>
   <i name="ZAB_VDW">     -0.84910000</i>
   <i name="GAMMA_VDW">      1.39626340</i>
   <i name="ALPHA_VDW">      0.00000000</i>
   <i name="PARAM1">      0.12340000</i>
   <i name="PARAM2">      1.00000000</i>
   <i name="BPARAM">      6.30000000</i>
   <i name="CPARAM">      0.00930000</i>
  </separator>
  <separator name="model GW" >
   <i type="int" name="MODEL_GW">     0</i>
   <i name="MODEL_EPS0">     10.89129560</i>
   <i name="MODEL_ALPHA">      1.00000000</i>
  </separator>
  <separator name="linear response parameters" >
   <i type="logical" name="LEPSILON"> F  </i>
   <i type="logical" name="LRPA"> F  </i>
   <i type="logical" name="LNABLA"> F  </i>
   <i type="logical" name="LVEL"> F  </i>
   <i name="CSHIFT">      0.10000000</i>
   <i name="OMEGAMAX">     -1.00000000</i>
   <i name="DEG_THRESHOLD">      0.00200000</i>
   <i name="RTIME">     -0.10000000</i>
   <i name="WPLASMAI">      0.00000000</i>
   <v name="DFIELD">      0.00000000      0.00000000      0.00000000</v>
   <v name="WPLASMA">      0.00000000      0.00000000      0.00000000      0.00000000      0.00000000      0.00000000      0.00000000      0.00000000      0.00000000</v>
  </separator>
  <separator name="orbital magnetization" >
   <i type="logical" name="NUCIND"> F  </i>
   <v name="MAGPOS">      0.00000000      0.00000000      0.00000000</v>
   <i type="logical" name="LNICSALL"> T  </i>
   <i type="logical" name="ORBITALMAG"> F  </i>
   <i type="logical" name="LMAGBLOCH"> F  </i>
   <i type="logical" name="LCHIMAG"> F  </i>
   <i type="logical" name="LGAUGE"> T  </i>
   <i type="int" name="MAGATOM">     0</i>
   <v name="MAGDIPOL">      0.00000000      0.00000000      0.00000000</v>
   <v name="AVECCONST">      0.00000000      0.00000000      0.00000000</v>
  </separator>
  <separator name="response functions" >
   <i type="logical" name="LALL_IN_ONE"> F  </i>
   <i type="int" name="IALL_IN_ONE">    -1</i>
   <i type="int" name="NBANDS_WAVE">    -1</i>
   <i type="logical" name="LFINITE_TEMPERATURE"> F  </i>
   <i type="logical" name="LADDER"> F  </i>
   <i type="logical" name="LRPAFORCE"> F  </i>
   <i type="logical" name="LFXC"> F  </i>
   <i type="logical" name="LHARTREE"> T  </i>
   <i type="int" name="IBSE">     0</i>
   <v type="int" name="KPOINT">    -1     0     0     0</v>
   <i type="logical" name="LTCTC"> F  </i>
   <i type="logical" name="LTCTE"> F  </i>
   <i type="logical" name="LTETE"> F  </i>
   <i type="logical" name="LTRIPLET"> F  </i>
   <i type="logical" name="LFXCEPS"> F  </i>
   <i type="logical" name="LFXHEG"> F  </i>
   <i type="int" name="NATURALO">     2</i>
   <i type="logical" name="LHOLEGF"> F  </i>
   <i type="logical" name="L2ORDER"> F  </i>
   <i type="logical" name="LDMP1"> F  </i>
   <i type="logical" name="LMP2LT"> F  </i>
   <i type="logical" name="LSMP2LT"> F  </i>
   <i type="logical" name="LGWLF"> F  </i>
   <i name="ENCUTGW">     -1.60000002</i>
   <i name="ENCUTGWSOFT">     -1.60000002</i>
   <i name="ENCUTLF">     -1.00000000</i>
   <i type="logical" name="ESF_SPLINES"> F  </i>
   <i name="ESF_CONV">      0.01000000</i>
   <i type="int" name="ESF_NINTER">    15</i>
   <i type="int" name="LMAXMP2">    -1</i>
   <i name="SCISSOR">      0.00000000</i>
   <i type="int" name="NOMEGA">     0</i>
   <i type="int" name="NOMEGAR">     0</i>
   <i type="int" name="NBANDSGW">    -1</i>
   <i type="int" name="NBANDSO">    -1</i>
   <i type="int" name="NBANDSV">    -1</i>
   <i type="int" name="NELMGW">     1</i>
   <i type="int" name="NELMHF">     1</i>
   <i type="int" name="DIM">     3</i>
   <i type="int" name="IESPILON">     4</i>
   <i type="int" name="ANTIRES">     0</i>
   <i name="OMEGAMAX">    -30.00000000</i>
   <i name="OMEGAMIN">    -30.00000000</i>
   <i name="OMEGATL">   -200.00000000</i>
   <i type="int" name="OMEGAGRID">     0</i>
   <i name="CSHIFT">     -0.10000000</i>
   <i type="logical" name="LSELFENERGY"> F  </i>
   <i type="logical" name="LSPECTRAL"> F  </i>
   <i type="logical" name="LSPECTRALGW"> F  </i>
   <i type="logical" name="LSINGLES"> F  </i>
   <i type="logical" name="LFERMIGW"> F  </i>
   <i type="logical" name="ODDONLYGW"> F  </i>
   <i type="logical" name="EVENONLYGW"> F  </i>
   <i type="int" name="NKREDLFX">     1</i>
   <i type="int" name="NKREDLFY">     1</i>
   <i type="int" name="NKREDLFZ">     1</i>
   <i type="int" name="MAXMEM">  2800</i>
   <i type="int" name="TELESCOPE">     0</i>
   <i type="int" name="NTAUPAR">    -1</i>
   <i type="int" name="NOMEGAPAR">    -1</i>
   <i name="DAMP_NEWTON">      0.80000001</i>
   <i name="LAMBDA">      1.00000000</i>
  </separator>
  <separator name="External order field" >
   <i name="OFIELD_KAPPA">      0.00000000</i>
   <v name="OFIELD_K">      0.00000000      0.00000000      0.00000000</v>
   <i name="OFIELD_Q6_NEAR">      0.00000000</i>
   <i name="OFIELD_Q6_FAR">      0.00000000</i>
   <i name="OFIELD_A">      0.00000000</i>
  </separator>
  <separator name="optional k-points parameters" >
   <i type="int" name="KPOINTS_OPT_MODE">     1</i>
   <i type="logical" name="LKPOINTS_OPT"> F  </i>
  </separator>
 </parameters>
 <atominfo>
  <atoms>      64 </atoms>
  <types>       1 </types>
  <array name="atoms" >
   <dimension dim="1">ion</dimension>
   <field type="string">element</field>
   <field type="int">atomtype</field>
   <set>
    <rc><c>Si</c><c>   1</c></rc>
    <rc><c>Si</c><c>   1</c></rc>
    <rc><c>Si</c><c>   1</c></rc>
    <rc><c>Si</c><c>   1</c></rc>
    <rc><c>Si</c><c>   1</c></rc>
    <rc><c>Si</c><c>   1</c></rc>
    <rc><c>Si</c><c>   1</c></rc>
    <rc><c>Si</c><c>   1</c></rc>
    <rc><c>Si</c><c>   1</c></rc>
    <rc><c>Si</c><c>   1</c></rc>
    <rc><c>Si</c><c>   1</c></rc>
    <rc><c>Si</c><c>   1</c></rc>
    <rc><c>Si</c><c>   1</c></rc>
    <rc><c>Si</c><c>   1</c></rc>
    <rc><c>Si</c><c>   1</c></rc>
    <rc><c>Si</c><c>   1</c></rc>
    <rc><c>Si</c><c>   1</c></rc>
    <rc><c>Si</c><c>   1</c></rc>
    <rc><c>Si</c><c>   1</c></rc>
    <rc><c>Si</c><c>   1</c></rc>
    <rc><c>Si</c><c>   1</c></rc>
    <rc><c>Si</c><c>   1</c></rc>
    <rc><c>Si</c><c>   1</c></rc>
    <rc><c>Si</c><c>   1</c></rc>
    <rc><c>Si</c><c>   1</c></rc>
    <rc><c>Si</c><c>   1</c></rc>
    <rc><c>Si</c><c>   1</c></rc>
    <rc><c>Si</c><c>   1</c></rc>
    <rc><c>Si</c><c>   1</c></rc>
    <rc><c>Si</c><c>   1</c></rc>
    <rc><c>Si</c><c>   1</c></rc>
    <rc><c>Si</c><c>   1</c></rc>
    <rc><c>Si</c><c>   1</c></rc>
    <rc><c>Si</c><c>   1</c></rc>
    <rc><c>Si</c><c>   1</c></rc>
    <rc><c>Si</c><c>   1</c></rc>
    <rc><c>Si</c><c>   1</c></rc>
    <rc><c>Si</c><c>   1</c></rc>
    <rc><c>Si</c><c>   1</c></rc>
    <rc><c>Si</c><c>   1</c></rc>
    <rc><c>Si</c><c>   1</c></rc>
    <rc><c>Si</c><c>   1</c></rc>
    <rc><c>Si</c><c>   1</c></rc>
    <rc><c>Si</c><c>   1</c></rc>
    <rc><c>Si</c><c>   1</c></rc>
    <rc><c>Si</c><c>   1</c></rc>
    <rc><c>Si</c><c>   1</c></rc>
    <rc><c>Si</c><c>   1</c></rc>
    <rc><c>Si</c><c>   1</c></rc>
    <rc><c>Si</c><c>   1</c></rc>
    <rc><c>Si</c><c>   1</c></rc>
    <rc><c>Si</c><c>   1</c></rc>
    <rc><c>Si</c><c>   1</c></rc>
    <rc><c>Si</c><c>   1</c></rc>
    <rc><c>Si</c><c>   1</c></rc>
    <rc><c>Si</c><c>   1</c></rc>
    <rc><c>Si</c><c>   1</c></rc>
    <rc><c>Si</c><c>   1</c></rc>
    <rc><c>Si</c><c>   1</c></rc>
    <rc><c>Si</c><c>   1</c></rc>
    <rc><c>Si</c><c>   1</c></rc>
    <rc><c>Si</c><c>   1</c></rc>
    <rc><c>Si</c><c>   1</c></rc>
    <rc><c>Si</c><c>   1</c></rc>
   </set>
  </array>
  <array name="atomtypes" >
   <dimension dim="1">type</dimension>
   <field type="int">atomspertype</field>
   <field type="string">element</field>
   <field>mass</field>
   <field>valence</field>
   <field type="string">pseudopotential</field>
   <set>
    <rc><c>  64</c><c>Si</c><c>     28.08500000</c><c>      4.00000000</c><c>  PAW_PBE Si 05Jan2001                  </c></rc>
   </set>
  </array>
 </atominfo>
 <structure name="initialpos" >
  <crystal>
   <varray name="basis" >
    <v>      10.37213653      -0.10583802       0.00000000 </v>
    <v>      -0.10583802      10.58381356       0.00000000 </v>
    <v>       0.00000000       0.00000000      10.58381356 </v>
   </varray>
   <i name="volume">   1161.73819746 </i>
   <varray name="rec_basis" >
    <v>       0.09642199       0.00096422       0.00000000 </v>
    <v>       0.00096422       0.09449354       0.00000000 </v>
    <v>       0.00000000       0.00000000       0.09448390 </v>
   </varray>
  </crystal>
  <varray name="positions" >
   <v>       0.00000000       0.00000000       0.00000000 </v>
   <v>       0.00000000       0.00000000       0.50000000 </v>
   <v>       0.00000000       0.50000000       0.00000000 </v>
   <v>       0.00000000       0.50000000       0.50000000 </v>
   <v>       0.50000000       0.00000000       0.00000000 </v>
   <v>       0.50000000       0.00000000       0.50000000 </v>
   <v>       0.50000000       0.50000000       0.00000000 </v>
   <v>       0.50000000       0.50000000       0.50000000 </v>
   <v>       0.37500000       0.37500000       0.12500000 </v>
   <v>       0.37500000       0.37500000       0.62500000 </v>
   <v>       0.37500000       0.87500000       0.12500000 </v>
   <v>       0.37500000       0.87500000       0.62500000 </v>
   <v>       0.87500000       0.37500000       0.12500000 </v>
   <v>       0.87500000       0.37500000       0.62500000 </v>
   <v>       0.87500000       0.87500000       0.12500000 </v>
   <v>       0.87500000       0.87500000       0.62500000 </v>
   <v>       0.00000000       0.25000000       0.25000000 </v>
   <v>       0.00000000       0.25000000       0.75000000 </v>
   <v>       0.00000000       0.75000000       0.25000000 </v>
   <v>       0.00000000       0.75000000       0.75000000 </v>
   <v>       0.50000000       0.25000000       0.25000000 </v>
   <v>       0.50000000       0.25000000       0.75000000 </v>
   <v>       0.50000000       0.75000000       0.25000000 </v>
   <v>       0.50000000       0.75000000       0.75000000 </v>
   <v>       0.37500000       0.12500000       0.37500000 </v>
   <v>       0.37500000       0.12500000       0.87500000 </v>
   <v>       0.37500000       0.62500000       0.37500000 </v>
   <v>       0.37500000       0.62500000       0.87500000 </v>
   <v>       0.87500000       0.12500000       0.37500000 </v>
   <v>       0.87500000       0.12500000       0.87500000 </v>
   <v>       0.87500000       0.62500000       0.37500000 </v>
   <v>       0.87500000       0.62500000       0.87500000 </v>
   <v>       0.25000000       0.00000000       0.25000000 </v>
   <v>       0.25000000       0.00000000       0.75000000 </v>
   <v>       0.25000000       0.50000000       0.25000000 </v>
   <v>       0.25000000       0.50000000       0.75000000 </v>
   <v>       0.75000000       0.00000000       0.25000000 </v>
   <v>       0.75000000       0.00000000       0.75000000 </v>
   <v>       0.75000000       0.50000000       0.25000000 </v>
   <v>       0.75000000       0.50000000       0.75000000 </v>
   <v>       0.12500000       0.37500000       0.37500000 </v>
   <v>       0.12500000       0.37500000       0.87500000 </v>
   <v>       0.12500000       0.87500000       0.37500000 </v>
   <v>       0.12500000       0.87500000       0.87500000 </v>
   <v>       0.62500000       0.37500000       0.37500000 </v>
   <v>       0.62500000       0.37500000       0.87500000 </v>
   <v>       0.62500000       0.87500000       0.37500000 </v>
   <v>       0.62500000       0.87500000       0.87500000 </v>
   <v>       0.25000000       0.25000000       0.00000000 </v>
   <v>       0.25000000       0.25000000       0.50000000 </v>
   <v>       0.25000000       0.75000000       0.00000000 </v>
   <v>       0.25000000       0.75000000       0.50000000 </v>
   <v>       0.75000000       0.25000000       0.00000000 </v>
   <v>       0.75000000       0.25000000       0.50000000 </v>
   <v>       0.75000000       0.75000000       0.00000000 </v>
   <v>       0.75000000       0.75000000       0.50000000 </v>
   <v>       0.12500000       0.12500000       0.12500000 </v>
   <v>       0.12500000       0.12500000       0.62500000 </v>
   <v>       0.12500000       0.62500000       0.12500000 </v>
   <v>       0.12500000       0.62500000       0.62500000 </v>
   <v>       0.62500000       0.12500000       0.12500000 </v>
   <v>       0.62500000       0.12500000       0.62500000 </v>
   <v>       0.62500000       0.62500000       0.12500000 </v>
   <v>       0.62500000       0.62500000       0.62500000 </v>
  </varray>
 </structure>
 <calculation>
  <scstep>
   <time name="dav">    1.28    1.36</time>
   <time name="total">    1.47    1.56</time>
   <energy>
    <i name="alphaZ">    118.68782834 </i>
    <i name="ewald">  -7555.75592143 </i>
    <i name="hartreedc">   -306.81783340 </i>
    <i name="XCdc">   -546.82540374 </i>
    <i name="pawpsdc">   5598.62625415 </i>
    <i name="pawaedc">  -4492.17844134 </i>
    <i name="eentropy">      0.01710102 </i>
    <i name="bandstr">   1199.00503229 </i>
    <i name="atom">   6564.79586099 </i>
    <i name="e_fr_energy">    579.55447689 </i>
    <i name="e_wo_entrp">    579.53737587 </i>
    <i name="e_0_energy">    579.54877655 </i>
   </energy>
  </scstep>
  <scstep>
   <time name="dav">    1.31    1.32</time>
   <time name="total">    1.31    1.33</time>
   <energy>
    <i name="e_fr_energy">   -307.58682626 </i>
    <i name="e_wo_entrp">   -307.59324537 </i>
    <i name="e_0_energy">   -307.58896597 </i>
   </energy>
  </scstep>
  <scstep>
   <time name="dav">    1.35    1.37</time>
   <time name="total">    1.35    1.37</time>
   <energy>
    <i name="e_fr_energy">   -370.88661175 </i>
    <i name="e_wo_entrp">   -370.90546739 </i>
    <i name="e_0_energy">   -370.89289697 </i>
   </energy>
  </scstep>
  <scstep>
   <time name="dav">    1.32    1.34</time>
   <time name="total">    1.33    1.34</time>
   <energy>
    <i name="e_fr_energy">   -372.52468435 </i>
    <i name="e_wo_entrp">   -372.53382789 </i>
    <i name="e_0_energy">   -372.52773220 </i>
   </energy>
  </scstep>
  <scstep>
   <time name="dav">    1.35    1.36</time>
   <time name="total">    1.61    1.63</time>
   <energy>
    <i name="e_fr_energy">   -372.57142572 </i>
    <i name="e_wo_entrp">   -372.58054142 </i>
    <i name="e_0_energy">   -372.57446429 </i>
   </energy>
  </scstep>
  <scstep>
   <time name="diag">    0.14    0.14</time>
   <time name="diis">    0.72    0.73</time>
   <time name="orth">    0.02    0.02</time>
   <time name="total">    1.27    1.30</time>
   <energy>
    <i name="e_fr_energy">   -365.95537907 </i>
    <i name="e_wo_entrp">   -365.98006404 </i>
    <i name="e_0_energy">   -365.96360739 </i>
   </energy>
  </scstep>
  <scstep>
   <time name="diag">    0.13    0.13</time>
   <time name="diis">    0.71    0.71</time>
   <time name="orth">    0.02    0.02</time>
   <time name="total">    1.27    1.29</time>
   <energy>
    <i name="e_fr_energy">   -363.16225144 </i>
    <i name="e_wo_entrp">   -363.17642204 </i>
    <i name="e_0_energy">   -363.16697498 </i>
   </energy>
  </scstep>
  <scstep>
   <time name="diag">    0.13    0.13</time>
   <time name="diis">    0.71    0.71</time>
   <time name="orth">    0.02    0.02</time>
   <time name="total">    1.25    1.27</time>
   <energy>
    <i name="e_fr_energy">   -363.18756629 </i>
    <i name="e_wo_entrp">   -363.20424832 </i>
    <i name="e_0_energy">   -363.19312697 </i>
   </energy>
  </scstep>
  <scstep>
   <time name="diag">    0.13    0.13</time>
   <time name="diis">    0.71    0.74</time>
   <time name="orth">    0.02    0.02</time>
   <time name="total">    1.26    1.30</time>
   <energy>
    <i name="e_fr_energy">   -363.21238085 </i>
    <i name="e_wo_entrp">   -363.22818534 </i>
    <i name="e_0_energy">   -363.21764901 </i>
   </energy>
  </scstep>
  <scstep>
   <time name="diag">    0.13    0.13</time>
   <time name="diis">    0.72    0.72</time>
   <time name="orth">    0.02    0.02</time>
   <time name="total">    1.27    1.29</time>
   <energy>
    <i name="e_fr_energy">   -363.21858796 </i>
    <i name="e_wo_entrp">   -363.23427575 </i>
    <i name="e_0_energy">   -363.22381722 </i>
   </energy>
  </scstep>
  <scstep>
   <time name="diag">    0.13    0.13</time>
   <time name="diis">    0.70    0.70</time>
   <time name="orth">    0.02    0.02</time>
   <time name="total">    1.25    1.27</time>
   <energy>
    <i name="e_fr_energy">   -363.21163278 </i>
    <i name="e_wo_entrp">   -363.22824021 </i>
    <i name="e_0_energy">   -363.21716859 </i>
   </energy>
  </scstep>
  <scstep>
   <time name="diag">    0.13    0.13</time>
   <time name="diis">    0.70    0.71</time>
   <time name="orth">    0.02    0.02</time>
   <time name="total">    1.25    1.28</time>
   <energy>
    <i name="e_fr_energy">   -363.21185979 </i>
    <i name="e_wo_entrp">   -363.22847811 </i>
    <i name="e_0_energy">   -363.21739923 </i>
   </energy>
  </scstep>
  <scstep>
   <time name="diag">    0.13    0.13</time>
   <time name="diis">    0.72    0.72</time>
   <time name="orth">    0.02    0.02</time>
   <time name="total">    1.27    1.29</time>
   <energy>
    <i name="e_fr_energy">   -363.21192862 </i>
    <i name="e_wo_entrp">   -363.22854712 </i>
    <i name="e_0_energy">   -363.21746812 </i>
   </energy>
  </scstep>
  <scstep>
   <time name="diag">    0.13    0.13</time>
   <time name="diis">    0.70    0.70</time>
   <time name="orth">    0.02    0.02</time>
   <time name="total">    1.25    1.27</time>
   <energy>
    <i name="e_fr_energy">   -363.21192001 </i>
    <i name="e_wo_entrp">   -363.22854042 </i>
    <i name="e_0_energy">   -363.21746015 </i>
   </energy>
  </scstep>
  <scstep>
   <time name="diag">    0.13    0.13</time>
   <time name="diis">    0.71    0.71</time>
   <time name="orth">    0.02    0.02</time>
   <time name="total">    1.25    1.27</time>
   <energy>
    <i name="e_fr_energy">   -363.21194736 </i>
    <i name="e_wo_entrp">   -363.22859404 </i>
    <i name="e_0_energy">   -363.21749625 </i>
   </energy>
  </scstep>
  <scstep>
   <time name="diag">    0.14    0.14</time>
   <time name="diis">    0.66    0.66</time>
   <time name="orth">    0.02    0.02</time>
   <time name="total">    1.21    1.23</time>
   <energy>
    <i name="e_fr_energy">   -363.21195949 </i>
    <i name="e_wo_entrp">   -363.22861191 </i>
    <i name="e_0_energy">   -363.21751030 </i>
   </energy>
  </scstep>
  <scstep>
   <time name="diag">    0.13    0.13</time>
   <time name="diis">    0.69    0.70</time>
   <time name="orth">    0.02    0.02</time>
   <time name="total">    1.24    1.27</time>
   <energy>
    <i name="e_fr_energy">   -363.21196820 </i>
    <i name="e_wo_entrp">   -363.22862200 </i>
    <i name="e_0_energy">   -363.21751947 </i>
   </energy>
  </scstep>
  <scstep>
   <time name="diag">    0.13    0.13</time>
   <time name="diis">    0.47    0.47</time>
   <time name="orth">    0.02    0.02</time>
   <time name="total">    1.02    1.04</time>
   <energy>
    <i name="e_fr_energy">   -363.21196617 </i>
    <i name="e_wo_entrp">   -363.22862473 </i>
    <i name="e_0_energy">   -363.21751902 </i>
   </energy>
  </scstep>
  <scstep>
   <time name="diag">    0.13    0.13</time>
   <time name="diis">    0.45    0.45</time>
   <time name="orth">    0.02    0.02</time>
   <time name="total">    0.75    0.77</time>
   <energy>
    <i name="alphaZ">    118.68782834 </i>
    <i name="ewald">  -7555.75592143 </i>
    <i name="hartreedc">   -432.01501440 </i>
    <i name="XCdc">   -525.47649024 </i>
    <i name="pawpsdc">  34372.05609143 </i>
    <i name="pawaedc"> -33275.11969847 </i>
    <i name="eentropy">      0.01665834 </i>
    <i name="bandstr">    369.59871922 </i>
    <i name="atom">   6564.79586099 </i>
    <i name="e_fr_energy">   -363.21196623 </i>
    <i name="e_wo_entrp">   -363.22862456 </i>
    <i name="e_0_energy">   -363.21751901 </i>
   </energy>
  </scstep>
  <structure>
   <crystal>
    <varray name="basis" >
     <v>      10.37213653      -0.10583802       0.00000000 </v>
     <v>      -0.10583802      10.58381356       0.00000000 </v>
     <v>       0.00000000       0.00000000      10.58381356 </v>
    </varray>
    <i name="volume">   1161.73819746 </i>
    <varray name="rec_basis" >
     <v>       0.09642199       0.00096422       0.00000000 </v>
     <v>       0.00096422       0.09449354       0.00000000 </v>
     <v>       0.00000000       0.00000000       0.09448390 </v>
    </varray>
   </crystal>
   <varray name="positions" >
    <v>       0.00000000       0.00000000       0.00000000 </v>
    <v>       0.00000000       0.00000000       0.50000000 </v>
    <v>       0.00000000       0.50000000       0.00000000 </v>
    <v>       0.00000000       0.50000000       0.50000000 </v>
    <v>       0.50000000       0.00000000       0.00000000 </v>
    <v>       0.50000000       0.00000000       0.50000000 </v>
    <v>       0.50000000       0.50000000       0.00000000 </v>
    <v>       0.50000000       0.50000000       0.50000000 </v>
    <v>       0.37500000       0.37500000       0.12500000 </v>
    <v>       0.37500000       0.37500000       0.62500000 </v>
    <v>       0.37500000       0.87500000       0.12500000 </v>
    <v>       0.37500000       0.87500000       0.62500000 </v>
    <v>       0.87500000       0.37500000       0.12500000 </v>
    <v>       0.87500000       0.37500000       0.62500000 </v>
    <v>       0.87500000       0.87500000       0.12500000 </v>
    <v>       0.87500000       0.87500000       0.62500000 </v>
    <v>       0.00000000       0.25000000       0.25000000 </v>
    <v>       0.00000000       0.25000000       0.75000000 </v>
    <v>       0.00000000       0.75000000       0.25000000 </v>
    <v>       0.00000000       0.75000000       0.75000000 </v>
    <v>       0.50000000       0.25000000       0.25000000 </v>
    <v>       0.50000000       0.25000000       0.75000000 </v>
    <v>       0.50000000       0.75000000       0.25000000 </v>
    <v>       0.50000000       0.75000000       0.75000000 </v>
    <v>       0.37500000       0.12500000       0.37500000 </v>
    <v>       0.37500000       0.12500000       0.87500000 </v>
    <v>       0.37500000       0.62500000       0.37500000 </v>
    <v>       0.37500000       0.62500000       0.87500000 </v>
    <v>       0.87500000       0.12500000       0.37500000 </v>
    <v>       0.87500000       0.12500000       0.87500000 </v>
    <v>       0.87500000       0.62500000       0.37500000 </v>
    <v>       0.87500000       0.62500000       0.87500000 </v>
    <v>       0.25000000       0.00000000       0.25000000 </v>
    <v>       0.25000000       0.00000000       0.75000000 </v>
    <v>       0.25000000       0.50000000       0.25000000 </v>
    <v>       0.25000000       0.50000000       0.75000000 </v>
    <v>       0.75000000       0.00000000       0.25000000 </v>
    <v>       0.75000000       0.00000000       0.75000000 </v>
    <v>       0.75000000       0.50000000       0.25000000 </v>
    <v>       0.75000000       0.50000000       0.75000000 </v>
    <v>       0.12500000       0.37500000       0.37500000 </v>
    <v>       0.12500000       0.37500000       0.87500000 </v>
    <v>       0.12500000       0.87500000       0.37500000 </v>
    <v>       0.12500000       0.87500000       0.87500000 </v>
    <v>       0.62500000       0.37500000       0.37500000 </v>
    <v>       0.62500000       0.37500000       0.87500000 </v>
    <v>       0.62500000       0.87500000       0.37500000 </v>
    <v>       0.62500000       0.87500000       0.87500000 </v>
    <v>       0.25000000       0.25000000       0.00000000 </v>
    <v>       0.25000000       0.25000000       0.50000000 </v>
    <v>       0.25000000       0.75000000       0.00000000 </v>
    <v>       0.25000000       0.75000000       0.50000000 </v>
    <v>       0.75000000       0.25000000       0.00000000 </v>
    <v>       0.75000000       0.25000000       0.50000000 </v>
    <v>       0.75000000       0.75000000       0.00000000 </v>
    <v>       0.75000000       0.75000000       0.50000000 </v>
    <v>       0.12500000       0.12500000       0.12500000 </v>
    <v>       0.12500000       0.12500000       0.62500000 </v>
    <v>       0.12500000       0.62500000       0.12500000 </v>
    <v>       0.12500000       0.62500000       0.62500000 </v>
    <v>       0.62500000       0.12500000       0.12500000 </v>
    <v>       0.62500000       0.12500000       0.62500000 </v>
    <v>       0.62500000       0.62500000       0.12500000 </v>
    <v>       0.62500000       0.62500000       0.62500000 </v>
   </varray>
  </structure>
  <varray name="forces" >
   <v>       0.00000000       0.00000000      -0.30336133 </v>
   <v>       0.00000000       0.00000000      -0.30336133 </v>
   <v>      -0.00000000      -0.00000000      -0.30336133 </v>
   <v>      -0.00000000       0.00000000      -0.30336133 </v>
   <v>       0.00000000      -0.00000000      -0.30336133 </v>
   <v>       0.00000000      -0.00000000      -0.30336133 </v>
   <v>      -0.00000000      -0.00000000      -0.30336133 </v>
   <v>      -0.00000000       0.00000000      -0.30336133 </v>
   <v>       0.00000000       0.00000000       0.30336133 </v>
   <v>      -0.00000000      -0.00000000       0.30336133 </v>
   <v>      -0.00000000      -0.00000000       0.30336133 </v>
   <v>       0.00000000       0.00000000       0.30336133 </v>
   <v>       0.00000000       0.00000000       0.30336133 </v>
   <v>      -0.00000000       0.00000000       0.30336133 </v>
   <v>       0.00000000      -0.00000000       0.30336133 </v>
   <v>       0.00000000       0.00000000       0.30336133 </v>
   <v>       0.00000000       0.00000000      -0.30336133 </v>
   <v>       0.00000000       0.00000000      -0.30336133 </v>
   <v>       0.00000000       0.00000000      -0.30336133 </v>
   <v>      -0.00000000      -0.00000000      -0.30336133 </v>
   <v>      -0.00000000      -0.00000000      -0.30336133 </v>
   <v>      -0.00000000       0.00000000      -0.30336133 </v>
   <v>       0.00000000       0.00000000      -0.30336133 </v>
   <v>       0.00000000      -0.00000000      -0.30336133 </v>
   <v>      -0.00000000       0.00000000       0.30336133 </v>
   <v>      -0.00000000       0.00000000       0.30336133 </v>
   <v>       0.00000000      -0.00000000       0.30336133 </v>
   <v>       0.00000000      -0.00000000       0.30336133 </v>
   <v>       0.00000000       0.00000000       0.30336133 </v>
   <v>      -0.00000000       0.00000000       0.30336133 </v>
   <v>       0.00000000      -0.00000000       0.30336133 </v>
   <v>      -0.00000000      -0.00000000       0.30336133 </v>
   <v>      -0.00000000      -0.00000000      -0.30336133 </v>
   <v>       0.00000000       0.00000000      -0.30336133 </v>
   <v>       0.00000000      -0.00000000      -0.30336133 </v>
   <v>       0.00000000      -0.00000000      -0.30336133 </v>
   <v>       0.00000000      -0.00000000      -0.30336133 </v>
   <v>       0.00000000      -0.00000000      -0.30336133 </v>
   <v>      -0.00000000       0.00000000      -0.30336133 </v>
   <v>      -0.00000000       0.00000000      -0.30336133 </v>
   <v>      -0.00000000       0.00000000       0.30336133 </v>
   <v>       0.00000000       0.00000000       0.30336133 </v>
   <v>       0.00000000      -0.00000000       0.30336133 </v>
   <v>       0.00000000      -0.00000000       0.30336133 </v>
   <v>      -0.00000000      -0.00000000       0.30336133 </v>
   <v>       0.00000000      -0.00000000       0.30336133 </v>
   <v>      -0.00000000       0.00000000       0.30336133 </v>
   <v>       0.00000000       0.00000000       0.30336133 </v>
   <v>      -0.00000000       0.00000000      -0.30336133 </v>
   <v>       0.00000000       0.00000000      -0.30336133 </v>
   <v>       0.00000000       0.00000000      -0.30336133 </v>
   <v>       0.00000000      -0.00000000      -0.30336133 </v>
   <v>      -0.00000000       0.00000000      -0.30336133 </v>
   <v>      -0.00000000       0.00000000      -0.30336133 </v>
   <v>       0.00000000       0.00000000      -0.30336133 </v>
   <v>      -0.00000000      -0.00000000      -0.30336133 </v>
   <v>       0.00000000       0.00000000       0.30336133 </v>
   <v>      -0.00000000       0.00000000       0.30336133 </v>
   <v>       0.00000000      -0.00000000       0.30336133 </v>
   <v>       0.00000000      -0.00000000       0.30336133 </v>
   <v>      -0.00000000       0.00000000       0.30336133 </v>
   <v>      -0.00000000       0.00000000       0.30336133 </v>
   <v>      -0.00000000      -0.00000000       0.30336133 </v>
   <v>      -0.00000000      -0.00000000       0.30336133 </v>
  </varray>
  <varray name="stress" >
   <v>     126.72649119      27.26096521       0.00000000 </v>
   <v>      27.26096530     112.10104100       0.00000000 </v>
   <v>       0.00000000       0.00000000     111.94553017 </v>
  </varray>
  <energy>
   <i name="e_fr_energy">   -363.21196623 </i>
   <i name="e_wo_entrp">   -363.22862456 </i>
   <i name="e_0_energy">   -363.21751901 </i>
  </energy>
  <time name="totalsc">   27.65   28.13</time>
 </calculation>
 <calculation>
  <scstep>
   <time name="dav">    1.28    1.28</time>
   <time name="total">    1.67    1.67</time>
   <energy>
    <i name="alphaZ">    118.68782834 </i>
    <i name="ewald">  -7556.96711039 </i>
    <i name="hartreedc">   -431.37497050 </i>
    <i name="XCdc">   -525.50190434 </i>
    <i name="pawpsdc">  34375.95861687 </i>
    <i name="pawaedc"> -33279.02194643 </i>
    <i name="eentropy">      0.01127049 </i>
    <i name="bandstr">    370.14873813 </i>
    <i name="atom">   6564.79586099 </i>
    <i name="e_fr_energy">   -363.26361683 </i>
    <i name="e_wo_entrp">   -363.27488731 </i>
    <i name="e_0_energy">   -363.26737365 </i>
   </energy>
  </scstep>
  <scstep>
   <time name="diag">    0.13    0.13</time>
   <time name="diis">    0.70    0.71</time>
   <time name="orth">    0.02    0.02</time>
   <time name="total">    1.25    1.27</time>
   <energy>
    <i name="e_fr_energy">   -363.28102891 </i>
    <i name="e_wo_entrp">   -363.29235572 </i>
    <i name="e_0_energy">   -363.28480451 </i>
   </energy>
  </scstep>
  <scstep>
   <time name="diag">    0.13    0.13</time>
   <time name="diis">    0.71    0.71</time>
   <time name="orth">    0.02    0.02</time>
   <time name="total">    1.25    1.27</time>
   <energy>
    <i name="e_fr_energy">   -363.28223813 </i>
    <i name="e_wo_entrp">   -363.29378356 </i>
    <i name="e_0_energy">   -363.28608661 </i>
   </energy>
  </scstep>
  <scstep>
   <time name="diag">    0.13    0.13</time>
   <time name="diis">    0.71    0.71</time>
   <time name="orth">    0.02    0.02</time>
   <time name="total">    1.25    1.27</time>
   <energy>
    <i name="e_fr_energy">   -363.28209075 </i>
    <i name="e_wo_entrp">   -363.29378226 </i>
    <i name="e_0_energy">   -363.28598792 </i>
   </energy>
  </scstep>
  <scstep>
   <time name="diag">    0.13    0.13</time>
   <time name="diis">    0.72    0.72</time>
   <time name="orth">    0.02    0.02</time>
   <time name="total">    1.26    1.28</time>
   <energy>
    <i name="e_fr_energy">   -363.28212330 </i>
    <i name="e_wo_entrp">   -363.29386419 </i>
    <i name="e_0_energy">   -363.28603693 </i>
   </energy>
  </scstep>
  <scstep>
   <time name="diag">    0.13    0.13</time>
   <time name="diis">    0.74    0.74</time>
   <time name="orth">    0.02    0.02</time>
   <time name="total">    1.29    1.31</time>
   <energy>
    <i name="e_fr_energy">   -363.28213832 </i>
    <i name="e_wo_entrp">   -363.29387706 </i>
    <i name="e_0_energy">   -363.28605123 </i>
   </energy>
  </scstep>
  <scstep>
   <time name="diag">    0.13    0.13</time>
   <time name="diis">    0.71    0.71</time>
   <time name="orth">    0.02    0.02</time>
   <time name="total">    1.25    1.27</time>
   <energy>
    <i name="e_fr_energy">   -363.28214058 </i>
    <i name="e_wo_entrp">   -363.29387873 </i>
    <i name="e_0_energy">   -363.28605330 </i>
   </energy>
  </scstep>
  <scstep>
   <time name="diag">    0.13    0.13</time>
   <time name="diis">    0.52    0.53</time>
   <time name="orth">    0.02    0.02</time>
   <time name="total">    0.83    0.86</time>
   <energy>
    <i name="alphaZ">    118.68782834 </i>
    <i name="ewald">  -7556.96711039 </i>
    <i name="hartreedc">   -430.97198886 </i>
    <i name="XCdc">   -525.56044924 </i>
    <i name="pawpsdc">  34308.55915642 </i>
    <i name="pawaedc"> -33211.58894142 </i>
    <i name="eentropy">      0.01173837 </i>
    <i name="bandstr">    369.75176486 </i>
    <i name="atom">   6564.79586099 </i>
    <i name="e_fr_energy">   -363.28214092 </i>
    <i name="e_wo_entrp">   -363.29387930 </i>
    <i name="e_0_energy">   -363.28605371 </i>
   </energy>
  </scstep>
  <structure>
   <crystal>
    <varray name="basis" >
     <v>      10.37213653      -0.10583802       0.00000000 </v>
     <v>      -0.10583802      10.58381356       0.00000000 </v>
     <v>       0.00000000       0.00000000      10.58381356 </v>
    </varray>
    <i name="volume">   1161.73819746 </i>
    <varray name="rec_basis" >
     <v>       0.09642199       0.00096422       0.00000000 </v>
     <v>       0.00096422       0.09449354       0.00000000 </v>
     <v>       0.00000000       0.00000000       0.09448390 </v>
    </varray>
   </crystal>
   <varray name="positions" >
    <v>       0.00000000       0.00000000       0.99861723 </v>
    <v>       0.00000000       0.00000000       0.49861723 </v>
    <v>       1.00000000       0.50000000       0.99861723 </v>
    <v>       1.00000000       0.50000000       0.49861723 </v>
    <v>       0.50000000       1.00000000       0.99861723 </v>
    <v>       0.50000000       1.00000000       0.49861723 </v>
    <v>       0.50000000       0.50000000       0.99861723 </v>
    <v>       0.50000000       0.50000000       0.49861723 </v>
    <v>       0.37500000       0.37500000       0.12638277 </v>
    <v>       0.37500000       0.37500000       0.62638277 </v>
    <v>       0.37500000       0.87500000       0.12638277 </v>
    <v>       0.37500000       0.87500000       0.62638277 </v>
    <v>       0.87500000       0.37500000       0.12638277 </v>
    <v>       0.87500000       0.37500000       0.62638277 </v>
    <v>       0.87500000       0.87500000       0.12638277 </v>
    <v>       0.87500000       0.87500000       0.62638277 </v>
    <v>       0.00000000       0.25000000       0.24861723 </v>
    <v>       0.00000000       0.25000000       0.74861723 </v>
    <v>       0.00000000       0.75000000       0.24861723 </v>
    <v>       1.00000000       0.75000000       0.74861723 </v>
    <v>       0.50000000       0.25000000       0.24861723 </v>
    <v>       0.50000000       0.25000000       0.74861723 </v>
    <v>       0.50000000       0.75000000       0.24861723 </v>
    <v>       0.50000000       0.75000000       0.74861723 </v>
    <v>       0.37500000       0.12500000       0.37638277 </v>
    <v>       0.37500000       0.12500000       0.87638277 </v>
    <v>       0.37500000       0.62500000       0.37638277 </v>
    <v>       0.37500000       0.62500000       0.87638277 </v>
    <v>       0.87500000       0.12500000       0.37638277 </v>
    <v>       0.87500000       0.12500000       0.87638277 </v>
    <v>       0.87500000       0.62500000       0.37638277 </v>
    <v>       0.87500000       0.62500000       0.87638277 </v>
    <v>       0.25000000       1.00000000       0.24861723 </v>
    <v>       0.25000000       0.00000000       0.74861723 </v>
    <v>       0.25000000       0.50000000       0.24861723 </v>
    <v>       0.25000000       0.50000000       0.74861723 </v>
    <v>       0.75000000       1.00000000       0.24861723 </v>
    <v>       0.75000000       1.00000000       0.74861723 </v>
    <v>       0.75000000       0.50000000       0.24861723 </v>
    <v>       0.75000000       0.50000000       0.74861723 </v>
    <v>       0.12500000       0.37500000       0.37638277 </v>
    <v>       0.12500000       0.37500000       0.87638277 </v>
    <v>       0.12500000       0.87500000       0.37638277 </v>
    <v>       0.12500000       0.87500000       0.87638277 </v>
    <v>       0.62500000       0.37500000       0.37638277 </v>
    <v>       0.62500000       0.37500000       0.87638277 </v>
    <v>       0.62500000       0.87500000       0.37638277 </v>
    <v>       0.62500000       0.87500000       0.87638277 </v>
    <v>       0.25000000       0.25000000       0.99861723 </v>
    <v>       0.25000000       0.25000000       0.49861723 </v>
    <v>       0.25000000       0.75000000       0.99861723 </v>
    <v>       0.25000000       0.75000000       0.49861723 </v>
    <v>       0.75000000       0.25000000       0.99861723 </v>
    <v>       0.75000000       0.25000000       0.49861723 </v>
    <v>       0.75000000       0.75000000       0.99861723 </v>
    <v>       0.75000000       0.75000000       0.49861723 </v>
    <v>       0.12500000       0.12500000       0.12638277 </v>
    <v>       0.12500000       0.12500000       0.62638277 </v>
    <v>       0.12500000       0.62500000       0.12638277 </v>
    <v>       0.12500000       0.62500000       0.62638277 </v>
    <v>       0.62500000       0.12500000       0.12638277 </v>
    <v>       0.62500000       0.12500000       0.62638277 </v>
    <v>       0.62500000       0.62500000       0.12638277 </v>
    <v>       0.62500000       0.62500000       0.62638277 </v>
   </varray>
  </structure>
  <varray name="forces" >
   <v>      -0.00000000       0.00000000       0.15441263 </v>
   <v>       0.00000000      -0.00000000       0.15441263 </v>
   <v>      -0.00000000      -0.00000000       0.15441263 </v>
   <v>      -0.00000000       0.00000000       0.15441263 </v>
   <v>       0.00000000       0.00000000       0.15441263 </v>
   <v>       0.00000000      -0.00000000       0.15441263 </v>
   <v>       0.00000000      -0.00000000       0.15441263 </v>
   <v>      -0.00000000       0.00000000       0.15441263 </v>
   <v>       0.00000000      -0.00000000      -0.15441263 </v>
   <v>       0.00000000       0.00000000      -0.15441263 </v>
   <v>       0.00000000      -0.00000000      -0.15441263 </v>
   <v>       0.00000000       0.00000000      -0.15441263 </v>
   <v>       0.00000000       0.00000000      -0.15441263 </v>
   <v>       0.00000000      -0.00000000      -0.15441263 </v>
   <v>      -0.00000000      -0.00000000      -0.15441263 </v>
   <v>      -0.00000000       0.00000000      -0.15441263 </v>
   <v>       0.00000000      -0.00000000       0.15441263 </v>
   <v>       0.00000000      -0.00000000       0.15441263 </v>
   <v>      -0.00000000       0.00000000       0.15441263 </v>
   <v>       0.00000000       0.00000000       0.15441263 </v>
   <v>       0.00000000       0.00000000       0.15441263 </v>
   <v>      -0.00000000       0.00000000       0.15441263 </v>
   <v>      -0.00000000       0.00000000       0.15441263 </v>
   <v>       0.00000000      -0.00000000       0.15441263 </v>
   <v>      -0.00000000      -0.00000000      -0.15441263 </v>
   <v>      -0.00000000      -0.00000000      -0.15441263 </v>
   <v>       0.00000000       0.00000000      -0.15441263 </v>
   <v>       0.00000000       0.00000000      -0.15441263 </v>
   <v>      -0.00000000      -0.00000000      -0.15441263 </v>
   <v>      -0.00000000       0.00000000      -0.15441263 </v>
   <v>       0.00000000      -0.00000000      -0.15441263 </v>
   <v>       0.00000000      -0.00000000      -0.15441263 </v>
   <v>       0.00000000      -0.00000000       0.15441263 </v>
   <v>       0.00000000      -0.00000000       0.15441263 </v>
   <v>      -0.00000000       0.00000000       0.15441263 </v>
   <v>      -0.00000000       0.00000000       0.15441263 </v>
   <v>       0.00000000       0.00000000       0.15441263 </v>
   <v>       0.00000000       0.00000000       0.15441263 </v>
   <v>       0.00000000      -0.00000000       0.15441263 </v>
   <v>      -0.00000000       0.00000000       0.15441263 </v>
   <v>       0.00000000       0.00000000      -0.15441263 </v>
   <v>       0.00000000      -0.00000000      -0.15441263 </v>
   <v>      -0.00000000      -0.00000000      -0.15441263 </v>
   <v>       0.00000000       0.00000000      -0.15441263 </v>
   <v>       0.00000000       0.00000000      -0.15441263 </v>
   <v>      -0.00000000      -0.00000000      -0.15441263 </v>
   <v>      -0.00000000      -0.00000000      -0.15441263 </v>
   <v>      -0.00000000       0.00000000      -0.15441263 </v>
   <v>      -0.00000000      -0.00000000       0.15441263 </v>
   <v>      -0.00000000       0.00000000       0.15441263 </v>
   <v>       0.00000000       0.00000000       0.15441263 </v>
   <v>       0.00000000      -0.00000000       0.15441263 </v>
   <v>       0.00000000       0.00000000       0.15441263 </v>
   <v>      -0.00000000      -0.00000000       0.15441263 </v>
   <v>       0.00000000       0.00000000       0.15441263 </v>
   <v>       0.00000000       0.00000000       0.15441263 </v>
   <v>      -0.00000000       0.00000000      -0.15441263 </v>
   <v>      -0.00000000      -0.00000000      -0.15441263 </v>
   <v>       0.00000000       0.00000000      -0.15441263 </v>
   <v>       0.00000000      -0.00000000      -0.15441263 </v>
   <v>      -0.00000000      -0.00000000      -0.15441263 </v>
   <v>      -0.00000000       0.00000000      -0.15441263 </v>
   <v>       0.00000000       0.00000000      -0.15441263 </v>
   <v>       0.00000000      -0.00000000      -0.15441263 </v>
  </varray>
  <varray name="stress" >
   <v>     125.47940474       7.65185810       0.00000000 </v>
   <v>       7.65185805     111.24816136       0.00000000 </v>
   <v>       0.00000000       0.00000000     110.57533532 </v>
  </varray>
  <energy>
   <i name="e_fr_energy">   -363.28214092 </i>
   <i name="e_wo_entrp">   -363.29387930 </i>
   <i name="e_0_energy">   -363.28605371 </i>
  </energy>
  <time name="totalsc">   13.80   13.97</time>
 </calculation>
 <calculation>
  <scstep>
   <time name="dav">    1.26    1.27</time>
   <time name="total">    1.65    1.66</time>
   <energy>
    <i name="alphaZ">    118.68782834 </i>
    <i name="ewald">  -7556.64237441 </i>
    <i name="hartreedc">   -431.16872077 </i>
    <i name="XCdc">   -525.55094275 </i>
    <i name="pawpsdc">  34306.61803647 </i>
    <i name="pawaedc"> -33209.64769766 </i>
    <i name="eentropy">      0.01382554 </i>
    <i name="bandstr">    369.58985904 </i>
    <i name="atom">   6564.79586099 </i>
    <i name="e_fr_energy">   -363.30432521 </i>
    <i name="e_wo_entrp">   -363.31815075 </i>
    <i name="e_0_energy">   -363.30893372 </i>
   </energy>
  </scstep>
  <scstep>
   <time name="diag">    0.13    0.13</time>
   <time name="diis">    0.70    0.70</time>
   <time name="orth">    0.02    0.02</time>
   <time name="total">    1.24    1.26</time>
   <energy>
    <i name="e_fr_energy">   -363.30624957 </i>
    <i name="e_wo_entrp">   -363.32004990 </i>
    <i name="e_0_energy">   -363.31084968 </i>
   </energy>
  </scstep>
  <scstep>
   <time name="diag">    0.13    0.13</time>
   <time name="diis">    0.70    0.71</time>
   <time name="orth">    0.02    0.02</time>
   <time name="total">    1.25    1.27</time>
   <energy>
    <i name="e_fr_energy">   -363.30638308 </i>
    <i name="e_wo_entrp">   -363.32010680 </i>
    <i name="e_0_energy">   -363.31095765 </i>
   </energy>
  </scstep>
  <scstep>
   <time name="diag">    0.13    0.13</time>
   <time name="diis">    0.70    0.71</time>
   <time name="orth">    0.02    0.02</time>
   <time name="total">    1.25    1.27</time>
   <energy>
    <i name="e_fr_energy">   -363.30637025 </i>
    <i name="e_wo_entrp">   -363.32004715 </i>
    <i name="e_0_energy">   -363.31092921 </i>
   </energy>
  </scstep>
  <scstep>
   <time name="diag">    0.13    0.13</time>
   <time name="diis">    0.72    0.72</time>
   <time name="orth">    0.02    0.02</time>
   <time name="total">    1.26    1.28</time>
   <energy>
    <i name="e_fr_energy">   -363.30637372 </i>
    <i name="e_wo_entrp">   -363.32003460 </i>
    <i name="e_0_energy">   -363.31092735 </i>
   </energy>
  </scstep>
  <scstep>
   <time name="diag">    0.13    0.13</time>
   <time name="diis">    0.67    0.67</time>
   <time name="orth">    0.02    0.02</time>
   <time name="total">    1.22    1.24</time>
   <energy>
    <i name="e_fr_energy">   -363.30637525 </i>
    <i name="e_wo_entrp">   -363.32003684 </i>
    <i name="e_0_energy">   -363.31092911 </i>
   </energy>
  </scstep>
  <scstep>
   <time name="diag">    0.13    0.13</time>
   <time name="diis">    0.49    0.49</time>
   <time name="orth">    0.02    0.02</time>
   <time name="total">    1.04    1.06</time>
   <energy>
    <i name="e_fr_energy">   -363.30637551 </i>
    <i name="e_wo_entrp">   -363.32003787 </i>
    <i name="e_0_energy">   -363.31092963 </i>
   </energy>
  </scstep>
  <scstep>
   <time name="diag">    0.13    0.13</time>
   <time name="diis">    0.44    0.44</time>
   <time name="orth">    0.02    0.02</time>
   <time name="total">    0.74    0.76</time>
   <energy>
    <i name="alphaZ">    118.68782834 </i>
    <i name="ewald">  -7556.64237441 </i>
    <i name="hartreedc">   -431.33755937 </i>
    <i name="XCdc">   -525.52872420 </i>
    <i name="pawpsdc">  34329.36591451 </i>
    <i name="pawaedc"> -33232.40589631 </i>
    <i name="eentropy">      0.01366222 </i>
    <i name="bandstr">    369.74491262 </i>
    <i name="atom">   6564.79586099 </i>
    <i name="e_fr_energy">   -363.30637561 </i>
    <i name="e_wo_entrp">   -363.32003782 </i>
    <i name="e_0_energy">   -363.31092968 </i>
   </energy>
  </scstep>
  <structure>
   <crystal>
    <varray name="basis" >
     <v>      10.37213653      -0.10583802       0.00000000 </v>
     <v>      -0.10583802      10.58381356       0.00000000 </v>
     <v>       0.00000000       0.00000000      10.58381356 </v>
    </varray>
    <i name="volume">   1161.73819746 </i>
    <varray name="rec_basis" >
     <v>       0.09642199       0.00096422       0.00000000 </v>
     <v>       0.00096422       0.09449354       0.00000000 </v>
     <v>       0.00000000       0.00000000       0.09448390 </v>
    </varray>
   </crystal>
   <varray name="positions" >
    <v>       0.00000000       0.00000000       0.99908366 </v>
    <v>       0.00000000       0.00000000       0.49908366 </v>
    <v>       0.00000000       0.50000000       0.99908366 </v>
    <v>       0.00000000       0.50000000       0.49908366 </v>
    <v>       0.50000000       0.00000000       0.99908366 </v>
    <v>       0.50000000       0.00000000       0.49908366 </v>
    <v>       0.50000000       0.50000000       0.99908366 </v>
    <v>       0.50000000       0.50000000       0.49908366 </v>
    <v>       0.37500000       0.37500000       0.12591634 </v>
    <v>       0.37500000       0.37500000       0.62591634 </v>
    <v>       0.37500000       0.87500000       0.12591634 </v>
    <v>       0.37500000       0.87500000       0.62591634 </v>
    <v>       0.87500000       0.37500000       0.12591634 </v>
    <v>       0.87500000       0.37500000       0.62591634 </v>
    <v>       0.87500000       0.87500000       0.12591634 </v>
    <v>       0.87500000       0.87500000       0.62591634 </v>
    <v>       0.00000000       0.25000000       0.24908366 </v>
    <v>       0.00000000       0.25000000       0.74908366 </v>
    <v>       0.00000000       0.75000000       0.24908366 </v>
    <v>       0.00000000       0.75000000       0.74908366 </v>
    <v>       0.50000000       0.25000000       0.24908366 </v>
    <v>       0.50000000       0.25000000       0.74908366 </v>
    <v>       0.50000000       0.75000000       0.24908366 </v>
    <v>       0.50000000       0.75000000       0.74908366 </v>
    <v>       0.37500000       0.12500000       0.37591634 </v>
    <v>       0.37500000       0.12500000       0.87591634 </v>
    <v>       0.37500000       0.62500000       0.37591634 </v>
    <v>       0.37500000       0.62500000       0.87591634 </v>
    <v>       0.87500000       0.12500000       0.37591634 </v>
    <v>       0.87500000       0.12500000       0.87591634 </v>
    <v>       0.87500000       0.62500000       0.37591634 </v>
    <v>       0.87500000       0.62500000       0.87591634 </v>
    <v>       0.25000000       0.00000000       0.24908366 </v>
    <v>       0.25000000       0.00000000       0.74908366 </v>
    <v>       0.25000000       0.50000000       0.24908366 </v>
    <v>       0.25000000       0.50000000       0.74908366 </v>
    <v>       0.75000000       0.00000000       0.24908366 </v>
    <v>       0.75000000       0.00000000       0.74908366 </v>
    <v>       0.75000000       0.50000000       0.24908366 </v>
    <v>       0.75000000       0.50000000       0.74908366 </v>
    <v>       0.12500000       0.37500000       0.37591634 </v>
    <v>       0.12500000       0.37500000       0.87591634 </v>
    <v>       0.12500000       0.87500000       0.37591634 </v>
    <v>       0.12500000       0.87500000       0.87591634 </v>
    <v>       0.62500000       0.37500000       0.37591634 </v>
    <v>       0.62500000       0.37500000       0.87591634 </v>
    <v>       0.62500000       0.87500000       0.37591634 </v>
    <v>       0.62500000       0.87500000       0.87591634 </v>
    <v>       0.25000000       0.25000000       0.99908366 </v>
    <v>       0.25000000       0.25000000       0.49908366 </v>
    <v>       0.25000000       0.75000000       0.99908366 </v>
    <v>       0.25000000       0.75000000       0.49908366 </v>
    <v>       0.75000000       0.25000000       0.99908366 </v>
    <v>       0.75000000       0.25000000       0.49908366 </v>
    <v>       0.75000000       0.75000000       0.99908366 </v>
    <v>       0.75000000       0.75000000       0.49908366 </v>
    <v>       0.12500000       0.12500000       0.12591634 </v>
    <v>       0.12500000       0.12500000       0.62591634 </v>
    <v>       0.12500000       0.62500000       0.12591634 </v>
    <v>       0.12500000       0.62500000       0.62591634 </v>
    <v>       0.62500000       0.12500000       0.12591634 </v>
    <v>       0.62500000       0.12500000       0.62591634 </v>
    <v>       0.62500000       0.62500000       0.12591634 </v>
    <v>       0.62500000       0.62500000       0.62591634 </v>
   </varray>
  </structure>
  <varray name="forces" >
   <v>      -0.00000000       0.00000000      -0.00051367 </v>
   <v>      -0.00000000       0.00000000      -0.00051367 </v>
   <v>      -0.00000000      -0.00000000      -0.00051367 </v>
   <v>       0.00000000      -0.00000000      -0.00051367 </v>
   <v>      -0.00000000      -0.00000000      -0.00051367 </v>
   <v>      -0.00000000       0.00000000      -0.00051367 </v>
   <v>       0.00000000      -0.00000000      -0.00051367 </v>
   <v>       0.00000000      -0.00000000      -0.00051367 </v>
   <v>       0.00000000       0.00000000       0.00051367 </v>
   <v>       0.00000000       0.00000000       0.00051367 </v>
   <v>       0.00000000       0.00000000       0.00051367 </v>
   <v>      -0.00000000       0.00000000       0.00051367 </v>
   <v>       0.00000000      -0.00000000       0.00051367 </v>
   <v>      -0.00000000       0.00000000       0.00051367 </v>
   <v>      -0.00000000       0.00000000       0.00051367 </v>
   <v>      -0.00000000      -0.00000000       0.00051367 </v>
   <v>      -0.00000000      -0.00000000      -0.00051367 </v>
   <v>      -0.00000000      -0.00000000      -0.00051367 </v>
   <v>      -0.00000000      -0.00000000      -0.00051367 </v>
   <v>       0.00000000       0.00000000      -0.00051367 </v>
   <v>       0.00000000       0.00000000      -0.00051367 </v>
   <v>      -0.00000000       0.00000000      -0.00051367 </v>
   <v>       0.00000000      -0.00000000      -0.00051367 </v>
   <v>       0.00000000       0.00000000      -0.00051367 </v>
   <v>      -0.00000000      -0.00000000       0.00051367 </v>
   <v>      -0.00000000      -0.00000000       0.00051367 </v>
   <v>       0.00000000       0.00000000       0.00051367 </v>
   <v>      -0.00000000       0.00000000       0.00051367 </v>
   <v>       0.00000000       0.00000000       0.00051367 </v>
   <v>      -0.00000000       0.00000000       0.00051367 </v>
   <v>      -0.00000000      -0.00000000       0.00051367 </v>
   <v>      -0.00000000      -0.00000000       0.00051367 </v>
   <v>       0.00000000      -0.00000000      -0.00051367 </v>
   <v>      -0.00000000      -0.00000000      -0.00051367 </v>
   <v>      -0.00000000       0.00000000      -0.00051367 </v>
   <v>       0.00000000       0.00000000      -0.00051367 </v>
   <v>       0.00000000       0.00000000      -0.00051367 </v>
   <v>      -0.00000000       0.00000000      -0.00051367 </v>
   <v>       0.00000000      -0.00000000      -0.00051367 </v>
   <v>       0.00000000      -0.00000000      -0.00051367 </v>
   <v>       0.00000000      -0.00000000       0.00051367 </v>
   <v>       0.00000000      -0.00000000       0.00051367 </v>
   <v>      -0.00000000       0.00000000       0.00051367 </v>
   <v>      -0.00000000      -0.00000000       0.00051367 </v>
   <v>      -0.00000000       0.00000000       0.00051367 </v>
   <v>      -0.00000000       0.00000000       0.00051367 </v>
   <v>       0.00000000       0.00000000       0.00051367 </v>
   <v>      -0.00000000      -0.00000000       0.00051367 </v>
   <v>      -0.00000000       0.00000000      -0.00051367 </v>
   <v>       0.00000000       0.00000000      -0.00051367 </v>
   <v>       0.00000000       0.00000000      -0.00051367 </v>
   <v>      -0.00000000      -0.00000000      -0.00051367 </v>
   <v>      -0.00000000       0.00000000      -0.00051367 </v>
   <v>       0.00000000       0.00000000      -0.00051367 </v>
   <v>      -0.00000000       0.00000000      -0.00051367 </v>
   <v>       0.00000000      -0.00000000      -0.00051367 </v>
   <v>       0.00000000      -0.00000000       0.00051367 </v>
   <v>      -0.00000000       0.00000000       0.00051367 </v>
   <v>      -0.00000000      -0.00000000       0.00051367 </v>
   <v>       0.00000000       0.00000000       0.00051367 </v>
   <v>       0.00000000      -0.00000000       0.00051367 </v>
   <v>      -0.00000000      -0.00000000       0.00051367 </v>
   <v>       0.00000000      -0.00000000       0.00051367 </v>
   <v>      -0.00000000      -0.00000000       0.00051367 </v>
  </varray>
  <varray name="stress" >
   <v>     125.78230103      14.28820484       0.00000000 </v>
   <v>      14.28820491     111.38961823       0.00000000 </v>
   <v>       0.00000000       0.00000000     111.11437423 </v>
  </varray>
  <energy>
   <i name="e_fr_energy">   -363.30637561 </i>
   <i name="e_wo_entrp">   -363.32003782 </i>
   <i name="e_0_energy">   -363.31092968 </i>
  </energy>
  <time name="totalsc">   13.23   13.37</time>
  <eigenvalues>
   <array>
    <dimension dim="1">band</dimension>
    <dimension dim="2">kpoint</dimension>
    <dimension dim="3">spin</dimension>
    <field>eigene</field>
    <field>occ</field>
    <set>
     <set comment="spin 1">
      <set comment="kpoint 1">
       <r>   -5.8671    1.0000 </r>
       <r>   -4.7006    1.0000 </r>
       <r>   -4.7006    1.0000 </r>
       <r>   -4.7001    1.0000 </r>
       <r>   -4.7000    1.0000 </r>
       <r>   -4.6581    1.0000 </r>
       <r>   -4.6581    1.0000 </r>
       <r>   -3.6588    1.0000 </r>
       <r>   -3.6588    1.0000 </r>
       <r>   -3.6399    1.0000 </r>
       <r>   -3.6399    1.0000 </r>
       <r>   -3.6399    1.0000 </r>
       <r>   -3.6399    1.0000 </r>
       <r>   -3.6088    1.0000 </r>
       <r>   -3.6088    1.0000 </r>
       <r>   -3.6088    1.0000 </r>
       <r>   -3.6088    1.0000 </r>
       <r>   -3.5577    1.0000 </r>
       <r>   -3.5577    1.0000 </r>
       <r>   -3.3065    1.0000 </r>
       <r>   -3.3065    1.0000 </r>
       <r>   -3.2025    1.0000 </r>
       <r>   -3.2025    1.0000 </r>
       <r>   -1.4067    1.0000 </r>
       <r>   -1.3818    1.0000 </r>
       <r>   -1.3818    1.0000 </r>
       <r>   -1.3617    1.0000 </r>
       <r>   -1.2441    1.0000 </r>
       <r>   -1.2441    1.0000 </r>
       <r>   -1.1981    1.0000 </r>
       <r>   -1.1980    1.0000 </r>
       <r>   -1.1514    1.0000 </r>
       <r>   -1.1514    1.0000 </r>
       <r>   -1.1012    1.0000 </r>
       <r>   -1.1012    1.0000 </r>
       <r>   -1.1012    1.0000 </r>
       <r>   -1.1012    1.0000 </r>
       <r>   -1.0947    1.0000 </r>
       <r>   -1.0946    1.0000 </r>
       <r>   -1.0535    1.0000 </r>
       <r>   -1.0535    1.0000 </r>
       <r>   -0.7140    1.0000 </r>
       <r>   -0.7140    1.0000 </r>
       <r>   -0.6492    1.0000 </r>
       <r>   -0.6492    1.0000 </r>
       <r>    1.0829    1.0000 </r>
       <r>    1.0829    1.0000 </r>
       <r>    1.1077    1.0000 </r>
       <r>    1.1077    1.0000 </r>
       <r>    1.1077    1.0000 </r>
       <r>    1.1077    1.0000 </r>
       <r>    1.1369    1.0000 </r>
       <r>    1.1369    1.0000 </r>
       <r>    1.1926    1.0000 </r>
       <r>    1.1926    1.0000 </r>
       <r>    1.1926    1.0000 </r>
       <r>    1.1926    1.0000 </r>
       <r>    2.4449    1.0000 </r>
       <r>    2.4449    1.0000 </r>
       <r>    2.4592    1.0000 </r>
       <r>    2.4592    1.0000 </r>
       <r>    2.4913    1.0000 </r>
       <r>    2.4913    1.0000 </r>
       <r>    2.4913    1.0000 </r>
       <r>    2.4913    1.0000 </r>
       <r>    2.5041    1.0000 </r>
       <r>    2.5041    1.0000 </r>
       <r>    2.5244    1.0000 </r>
       <r>    2.5244    1.0000 </r>
       <r>    2.5720    1.0000 </r>
       <r>    2.5720    1.0000 </r>
       <r>    2.5966    1.0000 </r>
       <r>    2.5967    1.0000 </r>
       <r>    2.5967    1.0000 </r>
       <r>    2.5967    1.0000 </r>
       <r>    2.6111    1.0000 </r>
       <r>    2.6111    1.0000 </r>
       <r>    2.7203    1.0000 </r>
       <r>    2.7203    1.0000 </r>
       <r>    2.7203    1.0000 </r>
       <r>    2.7203    1.0000 </r>
       <r>    3.2606    1.0000 </r>
       <r>    3.2606    1.0000 </r>
       <r>    3.2648    1.0000 </r>
       <r>    3.2648    1.0000 </r>
       <r>    3.4221    1.0000 </r>
       <r>    3.4221    1.0000 </r>
       <r>    3.5773    1.0000 </r>
       <r>    3.5773    1.0000 </r>
       <r>    3.5928    1.0000 </r>
       <r>    3.7473    1.0000 </r>
       <r>    3.7473    1.0000 </r>
       <r>    3.9066    1.0000 </r>
       <r>    4.6259    1.0000 </r>
       <r>    4.6259    1.0000 </r>
       <r>    4.6442    1.0000 </r>
       <r>    4.6442    1.0000 </r>
       <r>    4.6477    1.0000 </r>
       <r>    4.6477    1.0000 </r>
       <r>    4.7531    1.0000 </r>
       <r>    4.7531    1.0000 </r>
       <r>    4.8001    1.0000 </r>
       <r>    4.8001    1.0000 </r>
       <r>    4.9313    1.0000 </r>
       <r>    4.9313    1.0000 </r>
       <r>    5.2627    1.0000 </r>
       <r>    5.2627    1.0000 </r>
       <r>    5.2627    1.0000 </r>
       <r>    5.2627    1.0000 </r>
       <r>    5.3234    1.0000 </r>
       <r>    5.3234    1.0000 </r>
       <r>    5.3840    1.0000 </r>
       <r>    5.3840    1.0000 </r>
       <r>    5.4363    1.0000 </r>
       <r>    5.4363    1.0000 </r>
       <r>    5.4363    1.0000 </r>
       <r>    5.4363    1.0000 </r>
       <r>    5.4697    1.0000 </r>
       <r>    5.4697    1.0000 </r>
       <r>    5.5565    1.0000 </r>
       <r>    5.5565    1.0000 </r>
       <r>    5.5693    1.0000 </r>
       <r>    5.5693    1.0000 </r>
       <r>    5.7446    1.0000 </r>
       <r>    5.7446    1.0000 </r>
       <r>    6.7055    1.0341 </r>
       <r>    6.7791    1.0199 </r>
       <r>    7.0089    0.3399 </r>
       <r>    7.0941    0.0716 </r>
       <r>    7.0941    0.0716 </r>
       <r>    7.0973    0.0648 </r>
       <r>    7.2655   -0.0287 </r>
       <r>    7.2655   -0.0287 </r>
       <r>    7.4363   -0.0024 </r>
       <r>    7.6524   -0.0000 </r>
       <r>    7.6524   -0.0000 </r>
       <r>    7.8119   -0.0000 </r>
       <r>    7.8119   -0.0000 </r>
       <r>    7.8200   -0.0000 </r>
       <r>    7.8200   -0.0000 </r>
       <r>    8.5195   -0.0000 </r>
       <r>    8.5195   -0.0000 </r>
       <r>    8.7179   -0.0000 </r>
       <r>    8.7179   -0.0000 </r>
       <r>    9.0904   -0.0000 </r>
       <r>    9.0904   -0.0000 </r>
       <r>    9.0904   -0.0000 </r>
       <r>    9.0904   -0.0000 </r>
       <r>    9.1734   -0.0000 </r>
       <r>    9.1734   -0.0000 </r>
       <r>    9.2518   -0.0000 </r>
       <r>    9.2897   -0.0000 </r>
       <r>    9.2897   -0.0000 </r>
       <r>    9.2897   -0.0000 </r>
       <r>    9.2897   -0.0000 </r>
       <r>    9.3812   -0.0000 </r>
       <r>    9.4088   -0.0000 </r>
       <r>    9.4088   -0.0000 </r>
       <r>    9.4948   -0.0000 </r>
       <r>    9.7700   -0.0000 </r>
       <r>    9.7862   -0.0000 </r>
       <r>    9.7979   -0.0000 </r>
      </set>
      <set comment="kpoint 2">
       <r>   -5.5621    1.0000 </r>
       <r>   -5.5621    1.0000 </r>
       <r>   -4.4458    1.0000 </r>
       <r>   -4.4458    1.0000 </r>
       <r>   -4.4200    1.0000 </r>
       <r>   -4.4200    1.0000 </r>
       <r>   -4.4199    1.0000 </r>
       <r>   -4.4199    1.0000 </r>
       <r>   -4.3930    1.0000 </r>
       <r>   -4.3930    1.0000 </r>
       <r>   -3.5027    1.0000 </r>
       <r>   -3.5027    1.0000 </r>
       <r>   -3.5027    1.0000 </r>
       <r>   -3.5027    1.0000 </r>
       <r>   -3.4395    1.0000 </r>
       <r>   -3.4395    1.0000 </r>
       <r>   -3.4395    1.0000 </r>
       <r>   -3.4395    1.0000 </r>
       <r>   -3.1924    1.0000 </r>
       <r>   -3.1924    1.0000 </r>
       <r>   -2.4600    1.0000 </r>
       <r>   -2.4600    1.0000 </r>
       <r>   -2.3950    1.0000 </r>
       <r>   -2.3950    1.0000 </r>
       <r>   -2.3949    1.0000 </r>
       <r>   -2.3949    1.0000 </r>
       <r>   -2.3294    1.0000 </r>
       <r>   -2.3294    1.0000 </r>
       <r>   -1.3123    1.0000 </r>
       <r>   -1.3123    1.0000 </r>
       <r>   -1.3055    1.0000 </r>
       <r>   -1.3055    1.0000 </r>
       <r>   -1.2419    1.0000 </r>
       <r>   -1.2419    1.0000 </r>
       <r>   -1.2307    1.0000 </r>
       <r>   -1.2307    1.0000 </r>
       <r>   -0.0166    1.0000 </r>
       <r>   -0.0166    1.0000 </r>
       <r>   -0.0098    1.0000 </r>
       <r>   -0.0098    1.0000 </r>
       <r>   -0.0098    1.0000 </r>
       <r>   -0.0098    1.0000 </r>
       <r>   -0.0066    1.0000 </r>
       <r>   -0.0066    1.0000 </r>
       <r>   -0.0027    1.0000 </r>
       <r>   -0.0027    1.0000 </r>
       <r>   -0.0027    1.0000 </r>
       <r>   -0.0027    1.0000 </r>
       <r>    0.0930    1.0000 </r>
       <r>    0.0930    1.0000 </r>
       <r>    0.0930    1.0000 </r>
       <r>    0.0930    1.0000 </r>
       <r>    1.0370    1.0000 </r>
       <r>    1.0370    1.0000 </r>
       <r>    2.0298    1.0000 </r>
       <r>    2.0298    1.0000 </r>
       <r>    2.0412    1.0000 </r>
       <r>    2.0412    1.0000 </r>
       <r>    2.0412    1.0000 </r>
       <r>    2.0412    1.0000 </r>
       <r>    2.0505    1.0000 </r>
       <r>    2.0505    1.0000 </r>
       <r>    2.3623    1.0000 </r>
       <r>    2.3623    1.0000 </r>
       <r>    2.3920    1.0000 </r>
       <r>    2.3920    1.0000 </r>
       <r>    2.3920    1.0000 </r>
       <r>    2.3920    1.0000 </r>
       <r>    2.4368    1.0000 </r>
       <r>    2.4368    1.0000 </r>
       <r>    2.9176    1.0000 </r>
       <r>    2.9176    1.0000 </r>
       <r>    3.0111    1.0000 </r>
       <r>    3.0111    1.0000 </r>
       <r>    3.0315    1.0000 </r>
       <r>    3.0315    1.0000 </r>
       <r>    3.1287    1.0000 </r>
       <r>    3.1287    1.0000 </r>
       <r>    3.7522    1.0000 </r>
       <r>    3.7522    1.0000 </r>
       <r>    3.7917    1.0000 </r>
       <r>    3.7917    1.0000 </r>
       <r>    3.7917    1.0000 </r>
       <r>    3.7917    1.0000 </r>
       <r>    3.8169    1.0000 </r>
       <r>    3.8169    1.0000 </r>
       <r>    3.8489    1.0000 </r>
       <r>    3.8489    1.0000 </r>
       <r>    3.8496    1.0000 </r>
       <r>    3.8496    1.0000 </r>
       <r>    3.9358    1.0000 </r>
       <r>    3.9358    1.0000 </r>
       <r>    4.0212    1.0000 </r>
       <r>    4.0212    1.0000 </r>
       <r>    4.0212    1.0000 </r>
       <r>    4.0212    1.0000 </r>
       <r>    4.1095    1.0000 </r>
       <r>    4.1095    1.0000 </r>
       <r>    4.1777    1.0000 </r>
       <r>    4.1777    1.0000 </r>
       <r>    4.1777    1.0000 </r>
       <r>    4.1777    1.0000 </r>
       <r>    4.3498    1.0000 </r>
       <r>    4.3498    1.0000 </r>
       <r>    4.3498    1.0000 </r>
       <r>    4.3498    1.0000 </r>
       <r>    5.2200    1.0000 </r>
       <r>    5.2200    1.0000 </r>
       <r>    5.2812    1.0000 </r>
       <r>    5.2812    1.0000 </r>
       <r>    5.2812    1.0000 </r>
       <r>    5.2812    1.0000 </r>
       <r>    5.3178    1.0000 </r>
       <r>    5.3178    1.0000 </r>
       <r>    5.3178    1.0000 </r>
       <r>    5.3178    1.0000 </r>
       <r>    5.3464    1.0000 </r>
       <r>    5.3464    1.0000 </r>
       <r>    5.3736    1.0000 </r>
       <r>    5.3736    1.0000 </r>
       <r>    5.3736    1.0000 </r>
       <r>    5.3736    1.0000 </r>
       <r>    5.6144    1.0000 </r>
       <r>    5.6144    1.0000 </r>
       <r>    5.8537    1.0000 </r>
       <r>    5.8537    1.0000 </r>
       <r>    5.9073    1.0000 </r>
       <r>    5.9073    1.0000 </r>
       <r>    7.0329    0.2490 </r>
       <r>    7.0329    0.2490 </r>
       <r>    7.9929   -0.0000 </r>
       <r>    7.9929   -0.0000 </r>
       <r>    8.5223   -0.0000 </r>
       <r>    8.5223   -0.0000 </r>
       <r>    8.6846   -0.0000 </r>
       <r>    8.6846   -0.0000 </r>
       <r>    8.7044   -0.0000 </r>
       <r>    8.7045   -0.0000 </r>
       <r>    8.7534   -0.0000 </r>
       <r>    8.7534   -0.0000 </r>
       <r>    8.9384   -0.0000 </r>
       <r>    8.9384   -0.0000 </r>
       <r>    9.1208   -0.0000 </r>
       <r>    9.1209   -0.0000 </r>
       <r>    9.1209   -0.0000 </r>
       <r>    9.1209   -0.0000 </r>
       <r>    9.2269   -0.0000 </r>
       <r>    9.2269   -0.0000 </r>
       <r>    9.2270   -0.0000 </r>
       <r>    9.2276   -0.0000 </r>
       <r>    9.2517   -0.0000 </r>
       <r>    9.2520   -0.0000 </r>
       <r>    9.2992   -0.0000 </r>
       <r>    9.2993   -0.0000 </r>
       <r>    9.2996   -0.0000 </r>
[...]
      </set>
     </set>
    </set>
   </array>
  </eigenvalues>
  <separator name="orbital magnetization" >
   <v name="MAGDIPOLOUT">      0.00000000      0.00000000      0.00000000</v>
  </separator>
  <dos>
   <i name="efermi">      6.97025949 </i>
   <total>
    <array>
     <dimension dim="1">gridpoints</dimension>
     <dimension dim="2">spin</dimension>
     <field>energy</field>
     <field>total</field>
     <field>integrated</field>
     <set>
      <set comment="spin 1">
       <r>    -7.8671     0.0000     0.0000 </r>
       <r>    -7.7998     0.0000     0.0000 </r>
       <r>    -7.7326     0.0000     0.0000 </r>
       <r>    -7.6654     0.0000     0.0000 </r>
       <r>    -7.5981     0.0000     0.0000 </r>
       <r>    -7.5309    -0.0000    -0.0000 </r>
       <r>    -7.4636    -0.0000    -0.0000 </r>
       <r>    -7.3964    -0.0000    -0.0000 </r>
       <r>    -7.3292    -0.0000    -0.0000 </r>
       <r>    -7.2619    -0.0000    -0.0000 </r>
       <r>    -7.1947    -0.0000    -0.0000 </r>
       <r>    -7.1274    -0.0000    -0.0000 </r>
       <r>    -7.0602    -0.0000    -0.0000 </r>
       <r>    -6.9930    -0.0000    -0.0000 </r>
       <r>    -6.9257    -0.0000    -0.0000 </r>
       <r>    -6.8585    -0.0000    -0.0000 </r>
       <r>    -6.7912    -0.0000    -0.0000 </r>
       <r>    -6.7240    -0.0000    -0.0000 </r>
       <r>    -6.6568    -0.0000    -0.0000 </r>
       <r>    -6.5895    -0.0000    -0.0000 </r>
       <r>    -6.5223    -0.0001    -0.0000 </r>
       <r>    -6.4550    -0.0004    -0.0000 </r>
       <r>    -6.3878    -0.0022    -0.0002 </r>
       <r>    -6.3206    -0.0088    -0.0008 </r>
       <r>    -6.2533    -0.0256    -0.0025 </r>
       <r>    -6.1861    -0.0509    -0.0059 </r>
       <r>    -6.1188    -0.0513    -0.0094 </r>
       <r>    -6.0516     0.0447    -0.0064 </r>
       <r>    -5.9844     0.2754     0.0122 </r>
       <r>    -5.9171     0.5389     0.0484 </r>
       <r>    -5.8499     0.6939     0.0951 </r>
       <r>    -5.7826     0.9241     0.1572 </r>
       <r>    -5.7154     1.7938     0.2778 </r>
       <r>    -5.6482     3.4776     0.5116 </r>
       <r>    -5.5809     5.0953     0.8542 </r>
       <r>    -5.5137     5.6834     1.2364 </r>
       <r>    -5.4465     5.8966     1.6329 </r>
       <r>    -5.3792     7.4272     2.1323 </r>
       <r>    -5.3120    10.2096     2.8188 </r>
       <r>    -5.2447    11.8152     3.6132 </r>
       <r>    -5.1775    10.7176     4.3339 </r>
       <r>    -5.1103     8.5348     4.9078 </r>
       <r>    -5.0430     7.5419     5.4149 </r>
       <r>    -4.9758     7.4930     5.9187 </r>
       <r>    -4.9085     6.7109     6.3699 </r>
       <r>    -4.8413     5.0893     6.7121 </r>
       <r>    -4.7741     4.0216     6.9826 </r>
       <r>    -4.7068     4.1414     7.2610 </r>
       <r>    -4.6396     5.2650     7.6150 </r>
       <r>    -4.5723     8.1945     8.1660 </r>
       <r>    -4.5051    13.9312     9.1028 </r>
       <r>    -4.4379    20.6630    10.4921 </r>
       <r>    -4.3706    24.5916    12.1457 </r>
       <r>    -4.3034    24.9263    13.8217 </r>
       <r>    -4.2361    24.6759    15.4809 </r>
       <r>    -4.1689    25.0440    17.1649 </r>
       <r>    -4.1017    22.9714    18.7095 </r>
       <r>    -4.0344    16.2014    19.7989 </r>
       <r>    -3.9672     7.2732    20.2879 </r>
       <r>    -3.8999     0.6431    20.3311 </r>
       <r>    -3.8327    -1.4937    20.2307 </r>
       <r>    -3.7655     0.6721    20.2759 </r>
       <r>    -3.6982     6.2849    20.6985 </r>
       <r>    -3.6310    14.1629    21.6508 </r>
       <r>    -3.5637    22.2677    23.1481 </r>
       <r>    -3.4965    27.8398    25.0200 </r>
       <r>    -3.4293    28.6039    26.9433 </r>
       <r>    -3.3620    24.4817    28.5895 </r>
       <r>    -3.2948    18.2153    29.8143 </r>
       <r>    -3.2275    13.8626    30.7464 </r>
       <r>    -3.1603    14.3827    31.7135 </r>
       <r>    -3.0931    19.9842    33.0572 </r>
       <r>    -3.0258    27.9470    34.9364 </r>
       <r>    -2.9586    34.3271    37.2445 </r>
       <r>    -2.8913    36.6761    39.7106 </r>
       <r>    -2.8241    35.3758    42.0893 </r>
       <r>    -2.7569    32.4054    44.2682 </r>
       <r>    -2.6896    29.2293    46.2336 </r>
       <r>    -2.6224    26.4194    48.0100 </r>
       <r>    -2.5551    24.7660    49.6753 </r>
       <r>    -2.4879    24.7839    51.3418 </r>
       <r>    -2.4207    24.7230    53.0041 </r>
       <r>    -2.3534    21.4545    54.4467 </r>
       <r>    -2.2862    14.3469    55.4114 </r>
       <r>    -2.2189     6.4024    55.8419 </r>
       <r>    -2.1517     0.9309    55.9045 </r>
       <r>    -2.0845    -1.3255    55.8154 </r>
       <r>    -2.0172    -1.4471    55.7181 </r>
       <r>    -1.9500    -0.1707    55.7066 </r>
       <r>    -1.8827     2.6798    55.8868 </r>
       <r>    -1.8155     6.8556    56.3478 </r>
       <r>    -1.7483    10.4733    57.0520 </r>
       <r>    -1.6810    11.0220    57.7931 </r>
       <r>    -1.6138     7.9846    58.3300 </r>
       <r>    -1.5465     3.9595    58.5962 </r>
       <r>    -1.4793     2.8106    58.7852 </r>
       <r>    -1.4121     6.8730    59.2473 </r>
       <r>    -1.3448    15.4982    60.2894 </r>
       <r>    -1.2776    25.2761    61.9890 </r>
       <r>    -1.2103    31.6348    64.1161 </r>
       <r>    -1.1431    31.3342    66.2230 </r>
       <r>    -1.0759    24.4609    67.8678 </r>
       <r>    -1.0086    14.5106    68.8435 </r>
       <r>    -0.9414     6.4423    69.2766 </r>
       <r>    -0.8741     3.7728    69.5303 </r>
       <r>    -0.8069     6.3903    69.9600 </r>
       <r>    -0.7397    10.7568    70.6833 </r>
       <r>    -0.6724    12.9443    71.5537 </r>
       <r>    -0.6052    12.3932    72.3870 </r>
       <r>    -0.5379    12.4676    73.2253 </r>
       <r>    -0.4707    16.1457    74.3109 </r>
       <r>    -0.4035    21.2032    75.7366 </r>
       <r>    -0.3362    21.7680    77.2003 </r>
       <r>    -0.2690    15.9092    78.2700 </r>
       <r>    -0.2017     9.9390    78.9383 </r>
       <r>    -0.1345    13.1965    79.8257 </r>
       <r>    -0.0673    28.5680    81.7466 </r>
       <r>    -0.0000    48.5710    85.0125 </r>
       <r>     0.0672    60.7903    89.1000 </r>
       <r>     0.1345    57.5624    92.9705 </r>
       <r>     0.2017    41.2171    95.7419 </r>
       <r>     0.2689    20.9672    97.1518 </r>
       <r>     0.3362     5.4630    97.5191 </r>
       <r>     0.4034    -1.8622    97.3939 </r>
       <r>     0.4707    -1.7249    97.2779 </r>
       <r>     0.5379     4.0948    97.5532 </r>
       <r>     0.6051    13.1679    98.4386 </r>
       <r>     0.6724    21.2211    99.8655 </r>
       <r>     0.7396    23.6771   101.4576 </r>
       <r>     0.8069    19.4910   102.7682 </r>
       <r>     0.8741    12.3215   103.5967 </r>
       <r>     0.9413     7.6107   104.1084 </r>
       <r>     1.0086     8.9721   104.7117 </r>
       <r>     1.0758    16.2261   105.8027 </r>
       <r>     1.1431    25.3116   107.5047 </r>
       <r>     1.2103    30.5971   109.5620 </r>
       <r>     1.2775    28.7556   111.4955 </r>
       <r>     1.3448    20.9284   112.9028 </r>
       <r>     1.4120    11.2830   113.6614 </r>
       <r>     1.4793     3.7353   113.9126 </r>
       <r>     1.5465    -0.2683   113.8946 </r>
       <r>     1.6137    -1.6434   113.7841 </r>
       <r>     1.6810    -1.9497   113.6530 </r>
       <r>     1.7482    -1.6021   113.5452 </r>
       <r>     1.8155     0.7956   113.5987 </r>
       <r>     1.8827     7.2527   114.0864 </r>
       <r>     1.9499    17.5453   115.2661 </r>
       <r>     2.0172    27.3593   117.1058 </r>
       <r>     2.0844    30.7622   119.1742 </r>
       <r>     2.1517    25.8591   120.9130 </r>
       <r>     2.2189    17.6857   122.1022 </r>
       <r>     2.2861    14.4911   123.0765 </r>
       <r>     2.3534    20.3532   124.4451 </r>
       <r>     2.4206    31.1482   126.5395 </r>
       <r>     2.4879    38.2704   129.1128 </r>
       <r>     2.5551    36.5150   131.5681 </r>
       <r>     2.6223    27.9586   133.4480 </r>
       <r>     2.6896    19.2439   134.7419 </r>
       <r>     2.7568    17.0150   135.8860 </r>
       <r>     2.8241    25.0317   137.5692 </r>
       <r>     2.8913    42.2101   140.4074 </r>
       <r>     2.9585    61.8167   144.5639 </r>
       <r>     3.0258    74.1553   149.5501 </r>
       <r>     3.0930    72.3560   154.4153 </r>
       <r>     3.1603    56.9640   158.2456 </r>
       <r>     3.2275    35.3750   160.6242 </r>
       <r>     3.2947    16.3955   161.7266 </r>
       <r>     3.3620     4.6382   162.0385 </r>
       <r>     3.4292    -0.3844   162.0126 </r>
       <r>     3.4965    -0.5342   161.9767 </r>
       <r>     3.5637     4.6443   162.2890 </r>
       <r>     3.6309    17.1732   163.4437 </r>
       <r>     3.6982    35.8867   165.8567 </r>
       <r>     3.7654    53.8716   169.4790 </r>
       <r>     3.8327    63.2805   173.7340 </r>
       <r>     3.8999    62.8102   177.9574 </r>
       <r>     3.9671    57.9965   181.8570 </r>
       <r>     4.0344    53.9705   185.4860 </r>
       <r>     4.1016    50.8209   188.9032 </r>
       <r>     4.1688    46.9026   192.0569 </r>
       <r>     4.2361    43.3541   194.9720 </r>
       <r>     4.3033    42.5535   197.8333 </r>
       <r>     4.3706    43.6333   200.7672 </r>
       <r>     4.4378    42.4643   203.6225 </r>
       <r>     4.5050    36.4178   206.0713 </r>
       <r>     4.5723    27.6101   207.9278 </r>
       <r>     4.6395    20.9252   209.3348 </r>
       <r>     4.7068    19.6771   210.6579 </r>
       <r>     4.7740    23.4867   212.2371 </r>
       <r>     4.8412    29.4457   214.2170 </r>
       <r>     4.9085    34.4500   216.5334 </r>
       <r>     4.9757    36.7035   219.0014 </r>
       <r>     5.0430    36.3910   221.4483 </r>
       <r>     5.1102    35.8161   223.8566 </r>
       <r>     5.1774    37.7692   226.3962 </r>
       <r>     5.2447    42.4371   229.2496 </r>
       <r>     5.3119    46.6354   232.3854 </r>
       <r>     5.3792    46.9712   235.5437 </r>
       <r>     5.4464    42.8537   238.4252 </r>
       <r>     5.5136    35.8382   240.8350 </r>
       <r>     5.5809    27.5295   242.6860 </r>
       <r>     5.6481    19.4447   243.9935 </r>
       <r>     5.7154    13.8327   244.9236 </r>
       <r>     5.7826    12.6199   245.7722 </r>
       <r>     5.8498    15.1779   246.7927 </r>
       <r>     5.9171    18.2530   248.0201 </r>
       <r>     5.9843    18.7400   249.2801 </r>
       <r>     6.0516    16.1137   250.3636 </r>
       <r>     6.1188    11.9615   251.1679 </r>
       <r>     6.1860     7.9684   251.7037 </r>
       <r>     6.2533     5.0825   252.0454 </r>
       <r>     6.3205     3.9800   252.3131 </r>
       <r>     6.3878     4.9723   252.6474 </r>
       <r>     6.4550     7.2230   253.1331 </r>
       <r>     6.5222     9.0214   253.7397 </r>
       <r>     6.5895     9.2244   254.3599 </r>
       <r>     6.6567     7.9479   254.8943 </r>
       <r>     6.7240     5.9000   255.2911 </r>
       <r>     6.7912     3.7560   255.5436 </r>
       <r>     6.8584     2.2675   255.6961 </r>
       <r>     6.9257     2.2315   255.8461 </r>
       <r>     6.9929     3.8406   256.1044 </r>
       <r>     7.0602     6.2838   256.5269 </r>
       <r>     7.1274     8.2750   257.0833 </r>
       <r>     7.1946     8.8606   257.6791 </r>
       <r>     7.2619     7.7590   258.2008 </r>
       <r>     7.3291     5.4241   258.5655 </r>
       <r>     7.3964     3.0145   258.7682 </r>
       <r>     7.4636     1.9449   258.8990 </r>
       <r>     7.5308     3.0435   259.1036 </r>
       <r>     7.5981     5.8752   259.4987 </r>
       <r>     7.6653     8.9268   260.0989 </r>
       <r>     7.7326    10.8497   260.8284 </r>
       <r>     7.7998    11.7304   261.6172 </r>
       <r>     7.8670    13.0450   262.4943 </r>
       <r>     7.9343    16.1384   263.5795 </r>
       <r>     8.0015    20.3801   264.9498 </r>
       <r>     8.0688    23.0501   266.4997 </r>
       <r>     8.1360    21.8049   267.9659 </r>
       <r>     8.2032    17.2522   269.1259 </r>
       <r>     8.2705    12.7845   269.9855 </r>
       <r>     8.3377    11.9969   270.7922 </r>
       <r>     8.4050    15.8836   271.8602 </r>
       <r>     8.4722    22.1291   273.3482 </r>
       <r>     8.5394    27.5775   275.2025 </r>
       <r>     8.6067    31.0065   277.2874 </r>
       <r>     8.6739    32.3769   279.4644 </r>
       <r>     8.7412    30.9406   281.5448 </r>
       <r>     8.8084    26.8349   283.3492 </r>
       <r>     8.8756    23.4342   284.9249 </r>
       <r>     8.9429    25.1795   286.6180 </r>
       <r>     9.0101    33.2930   288.8566 </r>
       <r>     9.0774    45.1323   291.8913 </r>
       <r>     9.1446    56.8513   295.7140 </r>
       <r>     9.2118    65.2691   300.1026 </r>
       <r>     9.2791    68.1467   304.6848 </r>
       <r>     9.3463    64.5068   309.0222 </r>
       <r>     9.4136    54.9836   312.7193 </r>
       <r>     9.4808    41.7799   315.5286 </r>
       <r>     9.5480    28.6501   317.4550 </r>
       <r>     9.6153    19.7905   318.7857 </r>
       <r>     9.6825    16.7929   319.9149 </r>
       <r>     9.7498    16.9358   321.0537 </r>
       <r>     9.8170    15.8924   322.1223 </r>
       <r>     9.8842    11.9292   322.9244 </r>
       <r>     9.9515     6.6647   323.3725 </r>
       <r>    10.0187     2.4719   323.5387 </r>
       <r>    10.0860     0.3643   323.5632 </r>
       <r>    10.1532     0.0596   323.5672 </r>
       <r>    10.2204     0.7855   323.6200 </r>
       <r>    10.2877     1.6559   323.7314 </r>
       <r>    10.3549     1.9419   323.8620 </r>
       <r>    10.4222     1.4809   323.9615 </r>
       <r>    10.4894     0.7053   324.0090 </r>
       <r>    10.5566     0.1278   324.0175 </r>
       <r>    10.6239    -0.0936   324.0113 </r>
       <r>    10.6911    -0.0973   324.0047 </r>
       <r>    10.7584    -0.0487   324.0014 </r>
       <r>    10.8256    -0.0164   324.0003 </r>
       <r>    10.8928    -0.0041   324.0001 </r>
       <r>    10.9601    -0.0008   324.0000 </r>
       <r>    11.0273    -0.0001   324.0000 </r>
       <r>    11.0946    -0.0000   324.0000 </r>
       <r>    11.1618    -0.0000   324.0000 </r>
       <r>    11.2290    -0.0000   324.0000 </r>
       <r>    11.2963    -0.0000   324.0000 </r>
       <r>    11.3635    -0.0000   324.0000 </r>
       <r>    11.4308    -0.0000   324.0000 </r>
       <r>    11.4980    -0.0000   324.0000 </r>
       <r>    11.5652    -0.0000   324.0000 </r>
       <r>    11.6325     0.0000   324.0000 </r>
       <r>    11.6997     0.0000   324.0000 </r>
       <r>    11.7670     0.0000   324.0000 </r>
       <r>    11.8342     0.0000   324.0000 </r>
       <r>    11.9014     0.0000   324.0000 </r>
       <r>    11.9687     0.0000   324.0000 </r>
       <r>    12.0359     0.0000   324.0000 </r>
       <r>    12.1032     0.0000   324.0000 </r>
       <r>    12.1704     0.0000   324.0000 </r>
       <r>    12.2376     0.0000   324.0000 </r>
       <r>    12.3049     0.0000   324.0000 </r>
      </set>
     </set>
    </array>
   </total>
  </dos>
 </calculation>
 <structure name="finalpos" >
  <crystal>
   <varray name="basis" >
    <v>      10.37213653      -0.10583802       0.00000000 </v>
    <v>      -0.10583802      10.58381356       0.00000000 </v>
    <v>       0.00000000       0.00000000      10.58381356 </v>
   </varray>
   <i name="volume">   1161.73819746 </i>
   <varray name="rec_basis" >
    <v>       0.09642199       0.00096422       0.00000000 </v>
    <v>       0.00096422       0.09449354       0.00000000 </v>
    <v>       0.00000000       0.00000000       0.09448390 </v>
   </varray>
  </crystal>
  <varray name="positions" >
   <v>       0.00000000       0.00000000       0.99908366 </v>
   <v>       0.00000000       0.00000000       0.49908366 </v>
   <v>       0.00000000       0.50000000       0.99908366 </v>
   <v>       0.00000000       0.50000000       0.49908366 </v>
   <v>       0.50000000       0.00000000       0.99908366 </v>
   <v>       0.50000000       0.00000000       0.49908366 </v>
   <v>       0.50000000       0.50000000       0.99908366 </v>
   <v>       0.50000000       0.50000000       0.49908366 </v>
   <v>       0.37500000       0.37500000       0.12591634 </v>
   <v>       0.37500000       0.37500000       0.62591634 </v>
   <v>       0.37500000       0.87500000       0.12591634 </v>
   <v>       0.37500000       0.87500000       0.62591634 </v>
   <v>       0.87500000       0.37500000       0.12591634 </v>
   <v>       0.87500000       0.37500000       0.62591634 </v>
   <v>       0.87500000       0.87500000       0.12591634 </v>
   <v>       0.87500000       0.87500000       0.62591634 </v>
   <v>       0.00000000       0.25000000       0.24908366 </v>
   <v>       0.00000000       0.25000000       0.74908366 </v>
   <v>       0.00000000       0.75000000       0.24908366 </v>
   <v>       0.00000000       0.75000000       0.74908366 </v>
   <v>       0.50000000       0.25000000       0.24908366 </v>
   <v>       0.50000000       0.25000000       0.74908366 </v>
   <v>       0.50000000       0.75000000       0.24908366 </v>
   <v>       0.50000000       0.75000000       0.74908366 </v>
   <v>       0.37500000       0.12500000       0.37591634 </v>
   <v>       0.37500000       0.12500000       0.87591634 </v>
   <v>       0.37500000       0.62500000       0.37591634 </v>
   <v>       0.37500000       0.62500000       0.87591634 </v>
   <v>       0.87500000       0.12500000       0.37591634 </v>
   <v>       0.87500000       0.12500000       0.87591634 </v>
   <v>       0.87500000       0.62500000       0.37591634 </v>
   <v>       0.87500000       0.62500000       0.87591634 </v>
   <v>       0.25000000       0.00000000       0.24908366 </v>
   <v>       0.25000000       0.00000000       0.74908366 </v>
   <v>       0.25000000       0.50000000       0.24908366 </v>
   <v>       0.25000000       0.50000000       0.74908366 </v>
   <v>       0.75000000       0.00000000       0.24908366 </v>
   <v>       0.75000000       0.00000000       0.74908366 </v>
   <v>       0.75000000       0.50000000       0.24908366 </v>
   <v>       0.75000000       0.50000000       0.74908366 </v>
   <v>       0.12500000       0.37500000       0.37591634 </v>
   <v>       0.12500000       0.37500000       0.87591634 </v>
   <v>       0.12500000       0.87500000       0.37591634 </v>
   <v>       0.12500000       0.87500000       0.87591634 </v>
   <v>       0.62500000       0.37500000       0.37591634 </v>
   <v>       0.62500000       0.37500000       0.87591634 </v>
   <v>       0.62500000       0.87500000       0.37591634 </v>
   <v>       0.62500000       0.87500000       0.87591634 </v>
   <v>       0.25000000       0.25000000       0.99908366 </v>
   <v>       0.25000000       0.25000000       0.49908366 </v>
   <v>       0.25000000       0.75000000       0.99908366 </v>
   <v>       0.25000000       0.75000000       0.49908366 </v>
   <v>       0.75000000       0.25000000       0.99908366 </v>
   <v>       0.75000000       0.25000000       0.49908366 </v>
   <v>       0.75000000       0.75000000       0.99908366 </v>
   <v>       0.75000000       0.75000000       0.49908366 </v>
   <v>       0.12500000       0.12500000       0.12591634 </v>
   <v>       0.12500000       0.12500000       0.62591634 </v>
   <v>       0.12500000       0.62500000       0.12591634 </v>
   <v>       0.12500000       0.62500000       0.62591634 </v>
   <v>       0.62500000       0.12500000       0.12591634 </v>
   <v>       0.62500000       0.12500000       0.62591634 </v>
   <v>       0.62500000       0.62500000       0.12591634 </v>
   <v>       0.62500000       0.62500000       0.62591634 </v>
  </varray>
 </structure>
</modeling>
