       N       E                     dE             d eps       ncg     rms          rms(c)
DAV:   1     0.576051869227E+03    0.57605E+03   -0.85271E+04  2592   0.107E+03
DAV:   2    -0.308881830167E+03   -0.88493E+03   -0.83903E+03  3088   0.176E+02
DAV:   3    -0.371703885059E+03   -0.62822E+02   -0.61469E+02  3136   0.415E+01
DAV:   4    -0.373327545965E+03   -0.16237E+01   -0.16112E+01  3128   0.801E+00
DAV:   5    -0.373377724892E+03   -0.50179E-01   -0.50064E-01  3088   0.131E+00    0.314E+01
RMM:   6    -0.367001164320E+03    0.63766E+01   -0.34037E+00  2592   0.291E+00    0.190E+01
RMM:   7    -0.364274243682E+03    0.27269E+01   -0.85443E+00  2652   0.459E+00    0.127E+00
RMM:   8    -0.364302748719E+03   -0.28505E-01   -0.78930E-01  2614   0.175E+00    0.569E-01
RMM:   9    -0.364326891385E+03   -0.24143E-01   -0.23955E-01  2672   0.851E-01    0.631E-01
RMM:  10    -0.364332174549E+03   -0.52832E-02   -0.43617E-02  2701   0.403E-01    0.933E-01
RMM:  11    -0.364326496740E+03    0.56778E-02   -0.16383E-02  2592   0.250E-01    0.552E-01
RMM:  12    -0.364326707506E+03   -0.21077E-03   -0.19212E-03  2622   0.105E-01    0.522E-01
RMM:  13    -0.364326779175E+03   -0.71669E-04   -0.35576E-04  2700   0.431E-02    0.593E-01
RMM:  14    -0.364326768374E+03    0.10801E-04   -0.96815E-05  2608   0.240E-02    0.207E-01
RMM:  15    -0.364326814154E+03   -0.45780E-04   -0.43406E-05  2631   0.135E-02    0.137E-01
RMM:  16    -0.364326841872E+03   -0.27718E-04   -0.18879E-05  2593   0.959E-03    0.991E-02
RMM:  17    -0.364326846941E+03   -0.50697E-05   -0.67392E-06  2429   0.583E-03    0.288E-02
RMM:  18    -0.364326846817E+03    0.12482E-06   -0.10981E-06  1568   0.255E-03
   1 F= -.36432685E+03 E0= -.36433473E+03  d E =-.364327E+03
       N       E                     dE             d eps       ncg     rms          rms(c)
DAV:   1    -0.364353762222E+03   -0.26915E-01   -0.19574E+00  2944   0.269E+00    0.665E-01
RMM:   2    -0.364362685780E+03   -0.89236E-02   -0.93631E-02  2592   0.661E-01    0.272E-01
RMM:   3    -0.364363480732E+03   -0.79495E-03   -0.14019E-02  2631   0.287E-01    0.111E-01
RMM:   4    -0.364363416954E+03    0.63777E-04   -0.19751E-03  2626   0.119E-01    0.435E-02
RMM:   5    -0.364363434415E+03   -0.17460E-04   -0.36768E-04  2698   0.465E-02    0.826E-03
RMM:   6    -0.364363441966E+03   -0.75511E-05   -0.77003E-05  2760   0.201E-02    0.206E-03
RMM:   7    -0.364363443092E+03   -0.11257E-05   -0.11988E-05  2264   0.763E-03    0.153E-03
RMM:   8    -0.364363443197E+03   -0.10549E-06   -0.20115E-06  1702   0.309E-03
   2 F= -.36436344E+03 E0= -.36436825E+03  d E =-.365964E-01
       N       E                     dE             d eps       ncg     rms          rms(c)
DAV:   1    -0.364373877898E+03   -0.10435E-01   -0.20921E-01  2928   0.879E-01    0.217E-01
RMM:   2    -0.364374811125E+03   -0.93323E-03   -0.97783E-03  2592   0.215E-01    0.892E-02
RMM:   3    -0.364374889900E+03   -0.78775E-04   -0.14269E-03  2630   0.932E-02    0.351E-02
RMM:   4    -0.364374884160E+03    0.57407E-05   -0.20088E-04  2621   0.386E-02    0.139E-02
RMM:   5    -0.364374885934E+03   -0.17746E-05   -0.38158E-05  2694   0.150E-02    0.274E-03
RMM:   6    -0.364374886595E+03   -0.66027E-06   -0.75598E-06  2112   0.646E-03    0.612E-04
RMM:   7    -0.364374886737E+03   -0.14291E-06   -0.12086E-06  1604   0.250E-03    0.472E-04
RMM:   8    -0.364374886787E+03   -0.49462E-07   -0.26711E-07  1329   0.115E-03
   3 F= -.36437489E+03 E0= -.36438091E+03  d E =-.480400E-01
