 vasp.6.4.3 19Mar24 (build Oct 21 2024 22:36:34) complex                        
  
 executed on             LinuxIFC date 2024.11.01  22:56:11
 running   96 mpi-ranks, on    1 nodes
 distrk:  each k-point on   24 cores,    4 groups
 distr:  one band on NCORE=  12 cores,    2 groups


--------------------------------------------------------------------------------------------------------


 INCAR:
   SYSTEM = Si64
   ISTART = 0
   ICHARG = 2
   LREAL = Auto
   PREC = Accurate
   LWAVE = .False.
   LCHARG = .False.
   ADDGRID = .True.
   ENCUT = 400
   GGA = PS
   GGA_COMPAT = .FALSE.
   ISMEAR = 1
   SIGMA = 0.2
   NELM = 60
   NELMIN = 8
   EDIFF = 1e-06
   EDIFFG = -0.01
   NSW = 60
   IBRION = 2
   ISIF = 2
   KPAR = 4
   NPAR = 2
   ALGO = Fast

 POTCAR:    PAW_PBE Si 05Jan2001                  
 POTCAR:    PAW_PBE Si 05Jan2001                  
   VRHFIN =Si: s2p2                                                                                 
   LEXCH  = PE                                                                                      
   EATOM  =   103.0669 eV,    7.5752 Ry                                                             
                                                                                                    
   TITEL  = PAW_PBE Si 05Jan2001                                                                    
   LULTRA =        F    use ultrasoft PP ?                                                          
   IUNSCR =        1    unscreen: 0-lin 1-nonlin 2-no                                               
   RPACOR =    1.500    partial core radius                                                         
   POMASS =   28.085; ZVAL   =    4.000    mass and valenz                                          
   RCORE  =    1.900    outmost cutoff radius                                                       
   RWIGS  =    2.480; RWIGS  =    1.312    wigner-seitz radius (au A)                               
   ENMAX  =  245.345; ENMIN  =  184.009 eV                                                          
   ICORE  =        2    local potential                                                             
   LCOR   =        T    correct aug charges                                                         
   LPAW   =        T    paw PP                                                                      
   EAUG   =  322.069                                                                                
   DEXC   =    0.000                                                                                
   RMAX   =    1.950    core radius for proj-oper                                                   
   RAUG   =    1.300    factor for augmentation sphere                                              
   RDEP   =    1.993    radius for radial grids                                                     
   RDEPT  =    1.837    core radius for aug-charge                                                  
                                                                                                    
   Atomic configuration                                                                             
    6 entries                                                                                       
     n  l   j            E        occ.                                                              
     1  0  0.50     -1785.8828   2.0000                                                             
     2  0  0.50      -139.4969   2.0000                                                             
     2  1  1.50       -95.5546   6.0000                                                             
     3  0  0.50       -10.8127   2.0000                                                             
     3  1  0.50        -4.0811   2.0000                                                             
     3  2  1.50        -4.0817   0.0000                                                             
   Description                                                                                      
     l       E           TYP  RCUT    TYP  RCUT                                                     
     0    -10.8127223     23  1.900                                                                 
     0     -7.6451159     23  1.900                                                                 
     1     -4.0811372     23  1.900                                                                 
     1      2.4879257     23  1.900                                                                 
     2     -4.0817478      7  1.900                                                                 
  local pseudopotential read in
  partial core-charges read in
  partial kinetic energy density read in
  atomic valenz-charges read in
  non local Contribution for L=           0  read in
    real space projection operators read in
  non local Contribution for L=           0  read in
    real space projection operators read in
  non local Contribution for L=           1  read in
    real space projection operators read in
  non local Contribution for L=           1  read in
    real space projection operators read in
    PAW grid and wavefunctions read in
 
   number of l-projection  operators is LMAX  =           4
   number of lm-projection operators is LMMAX =           8
 
 Optimization of the real space projectors (new method)

 maximal supplied QI-value         = 19.84
 optimisation between [QCUT,QGAM] = [ 10.12, 20.44] = [ 28.68,116.96] Ry 
 Optimized for a Real-space Cutoff    1.38 Angstroem

   l    n(q)    QCUT    max X(q) W(low)/X(q) W(high)/X(q)  e(spline) 
   0      8    10.119   159.560    0.58E-04    0.11E-03    0.54E-07
   0      8    10.119   115.863    0.56E-04    0.11E-03    0.54E-07
   1      8    10.119    88.339    0.22E-03    0.17E-03    0.19E-06
   1      8    10.119    48.592    0.22E-03    0.17E-03    0.18E-06
 -----------------------------------------------------------------------------
|                                                                             |
|               ----> ADVICE to this user running VASP <----                  |
|                                                                             |
|     You enforced a specific xc type in the INCAR file but a different       |
|     type was found in the POTCAR file.                                      |
|     I HOPE YOU KNOW WHAT YOU ARE DOING!                                     |
|                                                                             |
 -----------------------------------------------------------------------------

  PAW_PBE Si 05Jan2001                  :
 energy of atom  1       EATOM= -103.0669
 kinetic energy error for atom=    0.0012 (will be added to EATOM!!)
 
 
 POSCAR: Si8
  positions in direct lattice
  velocities in cartesian coordinates


 exchange-correlation table for PS
   RHO(1)=    0.500       N(1)  =     2000
   RHO(2)=  100.500       N(2)  =     4000
 


--------------------------------------------------------------------------------------------------------


 ion  position               nearest neighbor table
   1  0.000  0.000  0.000-  15 2.27  57 2.27  44 2.30  30 2.30
   2  0.000  0.000  0.500-  16 2.27  58 2.27  43 2.30  29 2.30
   3  0.000  0.500  0.000-  13 2.27  59 2.27  42 2.30  32 2.30
   4  0.000  0.500  0.500-  14 2.27  60 2.27  41 2.30  31 2.30
   5  0.500  0.000  0.000-  11 2.27  61 2.27  48 2.30  26 2.30
   6  0.500  0.000  0.500-  12 2.27  62 2.27  47 2.30  25 2.30
   7  0.500  0.500  0.000-   9 2.27  63 2.27  46 2.30  28 2.30
   8  0.500  0.500  0.500-  10 2.27  64 2.27  45 2.30  27 2.30
   9  0.375  0.375  0.125-   7 2.27  49 2.27  35 2.30  21 2.30
  10  0.375  0.375  0.625-   8 2.27  50 2.27  36 2.30  22 2.30
  11  0.375  0.875  0.125-   5 2.27  51 2.27  33 2.30  23 2.30
  12  0.375  0.875  0.625-   6 2.27  52 2.27  34 2.30  24 2.30
  13  0.875  0.375  0.125-   3 2.27  53 2.27  39 2.30  17 2.30
  14  0.875  0.375  0.625-   4 2.27  54 2.27  40 2.30  18 2.30
  15  0.875  0.875  0.125-   1 2.27  55 2.27  37 2.30  19 2.30
  16  0.875  0.875  0.625-   2 2.27  56 2.27  38 2.30  20 2.30
  17  0.000  0.250  0.250-  29 2.27  41 2.27  13 2.30  57 2.30
  18  0.000  0.250  0.750-  30 2.27  42 2.27  14 2.30  58 2.30
  19  0.000  0.750  0.250-  31 2.27  43 2.27  15 2.30  59 2.30
  20  0.000  0.750  0.750-  32 2.27  44 2.27  16 2.30  60 2.30
  21  0.500  0.250  0.250-  25 2.27  45 2.27   9 2.30  61 2.30
  22  0.500  0.250  0.750-  26 2.27  46 2.27  10 2.30  62 2.30
  23  0.500  0.750  0.250-  27 2.27  47 2.27  11 2.30  63 2.30
  24  0.500  0.750  0.750-  28 2.27  48 2.27  12 2.30  64 2.30
  25  0.375  0.125  0.375-  21 2.27  33 2.27   6 2.30  50 2.30
  26  0.375  0.125  0.875-  22 2.27  34 2.27   5 2.30  49 2.30
  27  0.375  0.625  0.375-  23 2.27  35 2.27   8 2.30  52 2.30
  28  0.375  0.625  0.875-  24 2.27  36 2.27   7 2.30  51 2.30
  29  0.875  0.125  0.375-  17 2.27  37 2.27   2 2.30  54 2.30
  30  0.875  0.125  0.875-  18 2.27  38 2.27   1 2.30  53 2.30
  31  0.875  0.625  0.375-  19 2.27  39 2.27   4 2.30  56 2.30
  32  0.875  0.625  0.875-  20 2.27  40 2.27   3 2.30  55 2.30
  33  0.250  0.000  0.250-  25 2.27  43 2.27  11 2.30  57 2.30
  34  0.250  0.000  0.750-  26 2.27  44 2.27  12 2.30  58 2.30
  35  0.250  0.500  0.250-  27 2.27  41 2.27   9 2.30  59 2.30
  36  0.250  0.500  0.750-  28 2.27  42 2.27  10 2.30  60 2.30
  37  0.750  0.000  0.250-  29 2.27  47 2.27  15 2.30  61 2.30
  38  0.750  0.000  0.750-  30 2.27  48 2.27  16 2.30  62 2.30
  39  0.750  0.500  0.250-  31 2.27  45 2.27  13 2.30  63 2.30
  40  0.750  0.500  0.750-  32 2.27  46 2.27  14 2.30  64 2.30
  41  0.125  0.375  0.375-  17 2.27  35 2.27   4 2.30  50 2.30
  42  0.125  0.375  0.875-  18 2.27  36 2.27   3 2.30  49 2.30
  43  0.125  0.875  0.375-  19 2.27  33 2.27   2 2.30  52 2.30
  44  0.125  0.875  0.875-  20 2.27  34 2.27   1 2.30  51 2.30
  45  0.625  0.375  0.375-  21 2.27  39 2.27   8 2.30  54 2.30
  46  0.625  0.375  0.875-  22 2.27  40 2.27   7 2.30  53 2.30
  47  0.625  0.875  0.375-  23 2.27  37 2.27   6 2.30  56 2.30
  48  0.625  0.875  0.875-  24 2.27  38 2.27   5 2.30  55 2.30
  49  0.250  0.250  0.000-   9 2.27  57 2.27  42 2.30  26 2.30
  50  0.250  0.250  0.500-  10 2.27  58 2.27  41 2.30  25 2.30
  51  0.250  0.750  0.000-  11 2.27  59 2.27  44 2.30  28 2.30
  52  0.250  0.750  0.500-  12 2.27  60 2.27  43 2.30  27 2.30
  53  0.750  0.250  0.000-  13 2.27  61 2.27  46 2.30  30 2.30
  54  0.750  0.250  0.500-  14 2.27  62 2.27  45 2.30  29 2.30
  55  0.750  0.750  0.000-  15 2.27  63 2.27  48 2.30  32 2.30
  56  0.750  0.750  0.500-  16 2.27  64 2.27  47 2.30  31 2.30
  57  0.125  0.125  0.125-   1 2.27  49 2.27  33 2.30  17 2.30
  58  0.125  0.125  0.625-   2 2.27  50 2.27  34 2.30  18 2.30
  59  0.125  0.625  0.125-   3 2.27  51 2.27  35 2.30  19 2.30
  60  0.125  0.625  0.625-   4 2.27  52 2.27  36 2.30  20 2.30
  61  0.625  0.125  0.125-   5 2.27  53 2.27  37 2.30  21 2.30
  62  0.625  0.125  0.625-   6 2.27  54 2.27  38 2.30  22 2.30
  63  0.625  0.625  0.125-   7 2.27  55 2.27  39 2.30  23 2.30
  64  0.625  0.625  0.625-   8 2.27  56 2.27  40 2.30  24 2.30
 
  LATTYP: Found a simple monoclinic cell.
 ALAT       =    10.4512254951
 B/A-ratio  =     1.0151989900
 C/A-ratio  =     1.0152275424
 COS(beta)  =    -0.0151134373
  
  Lattice vectors:
  
 A1 = (  10.4509225434,  -0.0795760118,   0.0000000000)
 A2 = (   0.0000000000,   0.0000000000, -10.6100735669)
 A3 = (  -0.0795760118,  10.6100735669,   0.0000000000)


Analysis of symmetry for initial positions (statically):
=====================================================================
 Subroutine PRICEL returns following result:
 
  LATTYP: Found a base centered monoclinic cell.
 ALAT       =     5.2256127476
 B/A-ratio  =     1.0151989900
 C/A-ratio  =     0.7071067471
 COS(beta)  =    -0.6962572668
  
  Lattice vectors:
  
 A1 = (  -2.6127306358,   0.0198940029,  -2.6525183917)
 A2 = (  -2.6127306358,   0.0198940029,   2.6525183917)
 A3 = (   2.5928366329,   2.6326243888,   0.0000000000)
 
  32 primitive cells build up your supercell.
 

 Routine SETGRP: Setting up the symmetry group for a 
 simple monoclinic supercell.


 Subroutine GETGRP returns: Found  4 space group operations
 (whereof  2 operations were pure point group operations)
 out of a pool of  4 trial point group operations.


The static configuration has the point symmetry C_2 .
 The point group associated with its full space group is C_2h.


Analysis of symmetry for dynamics (positions and initial velocities):
=====================================================================
 Subroutine PRICEL returns following result:
 
  LATTYP: Found a base centered monoclinic cell.
 ALAT       =     5.2256127476
 B/A-ratio  =     1.0151989900
 C/A-ratio  =     0.7071067471
 COS(beta)  =    -0.6962572668
  
  Lattice vectors:
  
 A1 = (  -2.6127306358,   0.0198940029,  -2.6525183917)
 A2 = (  -2.6127306358,   0.0198940029,   2.6525183917)
 A3 = (   2.5928366329,   2.6326243888,   0.0000000000)
 
  32 primitive cells build up your supercell.
 

 Routine SETGRP: Setting up the symmetry group for a 
 simple monoclinic supercell.


 Subroutine GETGRP returns: Found  4 space group operations
 (whereof  2 operations were pure point group operations)
 out of a pool of  4 trial point group operations.


The dynamic configuration has the point symmetry C_2 .
 The point group associated with its full space group is C_2h.


 Subroutine INISYM returns: Found  4 space group operations
 (whereof  2 operations are pure point group operations),
 and found    32 'primitive' translations


----------------------------------------------------------------------------------------

                                     Primitive cell                                     

  volume of cell :      36.7635

  direct lattice vectors                    reciprocal lattice vectors
    -2.612730636  0.019894003 -2.652518392    -0.189946224  0.187075502 -0.188500107
    -2.612730636  0.019894003  2.652518392    -0.189946224  0.187075502  0.188500107
     2.592836633  2.632624389  0.000000000     0.002870741  0.377021744  0.000000000

  length of vectors
     3.723252740  3.723252740  3.695066032     0.326510493  0.326510493  0.377032673

  position of ions in fractional coordinates (direct lattice)
     0.000000000  0.000000000  0.000000000
     0.750000000  0.250000000  0.500000000

  ion indices of the primitive-cell ions
   primitive index   ion index
                 1           1
                 2          15

----------------------------------------------------------------------------------------

 
 
 KPOINTS: Automatic mesh                          

Automatic generation of k-mesh.
 Grid dimensions read from file:
 generate k-points for:    2    2    2

 Generating k-lattice:

  Cartesian coordinates                     Fractional coordinates (reciprocal lattice)
     0.047845399  0.000358843  0.000000000     0.500000000 -0.000000000  0.000000000
     0.000358843  0.047127718  0.000000000    -0.000000000  0.500000000  0.000000000
     0.000000000  0.000000000  0.047125027     0.000000000  0.000000000  0.500000000

  Length of vectors
     0.047846744  0.047129084  0.047125027

  Shift w.r.t. Gamma in fractional coordinates (k-lattice)
     0.000000000  0.000000000  0.000000000

 
 Subroutine IBZKPT returns following result:
 ===========================================
 
 Found      8 irreducible k-points:
 
 Following reciprocal coordinates:
            Coordinates               Weight
  0.000000  0.000000  0.000000      1.000000
  0.500000  0.000000  0.000000      1.000000
  0.000000  0.500000  0.000000      1.000000
  0.500000  0.500000  0.000000      1.000000
  0.000000  0.000000  0.500000      1.000000
  0.500000  0.000000  0.500000      1.000000
  0.000000  0.500000  0.500000      1.000000
  0.500000  0.500000  0.500000      1.000000
 
 Following cartesian coordinates:
            Coordinates               Weight
  0.000000  0.000000  0.000000      1.000000
  0.047845  0.000359  0.000000      1.000000
  0.000359  0.047128  0.000000      1.000000
  0.048204  0.047487  0.000000      1.000000
  0.000000  0.000000  0.047125      1.000000
  0.047845  0.000359  0.047125      1.000000
  0.000359  0.047128  0.047125      1.000000
  0.048204  0.047487  0.047125      1.000000
 


--------------------------------------------------------------------------------------------------------




 Dimension of arrays:
   k-points           NKPTS =      8   k-points in BZ     NKDIM =      8   number of bands    NBANDS=    162
   number of dos      NEDOS =    301   number of ions     NIONS =     64
   non local maximal  LDIM  =      4   non local SUM 2l+1 LMDIM =      8
   total plane-waves  NPLWV = 343000
   max r-space proj   IRMAX =   3263   max aug-charges    IRDMAX=  78177
   dimension x,y,z NGX =    70 NGY =   70 NGZ =   70
   dimension x,y,z NGXF=   140 NGYF=  140 NGZF=  140
   support grid    NGXF=   280 NGYF=  280 NGZF=  280
   ions per type =              64
   NGX,Y,Z   is equivalent  to a cutoff of  11.13, 10.97, 10.97 a.u.
   NGXF,Y,Z  is equivalent  to a cutoff of  22.27, 21.94, 21.94 a.u.

 SYSTEM =  Si64                                    
 POSCAR =  Si8                                     

 Startparameter for this run:
   NWRITE =      2    write-flag & timer
   PREC   = accura    normal or accurate (medium, high low for compatibility)
   ISTART =      0    job   : 0-new  1-cont  2-samecut
   ICHARG =      2    charge: 1-file 2-atom 10-const
   ISPIN  =      1    spin polarized calculation?
   LNONCOLLINEAR =      F non collinear calculations
   LSORBIT =      F    spin-orbit coupling
   INIWAV =      1    electr: 0-lowe 1-rand  2-diag
   LASPH  =      F    aspherical Exc in radial PAW
 Electronic Relaxation 1
   ENCUT  =  400.0 eV  29.40 Ry    5.42 a.u.  17.04 17.30 17.30*2*pi/ulx,y,z
   ENINI  =  400.0     initial cutoff
   ENAUG  =  322.1 eV  augmentation charge cutoff
   NELM   =     60;   NELMIN=  8; NELMDL= -5     # of ELM steps 
   EDIFF  = 0.1E-05   stopping-criterion for ELM
   LREAL  =      T    real-space projection
   NLSPLINE    = F    spline interpolate recip. space projectors
   LCOMPAT=      F    compatible to vasp.4.4
   GGA_COMPAT  = F    GGA compatible to vasp.4.4-vasp.4.6
   LMAXPAW     = -100 max onsite density
   LMAXMIX     =    2 max onsite mixed and CHGCAR
   VOSKOWN=      0    Vosko Wilk Nusair interpolation
   ROPT   =   -0.00025
 Ionic relaxation
   EDIFFG = -.1E-01   stopping-criterion for IOM
   NSW    =     60    number of steps for IOM
   NBLOCK =      1;   KBLOCK =     60    inner block; outer block 
   IBRION =      2    ionic relax: 0-MD 1-quasi-New 2-CG
   NFREE  =      1    steps in history (QN), initial steepest desc. (CG)
   ISIF   =      2    stress and relaxation
   IWAVPR =     11    prediction:  0-non 1-charg 2-wave 3-comb
   ISYM   =      2    0-nonsym 1-usesym 2-fastsym
   LCORR  =      T    Harris-Foulkes like correction to forces

   POTIM  = 0.5000    time-step for ionic-motion
   TEIN   =    0.0    initial temperature
   TEBEG  =    0.0;   TEEND  =   0.0 temperature during run
   SMASS  =  -3.00    Nose mass-parameter (am)
   estimated Nose-frequenzy (Omega)   =  0.10E-29 period in steps = 0.13E+47 mass=  -0.250E-26a.u.
   SCALEE = 1.0000    scale energy and forces
   NPACO  =    256;   APACO  = 10.0  distance and # of slots for P.C.
   PSTRESS=    0.0 pullay stress

  Mass of Ions in am
   POMASS =  28.09
  Ionic Valenz
   ZVAL   =   4.00
  Atomic Wigner-Seitz radii
   RWIGS  =  -1.00
  virtual crystal weights 
   VCA    =   1.00
   NELECT =     256.0000    total number of electrons
   NUPDOWN=      -1.0000    fix difference up-down

 DOS related values:
   EMIN   =  10.00;   EMAX   =-10.00  energy-range for DOS
   EFERMI =   0.00;   METHOD = LEGACY      
   ISMEAR =     1;   SIGMA  =   0.20  broadening in eV -4-tet -1-fermi 0-gaus

 Electronic relaxation 2 (details)
   IALGO  =     68    algorithm
   LDIAG  =      T    sub-space diagonalisation (order eigenvalues)
   LSUBROT=      F    optimize rotation matrix (better conditioning)
   TURBO    =      0    0=normal 1=particle mesh
   IRESTART =      0    0=no restart 2=restart with 2 vectors
   NREBOOT  =      0    no. of reboots
   NMIN     =      0    reboot dimension
   EREF     =   0.00    reference energy to select bands
   IMIX   =      4    mixing-type and parameters
     AMIX     =   0.40;   BMIX     =  1.00
     AMIX_MAG =   1.60;   BMIX_MAG =  1.00
     AMIN     =   0.10
     WC   =   100.;   INIMIX=   1;  MIXPRE=   1;  MAXMIX= -45

 Intra band minimization:
   WEIMIN = 0.0010     energy-eigenvalue tresh-hold
   EBREAK =  0.15E-08  absolut break condition
   DEPER  =   0.30     relativ break condition  

   TIME   =   0.40     timestep for ELM

  volume/ion in A,a.u.               =      18.38       124.05
  Fermi-wavevector in a.u.,A,eV,Ry     =   0.984689  1.860793 13.192390  0.969613
  Thomas-Fermi vector in A             =   2.115941
 
 Write flags
   LWAVE        =      F    write WAVECAR
   LDOWNSAMPLE  =      F    k-point downsampling of WAVECAR
   LCHARG       =      F    write CHGCAR
   LVTOT        =      F    write LOCPOT, total local potential
   LVHAR        =      F    write LOCPOT, Hartree potential only
   WRT_POTENTIAL= false  ! write potential to hdf5 file
   LELF         =      F    write electronic localiz. function (ELF)
   LORBIT       =      0    0 simple, 1 ext, 2 COOP (PROOUT), +10 PAW based schemes


 Dipole corrections
   LMONO      =      F    monopole corrections only (constant potential shift)
   LDIPOL     =      F    correct potential (dipole corrections)
   IDIPOL     =      0    1-x, 2-y, 3-z, 4-all directions 
   EPSILON    =  1.0000000 bulk dielectric constant
   LVACPOTAV  =      F  vacuum potentials using an averaging scheme for the charge density
   VACPOTFLAT =  0.1000000 required flatness to determine vacuum potential
 Exchange correlation treatment:
   GGA     = PS    functional components
   XC_C    = 1    coefficients multiplying the functional components
   LIBXC   =     F    Libxc                    
   VOSKOWN =     0    Vosko Wilk Nusair interpolation
   LHFCALC =     F    Hartree Fock is set to
   LHFONE  =     F    Hartree Fock one center treatment
   AEXX    =    0.0000 exact exchange contribution

 Parameters of functionals:
   PS:
     No parameter
 
 Van der Waals corrections
   IVDW    =     0    specifies the selected vdW correction

 Linear response parameters
   LEPSILON=     F    determine dielectric tensor
   LRPA    =     F    only Hartree local field effects (RPA)
   LNABLA  =     F    use nabla operator in PAW spheres
   LVEL    =     F    velocity operator in full k-point grid
   CSHIFT  =0.1000    complex shift for real part using Kramers Kronig
   OMEGAMAX=  -1.0    maximum frequency
   DEG_THRESHOLD= 0.2000000E-02 threshold for treating states as degnerate
   RTIME   =   -0.100 relaxation time in fs
  (WPLASMAI=    0.000 imaginary part of plasma frequency in eV, 0.658/RTIME)
   DFIELD  = 0.0000000 0.0000000 0.0000000 field for delta impulse in time
 
  Optional k-point grid parameters
   LKPOINTS_OPT  =     F    use optional k-point grid
   KPOINTS_OPT_MODE=     1    mode for optional k-point grid
 
 Orbital magnetization related:
   ORBITALMAG=     F  switch on orbital magnetization
   LCHIMAG   =     F  perturbation theory with respect to B field
   DQ        =  0.001000  dq finite difference perturbation B field
   LLRAUG    =     F  two centre corrections for induced B field
   LBONE     =     F  B-component reconstruction in AE one-centre
   LVGVCALC  =     T  calculate vGv susceptibility
   LVGVAPPL  =     F  apply vGv susceptibility instead of pGv for G=0

 Random number generation:
   RANDOM_GENERATOR = DEFAULT
   PCG_SEED         = not used


--------------------------------------------------------------------------------------------------------


 conjugate gradient relaxation of ions
 charge density and potential will be updated during run
 non-spin polarized calculation
 RMM-DIIS sequential band-by-band and
  variant of blocked Davidson during initial phase
 perform sub-space diagonalisation
    before iterative eigenvector-optimisation
 modified Broyden-mixing scheme, WC =      100.0
 initial mixing is a Kerker type mixing with AMIX =  0.4000 and BMIX =      1.0000
 Hartree-type preconditioning will be used
 using additional bands           34
 real space projection scheme for non local part
 use partial core corrections
 calculate Harris-corrections to forces 
   (improved forces if not selfconsistent)
 use gradient corrections 
 use of overlap-Matrix (Vanderbilt PP)
 Methfessel and Paxton  Order N= 1 SIGMA  =   0.20


--------------------------------------------------------------------------------------------------------


  energy-cutoff  :      400.00
  volume of cell :     1176.43
      direct lattice vectors                 reciprocal lattice vectors
    10.450922543 -0.079576012  0.000000000     0.095690797  0.000717685  0.000000000
    -0.079576012 10.610073567  0.000000000     0.000717685  0.094255436  0.000000000
     0.000000000  0.000000000 10.610073567     0.000000000  0.000000000  0.094250053

  length of vectors
    10.451225495 10.610371974 10.610073567     0.095693489  0.094258168  0.094250053


 
 k-points in units of 2pi/SCALE and weight: Automatic mesh                          
   0.00000000  0.00000000  0.00000000       0.125
   0.04784541  0.00035884  0.00000000       0.125
   0.00035884  0.04712772  0.00000000       0.125
   0.04820425  0.04748657  0.00000000       0.125
   0.00000000  0.00000000  0.04712503       0.125
   0.04784541  0.00035884  0.04712503       0.125
   0.00035884  0.04712772  0.04712503       0.125
   0.04820425  0.04748657  0.04712503       0.125
 
 k-points in reciprocal lattice and weights: Automatic mesh                          
   0.00000000  0.00000000  0.00000000       0.125
   0.50000000  0.00000000  0.00000000       0.125
   0.00000000  0.50000000  0.00000000       0.125
   0.50000000  0.50000000  0.00000000       0.125
   0.00000000  0.00000000  0.50000000       0.125
   0.50000000  0.00000000  0.50000000       0.125
   0.00000000  0.50000000  0.50000000       0.125
   0.50000000  0.50000000  0.50000000       0.125
 
 position of ions in fractional coordinates (direct lattice) 
   0.00000000  0.00000000  0.00000000
   0.00000000  0.00000000  0.50000000
   0.00000000  0.50000000  0.00000000
   0.00000000  0.50000000  0.50000000
   0.50000000  0.00000000  0.00000000
   0.50000000  0.00000000  0.50000000
   0.50000000  0.50000000  0.00000000
   0.50000000  0.50000000  0.50000000
   0.37500000  0.37500000  0.12500000
   0.37500000  0.37500000  0.62500000
   0.37500000  0.87500000  0.12500000
   0.37500000  0.87500000  0.62500000
   0.87500000  0.37500000  0.12500000
   0.87500000  0.37500000  0.62500000
   0.87500000  0.87500000  0.12500000
   0.87500000  0.87500000  0.62500000
   0.00000000  0.25000000  0.25000000
   0.00000000  0.25000000  0.75000000
   0.00000000  0.75000000  0.25000000
   0.00000000  0.75000000  0.75000000
   0.50000000  0.25000000  0.25000000
   0.50000000  0.25000000  0.75000000
   0.50000000  0.75000000  0.25000000
   0.50000000  0.75000000  0.75000000
   0.37500000  0.12500000  0.37500000
   0.37500000  0.12500000  0.87500000
   0.37500000  0.62500000  0.37500000
   0.37500000  0.62500000  0.87500000
   0.87500000  0.12500000  0.37500000
   0.87500000  0.12500000  0.87500000
   0.87500000  0.62500000  0.37500000
   0.87500000  0.62500000  0.87500000
   0.25000000  0.00000000  0.25000000
   0.25000000  0.00000000  0.75000000
   0.25000000  0.50000000  0.25000000
   0.25000000  0.50000000  0.75000000
   0.75000000  0.00000000  0.25000000
   0.75000000  0.00000000  0.75000000
   0.75000000  0.50000000  0.25000000
   0.75000000  0.50000000  0.75000000
   0.12500000  0.37500000  0.37500000
   0.12500000  0.37500000  0.87500000
   0.12500000  0.87500000  0.37500000
   0.12500000  0.87500000  0.87500000
   0.62500000  0.37500000  0.37500000
   0.62500000  0.37500000  0.87500000
   0.62500000  0.87500000  0.37500000
   0.62500000  0.87500000  0.87500000
   0.25000000  0.25000000  0.00000000
   0.25000000  0.25000000  0.50000000
   0.25000000  0.75000000  0.00000000
   0.25000000  0.75000000  0.50000000
   0.75000000  0.25000000  0.00000000
   0.75000000  0.25000000  0.50000000
   0.75000000  0.75000000  0.00000000
   0.75000000  0.75000000  0.50000000
   0.12500000  0.12500000  0.12500000
   0.12500000  0.12500000  0.62500000
   0.12500000  0.62500000  0.12500000
   0.12500000  0.62500000  0.62500000
   0.62500000  0.12500000  0.12500000
   0.62500000  0.12500000  0.62500000
   0.62500000  0.62500000  0.12500000
   0.62500000  0.62500000  0.62500000
 
 position of ions in cartesian coordinates  (Angst):
   0.00000000  0.00000000  0.00000000
   0.00000000  0.00000000  5.30503678
  -0.03978801  5.30503678  0.00000000
  -0.03978801  5.30503678  5.30503678
   5.22546127 -0.03978801  0.00000000
   5.22546127 -0.03978801  5.30503678
   5.18567327  5.26524878  0.00000000
   5.18567327  5.26524878  5.30503678
   3.88925495  3.94893658  1.32625920
   3.88925495  3.94893658  6.63129598
   3.84946694  9.25397337  1.32625920
   3.84946694  9.25397337  6.63129598
   9.11471622  3.90914858  1.32625920
   9.11471622  3.90914858  6.63129598
   9.07492822  9.21418536  1.32625920
   9.07492822  9.21418536  6.63129598
  -0.01989400  2.65251839  2.65251839
  -0.01989400  2.65251839  7.95755518
  -0.05968201  7.95755518  2.65251839
  -0.05968201  7.95755518  7.95755518
   5.20556727  2.61273039  2.65251839
   5.20556727  2.61273039  7.95755518
   5.16577926  7.91776717  2.65251839
   5.16577926  7.91776717  7.95755518
   3.90914895  1.29641819  3.97877759
   3.90914895  1.29641819  9.28381437
   3.86936095  6.60145497  3.97877759
   3.86936095  6.60145497  9.28381437
   9.13461022  1.25663019  3.97877759
   9.13461022  1.25663019  9.28381437
   9.09482222  6.56166697  3.97877759
   9.09482222  6.56166697  9.28381437
   2.61273064 -0.01989400  2.65251839
   2.61273064 -0.01989400  7.95755518
   2.57294263  5.28514278  2.65251839
   2.57294263  5.28514278  7.95755518
   7.83819191 -0.05968201  2.65251839
   7.83819191 -0.05968201  7.95755518
   7.79840390  5.24535477  2.65251839
   7.79840390  5.24535477  7.95755518
   1.27652431  3.96883059  3.97877759
   1.27652431  3.96883059  9.28381437
   1.23673631  9.27386737  3.97877759
   1.23673631  9.27386737  9.28381437
   6.50198559  3.92904258  3.97877759
   6.50198559  3.92904258  9.28381437
   6.46219758  9.23407936  3.97877759
   6.46219758  9.23407936  9.28381437
   2.59283663  2.63262439  0.00000000
   2.59283663  2.63262439  5.30503678
   2.55304863  7.93766117  0.00000000
   2.55304863  7.93766117  5.30503678
   7.81829790  2.59283638  0.00000000
   7.81829790  2.59283638  5.30503678
   7.77850990  7.89787317  0.00000000
   7.77850990  7.89787317  5.30503678
   1.29641832  1.31631219  1.32625920
   1.29641832  1.31631219  6.63129598
   1.25663031  6.62134898  1.32625920
   1.25663031  6.62134898  6.63129598
   6.52187959  1.27652419  1.32625920
   6.52187959  1.27652419  6.63129598
   6.48209158  6.58156097  1.32625920
   6.48209158  6.58156097  6.63129598
 


--------------------------------------------------------------------------------------------------------


 k-point     1 :   0.0000 0.0000 0.0000  plane waves:   21381
 k-point     2 :   0.5000 0.0000 0.0000  plane waves:   21394
 k-point     3 :   0.0000 0.5000 0.0000  plane waves:   21344
 k-point     4 :   0.5000 0.5000 0.0000  plane waves:   21362
 k-point     5 :   0.0000 0.0000 0.5000  plane waves:   21370
 k-point     6 :   0.5000 0.0000 0.5000  plane waves:   21372
 k-point     7 :   0.0000 0.5000 0.5000  plane waves:   21348
 k-point     8 :   0.5000 0.5000 0.5000  plane waves:   21368

 maximum and minimum number of plane-waves per node :      1813     1750

 maximum number of plane-waves:     21394
 maximum index in each direction: 
   IXMAX=   17   IYMAX=   17   IZMAX=   17
   IXMIN=  -17   IYMIN=  -17   IZMIN=  -17


 real space projection operators:
  total allocation   :      12479.50 KBytes
  max/ min on nodes  :       1080.75        902.75


 parallel 3D FFT for wavefunctions:
    minimum data exchange during FFTs selected (reduces bandwidth)
 parallel 3D FFT for charge:
    minimum data exchange during FFTs selected (reduces bandwidth)


 total amount of memory used by VASP MPI-rank0    78759. kBytes
=======================================================================

   base      :      30000. kBytes
   nonlr-proj:       4834. kBytes
   fftplans  :      17991. kBytes
   grid      :       6881. kBytes
   one-center:         18. kBytes
   wavefun   :      19035. kBytes
 
     INWAV:  cpu time      0.0000: real time      0.0000
 Broyden mixing: mesh for mixing (old mesh)
   NGX = 35   NGY = 35   NGZ = 35
  (NGX  =140   NGY  =140   NGZ  =140)
  gives a total of  42875 points

 initial charge density was supplied:
 charge density of overlapping atoms calculated
 number of electron     256.0000000 magnetization 
 keeping initial charge density in first step


--------------------------------------------------------------------------------------------------------


 Maximum index for non-local projection operator          292
 Maximum index for augmentation-charges         3891 (set IRDMAX)


--------------------------------------------------------------------------------------------------------


 First call to EWALD:  gamma=   0.168
 Maximum number of real-space cells 3x 3x 3
 Maximum number of reciprocal cells 3x 3x 3

    FEWALD:  cpu time      0.0072: real time      0.0072


--------------------------------------- Ionic step        1  -------------------------------------------




--------------------------------------- Iteration      1(   1)  ---------------------------------------


    POTLOK:  cpu time      0.0931: real time      0.1003
    SETDIJ:  cpu time      0.0869: real time      0.0909
     EDDAV:  cpu time      1.2747: real time      1.3515
       DOS:  cpu time      0.0098: real time      0.0121
    --------------------------------------------
      LOOP:  cpu time      1.4645: real time      1.5548

 eigenvalue-minimisations  :  2592
 total energy-change (2. order) : 0.5760519E+03  (-0.8527098E+04)
 number of electron     256.0000000 magnetization 
 augmentation part      256.0000000 magnetization 

 Free energy of the ion-electron system (eV)
  ---------------------------------------------------
  alpha Z        PSCENC =       117.20545772
  Ewald energy   TEWEN  =     -7524.21441200
  -Hartree energ DENC   =      -312.44145831
  -exchange      EXHF   =         0.00000000
  -V(xc)+E(xc)   XCENC  =      -548.37111036
  PAW double counting   =      5598.62625415    -4492.17844134
  entropy T*S    EENTRO =         0.02180097
  eigenvalues    EBANDS =      1172.60791739
  atomic energy  EATOM  =      6564.79586099
  Solvation  Ediel_sol  =         0.00000000
  ---------------------------------------------------
  free energy    TOTEN  =       576.05186923 eV

  energy without entropy =      576.03006825  energy(sigma->0) =      576.04460224


--------------------------------------------------------------------------------------------------------




--------------------------------------- Iteration      1(   2)  ---------------------------------------


     EDDAV:  cpu time      1.3763: real time      1.3839
       DOS:  cpu time      0.0020: real time      0.0021
    --------------------------------------------
      LOOP:  cpu time      1.3783: real time      1.3860

 eigenvalue-minimisations  :  3088
 total energy-change (2. order) :-0.8849337E+03  (-0.8390289E+03)
 number of electron     256.0000000 magnetization 
 augmentation part      256.0000000 magnetization 

 Free energy of the ion-electron system (eV)
  ---------------------------------------------------
  alpha Z        PSCENC =       117.20545772
  Ewald energy   TEWEN  =     -7524.21441200
  -Hartree energ DENC   =      -312.44145831
  -exchange      EXHF   =         0.00000000
  -V(xc)+E(xc)   XCENC  =      -548.37111036
  PAW double counting   =      5598.62625415    -4492.17844134
  entropy T*S    EENTRO =         0.00639459
  eigenvalues    EBANDS =       287.68962438
  atomic energy  EATOM  =      6564.79586099
  Solvation  Ediel_sol  =         0.00000000
  ---------------------------------------------------
  free energy    TOTEN  =      -308.88183017 eV

  energy without entropy =     -308.88822476  energy(sigma->0) =     -308.88396170


--------------------------------------------------------------------------------------------------------




--------------------------------------- Iteration      1(   3)  ---------------------------------------


     EDDAV:  cpu time      1.3550: real time      1.3684
       DOS:  cpu time      0.0012: real time      0.0013
    --------------------------------------------
      LOOP:  cpu time      1.3562: real time      1.3697

 eigenvalue-minimisations  :  3136
 total energy-change (2. order) :-0.6282205E+02  (-0.6146861E+02)
 number of electron     256.0000000 magnetization 
 augmentation part      256.0000000 magnetization 

 Free energy of the ion-electron system (eV)
  ---------------------------------------------------
  alpha Z        PSCENC =       117.20545772
  Ewald energy   TEWEN  =     -7524.21441200
  -Hartree energ DENC   =      -312.44145831
  -exchange      EXHF   =         0.00000000
  -V(xc)+E(xc)   XCENC  =      -548.37111036
  PAW double counting   =      5598.62625415    -4492.17844134
  entropy T*S    EENTRO =         0.00791678
  eigenvalues    EBANDS =       224.86604730
  atomic energy  EATOM  =      6564.79586099
  Solvation  Ediel_sol  =         0.00000000
  ---------------------------------------------------
  free energy    TOTEN  =      -371.70388506 eV

  energy without entropy =     -371.71180184  energy(sigma->0) =     -371.70652398


--------------------------------------------------------------------------------------------------------




--------------------------------------- Iteration      1(   4)  ---------------------------------------


     EDDAV:  cpu time      1.3466: real time      1.3640
       DOS:  cpu time      0.0016: real time      0.0016
    --------------------------------------------
      LOOP:  cpu time      1.3482: real time      1.3656

 eigenvalue-minimisations  :  3128
 total energy-change (2. order) :-0.1623661E+01  (-0.1611246E+01)
 number of electron     256.0000000 magnetization 
 augmentation part      256.0000000 magnetization 

 Free energy of the ion-electron system (eV)
  ---------------------------------------------------
  alpha Z        PSCENC =       117.20545772
  Ewald energy   TEWEN  =     -7524.21441200
  -Hartree energ DENC   =      -312.44145831
  -exchange      EXHF   =         0.00000000
  -V(xc)+E(xc)   XCENC  =      -548.37111036
  PAW double counting   =      5598.62625415    -4492.17844134
  entropy T*S    EENTRO =         0.00830839
  eigenvalues    EBANDS =       223.24199478
  atomic energy  EATOM  =      6564.79586099
  Solvation  Ediel_sol  =         0.00000000
  ---------------------------------------------------
  free energy    TOTEN  =      -373.32754597 eV

  energy without entropy =     -373.33585436  energy(sigma->0) =     -373.33031543


--------------------------------------------------------------------------------------------------------




--------------------------------------- Iteration      1(   5)  ---------------------------------------


     EDDAV:  cpu time      1.3207: real time      1.3396
       DOS:  cpu time      0.0013: real time      0.0013
    CHARGE:  cpu time      0.2508: real time      0.2545
    MIXING:  cpu time      0.0089: real time      0.0100
    --------------------------------------------
      LOOP:  cpu time      1.5817: real time      1.6054

 eigenvalue-minimisations  :  3088
 total energy-change (2. order) :-0.5017893E-01  (-0.5006423E-01)
 number of electron     255.9999998 magnetization 
 augmentation part      -15.1762368 magnetization 

 Broyden mixing:
  rms(total) = 0.31417E+01    rms(broyden)= 0.31417E+01
  rms(prec ) = 0.34563E+01
  weight for this iteration     100.00

 Free energy of the ion-electron system (eV)
  ---------------------------------------------------
  alpha Z        PSCENC =       117.20545772
  Ewald energy   TEWEN  =     -7524.21441200
  -Hartree energ DENC   =      -312.44145831
  -exchange      EXHF   =         0.00000000
  -V(xc)+E(xc)   XCENC  =      -548.37111036
  PAW double counting   =      5598.62625415    -4492.17844134
  entropy T*S    EENTRO =         0.00829990
  eigenvalues    EBANDS =       223.19182435
  atomic energy  EATOM  =      6564.79586099
  Solvation  Ediel_sol  =         0.00000000
  ---------------------------------------------------
  free energy    TOTEN  =      -373.37772489 eV

  energy without entropy =     -373.38602479  energy(sigma->0) =     -373.38049152


--------------------------------------------------------------------------------------------------------




--------------------------------------- Iteration      1(   6)  ---------------------------------------


    POTLOK:  cpu time      0.0751: real time      0.0904
    SETDIJ:  cpu time      0.0734: real time      0.0737
    EDDIAG:  cpu time      0.1365: real time      0.1383
  RMM-DIIS:  cpu time      0.7072: real time      0.7104
    ORTHCH:  cpu time      0.0187: real time      0.0188
       DOS:  cpu time      0.0021: real time      0.0021
    CHARGE:  cpu time      0.2358: real time      0.2365
    MIXING:  cpu time      0.0060: real time      0.0082
    --------------------------------------------
      LOOP:  cpu time      1.2549: real time      1.2783

 eigenvalue-minimisations  :  2592
 total energy-change (2. order) : 0.6376561E+01  (-0.3403731E+00)
 number of electron     255.9999998 magnetization 
 augmentation part      -14.9809355 magnetization 

 Broyden mixing:
  rms(total) = 0.18981E+01    rms(broyden)= 0.18981E+01
  rms(prec ) = 0.20729E+01
  weight for this iteration     100.00

 eigenvalues of (default mixing * dielectric matrix)
  average eigenvalue GAMMA=   2.5193
  2.5193

 Free energy of the ion-electron system (eV)
  ---------------------------------------------------
  alpha Z        PSCENC =       117.20545772
  Ewald energy   TEWEN  =     -7524.21441200
  -Hartree energ DENC   =      -362.91764772
  -exchange      EXHF   =         0.00000000
  -V(xc)+E(xc)   XCENC  =      -540.36358353
  PAW double counting   =     13600.15172670   -12497.94098946
  entropy T*S    EENTRO =         0.02532050
  eigenvalues    EBANDS =       276.25710247
  atomic energy  EATOM  =      6564.79586099
  Solvation  Ediel_sol  =         0.00000000
  ---------------------------------------------------
  free energy    TOTEN  =      -367.00116432 eV

  energy without entropy =     -367.02648482  energy(sigma->0) =     -367.00960449


--------------------------------------------------------------------------------------------------------




--------------------------------------- Iteration      1(   7)  ---------------------------------------


    POTLOK:  cpu time      0.0717: real time      0.0877
    SETDIJ:  cpu time      0.0746: real time      0.0749
    EDDIAG:  cpu time      0.1311: real time      0.1315
  RMM-DIIS:  cpu time      0.7134: real time      0.7158
    ORTHCH:  cpu time      0.0190: real time      0.0191
       DOS:  cpu time      0.0022: real time      0.0022
    CHARGE:  cpu time      0.2355: real time      0.2362
    MIXING:  cpu time      0.0061: real time      0.0076
    --------------------------------------------
      LOOP:  cpu time      1.2538: real time      1.2749

 eigenvalue-minimisations  :  2652
 total energy-change (2. order) : 0.2726921E+01  (-0.8544319E+00)
 number of electron     255.9999998 magnetization 
 augmentation part      -14.7055519 magnetization 

 Broyden mixing:
  rms(total) = 0.12655E+00    rms(broyden)= 0.12655E+00
  rms(prec ) = 0.15886E+00
  weight for this iteration     100.00

 eigenvalues of (default mixing * dielectric matrix)
  average eigenvalue GAMMA=   2.3162
  2.3162  2.3162

 Free energy of the ion-electron system (eV)
  ---------------------------------------------------
  alpha Z        PSCENC =       117.20545772
  Ewald energy   TEWEN  =     -7524.21441200
  -Hartree energ DENC   =      -445.89526442
  -exchange      EXHF   =         0.00000000
  -V(xc)+E(xc)   XCENC  =      -526.60582395
  PAW double counting   =     33656.26136358   -32560.03419141
  entropy T*S    EENTRO =         0.01837077
  eigenvalues    EBANDS =       354.19439504
  atomic energy  EATOM  =      6564.79586099
  Solvation  Ediel_sol  =         0.00000000
  ---------------------------------------------------
  free energy    TOTEN  =      -364.27424368 eV

  energy without entropy =     -364.29261446  energy(sigma->0) =     -364.28036727


--------------------------------------------------------------------------------------------------------




--------------------------------------- Iteration      1(   8)  ---------------------------------------


    POTLOK:  cpu time      0.0789: real time      0.0942
    SETDIJ:  cpu time      0.0738: real time      0.0740
    EDDIAG:  cpu time      0.1342: real time      0.1349
  RMM-DIIS:  cpu time      0.7149: real time      0.7174
    ORTHCH:  cpu time      0.0188: real time      0.0189
       DOS:  cpu time      0.0021: real time      0.0022
    CHARGE:  cpu time      0.2350: real time      0.2357
    MIXING:  cpu time      0.0079: real time      0.0079
    --------------------------------------------
      LOOP:  cpu time      1.2657: real time      1.2851

 eigenvalue-minimisations  :  2614
 total energy-change (2. order) :-0.2850504E-01  (-0.7893046E-01)
 number of electron     255.9999998 magnetization 
 augmentation part      -14.7682223 magnetization 

 Broyden mixing:
  rms(total) = 0.56929E-01    rms(broyden)= 0.56928E-01
  rms(prec ) = 0.61432E-01
  weight for this iteration     100.00

 eigenvalues of (default mixing * dielectric matrix)
  average eigenvalue GAMMA=   2.0601
  2.5603  1.8101  1.8101

 Free energy of the ion-electron system (eV)
  ---------------------------------------------------
  alpha Z        PSCENC =       117.20545772
  Ewald energy   TEWEN  =     -7524.21441200
  -Hartree energ DENC   =      -435.65285986
  -exchange      EXHF   =         0.00000000
  -V(xc)+E(xc)   XCENC  =      -527.48748684
  PAW double counting   =     33455.89890848   -32358.49116010
  entropy T*S    EENTRO =         0.02351723
  eigenvalues    EBANDS =       343.61942564
  atomic energy  EATOM  =      6564.79586099
  Solvation  Ediel_sol  =         0.00000000
  ---------------------------------------------------
  free energy    TOTEN  =      -364.30274872 eV

  energy without entropy =     -364.32626595  energy(sigma->0) =     -364.31058780


--------------------------------------------------------------------------------------------------------




--------------------------------------- Iteration      1(   9)  ---------------------------------------


    POTLOK:  cpu time      0.0738: real time      0.0886
    SETDIJ:  cpu time      0.0745: real time      0.0747
    EDDIAG:  cpu time      0.1337: real time      0.1341
  RMM-DIIS:  cpu time      0.7135: real time      0.7160
    ORTHCH:  cpu time      0.0189: real time      0.0189
       DOS:  cpu time      0.0024: real time      0.0024
    CHARGE:  cpu time      0.2378: real time      0.2385
    MIXING:  cpu time      0.0059: real time      0.0059
    --------------------------------------------
      LOOP:  cpu time      1.2605: real time      1.2792

 eigenvalue-minimisations  :  2672
 total energy-change (2. order) :-0.2414267E-01  (-0.2395517E-01)
 number of electron     255.9999998 magnetization 
 augmentation part      -14.7511657 magnetization 

 Broyden mixing:
  rms(total) = 0.63090E-01    rms(broyden)= 0.63090E-01
  rms(prec ) = 0.72096E-01
  weight for this iteration     100.00

 eigenvalues of (default mixing * dielectric matrix)
  average eigenvalue GAMMA=   1.7282
  2.5551  2.0416  2.0416  0.2746

 Free energy of the ion-electron system (eV)
  ---------------------------------------------------
  alpha Z        PSCENC =       117.20545772
  Ewald energy   TEWEN  =     -7524.21441200
  -Hartree energ DENC   =      -439.59183950
  -exchange      EXHF   =         0.00000000
  -V(xc)+E(xc)   XCENC  =      -526.96666573
  PAW double counting   =     33957.00000377   -32859.94322491
  entropy T*S    EENTRO =         0.02212400
  eigenvalues    EBANDS =       347.36580427
  atomic energy  EATOM  =      6564.79586099
  Solvation  Ediel_sol  =         0.00000000
  ---------------------------------------------------
  free energy    TOTEN  =      -364.32689139 eV

  energy without entropy =     -364.34901539  energy(sigma->0) =     -364.33426605


--------------------------------------------------------------------------------------------------------




--------------------------------------- Iteration      1(  10)  ---------------------------------------


    POTLOK:  cpu time      0.0711: real time      0.0892
    SETDIJ:  cpu time      0.0759: real time      0.0761
    EDDIAG:  cpu time      0.1317: real time      0.1321
  RMM-DIIS:  cpu time      0.7144: real time      0.7169
    ORTHCH:  cpu time      0.0185: real time      0.0185
       DOS:  cpu time      0.0027: real time      0.0027
    CHARGE:  cpu time      0.2362: real time      0.2370
    MIXING:  cpu time      0.0068: real time      0.0068
    --------------------------------------------
      LOOP:  cpu time      1.2572: real time      1.2793

 eigenvalue-minimisations  :  2701
 total energy-change (2. order) :-0.5283163E-02  (-0.4361703E-02)
 number of electron     255.9999998 magnetization 
 augmentation part      -14.7569101 magnetization 

 Broyden mixing:
  rms(total) = 0.93321E-01    rms(broyden)= 0.93321E-01
  rms(prec ) = 0.10166E+00
  weight for this iteration     100.00

 eigenvalues of (default mixing * dielectric matrix)
  average eigenvalue GAMMA=   1.6510
  2.6756  2.3547  1.7380  0.7435  0.7435

 Free energy of the ion-electron system (eV)
  ---------------------------------------------------
  alpha Z        PSCENC =       117.20545772
  Ewald energy   TEWEN  =     -7524.21441200
  -Hartree energ DENC   =      -439.88127544
  -exchange      EXHF   =         0.00000000
  -V(xc)+E(xc)   XCENC  =      -526.93547626
  PAW double counting   =     34030.64759779   -32933.60208786
  entropy T*S    EENTRO =         0.02196433
  eigenvalues    EBANDS =       347.63019618
  atomic energy  EATOM  =      6564.79586099
  Solvation  Ediel_sol  =         0.00000000
  ---------------------------------------------------
  free energy    TOTEN  =      -364.33217455 eV

  energy without entropy =     -364.35413888  energy(sigma->0) =     -364.33949599


--------------------------------------------------------------------------------------------------------




--------------------------------------- Iteration      1(  11)  ---------------------------------------


    POTLOK:  cpu time      0.0845: real time      0.0939
    SETDIJ:  cpu time      0.0731: real time      0.0733
    EDDIAG:  cpu time      0.1339: real time      0.1343
  RMM-DIIS:  cpu time      0.7031: real time      0.7055
    ORTHCH:  cpu time      0.0186: real time      0.0186
       DOS:  cpu time      0.0025: real time      0.0025
    CHARGE:  cpu time      0.2365: real time      0.2372
    MIXING:  cpu time      0.0075: real time      0.0075
    --------------------------------------------
      LOOP:  cpu time      1.2597: real time      1.2728

 eigenvalue-minimisations  :  2592
 total energy-change (2. order) : 0.5677808E-02  (-0.1638299E-02)
 number of electron     255.9999998 magnetization 
 augmentation part      -14.7728310 magnetization 

 Broyden mixing:
  rms(total) = 0.55210E-01    rms(broyden)= 0.55210E-01
  rms(prec ) = 0.55669E-01
  weight for this iteration     100.00

 eigenvalues of (default mixing * dielectric matrix)
  average eigenvalue GAMMA=   1.5066
  2.5974  2.5974  1.5199  1.2163  0.7915  0.3173

 Free energy of the ion-electron system (eV)
  ---------------------------------------------------
  alpha Z        PSCENC =       117.20545772
  Ewald energy   TEWEN  =     -7524.21441200
  -Hartree energ DENC   =      -436.81532058
  -exchange      EXHF   =         0.00000000
  -V(xc)+E(xc)   XCENC  =      -527.18227327
  PAW double counting   =     33880.64047930   -32783.31361239
  entropy T*S    EENTRO =         0.02355829
  eigenvalues    EBANDS =       344.53376520
  atomic energy  EATOM  =      6564.79586099
  Solvation  Ediel_sol  =         0.00000000
  ---------------------------------------------------
  free energy    TOTEN  =      -364.32649674 eV

  energy without entropy =     -364.35005503  energy(sigma->0) =     -364.33434950


--------------------------------------------------------------------------------------------------------




--------------------------------------- Iteration      1(  12)  ---------------------------------------


    POTLOK:  cpu time      0.0814: real time      0.0973
    SETDIJ:  cpu time      0.0730: real time      0.0733
    EDDIAG:  cpu time      0.1309: real time      0.1316
  RMM-DIIS:  cpu time      0.7191: real time      0.7213
    ORTHCH:  cpu time      0.0190: real time      0.0191
       DOS:  cpu time      0.0021: real time      0.0021
    CHARGE:  cpu time      0.2375: real time      0.2382
    MIXING:  cpu time      0.0069: real time      0.0069
    --------------------------------------------
      LOOP:  cpu time      1.2699: real time      1.2895

 eigenvalue-minimisations  :  2622
 total energy-change (2. order) :-0.2107657E-03  (-0.1921170E-03)
 number of electron     255.9999998 magnetization 
 augmentation part      -14.7755946 magnetization 

 Broyden mixing:
  rms(total) = 0.52195E-01    rms(broyden)= 0.52195E-01
  rms(prec ) = 0.52470E-01
  weight for this iteration     100.00

 eigenvalues of (default mixing * dielectric matrix)
  average eigenvalue GAMMA=   1.4608
  2.6000  2.6000  1.9102  1.0535  0.8877  0.4549  0.7194

 Free energy of the ion-electron system (eV)
  ---------------------------------------------------
  alpha Z        PSCENC =       117.20545772
  Ewald energy   TEWEN  =     -7524.21441200
  -Hartree energ DENC   =      -436.73072072
  -exchange      EXHF   =         0.00000000
  -V(xc)+E(xc)   XCENC  =      -527.20050141
  PAW double counting   =     33800.79349174   -32703.47786209
  entropy T*S    EENTRO =         0.02358203
  eigenvalues    EBANDS =       344.47839622
  atomic energy  EATOM  =      6564.79586099
  Solvation  Ediel_sol  =         0.00000000
  ---------------------------------------------------
  free energy    TOTEN  =      -364.32670751 eV

  energy without entropy =     -364.35028954  energy(sigma->0) =     -364.33456818


--------------------------------------------------------------------------------------------------------




--------------------------------------- Iteration      1(  13)  ---------------------------------------


    POTLOK:  cpu time      0.0804: real time      0.0971
    SETDIJ:  cpu time      0.0732: real time      0.0734
    EDDIAG:  cpu time      0.1350: real time      0.1357
  RMM-DIIS:  cpu time      0.7210: real time      0.7233
    ORTHCH:  cpu time      0.0187: real time      0.0188
       DOS:  cpu time      0.0025: real time      0.0025
    CHARGE:  cpu time      0.2356: real time      0.2363
    MIXING:  cpu time      0.0078: real time      0.0078
    --------------------------------------------
      LOOP:  cpu time      1.2744: real time      1.2949

 eigenvalue-minimisations  :  2700
 total energy-change (2. order) :-0.7166869E-04  (-0.3557642E-04)
 number of electron     255.9999998 magnetization 
 augmentation part      -14.7762292 magnetization 

 Broyden mixing:
  rms(total) = 0.59332E-01    rms(broyden)= 0.59332E-01
  rms(prec ) = 0.59573E-01
  weight for this iteration     100.00

 eigenvalues of (default mixing * dielectric matrix)
  average eigenvalue GAMMA=   1.7458
  3.0093  3.0093  2.3214  2.3214  0.9677  0.9178  0.9178  0.5016

 Free energy of the ion-electron system (eV)
  ---------------------------------------------------
  alpha Z        PSCENC =       117.20545772
  Ewald energy   TEWEN  =     -7524.21441200
  -Hartree energ DENC   =      -436.77900912
  -exchange      EXHF   =         0.00000000
  -V(xc)+E(xc)   XCENC  =      -527.18623086
  PAW double counting   =     33867.54948010   -32770.23773289
  entropy T*S    EENTRO =         0.02358551
  eigenvalues    EBANDS =       344.51622137
  atomic energy  EATOM  =      6564.79586099
  Solvation  Ediel_sol  =         0.00000000
  ---------------------------------------------------
  free energy    TOTEN  =      -364.32677917 eV

  energy without entropy =     -364.35036468  energy(sigma->0) =     -364.33464101


--------------------------------------------------------------------------------------------------------




--------------------------------------- Iteration      1(  14)  ---------------------------------------


    POTLOK:  cpu time      0.0824: real time      0.0960
    SETDIJ:  cpu time      0.0727: real time      0.0730
    EDDIAG:  cpu time      0.1315: real time      0.1320
  RMM-DIIS:  cpu time      0.6964: real time      0.6986
    ORTHCH:  cpu time      0.0187: real time      0.0187
       DOS:  cpu time      0.0023: real time      0.0023
    CHARGE:  cpu time      0.2361: real time      0.2368
    MIXING:  cpu time      0.0065: real time      0.0065
    --------------------------------------------
      LOOP:  cpu time      1.2465: real time      1.2640

 eigenvalue-minimisations  :  2608
 total energy-change (2. order) : 0.1080089E-04  (-0.9681478E-05)
 number of electron     255.9999998 magnetization 
 augmentation part      -14.7761143 magnetization 

 Broyden mixing:
  rms(total) = 0.20702E-01    rms(broyden)= 0.20702E-01
  rms(prec ) = 0.21002E-01
  weight for this iteration     100.00

 eigenvalues of (default mixing * dielectric matrix)
  average eigenvalue GAMMA=   1.5460
  2.6790  2.6790  2.4939  2.1429  0.9739  0.9238  0.9238  0.5487  0.5487

 Free energy of the ion-electron system (eV)
  ---------------------------------------------------
  alpha Z        PSCENC =       117.20545772
  Ewald energy   TEWEN  =     -7524.21441200
  -Hartree energ DENC   =      -436.63425005
  -exchange      EXHF   =         0.00000000
  -V(xc)+E(xc)   XCENC  =      -527.23194998
  PAW double counting   =     33507.08151884   -32409.78934992
  entropy T*S    EENTRO =         0.02358898
  eigenvalues    EBANDS =       344.43676703
  atomic energy  EATOM  =      6564.79586099
  Solvation  Ediel_sol  =         0.00000000
  ---------------------------------------------------
  free energy    TOTEN  =      -364.32676837 eV

  energy without entropy =     -364.35035735  energy(sigma->0) =     -364.33463137


--------------------------------------------------------------------------------------------------------




--------------------------------------- Iteration      1(  15)  ---------------------------------------


    POTLOK:  cpu time      0.0780: real time      0.0891
    SETDIJ:  cpu time      0.0767: real time      0.0769
    EDDIAG:  cpu time      0.1328: real time      0.1334
  RMM-DIIS:  cpu time      0.7138: real time      0.7160
    ORTHCH:  cpu time      0.0185: real time      0.0185
       DOS:  cpu time      0.0026: real time      0.0027
    CHARGE:  cpu time      0.2364: real time      0.2371
    MIXING:  cpu time      0.0070: real time      0.0070
    --------------------------------------------
      LOOP:  cpu time      1.2658: real time      1.2806

 eigenvalue-minimisations  :  2631
 total energy-change (2. order) :-0.4577994E-04  (-0.4340617E-05)
 number of electron     255.9999998 magnetization 
 augmentation part      -14.7764365 magnetization 

 Broyden mixing:
  rms(total) = 0.13682E-01    rms(broyden)= 0.13682E-01
  rms(prec ) = 0.13876E-01
  weight for this iteration     100.00

 eigenvalues of (default mixing * dielectric matrix)
  average eigenvalue GAMMA=   1.5015
  2.7208  2.7208  2.2400  2.1283  0.8958  0.8958  1.0143  1.0143  0.8783  0.5062

 Free energy of the ion-electron system (eV)
  ---------------------------------------------------
  alpha Z        PSCENC =       117.20545772
  Ewald energy   TEWEN  =     -7524.21441200
  -Hartree energ DENC   =      -436.60431248
  -exchange      EXHF   =         0.00000000
  -V(xc)+E(xc)   XCENC  =      -527.23004785
  PAW double counting   =     33491.01995745   -32393.72610419
  entropy T*S    EENTRO =         0.02363605
  eigenvalues    EBANDS =       344.40315014
  atomic energy  EATOM  =      6564.79586099
  Solvation  Ediel_sol  =         0.00000000
  ---------------------------------------------------
  free energy    TOTEN  =      -364.32681415 eV

  energy without entropy =     -364.35045021  energy(sigma->0) =     -364.33469284


--------------------------------------------------------------------------------------------------------




--------------------------------------- Iteration      1(  16)  ---------------------------------------


    POTLOK:  cpu time      0.0744: real time      0.0902
    SETDIJ:  cpu time      0.0760: real time      0.0764
    EDDIAG:  cpu time      0.1328: real time      0.1332
  RMM-DIIS:  cpu time      0.7051: real time      0.7072
    ORTHCH:  cpu time      0.0190: real time      0.0190
       DOS:  cpu time      0.0026: real time      0.0028
    CHARGE:  cpu time      0.2367: real time      0.2374
    MIXING:  cpu time      0.0070: real time      0.0071
    --------------------------------------------
      LOOP:  cpu time      1.2536: real time      1.2733

 eigenvalue-minimisations  :  2593
 total energy-change (2. order) :-0.2771779E-04  (-0.1887870E-05)
 number of electron     255.9999998 magnetization 
 augmentation part      -14.7763131 magnetization 

 Broyden mixing:
  rms(total) = 0.99069E-02    rms(broyden)= 0.99068E-02
  rms(prec ) = 0.99784E-02
  weight for this iteration     100.00

 eigenvalues of (default mixing * dielectric matrix)
  average eigenvalue GAMMA=   1.3683
  2.7197  2.7197  2.2460  2.1171  0.8982  0.8982  1.0157  1.0157  0.8784  0.5065
  0.0357

 Free energy of the ion-electron system (eV)
  ---------------------------------------------------
  alpha Z        PSCENC =       117.20545772
  Ewald energy   TEWEN  =     -7524.21441200
  -Hartree energ DENC   =      -436.68066515
  -exchange      EXHF   =         0.00000000
  -V(xc)+E(xc)   XCENC  =      -527.21933851
  PAW double counting   =     33507.85459720   -32410.56050798
  entropy T*S    EENTRO =         0.02364910
  eigenvalues    EBANDS =       344.46851675
  atomic energy  EATOM  =      6564.79586099
  Solvation  Ediel_sol  =         0.00000000
  ---------------------------------------------------
  free energy    TOTEN  =      -364.32684187 eV

  energy without entropy =     -364.35049097  energy(sigma->0) =     -364.33472491


--------------------------------------------------------------------------------------------------------




--------------------------------------- Iteration      1(  17)  ---------------------------------------


    POTLOK:  cpu time      0.0793: real time      0.0928
    SETDIJ:  cpu time      0.0780: real time      0.0785
    EDDIAG:  cpu time      0.1353: real time      0.1357
  RMM-DIIS:  cpu time      0.6448: real time      0.6470
    ORTHCH:  cpu time      0.0188: real time      0.0189
       DOS:  cpu time      0.0023: real time      0.0023
    CHARGE:  cpu time      0.2355: real time      0.2363
    MIXING:  cpu time      0.0075: real time      0.0076
    --------------------------------------------
      LOOP:  cpu time      1.2015: real time      1.2189

 eigenvalue-minimisations  :  2429
 total energy-change (2. order) :-0.5069654E-05  (-0.6739220E-06)
 number of electron     255.9999998 magnetization 
 augmentation part      -14.7761187 magnetization 

 Broyden mixing:
  rms(total) = 0.28837E-02    rms(broyden)= 0.28837E-02
  rms(prec ) = 0.29185E-02
  weight for this iteration     100.00

 eigenvalues of (default mixing * dielectric matrix)
  average eigenvalue GAMMA=   1.6787
  2.2165  2.2165  2.8373  2.8373  2.4784  1.9750  1.0305  1.0305  1.0545  1.0545
  0.9019  0.5117

 Free energy of the ion-electron system (eV)
  ---------------------------------------------------
  alpha Z        PSCENC =       117.20545772
  Ewald energy   TEWEN  =     -7524.21441200
  -Hartree energ DENC   =      -436.70989196
  -exchange      EXHF   =         0.00000000
  -V(xc)+E(xc)   XCENC  =      -527.22016021
  PAW double counting   =     33468.13415673   -32370.84014861
  entropy T*S    EENTRO =         0.02365479
  eigenvalues    EBANDS =       344.49863560
  atomic energy  EATOM  =      6564.79586099
  Solvation  Ediel_sol  =         0.00000000
  ---------------------------------------------------
  free energy    TOTEN  =      -364.32684694 eV

  energy without entropy =     -364.35050173  energy(sigma->0) =     -364.33473187


--------------------------------------------------------------------------------------------------------




--------------------------------------- Iteration      1(  18)  ---------------------------------------


    POTLOK:  cpu time      0.0769: real time      0.0942
    SETDIJ:  cpu time      0.0730: real time      0.0732
    EDDIAG:  cpu time      0.1326: real time      0.1331
  RMM-DIIS:  cpu time      0.4526: real time      0.4540
    ORTHCH:  cpu time      0.0189: real time      0.0190
       DOS:  cpu time      0.0022: real time      0.0022
    --------------------------------------------
      LOOP:  cpu time      0.7562: real time      0.7757

 eigenvalue-minimisations  :  1568
 total energy-change (2. order) : 0.1248200E-06  (-0.1098147E-06)
 number of electron     255.9999998 magnetization 
 augmentation part      -14.7761187 magnetization 

 Free energy of the ion-electron system (eV)
  ---------------------------------------------------
  alpha Z        PSCENC =       117.20545772
  Ewald energy   TEWEN  =     -7524.21441200
  -Hartree energ DENC   =      -436.70511602
  -exchange      EXHF   =         0.00000000
  -V(xc)+E(xc)   XCENC  =      -527.22236528
  PAW double counting   =     33449.60631840   -32352.31206878
  entropy T*S    EENTRO =         0.02365971
  eigenvalues    EBANDS =       344.49581843
  atomic energy  EATOM  =      6564.79586099
  Solvation  Ediel_sol  =         0.00000000
  ---------------------------------------------------
  free energy    TOTEN  =      -364.32684682 eV

  energy without entropy =     -364.35050653  energy(sigma->0) =     -364.33473339


--------------------------------------------------------------------------------------------------------




 average (electrostatic) potential at core
  the test charge radii are     0.9892
  (the norm of the test charge is              1.0000)
       1 -82.0511       2 -82.0511       3 -82.0511       4 -82.0511       5 -82.0511
       6 -82.0511       7 -82.0511       8 -82.0511       9 -82.0510      10 -82.0510
      11 -82.0510      12 -82.0510      13 -82.0510      14 -82.0510      15 -82.0510
      16 -82.0510      17 -82.0511      18 -82.0511      19 -82.0511      20 -82.0511
      21 -82.0511      22 -82.0511      23 -82.0511      24 -82.0511      25 -82.0510
      26 -82.0510      27 -82.0510      28 -82.0510      29 -82.0510      30 -82.0510
      31 -82.0510      32 -82.0510      33 -82.0511      34 -82.0511      35 -82.0511
      36 -82.0511      37 -82.0511      38 -82.0511      39 -82.0511      40 -82.0511
      41 -82.0510      42 -82.0510      43 -82.0510      44 -82.0510      45 -82.0510
      46 -82.0510      47 -82.0510      48 -82.0510      49 -82.0511      50 -82.0511
      51 -82.0511      52 -82.0511      53 -82.0511      54 -82.0511      55 -82.0511
      56 -82.0511      57 -82.0510      58 -82.0510      59 -82.0510      60 -82.0510
      61 -82.0510      62 -82.0510      63 -82.0510      64 -82.0510
 
 
 
 E-fermi :   6.8565     XC(G=0):  -9.8839     alpha+bet :-13.0480

 val. band max:        6.7720734715   @ k =   0.0000   0.0000   0.0000
 cond. band min:       6.9513025633   @ k =   0.5000   0.0000   0.0000
 fundamental gap:      0.1792290919
 Fermi energy:         6.8564666743

 k-point     1 :       0.0000    0.0000    0.0000
  band No.  band energies     occupation 
      1      -5.9115      2.00000
      2      -4.7540      2.00000
      3      -4.7540      2.00000
      4      -4.7535      2.00000
      5      -4.7535      2.00000
      6      -4.7227      2.00000
      7      -4.7227      2.00000
      8      -3.7285      2.00000
      9      -3.7285      2.00000
     10      -3.7048      2.00000
     11      -3.7048      2.00000
     12      -3.7047      2.00000
     13      -3.7047      2.00000
     14      -3.6821      2.00000
     15      -3.6821      2.00000
     16      -3.6821      2.00000
     17      -3.6821      2.00000
     18      -3.6344      2.00000
     19      -3.6344      2.00000
     20      -3.3888      2.00000
     21      -3.3888      2.00000
     22      -3.2801      2.00000
     23      -3.2801      2.00000
     24      -1.5251      2.00000
     25      -1.4635      2.00000
     26      -1.4635      2.00000
     27      -1.4042      2.00000
     28      -1.3623      2.00000
     29      -1.3623      2.00000
     30      -1.3106      2.00000
     31      -1.3106      2.00000
     32      -1.2770      2.00000
     33      -1.2770      2.00000
     34      -1.2056      2.00000
     35      -1.2056      2.00000
     36      -1.2056      2.00000
     37      -1.2056      2.00000
     38      -1.1663      2.00000
     39      -1.1663      2.00000
     40      -1.1342      2.00000
     41      -1.1342      2.00000
     42      -0.7611      2.00000
     43      -0.7611      2.00000
     44      -0.7445      2.00000
     45      -0.7445      2.00000
     46       0.9814      2.00000
     47       0.9814      2.00000
     48       1.0073      2.00000
     49       1.0073      2.00000
     50       1.0073      2.00000
     51       1.0073      2.00000
     52       1.0317      2.00000
     53       1.0317      2.00000
     54       1.0693      2.00000
     55       1.0693      2.00000
     56       1.0693      2.00000
     57       1.0693      2.00000
     58       2.3948      2.00000
     59       2.3948      2.00000
     60       2.3984      2.00000
     61       2.3984      2.00000
     62       2.4060      2.00000
     63       2.4060      2.00000
     64       2.4092      2.00000
     65       2.4092      2.00000
     66       2.4092      2.00000
     67       2.4092      2.00000
     68       2.4110      2.00000
     69       2.4110      2.00000
     70       2.4970      2.00000
     71       2.4970      2.00000
     72       2.5168      2.00000
     73       2.5168      2.00000
     74       2.5168      2.00000
     75       2.5168      2.00000
     76       2.5348      2.00000
     77       2.5348      2.00000
     78       2.6081      2.00000
     79       2.6081      2.00000
     80       2.6081      2.00000
     81       2.6081      2.00000
     82       3.1383      2.00000
     83       3.1384      2.00000
     84       3.1421      2.00000
     85       3.1421      2.00000
     86       3.2595      2.00000
     87       3.2595      2.00000
     88       3.5033      2.00000
     89       3.5033      2.00000
     90       3.5381      2.00000
     91       3.6290      2.00000
     92       3.6290      2.00000
     93       3.7210      2.00000
     94       4.5533      2.00000
     95       4.5533      2.00000
     96       4.5534      2.00000
     97       4.5534      2.00000
     98       4.5693      2.00000
     99       4.5693      2.00000
    100       4.6337      2.00000
    101       4.6337      2.00000
    102       4.6671      2.00000
    103       4.6671      2.00000
    104       4.7344      2.00000
    105       4.7344      2.00000
    106       5.1702      2.00000
    107       5.1702      2.00000
    108       5.1702      2.00000
    109       5.1702      2.00000
    110       5.2556      2.00000
    111       5.2556      2.00000
    112       5.2952      2.00000
    113       5.2952      2.00000
    114       5.2991      2.00000
    115       5.2991      2.00000
    116       5.2991      2.00000
    117       5.2991      2.00000
    118       5.3453      2.00000
    119       5.3453      2.00000
    120       5.3772      2.00000
    121       5.3772      2.00000
    122       5.4531      2.00000
    123       5.4531      2.00000
    124       5.5311      2.00000
    125       5.5311      2.00000
    126       6.6512      2.05527
    127       6.6547      2.05202
    128       6.7721      1.64856
    129       7.0143      0.02551
    130       7.0143      0.02551
    131       7.0476     -0.03977
    132       7.1413     -0.06169
    133       7.1413     -0.06169
    134       7.2374     -0.02148
    135       7.5561     -0.00001
    136       7.5561     -0.00001
    137       7.6800     -0.00000
    138       7.6800     -0.00000
    139       7.6808     -0.00000
    140       7.6808     -0.00000
    141       8.3764     -0.00000
    142       8.3764     -0.00000
    143       8.5187     -0.00000
    144       8.5188     -0.00000
    145       8.9847     -0.00000
    146       8.9851     -0.00000
    147       8.9858     -0.00000
    148       8.9880     -0.00000
    149       9.0826     -0.00000
    150       9.0843     -0.00000
    151       9.1050     -0.00000
    152       9.1327     -0.00000
    153       9.1330     -0.00000
    154       9.1343     -0.00000
    155       9.1373     -0.00000
    156       9.1886     -0.00000
    157       9.1908     -0.00000
    158       9.2471     -0.00000
    159       9.3734     -0.00000
    160       9.6574     -0.00000
    161       9.7167     -0.00000
    162       9.7921     -0.00000

 k-point     2 :       0.5000    0.0000    0.0000
  band No.  band energies     occupation 
      1      -5.6117      2.00000
      2      -5.6117      2.00000
      3      -4.5015      2.00000
      4      -4.5015      2.00000
      5      -4.4785      2.00000
      6      -4.4785      2.00000
      7      -4.4784      2.00000
      8      -4.4784      2.00000
      9      -4.4545      2.00000
     10      -4.4545      2.00000
     11      -3.5741      2.00000
     12      -3.5741      2.00000
     13      -3.5741      2.00000
     14      -3.5741      2.00000
     15      -3.5099      2.00000
     16      -3.5099      2.00000
     17      -3.5099      2.00000
     18      -3.5099      2.00000
     19      -3.2807      2.00000
     20      -3.2807      2.00000
     21      -2.5558      2.00000
     22      -2.5558      2.00000
     23      -2.4885      2.00000
     24      -2.4885      2.00000
     25      -2.4885      2.00000
     26      -2.4885      2.00000
     27      -2.4197      2.00000
     28      -2.4197      2.00000
     29      -1.4255      2.00000
     30      -1.4255      2.00000
     31      -1.4039      2.00000
     32      -1.4039      2.00000
     33      -1.3122      2.00000
     34      -1.3122      2.00000
     35      -1.2927      2.00000
     36      -1.2927      2.00000
     37      -0.1584      2.00000
     38      -0.1584      2.00000
     39      -0.1092      2.00000
     40      -0.1092      2.00000
     41      -0.1092      2.00000
     42      -0.1092      2.00000
     43      -0.0635      2.00000
     44      -0.0635      2.00000
     45      -0.0558      2.00000
     46      -0.0558      2.00000
     47      -0.0558      2.00000
     48      -0.0558      2.00000
     49      -0.0359      2.00000
     50      -0.0359      2.00000
     51      -0.0359      2.00000
     52      -0.0359      2.00000
     53       0.8899      2.00000
     54       0.8899      2.00000
     55       1.9719      2.00000
     56       1.9719      2.00000
     57       1.9742      2.00000
     58       1.9742      2.00000
     59       1.9742      2.00000
     60       1.9742      2.00000
     61       1.9766      2.00000
     62       1.9766      2.00000
     63       2.2671      2.00000
     64       2.2671      2.00000
     65       2.2807      2.00000
     66       2.2807      2.00000
     67       2.2807      2.00000
     68       2.2807      2.00000
     69       2.2996      2.00000
     70       2.2996      2.00000
     71       2.8755      2.00000
     72       2.8755      2.00000
     73       2.9134      2.00000
     74       2.9134      2.00000
     75       2.9409      2.00000
     76       2.9409      2.00000
     77       2.9800      2.00000
     78       2.9800      2.00000
     79       3.6543      2.00000
     80       3.6543      2.00000
     81       3.6895      2.00000
     82       3.6895      2.00000
     83       3.6895      2.00000
     84       3.6895      2.00000
     85       3.7179      2.00000
     86       3.7179      2.00000
     87       3.7707      2.00000
     88       3.7707      2.00000
     89       3.7711      2.00000
     90       3.7711      2.00000
     91       3.8656      2.00000
     92       3.8656      2.00000
     93       3.8971      2.00000
     94       3.8971      2.00000
     95       3.8971      2.00000
     96       3.8971      2.00000
     97       3.9278      2.00000
     98       3.9278      2.00000
     99       4.0788      2.00000
    100       4.0788      2.00000
    101       4.0788      2.00000
    102       4.0788      2.00000
    103       4.1642      2.00000
    104       4.1642      2.00000
    105       4.1642      2.00000
    106       4.1642      2.00000
    107       5.1540      2.00000
    108       5.1540      2.00000
    109       5.1540      2.00000
    110       5.1540      2.00000
    111       5.1552      2.00000
    112       5.1552      2.00000
    113       5.1578      2.00000
    114       5.1578      2.00000
    115       5.2222      2.00000
    116       5.2222      2.00000
    117       5.2222      2.00000
    118       5.2222      2.00000
    119       5.2766      2.00000
    120       5.2766      2.00000
    121       5.2766      2.00000
    122       5.2766      2.00000
    123       5.4916      2.00000
    124       5.4916      2.00000
    125       5.7443      2.00000
    126       5.7443      2.00000
    127       5.7483      2.00000
    128       5.7483      2.00000
    129       6.9513      0.28882
    130       6.9513      0.28882
    131       7.8968     -0.00000
    132       7.8968     -0.00000
    133       8.4512     -0.00000
    134       8.4512     -0.00000
    135       8.5648     -0.00000
    136       8.5648     -0.00000
    137       8.5658     -0.00000
    138       8.5658     -0.00000
    139       8.5818     -0.00000
    140       8.5819     -0.00000
    141       8.6979     -0.00000
    142       8.6982     -0.00000
    143       9.0098     -0.00000
    144       9.0106     -0.00000
    145       9.0125     -0.00000
    146       9.0173     -0.00000
    147       9.0907     -0.00000
    148       9.0907     -0.00000
    149       9.0910     -0.00000
    150       9.0940     -0.00000
    151       9.0977     -0.00000
    152       9.1125     -0.00000
    153       9.1483     -0.00000
    154       9.1496     -0.00000
    155       9.1544     -0.00000
    156       9.1727     -0.00000
    157       9.2186     -0.00000
    158       9.2380     -0.00000
    159       9.3769     -0.00000
    160       9.4394     -0.00000
    161       9.4608     -0.00000
    162       9.5409     -0.00000

 k-point     3 :       0.0000    0.5000    0.0000
  band No.  band energies     occupation 
[...]
  0.000   0.000   4.167   0.000   0.000   7.761   0.000   0.000
 -0.001  -0.001   0.000   4.167   0.000   0.000   7.761   0.000
  0.000   0.000   0.000   0.000   4.167   0.000   0.000   7.761
  0.000   0.000   7.761   0.000   0.000  14.468   0.000   0.000
 -0.002  -0.002   0.000   7.761   0.000   0.000  14.468   0.000
  0.000   0.000   0.000   0.000   7.761   0.000   0.000  14.468
 total augmentation occupancy for first ion, spin component:           1
  6.685  -2.701  -0.000   0.039   0.000   0.000  -0.015   0.000
 -2.701   1.199  -0.000  -0.020   0.000   0.000   0.007   0.000
 -0.000  -0.000   3.274   0.000  -0.001  -0.759   0.000   0.002
  0.039  -0.020   0.000   3.275   0.000   0.000  -0.759   0.000
  0.000   0.000  -0.001   0.000   3.242   0.002   0.000  -0.746
  0.000   0.000  -0.759   0.000   0.002   0.185   0.000  -0.001
 -0.015   0.007   0.000  -0.759   0.000   0.000   0.186   0.000
  0.000   0.000   0.002  -0.000  -0.746  -0.001   0.000   0.182


------------------------ aborting loop because EDIFF is reached ----------------------------------------


    CHARGE:  cpu time      0.2561: real time      0.2569
    FORLOC:  cpu time      0.0220: real time      0.0220
    FORNL :  cpu time      0.7035: real time      0.7057
    STRESS:  cpu time      2.1715: real time      2.1792
    FORCOR:  cpu time      0.0841: real time      0.0844
    FORHAR:  cpu time      0.0339: real time      0.0342
    MIXING:  cpu time      0.0042: real time      0.0042
    OFIELD:  cpu time      0.0000: real time      0.0000

  FORCE on cell =-STRESS in cart. coord.  units (eV):
  Direction    XX          YY          ZZ          XY          YZ          ZX
  --------------------------------------------------------------------------------------
  Alpha Z   117.20546   117.20546   117.20546
  Ewald   -2543.01685 -2490.88306 -2490.83999     5.52517    -0.00000     0.00000
  Hartree   140.20525   148.12893   147.99820     6.05843    -0.00000    -0.00000
  E(xc)    -834.48371  -834.98555  -835.00699     0.03002    -0.00000    -0.00000
  Local    -852.50273  -914.10007  -914.23601   -12.81610    -0.00000    -0.00000
  n-local  2536.90081  2545.08677  2545.47412    -1.06722    -0.00000     0.00000
  augment  -370.39250  -370.42013  -370.45204    -0.44149     0.00000     0.00000
  Kinetic  1884.67873  1870.19138  1869.93584    10.80517    -0.00001    -0.00000
  Fock        0.00000     0.00000     0.00000     0.00000     0.00000     0.00000
  -------------------------------------------------------------------------------------
  Total      78.59446    70.22373    70.07858     8.09398     0.00000     0.00000
  in kB     107.03749    95.63742    95.43975    11.02317     0.00000     0.00000
  external pressure =       99.37 kB  Pullay stress =        0.00 kB


 VOLUME and BASIS-vectors are now :
 -----------------------------------------------------------------------------
  energy-cutoff  :      400.00
  volume of cell :     1176.43
      direct lattice vectors                 reciprocal lattice vectors
    10.450922543 -0.079576012  0.000000000     0.095690797  0.000717685  0.000000000
    -0.079576012 10.610073567  0.000000000     0.000717685  0.094255436  0.000000000
     0.000000000  0.000000000 10.610073567     0.000000000  0.000000000  0.094250053

  length of vectors
    10.451225495 10.610371974 10.610073567     0.095693489  0.094258168  0.094250053


 FORCES acting on ions
    electron-ion (+dipol)            ewald-force                    non-local-force                 convergence-correction
 -----------------------------------------------------------------------------------------------
   -.262E-08 -.239E-08 0.125E+01   0.173E-13 -.444E-15 -.882E+00   -.221E-20 -.303E-20 -.364E+00   -.327E-13 0.273E-14 -.208E-04
   -.262E-08 -.239E-08 0.125E+01   0.204E-13 0.888E-15 -.882E+00   -.751E-21 0.107E-19 -.364E+00   0.467E-13 -.188E-13 -.208E-04
   -.262E-08 -.239E-08 0.125E+01   0.933E-14 0.444E-14 -.882E+00   -.166E-20 0.323E-20 -.364E+00   -.307E-13 -.420E-14 -.208E-04
   -.262E-08 -.239E-08 0.125E+01   0.533E-14 0.888E-14 -.882E+00   0.513E-20 0.176E-20 -.364E+00   0.362E-13 0.195E-13 -.208E-04
   -.262E-08 -.239E-08 0.125E+01   0.173E-13 0.844E-14 -.882E+00   -.201E-20 -.245E-20 -.364E+00   0.513E-13 0.353E-13 -.208E-04
   -.262E-08 -.239E-08 0.125E+01   0.138E-13 -.266E-14 -.882E+00   0.472E-20 -.652E-20 -.364E+00   -.505E-13 -.491E-13 -.208E-04
   -.262E-08 -.239E-08 0.125E+01   -.142E-13 -.133E-14 -.882E+00   -.181E-21 -.401E-20 -.364E+00   0.427E-13 -.370E-13 -.208E-04
   -.262E-08 -.239E-08 0.125E+01   0.355E-14 -.355E-14 -.882E+00   -.520E-22 0.163E-19 -.364E+00   -.353E-13 0.477E-13 -.208E-04
   0.439E-08 0.387E-08 -.125E+01   0.355E-14 0.888E-14 0.882E+00   0.937E-22 0.115E-19 0.364E+00   -.818E-14 -.352E-13 0.208E-04
   0.439E-08 0.387E-08 -.125E+01   0.355E-14 0.000E+00 0.882E+00   -.137E-20 -.158E-19 0.364E+00   0.264E-14 0.308E-13 0.208E-04
   0.439E-08 0.387E-08 -.125E+01   0.711E-14 0.533E-14 0.882E+00   0.207E-20 -.238E-20 0.364E+00   0.251E-13 0.267E-13 0.208E-04
   0.439E-08 0.387E-08 -.125E+01   0.711E-14 0.711E-14 0.882E+00   -.344E-20 -.102E-19 0.364E+00   -.308E-13 -.397E-13 0.208E-04
   0.439E-08 0.387E-08 -.125E+01   0.888E-15 0.888E-14 0.882E+00   0.244E-20 -.602E-20 0.364E+00   -.988E-15 -.435E-14 0.208E-04
   0.439E-08 0.387E-08 -.125E+01   -.355E-14 0.355E-14 0.882E+00   -.908E-21 -.192E-20 0.364E+00   -.152E-13 0.170E-13 0.208E-04
   0.439E-08 0.387E-08 -.125E+01   0.178E-14 0.222E-14 0.882E+00   0.189E-21 0.193E-19 0.364E+00   -.314E-13 -.351E-14 0.208E-04
   0.439E-08 0.387E-08 -.125E+01   0.124E-13 0.178E-14 0.882E+00   -.208E-20 -.104E-19 0.364E+00   0.174E-13 -.230E-13 0.208E-04
   -.262E-08 -.239E-08 0.125E+01   0.133E-13 -.155E-13 -.882E+00   0.780E-21 -.232E-20 -.364E+00   0.346E-13 -.761E-15 -.208E-04
   -.262E-08 -.239E-08 0.125E+01   0.355E-13 -.107E-13 -.882E+00   -.181E-20 -.648E-20 -.364E+00   -.322E-13 0.192E-13 -.208E-04
   -.262E-08 -.239E-08 0.125E+01   0.888E-14 -.977E-14 -.882E+00   0.296E-20 -.631E-20 -.364E+00   0.127E-13 0.127E-13 -.208E-04
   -.262E-08 -.239E-08 0.125E+01   0.888E-14 -.115E-13 -.882E+00   0.630E-21 0.458E-21 -.364E+00   -.142E-13 -.234E-13 -.208E-04
   -.262E-08 -.239E-08 0.125E+01   -.133E-14 -.182E-13 -.882E+00   -.323E-21 0.195E-20 -.364E+00   -.362E-13 -.458E-13 -.208E-04
   -.262E-08 -.239E-08 0.125E+01   0.235E-13 -.115E-13 -.882E+00   0.184E-20 0.301E-20 -.364E+00   0.452E-13 0.449E-13 -.208E-04
   -.262E-08 -.239E-08 0.125E+01   0.000E+00 -.533E-14 -.882E+00   0.149E-20 -.376E-20 -.364E+00   -.447E-14 0.398E-13 -.208E-04
   -.262E-08 -.239E-08 0.125E+01   -.355E-14 -.107E-13 -.882E+00   -.958E-21 0.286E-20 -.364E+00   0.201E-13 -.392E-13 -.208E-04
   0.439E-08 0.387E-08 -.125E+01   0.266E-14 -.497E-14 0.882E+00   -.136E-20 -.113E-20 0.364E+00   -.487E-13 -.389E-13 0.208E-04
   0.439E-08 0.387E-08 -.125E+01   0.977E-14 -.408E-14 0.882E+00   -.522E-20 -.256E-21 0.364E+00   0.545E-13 0.395E-13 0.208E-04
   0.439E-08 0.387E-08 -.125E+01   0.533E-14 0.416E-14 0.882E+00   0.191E-20 -.298E-20 0.364E+00   -.231E-13 0.414E-13 0.208E-04
   0.439E-08 0.387E-08 -.125E+01   0.533E-14 0.350E-14 0.882E+00   0.861E-21 -.895E-20 0.364E+00   0.217E-13 -.380E-13 0.208E-04
   0.439E-08 0.387E-08 -.125E+01   0.147E-13 -.852E-14 0.882E+00   0.261E-20 -.448E-21 0.364E+00   0.395E-13 -.188E-13 0.208E-04
   0.439E-08 0.387E-08 -.125E+01   0.444E-15 -.971E-15 0.882E+00   0.180E-20 -.788E-20 0.364E+00   -.657E-13 0.224E-13 0.208E-04
   0.439E-08 0.387E-08 -.125E+01   0.107E-13 -.100E-13 0.882E+00   0.535E-21 -.115E-20 0.364E+00   0.171E-13 0.280E-13 0.208E-04
   0.439E-08 0.387E-08 -.125E+01   0.355E-14 -.383E-14 0.882E+00   -.403E-20 -.467E-21 0.364E+00   -.399E-13 -.255E-13 0.208E-04
   -.262E-08 -.239E-08 0.125E+01   -.140E-13 0.577E-14 -.882E+00   -.394E-20 0.676E-20 -.364E+00   0.183E-13 -.348E-13 -.208E-04
   -.262E-08 -.239E-08 0.125E+01   -.115E-13 -.755E-14 -.882E+00   -.203E-20 0.113E-19 -.364E+00   -.638E-14 0.259E-13 -.208E-04
   -.262E-08 -.239E-08 0.125E+01   -.444E-15 -.666E-15 -.882E+00   -.524E-23 0.377E-20 -.364E+00   -.164E-13 0.349E-13 -.208E-04
   -.262E-08 -.239E-08 0.125E+01   -.124E-13 0.000E+00 -.882E+00   0.365E-20 -.116E-19 -.364E+00   0.151E-13 -.244E-13 -.208E-04
   -.262E-08 -.239E-08 0.125E+01   -.144E-13 0.488E-14 -.882E+00   -.794E-21 -.237E-20 -.364E+00   -.176E-13 -.600E-13 -.208E-04
   -.262E-08 -.239E-08 0.125E+01   -.888E-15 -.266E-14 -.882E+00   0.284E-20 -.516E-20 -.364E+00   0.100E-14 0.484E-13 -.208E-04
   -.262E-08 -.239E-08 0.125E+01   -.133E-13 -.133E-14 -.882E+00   -.184E-20 0.601E-20 -.364E+00   0.213E-13 0.617E-13 -.208E-04
   -.262E-08 -.239E-08 0.125E+01   -.142E-13 0.711E-14 -.882E+00   -.169E-20 0.607E-20 -.364E+00   -.191E-13 -.437E-13 -.208E-04
   0.439E-08 0.387E-08 -.125E+01   -.143E-13 0.102E-13 0.882E+00   -.933E-21 -.532E-20 0.364E+00   0.192E-13 0.243E-13 0.208E-04
   0.439E-08 0.387E-08 -.125E+01   -.810E-14 0.102E-13 0.882E+00   0.567E-21 -.872E-21 0.364E+00   -.122E-13 -.222E-13 0.208E-04
   0.439E-08 0.387E-08 -.125E+01   -.196E-13 0.164E-13 0.882E+00   0.150E-21 0.234E-20 0.364E+00   0.343E-13 -.320E-13 0.208E-04
   0.439E-08 0.387E-08 -.125E+01   -.125E-13 0.933E-14 0.882E+00   0.169E-20 -.292E-20 0.364E+00   -.258E-13 0.157E-13 0.208E-04
   0.439E-08 0.387E-08 -.125E+01   -.484E-14 0.142E-13 0.882E+00   -.114E-20 0.599E-20 0.364E+00   -.203E-13 0.456E-13 0.208E-04
   0.439E-08 0.387E-08 -.125E+01   -.484E-14 0.107E-13 0.882E+00   0.375E-20 -.103E-19 0.364E+00   0.156E-13 -.482E-13 0.208E-04
   0.439E-08 0.387E-08 -.125E+01   -.705E-14 0.195E-13 0.882E+00   -.168E-20 -.137E-19 0.364E+00   -.388E-13 -.584E-13 0.208E-04
   0.439E-08 0.387E-08 -.125E+01   -.142E-13 0.888E-14 0.882E+00   -.265E-21 -.348E-20 0.364E+00   0.333E-13 0.474E-13 0.208E-04
   -.262E-08 -.239E-08 0.125E+01   0.555E-14 -.155E-14 -.882E+00   0.969E-21 -.725E-21 -.364E+00   0.262E-13 -.228E-13 -.208E-04
   -.262E-08 -.239E-08 0.125E+01   0.222E-14 -.133E-13 -.882E+00   -.308E-20 0.568E-20 -.364E+00   -.144E-13 0.308E-13 -.208E-04
   -.262E-08 -.239E-08 0.125E+01   -.133E-14 -.333E-14 -.882E+00   0.279E-20 0.409E-20 -.364E+00   -.489E-14 0.280E-13 -.208E-04
   -.262E-08 -.239E-08 0.125E+01   -.266E-14 -.400E-14 -.882E+00   -.871E-21 -.180E-19 -.364E+00   0.129E-13 -.258E-13 -.208E-04
   -.262E-08 -.239E-08 0.125E+01   -.777E-14 -.844E-14 -.882E+00   0.257E-20 0.105E-19 -.364E+00   -.383E-13 -.284E-13 -.208E-04
   -.262E-08 -.239E-08 0.125E+01   -.977E-14 -.124E-13 -.882E+00   0.544E-21 -.113E-19 -.364E+00   0.239E-13 0.404E-13 -.208E-04
   -.262E-08 -.239E-08 0.125E+01   -.222E-14 -.622E-14 -.882E+00   0.123E-20 -.128E-20 -.364E+00   -.482E-14 0.329E-13 -.208E-04
   -.262E-08 -.239E-08 0.125E+01   -.355E-14 -.711E-14 -.882E+00   -.421E-20 0.264E-20 -.364E+00   -.810E-14 -.407E-13 -.208E-04
   0.439E-08 0.387E-08 -.125E+01   -.267E-14 -.392E-14 0.882E+00   0.734E-21 0.413E-20 0.364E+00   0.154E-13 -.180E-13 0.208E-04
   0.439E-08 0.387E-08 -.125E+01   -.175E-13 -.818E-14 0.882E+00   0.137E-20 0.278E-21 0.364E+00   0.222E-14 0.263E-13 0.208E-04
   0.439E-08 0.387E-08 -.125E+01   -.131E-13 0.330E-14 0.882E+00   -.109E-20 -.660E-20 0.364E+00   -.128E-13 0.225E-13 0.208E-04
   0.439E-08 0.387E-08 -.125E+01   -.819E-14 -.315E-14 0.882E+00   0.452E-21 0.163E-19 0.364E+00   0.170E-13 -.240E-13 0.208E-04
   0.439E-08 0.387E-08 -.125E+01   -.134E-13 0.667E-14 0.882E+00   -.256E-20 -.968E-20 0.364E+00   -.196E-13 -.495E-13 0.208E-04
   0.439E-08 0.387E-08 -.125E+01   -.427E-14 -.181E-14 0.882E+00   -.181E-20 0.112E-20 0.364E+00   0.348E-14 0.592E-13 0.208E-04
   0.439E-08 0.387E-08 -.125E+01   -.118E-13 0.639E-14 0.882E+00   -.822E-21 0.296E-20 0.364E+00   0.143E-13 0.552E-13 0.208E-04
   0.439E-08 0.387E-08 -.125E+01   -.333E-14 0.144E-13 0.882E+00   0.252E-20 0.666E-20 0.364E+00   -.129E-13 -.566E-13 0.208E-04
 -----------------------------------------------------------------------------------------------
   0.566E-07 0.473E-07 0.406E-06   -.172E-13 -.331E-14 -.476E-13   -.125E-20 -.407E-19 -.150E-14   -.318E-13 -.779E-14 0.253E-09
 
 
 POSITION                                       TOTAL-FORCE (eV/Angst)
 -----------------------------------------------------------------------------------
      0.00000     -0.00000     10.60309         0.000000      0.000000      0.000326
      0.00000     -0.00000      5.29805        -0.000000      0.000000      0.000326
     -0.03979      5.30504     10.60309        -0.000000      0.000000      0.000326
     -0.03979      5.30504      5.29805        -0.000000     -0.000000      0.000326
      5.22546     -0.03979     10.60309         0.000000      0.000000      0.000326
      5.22546     -0.03979      5.29805         0.000000      0.000000      0.000326
      5.18567      5.26525     10.60309        -0.000000     -0.000000      0.000326
      5.18567      5.26525      5.29805         0.000000      0.000000      0.000326
      3.88925      3.94894      1.33325         0.000000     -0.000000     -0.000326
      3.88925      3.94894      6.63828        -0.000000     -0.000000     -0.000326
      3.84947      9.25397      1.33325        -0.000000      0.000000     -0.000326
      3.84947      9.25397      6.63828        -0.000000     -0.000000     -0.000326
      9.11472      3.90915      1.33325        -0.000000     -0.000000     -0.000326
      9.11472      3.90915      6.63828        -0.000000     -0.000000     -0.000326
      9.07493      9.21419      1.33325        -0.000000      0.000000     -0.000326
      9.07493      9.21419      6.63828         0.000000     -0.000000     -0.000326
     -0.01989      2.65252      2.64553        -0.000000     -0.000000      0.000326
     -0.01989      2.65252      7.95057        -0.000000     -0.000000      0.000326
     -0.05968      7.95756      2.64553        -0.000000     -0.000000      0.000326
     -0.05968      7.95756      7.95057         0.000000     -0.000000      0.000326
      5.20557      2.61273      2.64553        -0.000000     -0.000000      0.000326
      5.20557      2.61273      7.95057         0.000000     -0.000000      0.000326
      5.16578      7.91777      2.64553         0.000000      0.000000      0.000326
      5.16578      7.91777      7.95057         0.000000     -0.000000      0.000326
      3.90915      1.29642      3.98576         0.000000      0.000000     -0.000326
      3.90915      1.29642      9.29080        -0.000000     -0.000000     -0.000326
      3.86936      6.60145      3.98576        -0.000000      0.000000     -0.000326
      3.86936      6.60145      9.29080        -0.000000      0.000000     -0.000326
      9.13461      1.25663      3.98576        -0.000000      0.000000     -0.000326
      9.13461      1.25663      9.29080         0.000000      0.000000     -0.000326
      9.09482      6.56167      3.98576         0.000000      0.000000     -0.000326
      9.09482      6.56167      9.29080         0.000000      0.000000     -0.000326
      2.61273     -0.01989      2.64553         0.000000      0.000000      0.000326
      2.61273     -0.01989      7.95057         0.000000      0.000000      0.000326
      2.57294      5.28514      2.64553        -0.000000     -0.000000      0.000326
      2.57294      5.28514      7.95057        -0.000000     -0.000000      0.000326
      7.83819     -0.05968      2.64553         0.000000      0.000000      0.000326
      7.83819     -0.05968      7.95057         0.000000      0.000000      0.000326
      7.79840      5.24535      2.64553         0.000000     -0.000000      0.000326
      7.79840      5.24535      7.95057         0.000000     -0.000000      0.000326
      1.27652      3.96883      3.98576        -0.000000     -0.000000     -0.000326
      1.27652      3.96883      9.29080         0.000000     -0.000000     -0.000326
      1.23674      9.27387      3.98576        -0.000000     -0.000000     -0.000326
      1.23674      9.27387      9.29080        -0.000000      0.000000     -0.000326
      6.50199      3.92904      3.98576        -0.000000     -0.000000     -0.000326
      6.50199      3.92904      9.29080         0.000000     -0.000000     -0.000326
      6.46220      9.23408      3.98576         0.000000     -0.000000     -0.000326
      6.46220      9.23408      9.29080         0.000000      0.000000     -0.000326
      2.59284      2.63262     10.60309        -0.000000     -0.000000      0.000326
      2.59284      2.63262      5.29805         0.000000     -0.000000      0.000326
      2.55305      7.93766     10.60309         0.000000      0.000000      0.000326
      2.55305      7.93766      5.29805        -0.000000     -0.000000      0.000326
      7.81830      2.59284     10.60309        -0.000000     -0.000000      0.000326
      7.81830      2.59284      5.29805         0.000000      0.000000      0.000326
      7.77851      7.89787     10.60309         0.000000      0.000000      0.000326
      7.77851      7.89787      5.29805        -0.000000     -0.000000      0.000326
      1.29642      1.31631      1.33325         0.000000     -0.000000     -0.000326
      1.29642      1.31631      6.63828         0.000000      0.000000     -0.000326
      1.25663      6.62135      1.33325         0.000000      0.000000     -0.000326
      1.25663      6.62135      6.63828         0.000000      0.000000     -0.000326
      6.52188      1.27652      1.33325        -0.000000      0.000000     -0.000326
      6.52188      1.27652      6.63828        -0.000000      0.000000     -0.000326
      6.48209      6.58156      1.33325        -0.000000      0.000000     -0.000326
      6.48209      6.58156      6.63828        -0.000000      0.000000     -0.000326
 -----------------------------------------------------------------------------------
    total drift:                                0.000000      0.000000      0.000000


--------------------------------------------------------------------------------------------------------



  FREE ENERGIE OF THE ION-ELECTRON SYSTEM (eV)
  ---------------------------------------------------
  free  energy   TOTEN  =      -364.37488679 eV

  energy  without entropy=     -364.39294856  energy(sigma->0) =     -364.38090738
 
 d Force = 0.1144608E-01[ 0.710E-04, 0.228E-01]  d Energy = 0.1144359E-01 0.249E-05
 d Force =-0.1721296E+00[-0.192E+00,-0.152E+00]  d Ewald  =-0.1721284E+00-0.125E-05


--------------------------------------------------------------------------------------------------------


    POTLOK:  cpu time      0.1462: real time      0.1466


--------------------------------------------------------------------------------------------------------




--------------------------------------------------------------------------------------------------------


  
 reached required accuracy - stopping structural energy minimisation
     LOOP+:  cpu time     13.0622: real time     13.2554
    4ORBIT:  cpu time      0.0000: real time      0.0000

 total amount of memory used by VASP MPI-rank0    78759. kBytes
=======================================================================

   base      :      30000. kBytes
   nonlr-proj:       4834. kBytes
   fftplans  :      17991. kBytes
   grid      :       6881. kBytes
   one-center:         18. kBytes
   wavefun   :      19035. kBytes
 
  
  
 General timing and accounting informations for this job:
 ========================================================
  
                  Total CPU time used (sec):       58.631
                            User time (sec):       55.574
                          System time (sec):        3.057
                         Elapsed time (sec):       62.410
  
                   Maximum memory used (kb):      399940.
                   Average memory used (kb):          N/A
  
                          Minor page faults:        90779
                          Major page faults:            0
                 Voluntary context switches:         8998
